Membrane in water
40155
    1TCq1    O1    1   1.401   3.642  10.308 -0.0985  0.0755 -0.6332
    1TCq1    C1    2   1.352   3.633  10.436  0.0557 -0.5389  0.2348
    1TCq1    O2    3   1.417   3.654  10.538 -0.5551  0.1314  0.0431
    1TCq1    C2    4   1.247   3.534  10.448  0.5285  0.3159  0.0763
    1TCq1    C3    5   1.191   3.472  10.338  0.2076 -0.2856 -0.2015
    1TCq1    C4    6   1.090   3.379  10.360  0.0393  0.4060  0.2854
    1TCq1    C5    7   1.042   3.346  10.489  0.0982 -0.3074 -1.4471
    1TCq1    C6    8   1.102   3.409  10.596 -0.3981  0.6485 -0.2019
    1TCq1    C7    9   1.205   3.501  10.577 -0.0397 -0.3546 -0.5493
    1TCq1    C8   10   1.064   3.383  10.735  0.0731  0.7318  0.2911
    1TCq1    O4   11   1.112   3.441  10.827 -0.3762  0.1830  0.2834
    1TCq1    C9   12   1.043   3.318  10.242  0.6457 -0.4680  0.1836
    1TCq1    O5   13   0.931   3.264  10.254  0.2002 -0.3211  0.1598
    1TCq1    O6   14   1.103   3.330  10.133 -0.2975 -0.0444  0.1272
    1TCq1    H1   15   1.323   3.630  10.249 -3.3766 -1.2969  4.0222
    1TCq1    H2   16   1.212   3.504  10.237 -1.1013  0.5373 -0.2126
    1TCq1    H3   17   0.964   3.271  10.488  0.6823 -0.9247 -1.0234
    1TCq1    H4   18   1.257   3.548  10.660  0.5626  1.4840 -1.9464
    2MPD2     C   19   0.801   3.091  11.082  0.3659  0.6823  0.1559
    2MPD2    C1   20   0.886   3.202  11.104 -0.5532  0.1304 -0.2045
    2MPD2    C2   21   0.938   3.270  10.995  0.2600 -0.1204  0.0798
    2MPD2    C3   22   0.914   3.224  10.863 -0.0419 -0.0120 -0.0763
    2MPD2    C4   23   0.828   3.120  10.844 -0.8006 -0.4369  0.0064
    2MPD2    C5   24   0.777   3.047  10.952 -0.1232 -0.4374  0.4452
    2MPD2     H   25   1.009   3.349  11.013 -1.0164  0.8144  0.9511
    2MPD2    H1   26   0.801   3.087  10.744  0.0193 -0.0462 -0.3450
    2MPD2    H2   27   0.750   3.030  11.155 -0.5395  1.9748  0.5939
    2MPD2    H3   28   0.726   2.955  10.925 -1.1393  0.2408  0.0166
    2MPD2     N   29   0.979   3.277  10.748 -0.0271 -0.0008 -0.0790
    2MPD2    H5   30   0.942   3.242  10.660  0.4534  2.2186 -1.1667
    2MPD2    N1   31   0.902   3.255  11.236 -0.6391  0.8564  0.3717
    2MPD2    H7   32   0.948   3.345  11.246  0.5396  0.4521 -1.3775
    3TCq1    O1   33   0.675   4.009  10.368  0.2078  0.3040  0.5998
    3TCq1    C1   34   0.661   4.139  10.361  0.4181 -0.0015  0.3413
    3TCq1    O2   35   0.687   4.200  10.257 -0.0738 -0.3618  0.0459
    3TCq1    C2   36   0.703   4.193  10.487 -0.3252  0.5678  0.2944
    3TCq1    C3   37   0.785   4.299  10.485  0.0758  0.0332  0.3463
    3TCq1    C4   38   0.807   4.375  10.601  0.1632 -0.1456 -0.4549
    3TCq1    C5   39   0.744   4.345  10.719  0.1948 -0.5714 -0.0053
    3TCq1    C6   40   0.649   4.244  10.703 -0.2455  0.9956 -0.6932
    3TCq1    C7   41   0.638   4.156  10.601 -0.3633  0.0372  0.6726
    3TCq1    C8   42   0.549   4.234  10.802 -0.4007 -0.8749 -0.1126
    3TCq1    O4   43   0.496   4.128  10.817 -0.2932 -0.8333 -0.4794
    3TCq1    C9   44   0.901   4.485  10.596  0.0498 -0.1782 -0.2840
    3TCq1    O5   45   0.929   4.542  10.698  0.4872 -0.1402  0.1829
    3TCq1    O6   46   0.939   4.533  10.485 -0.0533  0.0031 -0.9118
    3TCq1    H1   47   0.707   3.984  10.457  0.6745  0.0632  0.3602
    3TCq1    H2   48   0.840   4.331  10.397 -1.4576  0.9401 -0.2755
    3TCq1    H3   49   0.749   4.416  10.801 -0.5288 -0.4128 -0.1009
    3TCq1    H4   50   0.564   4.077  10.592 -1.5000  1.0115  1.4679
    4MPD2     C   51   0.275   4.441  11.170  0.0833 -0.1620 -0.0455
    4MPD2    C1   52   0.318   4.540  11.089 -0.5890 -0.3668 -0.0375
    4MPD2    C2   53   0.397   4.509  10.981  0.3567  0.6264  0.4821
    4MPD2    C3   54   0.424   4.379  10.952 -0.2089  0.1259 -0.1131
    4MPD2    C4   55   0.369   4.279  11.029  0.7982  0.4881 -0.2475
    4MPD2    C5   56   0.295   4.311  11.132 -0.2082 -0.5580  0.2276
    4MPD2     H   57   0.433   4.588  10.916  1.1908 -0.7873 -0.7715
    4MPD2    H1   58   0.386   4.174  11.009  1.2347  0.4655  0.2304
    4MPD2    H2   59   0.222   4.456  11.263  0.3803 -0.0130  0.1004
    4MPD2    H3   60   0.256   4.231  11.193 -1.2002  1.5381  2.3250
    4MPD2     N   61   0.518   4.355  10.850 -0.1933  0.0983  0.2148
    4MPD2    H5   62   0.562   4.434  10.803  0.5361  0.1625  1.0018
    4MPD2    N1   63   0.280   4.675  11.108  0.4658 -0.2534  1.1714
    4MPD2    H7   64   0.323   0.017  11.044  2.2214 -1.2092  1.3929
    5TCq1    O1   65   1.241   1.763   9.933  0.0975  0.2050  0.1161
    5TCq1    C1   66   1.115   1.750   9.981 -0.0835 -0.2810 -0.7722
    5TCq1    O2   67   1.041   1.839  10.008  0.2399 -0.6383 -0.4091
    5TCq1    C2   68   1.074   1.610   9.979  0.2046  0.3069 -0.1236
    5TCq1    C3   69   0.950   1.581   9.938  0.1360  0.0351  0.6067
    5TCq1    C4   70   0.884   1.474   9.989 -0.1065 -0.5470 -0.1911
    5TCq1    C5   71   0.954   1.374  10.049  0.3806  0.3966  0.3018
    5TCq1    C6   72   1.085   1.402  10.068 -0.2871 -0.0337  0.7780
    5TCq1    C7   73   1.144   1.523  10.048  0.5022 -0.7328  0.5903
    5TCq1    C8   74   1.169   1.291  10.118 -0.0922  0.2277 -0.2517
    5TCq1    O4   75   1.111   1.194  10.160 -0.8264 -0.0568  0.2417
    5TCq1    C9   76   0.741   1.445   9.944 -0.0440  0.6140 -0.1099
    5TCq1    O5   77   0.686   1.539   9.885  0.1320 -0.4593  0.2858
    5TCq1    O6   78   0.687   1.338   9.980 -0.4230 -0.8664 -0.5919
    5TCq1    H1   79   1.286   1.679   9.912  1.1642  0.9601 -0.6302
    5TCq1    H2   80   0.884   1.645   9.881  0.3151 -1.1559 -0.9463
    5TCq1    H3   81   0.918   1.272  10.063  2.8328 -0.6018 -0.6655
    5TCq1    H4   82   1.240   1.546  10.092  0.4592  1.0491 -0.2749
    6MPD2     C   83   1.509   1.228  10.005  0.1057  0.0010  0.5070
    6MPD2    C1   84   1.397   1.206  10.077 -0.1527 -0.7338 -0.0698
    6MPD2    C2   85   1.385   1.094  10.162  0.4014  0.1270  0.5083
    6MPD2    C3   86   1.491   1.003  10.159 -0.0039 -0.6431  0.4779
    6MPD2    C4   87   1.596   1.020  10.072 -0.9363  0.5170 -0.3008
    6MPD2    C5   88   1.603   1.130   9.991 -0.6216  0.4585  0.1712
    6MPD2     H   89   1.300   1.075  10.226 -1.7020  2.5018 -1.5689
    6MPD2    H1   90   1.684   0.956  10.070 -1.5086 -0.3322  2.3674
    6MPD2    H2   91   1.519   1.319   9.947 -0.7705  0.5655  1.2492
    6MPD2    H3   92   1.690   1.144   9.928 -0.5674 -3.7658 -0.6605
    6MPD2     N   93   1.487   0.886  10.245  0.0161 -0.0308  0.3963
    6MPD2    H5   94   1.398   0.873  10.292  0.7772  0.1790  1.8827
    6MPD2    N1   95   1.298   1.307  10.067 -0.7451  0.3393 -0.3288
    6MPD2    H7   96   1.322   1.386  10.008  0.3477  0.5263  0.3667
    7TCq1    O1   97   2.997   1.367  12.864 -0.1849  0.2080  0.1464
    7TCq1    C1   98   2.977   1.324  12.737 -0.1873 -0.9792 -1.0405
    7TCq1    O2   99   2.995   1.401  12.642 -0.1004  0.6076  0.4550
    7TCq1    C2  100   2.920   1.189  12.731  0.2630 -0.2334  0.2071
    7TCq1    C3  101   2.845   1.144  12.627 -0.3975  0.0391 -0.1089
    7TCq1    C4  102   2.799   1.020  12.632 -0.0579  0.0469  0.1266
    7TCq1    C5  103   2.826   0.941  12.737 -0.3089 -0.1819  0.6280
    7TCq1    C6  104   2.916   0.987  12.831 -0.4080  0.0846  0.0060
    7TCq1    C7  105   2.969   1.110  12.827  0.2843 -0.0435 -0.0512
    7TCq1    C8  106   2.960   0.901  12.936 -0.2873 -0.0806 -0.1305
    7TCq1    O4  107   2.940   0.782  12.913 -0.2456 -0.0566 -0.1242
    7TCq1    C9  108   2.725   0.972  12.524  0.8963  0.2539 -0.0962
    7TCq1    O5  109   2.722   1.036  12.417  0.2471 -0.4650  0.1325
    7TCq1    O6  110   2.662   0.859  12.540 -0.4197  0.0445 -0.2261
    7TCq1    H1  111   2.975   1.303  12.934  1.3558 -1.0944 -0.5699
    7TCq1    H2  112   2.814   1.204  12.543 -0.2721 -0.0553 -0.2231
    7TCq1    H3  113   2.783   0.841  12.737 -1.0384  0.1231 -1.9541
    7TCq1    H4  114   3.049   1.149  12.890  0.6643 -0.2907 -0.3825
    8MPD2     C  115   3.296   0.763  13.302  0.0080 -0.4939  0.1222
    8MPD2    C1  116   3.235   0.686  13.207  0.3265 -0.0940 -0.5885
    8MPD2    C2  117   3.150   0.751  13.115  0.5768 -0.3926 -0.4713
    8MPD2    C3  118   3.120   0.889  13.120  0.9488  0.0588 -1.2591
    8MPD2    C4  119   3.174   0.958  13.224 -0.2852  0.5196 -0.2027
    8MPD2    C5  120   3.263   0.900  13.307  0.5881  0.5804 -0.5298
    8MPD2     H  121   3.116   0.693  13.030  1.0156 -0.5590 -0.5346
    8MPD2    H1  122   3.163   1.065  13.236 -0.8700  0.3926  0.3816
    8MPD2    H2  123   3.371   0.721  13.368  1.1597  2.2488  0.5609
    8MPD2    H3  124   3.309   0.963  13.381  0.0278 -1.0590  1.2058
    8MPD2     N  125   3.031   0.957  13.036  0.4470 -0.5136  0.4008
    8MPD2    H5  126   3.015   1.056  13.043  2.4518 -0.0852 -0.8668
    8MPD2    N1  127   3.284   0.553  13.200 -0.2833 -0.0869 -0.1589
    8MPD2    H7  128   3.347   0.536  13.278 -1.1125  2.5490  1.0818
    9TCq1    O1  129   1.727   3.553  10.581  0.3979 -0.7198 -0.0359
    9TCq1    C1  130   1.673   3.502  10.694  0.2800 -0.5220  0.1228
    9TCq1    O2  131   1.636   3.385  10.712  0.4321 -0.5091 -0.7098
    9TCq1    C2  132   1.686   3.606  10.794  0.4122 -0.1544 -0.0205
    9TCq1    C3  133   1.694   3.573  10.927  0.5057 -0.0112 -0.5380
    9TCq1    C4  134   1.706   3.673  11.019 -0.1144  0.6296  0.0618
    9TCq1    C5  135   1.694   3.805  10.987 -0.2304 -0.1072 -0.1973
    9TCq1    C6  136   1.665   3.829  10.859 -0.0725 -0.6933 -0.0716
    9TCq1    C7  137   1.656   3.739  10.756 -0.1137  0.9015 -0.4330
    9TCq1    C8  138   1.626   3.961  10.826  0.0318  0.4916 -0.3841
    9TCq1    O4  139   1.670   4.003  10.721 -0.1473 -0.0472 -0.1836
    9TCq1    C9  140   1.731   3.636  11.154 -0.4208  0.1185 -0.6051
    9TCq1    O5  141   1.767   3.519  11.172 -0.9397 -0.3700  0.3016
    9TCq1    O6  142   1.746   3.735  11.233  0.1632 -0.0093 -0.5227
    9TCq1    H1  143   1.764   3.641  10.604  1.5051 -0.5670 -2.3835
    9TCq1    H2  144   1.702   3.473  10.969 -0.4954 -0.0032 -0.3196
    9TCq1    H3  145   1.706   3.881  11.064 -0.0559  0.6593 -0.9832
    9TCq1    H4  146   1.633   3.770  10.655 -1.1248  1.1282 -0.1363
   10MPD2     C  147   1.601   4.261  10.881 -0.1204  0.1216  0.8088
   10MPD2    C1  148   1.540   4.161  10.952 -0.0079  0.5213 -0.2232
   10MPD2    C2  149   1.456   4.199  11.061 -0.0251 -0.5275  0.4928
   10MPD2    C3  150   1.436   4.329  11.088  0.2991  0.5882  0.2201
   10MPD2    C4  151   1.503   4.432  11.019  0.1041  0.0599  0.1775
   10MPD2    C5  152   1.573   4.396  10.915 -0.1908  0.5353 -0.3511
   10MPD2     H  153   1.404   4.120  11.114 -1.0364 -0.6806 -0.7191
   10MPD2    H1  154   1.488   4.538  11.033 -1.0293  0.0893 -1.3220
   10MPD2    H2  155   1.656   4.238  10.790 -2.0244  0.1002 -0.3208
   10MPD2    H3  156   1.607   4.472  10.846  1.5503 -2.2361 -2.5823
   10MPD2     N  157   1.333   4.369  11.183  0.1053  0.3496 -0.1418
   10MPD2    H5  158   1.314   4.467  11.204 -0.0174  0.8394 -2.5392
   10MPD2    N1  159   1.561   4.026  10.931  0.2905  0.2029  0.1777
   10MPD2    H7  160   1.531   3.969  11.010  1.8779 -0.3738  0.3638
   11TCq1    O1  161   1.705   4.169  14.566  0.2170 -0.3323  0.1611
   11TCq1    C1  162   1.651   4.122  14.457 -0.1149 -0.3619  0.0572
   11TCq1    O2  163   1.542   4.066  14.448  0.7727  0.5656  0.5642
   11TCq1    C2  164   1.705   4.200  14.343 -0.5257 -0.3294  0.3783
   11TCq1    C3  165   1.820   4.267  14.356 -0.3803  0.0260  0.6651
   11TCq1    C4  166   1.867   4.327  14.244  0.2675  0.5147 -0.1388
   11TCq1    C5  167   1.816   4.309  14.121 -0.7574 -0.7747 -0.5905
   11TCq1    C6  168   1.693   4.253  14.115  1.0474 -0.4604  0.3226
   11TCq1    C7  169   1.637   4.190  14.222 -0.8833 -0.2022 -0.0285
   11TCq1    C8  170   1.622   4.241  13.987 -0.0441  0.6653 -0.4047
   11TCq1    O4  171   1.660   4.328  13.904  0.2436 -0.7782  0.8059
   11TCq1    C9  172   2.003   4.383  14.247  0.8241  0.1435 -0.0964
   11TCq1    O5  173   2.066   4.413  14.140 -0.1336  0.4967  0.2798
   11TCq1    O6  174   2.057   4.398  14.359 -0.4529  0.6050 -0.0133
   11TCq1    H1  175   1.802   4.156  14.570  0.1939 -1.1430 -1.8694
   11TCq1    H2  176   1.877   4.269  14.448  0.6966  0.1297 -0.0122
   11TCq1    H3  177   1.850   4.359  14.030  1.4042 -0.0454  0.6208
   11TCq1    H4  178   1.538   4.147  14.220 -1.4681  1.0441  1.4234
   12MPD2     C  179   1.467   4.165  13.753  0.1983  0.0273  0.0714
   12MPD2    C1  180   1.475   4.090  13.867 -0.4374  0.4071  0.1389
   12MPD2    C2  181   1.378   3.991  13.884 -0.2465  0.1140 -0.7180
   12MPD2    C3  182   1.280   3.969  13.790 -0.5117  0.3310  0.7193
   12MPD2    C4  183   1.287   4.048  13.676  0.4051 -0.3368 -0.1310
   12MPD2    C5  184   1.378   4.147  13.660 -0.2840  0.0503 -0.4747
   12MPD2     H  185   1.369   3.941  13.979  2.0228  0.6666 -0.2349
   12MPD2    H1  186   1.216   4.030  13.596 -0.6338  2.1282  0.2299
   12MPD2    H2  187   1.532   4.251  13.739  0.5159 -0.3229 -0.6292
   12MPD2    H3  188   1.369   4.206  13.570  0.5444  1.8589  0.6289
   12MPD2     N  189   1.188   3.862  13.794 -0.3958  0.3527  0.3029
   12MPD2    H5  190   1.131   3.846  13.712  1.4179 -2.2170 -0.4561
   12MPD2    N1  191   1.556   4.124  13.973  0.0834 -0.4431  0.2697
   12MPD2    H7  192   1.564   4.054  14.047  0.0752 -0.1687  0.5323
   13TCq1    O1  193   1.047   4.255  10.227 -0.4422  0.1494 -0.7362
   13TCq1    C1  194   1.110   4.207  10.331  0.3665 -0.2754  0.0832
   13TCq1    O2  195   1.104   4.251  10.445 -0.2685 -0.0423 -0.0444
   13TCq1    C2  196   1.093   4.066  10.321  0.2228 -0.0172 -0.5815
   13TCq1    C3  197   1.152   4.008  10.214 -0.1288 -0.1386 -0.5623
   13TCq1    C4  198   1.151   3.876  10.214 -1.2254 -0.3413  0.2112
   13TCq1    C5  199   1.075   3.799  10.305 -0.1777 -0.0964 -0.0038
   13TCq1    C6  200   1.006   3.870  10.401 -0.7826 -0.0856 -0.2569
   13TCq1    C7  201   1.015   4.006  10.413  0.3513 -0.0204 -0.0978
   13TCq1    C8  202   0.905   3.806  10.479  0.6752  0.5439 -0.5239
   13TCq1    O4  203   0.829   3.878  10.541 -0.0527  0.2159  0.4809
   13TCq1    C9  204   1.215   3.807  10.100  0.5717  0.8193  0.0059
   13TCq1    O5  205   1.217   3.681  10.106 -0.0910 -0.5827  0.4563
   13TCq1    O6  206   1.290   3.886  10.030 -0.8719 -0.3335 -0.0727
   13TCq1    H1  207   1.043   4.189  10.155  2.3445 -1.0523  0.2374
   13TCq1    H2  208   1.198   4.062  10.131  1.1979  2.1135  1.6586
   13TCq1    H3  209   1.069   3.692  10.288  0.7038  0.0905 -1.4450
   13TCq1    H4  210   0.985   4.056  10.504 -0.7811 -0.2595 -0.3381
   14MPD2     C  211   0.756   3.479  10.475  0.0851  0.0286 -0.2285
   14MPD2    C1  212   0.799   3.597  10.533  0.7166 -0.1767  0.2851
   14MPD2    C2  213   0.761   3.625  10.662  0.1725  0.7959  0.3225
   14MPD2    C3  214   0.677   3.541  10.731 -0.5062 -0.7761 -0.0143
   14MPD2    C4  215   0.633   3.425  10.675  0.2590  0.4593 -0.2607
   14MPD2    C5  216   0.674   3.388  10.546 -0.3521  0.6061  0.1112
   14MPD2     H  217   0.805   3.716  10.700 -0.4439  0.3858  1.9889
   14MPD2    H1  218   0.573   3.349  10.723 -2.3752  0.8159 -2.9358
   14MPD2    H2  219   0.785   3.454  10.373  2.2215  0.0544  0.3651
   14MPD2    H3  220   0.634   3.304  10.490  1.0959  0.3345 -0.5102
   14MPD2     N  221   0.652   3.584  10.866 -0.3376  0.3643 -0.5610
   14MPD2    H5  222   0.698   3.672  10.888 -1.4581  1.0680 -0.9937
   14MPD2    N1  223   0.886   3.674  10.457 -0.3412 -0.0062  0.0342
   14MPD2    H7  224   0.917   3.641  10.367  0.9386  0.2519  0.3725
   15TCq1    O1  225   1.942   3.044   1.327 -0.3849  0.0316  0.1470
   15TCq1    C1  226   1.917   2.964   1.434 -0.7626  0.8602  0.4302
   15TCq1    O2  227   1.814   2.963   1.502  0.5904 -0.6240 -0.9305
   15TCq1    C2  228   2.043   2.899   1.477  0.1291  0.6498  0.2321
   15TCq1    C3  229   2.083   2.922   1.603 -0.4077  0.1735  0.4375
   15TCq1    C4  230   2.212   2.910   1.637  0.2708 -0.7181 -0.2055
   15TCq1    C5  231   2.309   2.863   1.556  0.2982  0.4229  0.0618
   15TCq1    C6  232   2.264   2.840   1.424  1.0375 -0.3881 -0.4576
   15TCq1    C7  233   2.137   2.861   1.381 -0.6168 -0.7030  0.1122
   15TCq1    C8  234   2.366   2.787   1.338  0.0286 -0.0283  0.3763
   15TCq1    O4  235   2.478   2.769   1.385  0.0289  0.3048  0.3068
   15TCq1    C9  236   2.254   2.958   1.768 -0.2779  0.0116  0.1172
   15TCq1    O5  237   2.375   2.983   1.783  0.3163 -0.2338 -0.0291
   15TCq1    O6  238   2.164   2.994   1.852 -0.3971 -0.4388 -0.1281
   15TCq1    H1  239   2.029   3.045   1.282  0.8725  0.2709  2.6105
   15TCq1    H2  240   2.008   2.965   1.667 -1.4582  0.3131 -0.8715
   15TCq1    H3  241   2.413   2.859   1.586 -0.3003 -0.2515  2.0605
   15TCq1    H4  242   2.100   2.844   1.280  0.2139  1.0775 -0.4833
   16MPD2     C  243   2.376   2.813   0.968  0.3606 -0.2926 -0.3731
   16MPD2    C1  244   2.409   2.766   1.092 -0.1723  0.1519  0.1475
   16MPD2    C2  245   2.499   2.668   1.098  0.3771 -0.4838 -0.2477
   16MPD2    C3  246   2.562   2.618   0.985 -0.0298  0.3478 -0.2787
   16MPD2    C4  247   2.528   2.666   0.863  0.7319 -0.3977 -0.1541
   16MPD2    C5  248   2.424   2.762   0.854  0.2345  0.4381 -0.3223
   16MPD2     H  249   2.536   2.622   1.189 -0.9469 -1.0068  0.0309
   16MPD2    H1  250   2.567   2.635   0.766 -0.2553  0.2982 -0.7771
   16MPD2    H2  251   2.301   2.891   0.961  0.5618  0.0612  1.3856
   16MPD2    H3  252   2.398   2.801   0.756 -2.2873 -0.7341 -0.1093
   16MPD2     N  253   2.666   2.523   1.005 -0.8956 -0.1925  0.1398
   16MPD2    H5  254   2.692   2.500   1.100 -3.1925 -0.4281  0.7101
   16MPD2    N1  255   2.336   2.805   1.208  0.5124  0.0004 -0.0168
   16MPD2    H7  256   2.253   2.858   1.184 -0.9764 -1.6880  1.4720
   17TCq1    O1  257   0.024   2.248  10.929  0.3310 -0.0174 -0.3375
   17TCq1    C1  258   0.025   2.375  10.970 -0.6403 -0.4987  0.1200
   17TCq1    O2  259   4.718   2.422  11.082 -0.4044  0.0018 -0.3964
   17TCq1    C2  260   0.039   2.467  10.857 -0.7033  0.0791 -0.7897
   17TCq1    C3  261   0.012   2.418  10.735 -0.1275  0.6669  1.0191
   17TCq1    C4  262   4.715   2.512  10.637 -0.1362  0.0907 -0.5339
   17TCq1    C5  263   0.014   2.649  10.661 -0.1746  0.0575 -0.4132
   17TCq1    C6  264   0.036   2.694  10.784 -0.4182 -0.8987 -0.4515
   17TCq1    C7  265   0.041   2.599  10.888 -0.5797 -0.4534 -0.0585
   17TCq1    C8  266   0.114   2.816  10.796  0.2438  0.4387 -0.5297
   17TCq1    O4  267   0.123   2.858  10.911 -0.0377  0.3804 -0.4221
   17TCq1    C9  268   4.682   2.468  10.496 -0.5027 -0.1718  0.5956
   17TCq1    O5  269   4.641   2.348  10.483  0.1918  0.3045  0.2174
   17TCq1    O6  270   4.704   2.551  10.402 -0.3845 -0.4893 -0.3217
   17TCq1    H1  271   0.066   2.229  10.842  0.0301  1.1319 -0.7372
   17TCq1    H2  272   4.715   2.314  10.714 -0.6929  0.7497  1.1733
   17TCq1    H3  273   4.719   2.720  10.581  3.1860  0.6622 -0.6722
   17TCq1    H4  274   0.068   2.620  10.991 -1.4544  1.9102 -0.3231
   18MPD2     C  275   0.320   3.016  10.748 -0.1236  0.4673 -0.4573
   18MPD2    C1  276   0.305   2.906  10.674  0.0634  0.0549 -0.4320
   18MPD2    C2  277   0.405   2.873  10.584 -0.1266  0.0244  0.7855
   18MPD2    C3  278   0.527   2.942  10.579  0.2720  0.7826  0.5747
   18MPD2    C4  279   0.541   3.053  10.659 -0.7449  0.1442 -0.0463
   18MPD2    C5  280   0.431   3.096  10.731  0.3737  0.5980  0.7336
   18MPD2     H  281   0.396   2.778  10.531  1.0932  0.5429 -0.3619
   18MPD2    H1  282   0.633   3.110  10.649 -0.9896  0.5386 -0.0546
   18MPD2    H2  283   0.246   3.042  10.823 -1.0186 -1.9543 -0.5206
   18MPD2    H3  284   0.435   3.178  10.802  1.8413  1.5866 -0.5057
   18MPD2     N  285   0.639   2.897  10.503  0.3598 -0.1910 -0.1025
   18MPD2    H5  286   0.726   2.947  10.517  0.3948 -0.4744  0.6891
   18MPD2    N1  287   0.196   2.821  10.688  0.4039 -0.4118  0.2808
   18MPD2    H7  288   0.187   2.756  10.611 -1.8350 -1.1797  1.1871
   19TMC2    C1  289   2.046   3.521  13.701 -0.0803  0.0516  0.1930
   19TMC2    C2  290   2.038   3.480  13.567  0.1763 -0.5651 -0.1001
   19TMC2    C3  291   1.966   3.362  13.546  0.0098  0.2626 -0.0765
   19TMC2    C4  292   2.009   3.453  13.812 -0.6374  0.5163  0.1288
   19TMC2    C5  293   1.930   3.342  13.780  0.1775  0.1876  0.4456
   19TMC2    C6  294   1.910   3.301  13.657  0.0518  0.0967  0.8407
   19TMC2     C  295   2.117   3.644  13.717 -0.3305 -0.2313 -0.2666
   19TMC2     O  296   2.109   3.726  13.628 -0.5196  0.0243  0.1561
   19TMC2     H  297   2.101   3.518  13.487 -0.5013 -3.3787 -1.9767
   19TMC2    H1  298   1.999   3.495  13.911 -1.1819  1.1630 -0.1983
   19TMC2    H2  299   1.858   3.207  13.639  1.1721 -0.2821 -0.4635
   19TMC2    C7  300   1.870   3.264  13.890 -0.1696  0.3447 -0.1755
   19TMC2    C8  301   1.985   3.300  13.415  0.1890  0.3500  0.4416
   19TMC2    O1  302   1.775   3.197  13.859  0.6946 -1.1351  0.6270
   19TMC2    O2  303   1.977   3.180  13.402  0.5033  0.0948  0.1332
   19TMC2    O5  304   2.007   3.392  13.315  0.1805 -0.0409 -0.3891
   19TMC2    H5  305   1.995   3.484  13.348  0.2229 -0.8846  1.9895
   20MPD2     C  306   2.279   3.868  13.816 -0.2273 -0.7217  0.3234
   20MPD2    C1  307   2.267   3.747  13.879  0.5934  0.1880  0.0031
   20MPD2    C2  308   2.327   3.731  14.002  0.1212  0.3761  0.8632
   20MPD2    C3  309   2.418   3.822  14.054  0.3278 -0.0965 -0.3665
   20MPD2    C4  310   2.426   3.943  13.992 -1.2988 -0.4798  0.0605
   20MPD2    C5  311   2.362   3.964  13.874  0.5471  0.2346  0.6813
   20MPD2     H  312   2.312   3.637  14.054  1.7359  0.8295  2.1283
   20MPD2    H1  313   2.490   4.023  14.028 -2.7058  0.5842  0.1923
   20MPD2    H2  314   2.255   3.884  13.711  1.6171  2.3282  0.3672
   20MPD2    H3  315   2.393   4.051  13.817 -0.3561  0.1484  0.0567
   20MPD2     N  316   2.494   3.796  14.166  0.2835 -0.0257 -0.5636
   20MPD2    H5  317   2.527   3.882  14.209  0.0711 -1.0382  1.6633
   20MPD2    N1  318   2.188   3.639  13.833  0.2343  0.2974 -0.4956
   20MPD2    H7  319   2.178   3.557  13.892 -1.8224 -0.0753 -1.3837
   21MPD2     C  320   4.570   4.208  13.813 -0.0050 -0.3322  0.2630
   21MPD2    C1  321   4.668   4.128  13.875  0.1824  0.4597 -0.9964
   21MPD2    C2  322   4.627   4.050  13.988  0.0534  0.1063 -1.0575
   21MPD2    C3  323   4.492   4.056  14.032 -0.2953  0.1207 -0.3901
   21MPD2    C4  324   4.410   4.138  13.964 -0.0649 -0.2434 -0.6521
   21MPD2    C5  325   4.447   4.216  13.862  0.2090  0.1513  0.0463
   21MPD2     H  326   4.701   3.991  14.041 -1.9681  0.1254  1.7719
   21MPD2    H1  327   4.305   4.135  13.991  0.5117 -3.0978  1.2066
   21MPD2    H2  328   4.584   4.256  13.716  0.0809 -0.6684  0.1079
   21MPD2    H3  329   4.370   4.260  13.800 -1.2718 -2.1140  0.2783
   21MPD2     N  330   4.444   3.974  14.133  0.5430  0.3105  0.0869
   21MPD2    H5  331   4.343   3.975  14.146  0.5557  0.4512  0.1839
   21MPD2    N1  332   0.079   4.117  13.835  0.2776  0.0906  0.3474
   21MPD2    H7  333   0.132   4.054  13.893 -0.9143 -0.6994  0.5867
   22TCq2    C1  334   4.510   3.877  14.206 -0.1341  0.4159  0.3625
   22TCq2    O2  335   4.626   3.838  14.200  0.0075  1.1481 -0.3512
   22TCq2    C2  336   4.425   3.823  14.314 -0.2160 -0.0661  0.1610
   22TCq2    C3  337   4.477   3.713  14.371  0.2392  0.0439 -0.5554
   22TCq2    C4  338   4.419   3.663  14.482  0.5584 -0.3907  0.0027
   22TCq2    C5  339   4.316   3.724  14.544  0.0557  0.1710 -0.2286
   22TCq2    C6  340   4.276   3.843  14.494 -0.2585  0.3597 -0.4591
   22TCq2    C7  341   4.325   3.893  14.379 -0.8457  0.5653  0.0884
   22TCq2    C8  342   4.168   3.914  14.561 -0.6235 -0.1268  0.2779
   22TCq2    O4  343   4.133   3.860  14.664  0.5897  0.0410 -0.1571
   22TCq2    C9  344   4.465   3.533  14.526 -0.0270  0.7942  0.8441
   22TCq2    O5  345   4.433   3.501  14.647  0.0839  0.0876  0.5213
   22TCq2    O6  346   4.537   3.466  14.442 -0.2471 -0.4472 -0.0492
   22TCq2    H2  347   4.567   3.668  14.331  0.2883  0.7369 -1.2102
   22TCq2    H3  348   4.271   3.679  14.632 -3.2128  0.9187 -1.5214
   22TCq2    H4  349   4.295   3.988  14.338 -1.2579  0.0375 -0.8388
   23MPD2     C  350   1.593   0.665  14.610  0.4924 -0.4723 -0.3520
   23MPD2    C1  351   1.514   0.551  14.634  0.6032  0.0280  0.3383
   23MPD2    C2  352   1.406   0.520  14.555  0.0474 -0.2097  0.3001
   23MPD2    C3  353   1.374   0.604  14.448 -0.0061  0.1098  0.5816
   23MPD2    C4  354   1.450   0.719  14.426  0.7139 -0.4173 -0.4802
   23MPD2    C5  355   1.555   0.749  14.509 -0.8492 -0.1202  0.0008
   23MPD2     H  356   1.339   0.439  14.585  0.6867 -0.3881  1.2483
   23MPD2    H1  357   1.436   0.790  14.346  1.5829 -1.4198 -1.5166
   23MPD2    H2  358   1.676   0.696  14.673 -0.6758 -0.4750  1.1957
   23MPD2    H3  359   1.620   0.835  14.498 -4.6534  2.7153 -0.2840
   23MPD2     N  360   1.262   0.588  14.365  0.3520 -0.2228  0.0120
   23MPD2    H5  361   1.225   0.667  14.313  1.3992  1.2111  1.4237
   23MPD2    N1  362   1.534   0.473  14.750 -0.0194  0.7853 -0.2929
   23MPD2    H7  363   1.491   0.381  14.743 -0.2686  0.8463  0.4832
   24TCq2    C1  364   1.217   0.471  14.328  0.5332 -0.9431 -0.1170
   24TCq2    O2  365   1.263   0.357  14.332 -0.4923 -0.2983  0.7981
   24TCq2    C2  366   1.094   0.495  14.255  0.6662  0.5142  0.5072
   24TCq2    C3  367   1.020   0.603  14.282 -0.0899 -0.3771  0.2131
   24TCq2    C4  368   0.896   0.616  14.224 -0.7782  0.0048  0.3113
   24TCq2    C5  369   0.855   0.524  14.133  0.8644  0.4109  0.1763
   24TCq2    C6  370   0.929   0.413  14.106  0.2364  0.5435  0.2179
   24TCq2    C7  371   1.051   0.398  14.165  0.3947 -0.3079 -0.5887
   24TCq2    C8  372   0.894   0.319  14.004  0.0987  0.1825  0.8078
   24TCq2    O4  373   0.984   0.265  13.939 -0.0954  0.0307  0.7542
   24TCq2    C9  374   0.815   0.727  14.254  0.1542  0.3415 -0.1390
   24TCq2    O5  375   0.703   0.739  14.203  0.3897  0.2970 -0.4051
   24TCq2    O6  376   0.861   0.816  14.333  0.2526 -0.3492  0.0394
   24TCq2    H2  377   1.045   0.683  14.351 -1.0602 -0.4269  0.6227
   24TCq2    H3  378   0.767   0.546  14.073 -0.5165 -0.4975  1.8513
   24TCq2    H4  379   1.120   0.316  14.149 -2.2091 -3.0055  1.8411
   25TMC2    C1  380   0.411   2.498  11.406  0.3734 -0.7714 -0.7975
   25TMC2    C2  381   0.512   2.595  11.425  0.2317  0.0931 -0.1794
   25TMC2    C3  382   0.511   2.691  11.523 -0.3284 -0.0331  0.1292
   25TMC2    C4  383   0.307   2.508  11.495 -0.0080  0.7781 -0.3425
   25TMC2    C5  384   0.298   2.609  11.587 -0.5548  0.7437  0.0015
   25TMC2    C6  385   0.406   2.694  11.607 -0.4176  0.2386 -0.2166
   25TMC2     C  386   0.443   2.384  11.325 -0.0113 -0.6503 -0.1774
   25TMC2     O  387   0.561   2.364  11.298  0.3015  0.1815 -0.4875
   25TMC2     H  388   0.599   2.607  11.361  1.2376  2.9530  1.7361
   25TMC2    H1  389   0.232   2.430  11.495 -1.4056  2.1120  0.9909
   25TMC2    H2  390   0.394   2.778  11.675  0.2213 -0.2784  0.5295
   25TMC2    C7  391   0.195   2.613  11.687 -0.0132 -0.3146  0.7145
   25TMC2    C8  392   0.640   2.747  11.564 -0.5864 -0.1933  0.5547
   25TMC2    O1  393   0.207   2.678  11.788 -0.2669  0.1695 -0.4021
   25TMC2    O2  394   0.735   2.675  11.590  0.1399  0.0669 -0.2063
   25TMC2    O5  395   0.609   2.863  11.626  0.1958 -0.0146  0.1244
   25TMC2    H5  396   0.538   2.921  11.591 -0.6358 -2.3286 -1.9649
   26MPD2     C  397   0.331   1.947  11.081 -0.2927 -0.1485 -0.0494
   26MPD2    C1  398   0.215   2.007  11.114  0.6234 -0.4455  0.6490
   26MPD2    C2  399   0.219   2.125  11.188  0.1807  0.0886  0.6459
   26MPD2    C3  400   0.339   2.186  11.229 -0.1790 -0.0851  0.0047
   26MPD2    C4  401   0.456   2.109  11.200  0.2445 -0.5013  0.1806
   26MPD2    C5  402   0.451   1.993  11.130  0.2987  0.5808 -0.3365
   26MPD2     H  403   0.127   2.178  11.208 -1.7923 -3.0162 -0.4053
   26MPD2    H1  404   0.551   2.155  11.225 -0.6174  1.0993  0.5256
   26MPD2    H2  405   0.330   1.854  11.025  3.8526  0.1104 -0.5341
   26MPD2    H3  406   0.540   1.940  11.098 -0.5741 -0.6307 -0.7808
   26MPD2     N  407   0.327   2.307  11.298 -0.3778 -0.1312 -0.0987
   26MPD2    H5  408   0.233   2.344  11.309  0.0903  0.7758  0.8821
   26MPD2    N1  409   0.105   1.936  11.072  0.1004  0.0543 -0.0452
   26MPD2    H7  410   0.132   1.857  11.015  1.5057  0.3245  0.2473
   27TMC2    C1  411   4.139   4.626  11.879  0.0374  0.1502 -0.0666
   27TMC2    C2  412   4.245   4.656  11.953  0.2033  0.0679 -0.0325
   27TMC2    C3  413   4.303   0.060  11.936 -0.6917 -0.2655  0.3313
   27TMC2    C4  414   4.075   4.716  11.798  0.3011  0.1373 -0.7497
   27TMC2    C5  415   4.138   0.114  11.774 -0.5795 -0.0686 -0.2295
   27TMC2    C6  416   4.260   0.142  11.833 -0.4788 -0.0754 -0.1376
   27TMC2     C  417   4.064   4.511  11.941  0.6987 -0.0844 -0.4065
   27TMC2     O  418   4.136   4.427  12.000  0.2531  0.0282 -0.0770
   27TMC2     H  419   4.285   4.587  12.027  1.6182  1.4044  0.4647
   27TMC2    H1  420   3.982   4.686  11.751  0.0228 -0.8067  0.4107
   27TMC2    H2  421   4.301   0.241  11.818 -3.3875  1.5797  2.8050
   27TMC2    C7  422   4.096   0.198  11.664  0.2419 -0.3166  0.1459
   27TMC2    C8  423   4.442   0.057  11.981  0.7444  0.0976  0.4553
   27TMC2    O1  424   4.167   0.213  11.568  0.5232 -0.5820  0.0283
   27TMC2    O2  425   4.475   4.712  12.078 -0.2801 -0.2616 -0.5842
   27TMC2    O5  426   4.517   0.084  11.878 -0.2157 -0.2972 -0.4225
   27TMC2    H5  427   4.469   0.127  11.803 -0.7753  2.4796  1.5220
   28MPD2     C  428   3.636   4.266  12.121 -0.0568 -0.0376 -0.1718
   28MPD2    C1  429   3.598   4.392  12.085  0.5707 -0.2506  0.2733
   28MPD2    C2  430   3.699   4.468  12.024 -0.4343  0.6541  0.4752
   28MPD2    C3  431   3.825   4.429  11.991 -0.1532  0.9529  0.5306
   28MPD2    C4  432   3.867   4.301  12.034 -0.1386 -0.0689 -0.5754
   28MPD2    C5  433   3.768   4.225  12.099 -0.0171 -0.0597 -1.0501
   28MPD2     H  434   3.670   4.557  11.969  0.4699  0.5578 -0.1472
   28MPD2    H1  435   3.968   4.268  12.017 -0.7139 -1.5996 -1.0564
   28MPD2    H2  436   3.564   4.195  12.161 -1.3131  0.5708 -1.3486
   28MPD2    H3  437   3.795   4.125  12.131 -2.4435 -0.0948  0.8637
   28MPD2     N  438   3.923   4.522  11.934  0.0257  0.3634  0.1670
   28MPD2    H5  439   3.888   4.610  11.897  0.1302  0.3740  0.0933
   28MPD2    N1  440   3.465   4.433  12.122 -0.1701  0.1152 -0.0124
   28MPD2    H7  441   3.402   4.368  12.167 -0.0470  0.6130  0.8816
   29MPD2     C  442   3.226   2.070  14.161 -0.6306  0.2182  0.5536
   29MPD2    C1  443   3.362   2.072  14.175 -0.2995 -0.5025  0.5594
   29MPD2    C2  444   3.431   2.190  14.176  0.1634  0.0993 -0.9288
   29MPD2    C3  445   3.366   2.311  14.181 -0.1229  0.1810  0.6045
   29MPD2    C4  446   3.227   2.312  14.178 -0.3494 -0.5524 -0.4108
   29MPD2    C5  447   3.160   2.189  14.164 -0.1607  0.6485 -0.0132
   29MPD2     H  448   3.539   2.188  14.188  0.0175 -1.0310  0.1996
   29MPD2    H1  449   3.183   2.411  14.172 -0.6668 -0.6198  0.7412
   29MPD2    H2  450   3.168   1.979  14.162 -1.6392  0.8499 -0.9808
   29MPD2    H3  451   3.052   2.180  14.176 -0.2833 -0.8979 -2.2618
   29MPD2     N  452   3.431   2.435  14.198 -0.5289  0.6268 -0.1714
   29MPD2    H5  453   3.373   2.516  14.215  0.8094  1.7315 -0.8039
   29MPD2    N1  454   3.430   1.950  14.166 -0.1132  0.3158  0.4370
   29MPD2    H7  455   3.529   1.946  14.147  0.1954  1.6366  1.7522
   30TCq2    C1  456   3.562   2.458  14.220  0.2835 -0.5742  0.2711
   30TCq2    O2  457   3.655   2.380  14.235 -0.2746 -0.7176 -0.6852
   30TCq2    C2  458   3.581   2.581  14.288  0.0748  0.2555  0.1160
   30TCq2    C3  459   3.666   2.607  14.389  0.0402  0.2573 -0.0808
   30TCq2    C4  460   3.658   2.730  14.449 -0.3426  0.0496 -0.4678
   30TCq2    C5  461   3.589   2.836  14.404 -0.0102  0.2953  0.3655
   30TCq2    C6  462   3.525   2.813  14.283  0.1958 -0.2289  0.7328
   30TCq2    C7  463   3.508   2.686  14.235 -0.0983 -0.0199 -0.2726
   30TCq2    C8  464   3.464   2.919  14.203  0.0511  0.4066  0.7428
   30TCq2    O4  465   3.381   2.879  14.126 -0.3914  0.5813  0.3281
   30TCq2    C9  466   3.733   2.745  14.572  0.0117  0.5337  0.2770
   30TCq2    O5  467   3.719   2.845  14.638  0.1141  0.1965  0.3724
   30TCq2    O6  468   3.787   2.639  14.619 -0.5068  0.4228 -0.8446
   30TCq2    H2  469   3.738   2.530  14.417 -0.4904 -0.8662 -1.8580
   30TCq2    H3  470   3.598   2.939  14.435 -0.6981  1.1716 -2.3546
   30TCq2    H4  471   3.468   2.671  14.135 -0.2789 -1.2112 -0.0206
   31MPD2     C  472   1.528   1.131  14.572 -0.5069 -0.0495 -0.2047
   31MPD2    C1  473   1.422   1.110  14.485 -0.1038 -0.1973  0.3051
   31MPD2    C2  474   1.335   1.017  14.531  0.1235  0.4471  0.4031
   31MPD2    C3  475   1.344   0.950  14.652 -0.1986  0.3960  0.2085
   31MPD2    C4  476   1.459   0.970  14.732  0.4245  0.1915  0.5388
   31MPD2    C5  477   1.547   1.063  14.688 -0.3869  0.2130  0.3804
   31MPD2     H  478   1.264   0.984  14.456 -1.6442  1.6708  1.5183
   31MPD2    H1  479   1.480   0.921  14.827  0.8930 -1.5250 -0.4631
   31MPD2    H2  480   1.600   1.208  14.545  0.1672 -0.1841  1.2318
   31MPD2    H3  481   1.639   1.072  14.745  1.0489 -0.1318 -1.8824
   31MPD2     N  482   1.263   0.837  14.696 -0.0127 -0.2054  0.0638
   31MPD2    H5  483   1.287   0.791  14.784  1.0516  1.1631  0.4919
   31MPD2    N1  484   1.419   1.184  14.365  0.2579 -0.4750  0.4228
   31MPD2    H7  485   1.500   1.241  14.341  0.7379 -0.6767  1.5788
   32TCq2    C1  486   1.148   0.799  14.633  0.7851  0.0301 -0.1856
   32TCq2    O2  487   1.088   0.841  14.531  0.7719  0.8445  0.3880
   32TCq2    C2  488   1.067   0.716  14.719 -0.0841  0.5142  0.4891
   32TCq2    C3  489   0.945   0.688  14.658  1.3402  0.3483 -0.0419
   32TCq2    C4  490   0.832   0.683  14.735  0.0972 -0.2002 -0.2008
   32TCq2    C5  491   0.838   0.698  14.872  0.0117 -0.3412 -0.0561
   32TCq2    C6  492   0.958   0.712  14.926 -0.0899 -0.5169  0.0537
   32TCq2    C7  493   1.076   0.719  14.858  0.6848  0.4058  0.1500
   32TCq2    C8  494   0.968   0.713  15.070  0.1480  0.6299  0.1253
   32TCq2    O4  495   1.080   0.696  15.116  0.2993 -0.0782 -0.1640
   32TCq2    C9  496   0.706   0.656  14.673  0.3628  0.2776  0.3424
   32TCq2    O5  497   0.605   0.657  14.750  0.1055  0.2021  0.3529
   32TCq2    O6  498   0.703   0.662  14.550 -0.3492  0.9647 -0.1252
   32TCq2    H2  499   0.940   0.669  14.551  0.3591 -2.4867  0.5230
   32TCq2    H3  500   0.751   0.678  14.932 -0.8123  2.0405 -0.4649
   32TCq2    H4  501   1.171   0.723  14.910 -0.5817 -3.4245  2.8149
   33MPD2     C  502   0.675   2.736   9.755  0.5159 -0.0538 -0.5495
   33MPD2    C1  503   0.766   2.827   9.815  0.1322 -0.8586 -0.5369
   33MPD2    C2  504   0.824   2.923   9.735 -0.8117  0.5962  0.6204
   33MPD2    C3  505   0.783   2.940   9.606  0.5995 -0.2541 -0.6033
   33MPD2    C4  506   0.687   2.856   9.557  0.6295  0.0152 -0.6596
   33MPD2    C5  507   0.632   2.756   9.632 -0.3903  0.3593 -0.0975
   33MPD2     H  508   0.898   2.987   9.782 -1.2871 -0.2727  2.5765
   33MPD2    H1  509   0.649   2.869   9.456  1.8026 -0.2991 -1.1345
   33MPD2    H2  510   0.630   2.660   9.817 -1.8449 -0.7333 -3.0650
   33MPD2    H3  511   0.554   2.691   9.594  0.0800  0.0106 -0.4720
   33MPD2     N  512   0.828   3.047   9.519 -0.1562 -0.1375  0.0266
   33MPD2    H5  513   0.785   3.074   9.432 -1.1295  1.7297  1.0807
   33MPD2    N1  514   0.796   2.807   9.952 -0.0350  0.6606  0.0192
   33MPD2    H7  515   0.769   2.721  10.000  1.8988 -0.7935 -1.4981
   34TCq2    C1  516   0.954   3.111   9.534 -0.0736 -0.0756  0.0643
   34TCq2    O2  517   1.049   3.070   9.602  0.3359 -0.1289 -0.2336
   34TCq2    C2  518   0.983   3.203   9.422 -0.6216  0.4863 -0.1514
   34TCq2    C3  519   0.877   3.256   9.359  0.1193  0.7611  0.2310
   34TCq2    C4  520   0.904   3.297   9.232 -0.0763  0.5246  0.3725
   34TCq2    C5  521   1.033   3.316   9.186  0.1143 -0.0624 -0.1555
   34TCq2    C6  522   1.138   3.266   9.254  0.1486 -0.1687  0.2959
   34TCq2    C7  523   1.112   3.208   9.377 -0.1762  0.1264 -0.2971
   34TCq2    C8  524   1.250   3.362   9.254  0.1618  0.3573 -0.2308
   34TCq2    O4  525   1.286   3.405   9.366 -0.0114 -0.0233  0.8670
   34TCq2    C9  526   0.796   3.347   9.149  0.8567  0.5810 -0.0247
   34TCq2    O5  527   0.679   3.327   9.187 -0.2824 -0.2963  0.2332
   34TCq2    O6  528   0.821   3.413   9.047 -0.4521  0.3995 -0.1201
   34TCq2    H2  529   0.780   3.258   9.408  0.2868  0.2406  0.5702
   34TCq2    H3  530   1.045   3.375   9.096  0.7379 -1.5327 -1.0353
   34TCq2    H4  531   1.199   3.180   9.435  0.1247  2.9802  0.6662
   35MPD2     C  532   3.383   0.163  11.334 -0.6718  0.1307 -0.1599
   35MPD2    C1  533   3.336   0.055  11.408 -0.5397  0.1738 -0.4652
   35MPD2    C2  534   3.202   0.022  11.391 -0.2502  0.0647  0.0033
   35MPD2    C3  535   3.126   0.079  11.294 -0.9367  0.5518 -0.7368
   35MPD2    C4  536   3.169   0.187  11.226 -0.7113  0.2744 -0.1906
   35MPD2    C5  537   3.299   0.229  11.248  0.0266  0.0775  0.7018
   35MPD2     H  538   3.156   4.660  11.438 -2.9787  0.8950 -1.1338
   35MPD2    H1  539   3.112   0.227  11.142  0.1879  0.2025 -0.8316
   35MPD2    H2  540   3.485   0.199  11.341 -0.4943 -0.1313 -1.3620
   35MPD2    H3  541   3.347   0.314  11.200  0.9686 -1.0491 -0.3337
   35MPD2     N  542   2.997   0.036  11.286 -0.3873  0.4147 -0.2270
   35MPD2    H5  543   2.969   4.679  11.342  2.2207 -0.8649 -0.7771
   35MPD2    N1  544   3.429   4.712  11.483  0.1129 -0.3785  0.4529
   35MPD2    H7  545   3.523   0.019  11.463 -0.6294  2.0051  0.6648
   36TCq2    C1  546   2.891   0.098  11.226  0.9135 -0.8028  0.3906
   36TCq2    O2  547   2.878   0.214  11.183  0.4518 -0.3678  0.2809
   36TCq2    C2  548   2.762   0.031  11.254 -0.1967 -0.3320 -0.0437
   36TCq2    C3  549   2.648   0.106  11.238 -0.9472 -0.2355  0.3570
   36TCq2    C4  550   2.523   0.044  11.259  0.8327  0.3429 -0.8430
   36TCq2    C5  551   2.513   4.635  11.284 -0.2636 -0.1836 -0.3104
   36TCq2    C6  552   2.633   4.571  11.316 -0.7335  0.6548 -0.4870
   36TCq2    C7  553   2.759   4.626  11.297  0.8219  0.7830  0.3122
   36TCq2    C8  554   2.617   4.432  11.367  0.2396 -0.6106  0.1700
   36TCq2    O4  555   2.513   4.381  11.331  0.2927  0.3418  0.4962
   36TCq2    C9  556   2.403   0.118  11.237  0.1847 -0.8070  0.4339
   36TCq2    O5  557   2.421   0.241  11.228 -0.2405  0.0912 -0.1686
   36TCq2    O6  558   2.292   0.061  11.222  0.0033  0.4496  0.1321
   36TCq2    H2  559   2.652   0.210  11.207  0.5111 -0.4440 -0.1464
   36TCq2    H3  560   2.413   4.592  11.291  0.3479 -1.1587  2.4401
   36TCq2    H4  561   2.848   4.568  11.316 -0.6074 -1.1717  1.0445
   37TMC2    C1  562   0.277   0.608  11.264  0.4055  0.3165  0.0135
   37TMC2    C2  563   0.276   0.642  11.136 -0.4963 -0.1247 -0.4271
   37TMC2    C3  564   0.390   0.624  11.068  0.1105  0.0580  0.4761
   37TMC2    C4  565   0.391   0.552  11.322  0.9735  0.6978 -0.0484
   37TMC2    C5  566   0.507   0.538  11.251 -0.2809  0.7404  0.1369
   37TMC2    C6  567   0.508   0.577  11.124 -0.2473  0.3308 -0.3490
   37TMC2     C  568   0.151   0.615  11.338  0.3556  1.4670  0.4121
   37TMC2     O  569   0.065   0.686  11.290  0.0346  0.0441  0.0724
   37TMC2     H  570   0.192   0.696  11.093 -2.9621 -1.6817  2.4481
   37TMC2    H1  571   0.383   0.513  11.423 -1.6938 -0.1446 -0.5813
   37TMC2    H2  572   0.587   0.571  11.049  0.9171 -0.4669  0.9513
   37TMC2    C7  573   0.632   0.510  11.332 -0.6673 -0.0255  0.0642
   37TMC2    C8  574   0.419   0.692  10.944  0.4663 -0.3281 -0.1770
   37TMC2    O1  575   0.610   0.467  11.444 -0.2778  0.0065  0.1683
   37TMC2    O2  576   0.531   0.742  10.924  0.2218  0.1321  0.1713
   37TMC2    O5  577   0.304   0.723  10.883  0.4483 -0.3297 -0.0572
   37TMC2    H5  578   0.243   0.649  10.905  0.7023 -0.5761 -0.1851
   38MPD2     C  579   4.587   0.528  11.768  0.0324  0.0521 -0.7236
   38MPD2    C1  580   4.707   0.456  11.770  0.1816  0.3829  0.3044
   38MPD2    C2  581   0.067   0.464  11.662  0.2986  0.7363  0.3459
   38MPD2    C3  582   0.041   0.535  11.549 -0.1142 -0.3176  0.0327
   38MPD2    C4  583   4.639   0.592  11.543 -0.6628  0.1413  0.4399
   38MPD2    C5  584   4.556   0.594  11.651  0.0792 -0.6773  0.2214
   38MPD2     H  585   0.156   0.403  11.668  1.0161  1.9726  2.3770
   38MPD2    H1  586   4.609   0.650  11.456 -0.1756  1.3202  1.0587
   38MPD2    H2  587   4.536   0.548  11.861 -0.7970 -0.1042 -1.1450
   38MPD2    H3  588   4.466   0.653  11.641  1.3979  1.0475 -1.5597
   38MPD2     N  589   0.150   0.539  11.450 -0.3443  0.5229  0.0659
   38MPD2    H5  590   0.231   0.483  11.473 -0.1667  1.1958  1.1329
   38MPD2    N1  591   0.028   0.403  11.886 -0.3626  0.1901  0.0653
   38MPD2    H7  592   0.121   0.367  11.869 -1.6045 -3.0073  0.1114
   39MPD2     C  593   3.187   1.803   1.252  0.1067  0.8654 -0.4398
   39MPD2    C1  594   3.121   1.910   1.303  0.5289 -0.0569 -0.1542
   39MPD2    C2  595   2.997   1.949   1.251 -0.3800 -0.8598  0.1702
   39MPD2    C3  596   2.944   1.888   1.142  0.4067 -0.0831  0.1419
   39MPD2    C4  597   3.012   1.776   1.093  0.4332  0.0351 -0.8166
   39MPD2    C5  598   3.135   1.738   1.144  0.0168  0.5108  0.0847
   39MPD2     H  599   2.950   2.041   1.284  1.4546 -0.6704  2.2400
   39MPD2    H1  600   2.986   1.734   0.997  0.4897  1.6352 -1.5259
   39MPD2    H2  601   3.279   1.760   1.291 -0.8540 -0.8715 -0.0722
   39MPD2    H3  602   3.191   1.654   1.104 -0.1105  0.4479  0.0393
   39MPD2     N  603   2.825   1.934   1.076 -0.3122 -0.6157 -0.1865
   39MPD2    H5  604   2.786   1.872   1.006  2.7981 -1.7892 -0.8860
   39MPD2    N1  605   3.184   1.971   1.417 -0.0484 -0.7348 -0.5525
   39MPD2    H7  606   3.273   1.931   1.446  1.7590  3.8557  0.1593
   40TCq2    C1  607   3.130   2.064   1.502  0.1595 -0.3886 -0.6446
   40TCq2    O2  608   3.018   2.112   1.485  0.2522 -0.4910 -0.2709
   40TCq2    C2  609   3.204   2.089   1.621  0.5214  0.3514  0.1352
   40TCq2    C3  610   3.128   2.128   1.729  0.0306  0.2004 -0.0322
   40TCq2    C4  611   3.187   2.147   1.844 -0.3073 -0.1490  0.1801
   40TCq2    C5  612   3.323   2.139   1.858 -0.2380  0.0502  1.1198
   40TCq2    C6  613   3.397   2.097   1.748 -0.0265  0.0255  0.0757
   40TCq2    C7  614   3.340   2.075   1.624  0.6441  0.1793 -0.5651
   40TCq2    C8  615   3.543   2.092   1.771  0.2100  0.6682 -0.3261
   40TCq2    O4  616   3.600   2.179   1.841 -0.2100  0.1930 -0.5802
   40TCq2    C9  617   3.107   2.192   1.960 -0.0531 -0.2508  0.0194
   40TCq2    O5  618   2.992   2.227   1.931 -0.2611  0.8933 -0.2692
   40TCq2    O6  619   3.171   2.222   2.066  0.6486 -0.5238 -0.6972
   40TCq2    H2  620   3.019   2.135   1.728  0.0552  0.5599 -0.1581
   40TCq2    H3  621   3.363   2.162   1.956  1.8104 -0.5402  0.4156
   40TCq2    H4  622   3.401   2.062   1.535  0.2005  0.9379 -0.9793
   41TMC2    C1  623   1.962   0.131  13.667  0.1138 -0.0504  0.4474
   41TMC2    C2  624   2.069   0.207  13.711 -0.2350 -0.1381 -0.0634
   41TMC2    C3  625   2.151   0.265  13.617 -0.6510 -0.0878 -0.2573
   41TMC2    C4  626   1.935   0.110  13.536  0.2622 -0.7277 -0.4589
   41TMC2    C5  627   2.018   0.174  13.446  0.1089  0.2527 -0.1585
   41TMC2    C6  628   2.121   0.258  13.484 -0.4531 -0.0522  0.0933
   41TMC2     C  629   1.882   0.053  13.765 -0.0929 -0.1633 -0.8057
   41TMC2     O  630   1.845   4.671  13.725 -0.1862  0.2424  0.3438
   41TMC2     H  631   2.093   0.211  13.817  0.9584 -2.8588 -0.2191
   41TMC2    H1  632   1.857   0.041  13.506 -0.4461 -0.5677  1.0449
   41TMC2    H2  633   2.171   0.310  13.403 -0.1821 -1.1589 -0.4455
   41TMC2    C7  634   1.975   0.174  13.311  0.8020  0.3245 -0.5392
   41TMC2    C8  635   2.283   0.299  13.662  0.7592  0.3555  0.1215
   41TMC2    O1  636   1.866   0.125  13.297  0.9053  0.1675  0.3111
   41TMC2    O2  637   2.346   0.389  13.606  0.3874  0.2519  0.8544
   41TMC2    O5  638   2.326   0.237  13.776  0.4962 -0.3851  0.0386
   41TMC2    H5  639   2.270   0.158  13.792  0.0658 -0.3528 -1.2655
   42MPD2     C  640   1.731   4.671  13.998  0.3619 -0.3799  0.2027
   42MPD2    C1  641   1.816   0.057  14.004  0.5301 -0.3133 -0.1923
   42MPD2    C2  642   1.840   0.115  14.129 -0.6838 -0.2368 -0.3032
   42MPD2    C3  643   1.789   0.063  14.248 -0.1299  1.2605 -0.0394
   42MPD2    C4  644   1.709   4.675  14.239 -0.0443  0.4566 -0.7292
   42MPD2    C5  645   1.678   4.620  14.114 -0.1859 -0.2082 -0.4785
   42MPD2     H  646   1.905   0.201  14.134  0.3767 -1.0900  0.5107
   42MPD2    H1  647   1.672   4.640  14.335  1.5177  3.5250  0.9843
   42MPD2    H2  648   1.719   4.624  13.902 -0.4330  2.5983 -1.1544
   42MPD2    H3  649   1.601   4.544  14.105  0.7547 -1.2559  0.4887
   42MPD2     N  650   1.821   0.107  14.382  0.0986 -0.4585  0.1422
   42MPD2    H5  651   1.798   0.052  14.464  2.9505 -0.9538  0.6023
   42MPD2    N1  652   1.875   0.112  13.889 -0.1420 -1.0256 -0.0325
   42MPD2    H7  653   1.920   0.202  13.901  1.7145 -2.1484  1.4604
   43MPD2     C  654   4.642   3.548   1.140 -0.8933  0.1397  1.2245
   43MPD2    C1  655   4.618   3.432   1.213  0.8907  0.1961 -0.0169
   43MPD2    C2  656   4.601   3.454   1.350 -0.5441 -0.0267  0.2729
   43MPD2    C3  657   4.604   3.577   1.414 -0.0316  0.1066  0.4933
   43MPD2    C4  658   4.616   3.684   1.332  0.5934  0.0153 -0.2254
   43MPD2    C5  659   4.637   3.674   1.197 -0.6394  0.1868 -0.3136
   43MPD2     H  660   4.596   3.359   1.402 -0.5231 -0.5720 -0.7412
   43MPD2    H1  661   4.607   3.787   1.365 -1.1695  0.0642 -0.8676
   43MPD2    H2  662   4.655   3.527   1.035 -1.3229  1.4251  0.9055
   43MPD2    H3  663   4.643   3.764   1.138 -2.2278  0.8395  0.5077
   43MPD2     N  664   4.577   3.573   1.554 -0.5309 -0.5196  0.2731
   43MPD2    H5  665   4.587   3.481   1.597 -0.5668  0.3799  2.2189
   43MPD2    N1  666   4.630   3.299   1.161  0.1634  0.3610 -0.5917
   43MPD2    H7  667   4.578   3.230   1.215  2.3875  0.2181  1.3837
   44TCq2    C1  668   4.261   3.700   2.006 -0.8972 -0.1962  0.7587
   44TCq2    O2  669   4.246   3.822   2.030 -0.5056 -0.1329  0.2576
   44TCq2    C2  670   4.377   3.650   1.933 -0.3553 -0.1458 -0.4683
   44TCq2    C3  671   4.427   3.536   1.975  0.5841 -0.3662  0.2620
   44TCq2    C4  672   4.541   3.486   1.923  0.6732  0.3645 -0.1208
   44TCq2    C5  673   4.599   3.552   1.813  0.0174 -0.1992 -0.2076
   44TCq2    C6  674   4.543   3.665   1.766  0.4918 -0.3680  0.1794
   44TCq2    C7  675   4.426   3.720   1.827  0.4378 -0.1004 -0.0857
   44TCq2    C8  676   4.552   3.687   1.625 -0.6318 -0.0570  0.3132
   44TCq2    O4  677   4.522   3.794   1.577  0.4953  0.4623  0.6818
   44TCq2    C9  678   4.594   3.367   1.984 -0.0404  0.3784  0.0523
   44TCq2    O5  679   4.713   3.335   1.964  0.0289 -0.7265 -0.7063
   44TCq2    O6  680   4.518   3.305   2.063  0.7668  0.1413  0.3353
   44TCq2    H2  681   4.396   3.500   2.072 -3.3874 -0.5995 -1.0906
   44TCq2    H3  682   4.688   3.509   1.770 -0.1947  0.4886 -1.3279
   44TCq2    H4  683   4.378   3.806   1.784  1.1137 -0.8163 -2.2633
   45TMC2    C1  684   4.287   0.586   8.958  0.9261 -0.0729 -0.6197
   45TMC2    C2  685   4.422   0.600   8.951 -0.7104 -0.5223 -0.1247
   45TMC2    C3  686   4.479   0.703   9.027  0.2925 -0.3872  0.1122
   45TMC2    C4  687   4.211   0.690   9.020  0.6179  0.1122  0.2633
   45TMC2    C5  688   4.279   0.793   9.084  0.5159  0.7371  0.2699
   45TMC2    C6  689   4.412   0.798   9.098  0.0521  0.6981 -0.4349
   45TMC2     C  690   4.217   0.476   8.889 -0.8310 -0.8587 -0.1701
   45TMC2     O  691   4.271   0.416   8.795 -0.7166 -0.5080  0.1114
   45TMC2     H  692   4.489   0.525   8.910 -0.3727  1.0892 -2.5217
   45TMC2    H1  693   4.105   0.690   9.002  0.8310 -0.4607 -0.9664
   45TMC2    H2  694   4.460   0.878   9.153 -0.3612  0.1038  0.7956
   45TMC2    C7  695   4.202   0.910   9.136 -0.4869 -0.2417  0.5106
   45TMC2    C8  696   4.613   0.678   9.061 -0.1560 -0.0985 -0.1170
   45TMC2    O1  697   4.081   0.901   9.126 -0.1532 -0.4157 -0.1731
   45TMC2    O2  698   4.626   0.696   9.176  0.0411 -0.6604  0.0218
   45TMC2    O5  699   4.683   0.724   8.958  0.1458  0.0224 -0.6126
   45TMC2    H5  700   4.646   0.691   8.873  0.8881  0.9157 -1.2854
   46MPD2     C  701   4.056   0.244   8.810 -0.1448 -0.0222  0.3316
   46MPD2    C1  702   4.002   0.361   8.863  0.6047 -0.3305 -0.0329
   46MPD2    C2  703   3.869   0.366   8.880  0.6855 -0.6383  0.0098
   46MPD2    C3  704   3.776   0.274   8.839  0.0345  0.0222  0.6708
   46MPD2    C4  705   3.824   0.163   8.778  0.0891 -0.3134 -0.9776
   46MPD2    C5  706   3.960   0.147   8.770 -0.3257 -0.2260  0.0127
   46MPD2     H  707   3.837   0.459   8.924 -0.9508 -0.5352 -1.3968
   46MPD2    H1  708   3.752   0.092   8.738  0.4381 -0.2056 -1.7911
   46MPD2    H2  709   4.159   0.211   8.806  0.1282  0.7680  0.8764
   46MPD2    H3  710   3.995   0.066   8.708 -1.8509 -0.2134 -0.8520
   46MPD2     N  711   3.637   0.299   8.849  0.3124  0.1105  0.4771
   46MPD2    H5  712   3.604   0.391   8.878 -1.0377 -0.6870  1.5164
   46MPD2    N1  713   4.085   0.458   8.920 -0.0505  0.2302  0.0632
   46MPD2    H7  714   4.037   0.528   8.976  1.7249  0.6401  1.0712
   47TMC2    C1  715   2.189   1.020   9.143 -1.1902  0.7319  0.0753
   47TMC2    C2  716   2.156   1.152   9.120  0.1933  0.3265  0.1736
   47TMC2    C3  717   2.071   1.184   9.015 -0.8262  1.4252  0.9275
   47TMC2    C4  718   2.143   0.921   9.059  0.5599  0.3457  0.3811
   47TMC2    C5  719   2.054   0.958   8.965 -0.0062 -0.5112 -0.3594
   47TMC2    C6  720   2.011   1.085   8.944  0.7629  0.0598 -0.6552
   47TMC2     C  721   2.272   0.990   9.260 -0.4507 -0.6929  0.4958
   47TMC2     O  722   2.327   1.086   9.313 -0.6199  0.1639  0.1288
   47TMC2     H  723   2.186   1.232   9.186 -0.5907  0.8481 -0.1111
   47TMC2    H1  724   2.178   0.819   9.066 -1.0636 -0.2836 -0.5975
   47TMC2    H2  725   1.938   1.104   8.867  0.3569  0.9093 -0.0695
   47TMC2    C7  726   1.990   0.836   8.907  0.2452  0.0371  0.9340
   47TMC2    C8  727   1.989   1.310   9.014  0.4560  0.1786 -0.8670
   47TMC2    O1  728   2.027   0.723   8.944  0.1397 -0.7468 -0.1349
   47TMC2    O2  729   1.872   1.301   8.978  0.4874  0.0195  0.1497
   47TMC2    O5  730   2.008   1.371   9.136  0.0111  0.4134  0.2922
   47TMC2    H5  731   2.094   1.416   9.121  1.6568 -3.2043 -1.1285
   48MPD2     C  732   2.400   0.879   9.511 -0.5767 -0.4199 -0.3256
   48MPD2    C1  733   2.340   0.798   9.411  0.4165  0.2132 -0.1422
   48MPD2    C2  734   2.351   0.662   9.415  0.7074  0.5188  0.1384
   48MPD2    C3  735   2.438   0.601   9.506  0.8177  0.3662 -0.9647
   48MPD2    C4  736   2.509   0.680   9.593  0.2095  0.1032  0.0536
   48MPD2    C5  737   2.485   0.818   9.594 -0.3243  0.9049 -0.0553
   48MPD2     H  738   2.292   0.607   9.342  1.4573  1.3913 -1.1372
   48MPD2    H1  739   2.581   0.638   9.663 -1.0764  0.4898  1.6196
   48MPD2    H2  740   2.402   0.986   9.530 -4.7262  0.0963 -2.9407
   48MPD2    H3  741   2.526   0.870   9.679  0.5999  1.7174 -0.9984
   48MPD2     N  742   2.446   0.463   9.497  0.3932  0.3246  0.5266
   48MPD2    H5  743   2.388   0.419   9.426  1.6033 -0.5587  0.0862
   48MPD2    N1  744   2.266   0.856   9.300  0.3086 -0.2051  0.8132
   48MPD2    H7  745   2.206   0.797   9.242 -1.0185 -1.2897  3.2857
   49MPD2     C  746   0.423   2.817   9.944  0.4213 -0.2057 -0.7632
   49MPD2    C1  747   0.427   2.802  10.083  0.5761  0.2829 -0.0031
   49MPD2    C2  748   0.402   2.908  10.163  0.1465 -0.6625  0.1362
   49MPD2    C3  749   0.390   3.031  10.116  0.3509  0.3815 -0.5671
   49MPD2    C4  750   0.389   3.049   9.979  0.0902 -0.1416  0.2235
   49MPD2    C5  751   0.404   2.942   9.896 -0.2879 -0.0548 -0.6846
   49MPD2     H  752   0.410   2.883  10.268 -1.3849 -1.0179  0.1822
   49MPD2    H1  753   0.370   3.147   9.937  1.0397 -1.2774 -2.8725
   49MPD2    H2  754   0.430   2.736   9.873  2.6547 -0.7672  0.1040
   49MPD2    H3  755   0.425   2.967   9.793  2.2204  2.8180  0.5275
   49MPD2     N  756   0.384   3.147  10.194  0.4016 -0.1438 -0.6329
   49MPD2    H5  757   0.388   3.234  10.143  1.5391  0.6245  0.7749
   49MPD2    N1  758   0.435   2.679  10.144 -0.0885  0.6467 -0.0134
   49MPD2    H7  759   0.457   2.680  10.243 -2.0390  1.2104  0.4121
   50TCq2    C1  760   0.432   2.559  10.088  0.2054  0.3181 -0.7949
   50TCq2    O2  761   0.390   2.526   9.971 -0.5558  0.2644  0.3621
   50TCq2    C2  762   0.486   2.452  10.173 -0.0876 -0.5980  0.9605
   50TCq2    C3  763   0.564   2.363  10.108 -0.1794  0.4567 -0.6808
   50TCq2    C4  764   0.611   2.256  10.178 -0.9216 -0.3163  0.3264
   50TCq2    C5  765   0.588   2.239  10.312  0.2999 -0.1594 -0.2883
   50TCq2    C6  766   0.519   2.335  10.380  0.2162 -0.6271 -1.0102
   50TCq2    C7  767   0.462   2.441  10.306 -0.1496  0.7901 -0.3511
   50TCq2    C8  768   0.510   2.319  10.522 -0.4313  0.0287  0.4441
   50TCq2    O4  769   0.520   2.208  10.570 -0.5394  1.0096 -0.2424
   50TCq2    C9  770   0.680   2.151  10.101 -0.2110 -0.3527  0.4988
   50TCq2    O5  771   0.708   2.174   9.976 -0.5539 -0.0480  0.3775
   50TCq2    O6  772   0.720   2.051  10.166 -0.0120 -0.0346 -0.0331
   50TCq2    H2  773   0.579   2.375  10.002 -1.1061  1.3778 -0.7178
   50TCq2    H3  774   0.644   2.156  10.353 -0.9599 -0.3871  0.9622
   50TCq2    H4  775   0.402   2.519  10.351 -0.5333  1.8643 -2.7453
   51MPD2     C  776   4.572   1.559   0.775  0.0984 -0.0466  0.0208
   51MPD2    C1  777   4.618   1.444   0.708  0.1046  0.1508  0.2776
   51MPD2    C2  778   0.033   1.418   0.713 -0.3880 -0.2437  0.0864
   51MPD2    C3  779   0.116   1.499   0.786  0.2921 -0.5132  0.2978
   51MPD2    C4  780   0.069   1.607   0.855 -0.2955  0.3373  0.5553
   51MPD2    C5  781   4.661   1.642   0.837 -0.1161 -0.9126  0.2752
   51MPD2     H  782   0.068   1.326   0.668 -0.4926 -0.8028  1.1497
   51MPD2    H1  783   0.135   1.664   0.920 -1.4424  1.4086  0.7903
   51MPD2    H2  784   4.471   1.595   0.788 -0.4339 -0.9864 -1.6083
   51MPD2    H3  785   4.626   1.730   0.889  3.2525  0.4085  0.3354
   51MPD2     N  786   0.257   1.470   0.799 -0.2375 -0.2140  0.2705
   51MPD2    H5  787   0.321   1.535   0.843 -2.0283  0.7063  1.5340
   51MPD2    N1  788   4.537   1.350   0.636  0.0409  0.3281  0.5479
   51MPD2    H7  789   4.570   1.260   0.602  2.2276  0.9465  1.0208
   52TCq2    C1  790   0.321   1.368   0.735 -0.6396  0.1873  0.4677
   52TCq2    O2  791   0.275   1.275   0.672 -0.5496 -0.1389  0.3616
   52TCq2    C2  792   0.469   1.368   0.743 -0.0968  0.1684 -0.8848
   52TCq2    C3  793   0.539   1.254   0.708  0.3536 -0.4396  0.5125
   52TCq2    C4  794   0.676   1.260   0.709  0.3544  0.1565 -0.3562
   52TCq2    C5  795   0.744   1.372   0.749  0.1199  0.6187  0.6225
   52TCq2    C6  796   0.673   1.485   0.774 -0.5271 -0.1997  0.5730
   52TCq2    C7  797   0.537   1.486   0.764 -0.4341 -0.5824  0.6271
   52TCq2    C8  798   0.728   1.611   0.826 -0.0109 -0.2452 -0.6059
   52TCq2    O4  799   0.657   1.713   0.820  0.7183  0.1513 -0.1839
   52TCq2    C9  800   0.747   1.146   0.686  0.6698  0.2276  0.6414
   52TCq2    O5  801   0.870   1.159   0.673 -0.0256  0.1452 -0.5473
   52TCq2    O6  802   0.679   1.044   0.681 -0.3712  0.0849  0.0738
   52TCq2    H2  803   0.483   1.164   0.685 -1.4518  1.4938 -2.7141
   52TCq2    H3  804   0.852   1.373   0.753  0.0410 -0.2640  3.3711
   52TCq2    H4  805   0.483   1.578   0.784 -0.1258 -0.1531 -0.4833
   53TMC2    C1  806   1.198   0.453  11.803 -0.7817  0.4733 -0.2940
   53TMC2    C2  807   1.291   0.388  11.872  0.2340  0.1767 -0.1072
   53TMC2    C3  808   1.246   0.332  11.994 -0.1267  0.3152  0.5964
   53TMC2    C4  809   1.070   0.473  11.857 -0.8067 -0.3519  0.9780
   53TMC2    C5  810   1.043   0.431  11.982  0.7037  0.8864  0.3563
   53TMC2    C6  811   1.126   0.356  12.053 -0.3795  0.0641  0.1916
   53TMC2     C  812   1.212   0.458  11.660  0.0274 -0.8114  0.1232
   53TMC2     O  813   1.325   0.457  11.614 -0.5702  0.2331  0.3475
   53TMC2     H  814   1.379   0.347  11.824 -0.9099 -1.3585 -0.9286
   53TMC2    H1  815   0.996   0.536  11.809  1.7492  1.2343 -0.8554
   53TMC2    H2  816   1.097   0.305  12.143  4.9983  0.0931  1.9833
   53TMC2    C7  817   0.909   0.481  12.031 -0.0145  0.4772 -0.2453
   53TMC2    C8  818   1.328   0.222  12.046 -0.5690  0.2678  0.0513
   53TMC2    O1  819   0.821   0.506  11.952  0.0082  0.5107 -0.1561
   53TMC2    O2  820   1.444   0.238  12.083  0.5021 -0.1292 -0.2980
   53TMC2    O5  821   1.272   0.113  12.003  0.0294 -0.0525 -0.6583
   53TMC2    H5  822   1.188   0.126  11.954 -1.8648  1.4748  3.0431
   54MPD2     C  823   1.142   0.491  11.370  0.1228  0.0405  0.4834
   54MPD2    C1  824   1.047   0.495  11.466  0.1018 -0.0844  0.3687
   54MPD2    C2  825   0.915   0.498  11.431 -0.3480 -0.1752 -0.4585
   54MPD2    C3  826   0.883   0.524  11.297  0.5085  0.2918 -0.2865
   54MPD2    C4  827   0.983   0.545  11.204 -0.6915 -0.0505  0.0255
   54MPD2    C5  828   1.109   0.516  11.236 -0.0313  0.3548  0.2841
   54MPD2     H  829   0.832   0.502  11.501  0.8536  0.8045  0.8970
   54MPD2    H1  830   0.962   0.560  11.099 -2.2804 -0.8139  0.2364
   54MPD2    H2  831   1.248   0.479  11.392  1.1094  2.3908 -2.9502
   54MPD2    H3  832   1.178   0.509  11.153 -1.5629 -1.3321 -0.8305
   54MPD2     N  833   0.750   0.529  11.257 -0.3055  0.0657  0.2777
   54MPD2    H5  834   0.739   0.562  11.162  2.5664 -0.0856 -0.1067
   54MPD2    N1  835   1.085   0.465  11.599 -0.4530 -0.0505 -0.4952
   54MPD2    H7  836   1.002   0.457  11.658 -1.8210  1.2984 -2.2464
   55MPD2     C  837   1.174   1.968   0.222  0.7240  0.6385 -0.2803
   55MPD2    C1  838   1.048   1.949   0.284  0.3407  0.6057 -0.7004
   55MPD2    C2  839   0.984   2.053   0.335  0.1009 -0.5499  0.0662
   55MPD2    C3  840   1.044   2.176   0.331 -0.1146  0.4612 -0.8801
   55MPD2    C4  841   1.163   2.194   0.275 -0.5507 -0.7949  0.0336
   55MPD2    C5  842   1.224   2.094   0.212  0.1913  0.3288  0.1885
   55MPD2     H  843   0.891   2.042   0.390 -0.1098  1.9216  0.2285
   55MPD2    H1  844   1.218   2.288   0.273  0.2235 -1.2427  0.8365
   55MPD2    H2  845   1.229   1.886   0.178  0.0028  0.4260 -0.7820
   55MPD2    H3  846   1.326   2.101   0.178  0.3151 -0.0651  0.4896
   55MPD2     N  847   0.971   2.285   0.384  0.6771  0.5257 -0.2891
   55MPD2    H5  848   0.880   2.259   0.420  1.9874 -2.6793  0.7322
   55MPD2    N1  849   1.000   1.817   0.291 -0.2543 -0.0516 -0.4100
   55MPD2    H7  850   1.068   1.752   0.252 -0.3285  0.1148 -0.8155
   56TCq2    C1  851   0.877   1.770   0.336  0.0938 -0.1354  0.6203
   56TCq2    O2  852   0.774   1.837   0.342 -0.5185  0.3242 -0.0606
   56TCq2    C2  853   0.878   1.628   0.349 -0.4361 -0.6912 -0.5342
   56TCq2    C3  854   0.987   1.552   0.329 -0.2718 -0.4148  0.1189
   56TCq2    C4  855   0.978   1.422   0.339  0.1244 -0.3892 -0.1741
   56TCq2    C5  856   0.861   1.362   0.361 -0.3289  0.5192 -0.2772
   56TCq2    C6  857   0.751   1.440   0.374 -0.4302  0.2104 -0.1827
   56TCq2    C7  858   0.755   1.573   0.374  0.1054  0.1949  0.5268
   56TCq2    C8  859   0.618   1.374   0.371  0.0953  0.1239 -0.0739
   56TCq2    O4  860   0.613   1.251   0.356 -0.1956  0.1375 -0.1979
   56TCq2    C9  861   1.097   1.337   0.337  0.1546  0.7449  0.9092
   56TCq2    O5  862   1.209   1.388   0.318 -0.3062  0.4741  0.5410
   56TCq2    O6  863   1.078   1.207   0.344 -0.1064 -0.0880 -0.1495
   56TCq2    H2  864   1.087   1.592   0.333 -1.1021  1.4634  2.2454
   56TCq2    H3  865   0.851   1.256   0.380  0.9245  0.0342 -2.3182
   56TCq2    H4  866   0.666   1.636   0.375  1.6909  2.4743 -0.4438
   57TMC2    C1  867   0.759   4.049  13.230  0.2364 -0.4553 -0.4039
   57TMC2    C2  868   0.824   4.115  13.332 -0.4025  0.5626  0.7943
   57TMC2    C3  869   0.958   4.124  13.313  0.2913  0.1708 -0.1991
   57TMC2    C4  870   0.816   4.010  13.109 -0.0161 -0.2091  0.2430
   57TMC2    C5  871   0.952   4.035  13.089  0.5290 -0.2452  0.0669
   57TMC2    C6  872   1.020   4.093  13.192  0.6089 -0.7683 -0.4258
   57TMC2     C  873   0.612   4.061  13.235 -0.3757 -0.1330  0.9194
   57TMC2     O  874   0.567   4.149  13.305  0.0949 -0.1848  0.2633
   57TMC2     H  875   0.766   4.153  13.415 -0.9002  0.8731  0.3036
   57TMC2    H1  876   0.758   3.979  13.023 -0.9065  1.2526  0.3239
   57TMC2    H2  877   1.127   4.107  13.183  0.5237  0.1770  0.0181
   57TMC2    C7  878   1.020   3.967  12.977 -0.5744  0.0886  0.0572
   57TMC2    C8  879   1.007   4.231  13.396 -0.1422 -0.6333  1.4007
   57TMC2    O1  880   0.960   3.884  12.910 -0.5309  0.1217 -0.2962
   57TMC2    O2  881   1.099   4.305  13.361 -0.1575 -0.1304  0.4876
   57TMC2    O5  882   0.981   4.210  13.521 -0.4242 -0.7849 -0.4958
   57TMC2    H5  883   0.911   4.142  13.533 -2.6401  1.1423 -2.4333
   58MPD2     C  884   0.135   3.891  13.140  0.2867 -0.0064  0.1037
   58MPD2    C1  885   0.175   4.004  13.204  0.4749  0.0902 -0.3485
   58MPD2    C2  886   0.309   4.039  13.205  0.4156  0.3978 -0.6831
   58MPD2    C3  887   0.404   3.947  13.160 -0.2374 -0.8171  0.7837
   58MPD2    C4  888   0.363   3.828  13.103 -0.5477  0.2823  0.1449
   58MPD2    C5  889   0.229   3.807  13.084  0.3819  0.0886  0.2879
   58MPD2     H  890   0.336   4.124  13.266  1.0734 -0.1429 -0.2247
   58MPD2    H1  891   0.434   3.754  13.068  3.2116  3.7203  0.5422
   58MPD2    H2  892   0.030   3.868  13.122 -0.0297  2.5057 -1.1176
   58MPD2    H3  893   0.201   3.726  13.018  0.2018  0.2610  0.1497
   58MPD2     N  894   0.543   3.963  13.166 -0.4983 -0.7919 -0.0499
   58MPD2    H5  895   0.605   3.897  13.122  1.2435  1.2120 -0.6057
   58MPD2    N1  896   0.086   4.096  13.267 -0.3296  0.0248  0.0813
   58MPD2    H7  897   0.124   4.186  13.294 -1.7880  0.8089 -0.5135
   59MPD2     C  898   3.102   4.001  12.955  0.1844  0.4004  0.3134
   59MPD2    C1  899   3.194   4.015  12.854  0.0577 -0.3729 -0.0654
   59MPD2    C2  900   3.304   4.101  12.865 -0.3822  0.5944  0.8631
   59MPD2    C3  901   3.317   4.176  12.982  0.2016  0.4068  0.5269
   59MPD2    C4  902   3.215   4.163  13.078 -0.9110  0.3947 -0.2775
   59MPD2    C5  903   3.116   4.072  13.064  0.6409  0.7759  0.2196
   59MPD2     H  904   3.374   4.124  12.786 -0.3469 -2.8204 -0.0829
   59MPD2    H1  905   3.214   4.214  13.173 -0.0611  0.0599 -0.0880
   59MPD2    H2  906   3.033   3.917  12.957 -1.0845  1.4509  1.1390
   59MPD2    H3  907   3.045   4.060  13.145  0.4684  3.1552  0.4135
   59MPD2     N  908   3.421   4.269  13.013  0.8270  0.4577  0.6631
   59MPD2    H5  909   3.409   4.327  13.096  0.0409  0.8892  0.2486
   59MPD2    N1  910   3.183   3.948  12.728 -0.4274 -0.0920  0.5241
   59MPD2    H7  911   3.257   3.960  12.660  0.1713 -0.2147  1.1591
   60TCq2    C1  912   3.077   3.870  12.681  0.4400 -0.4345  0.3545
   60TCq2    O2  913   2.972   3.849  12.740  0.4011  0.0107  0.1305
   60TCq2    C2  914   3.088   3.835  12.536 -0.1877 -0.1801 -0.6359
   60TCq2    C3  915   3.212   3.801  12.483 -0.4013  0.0976  0.0466
   60TCq2    C4  916   3.230   3.798  12.352 -0.0953  0.0726 -0.3742
   60TCq2    C5  917   3.123   3.804  12.263  0.1229  0.2427  0.2591
   60TCq2    C6  918   3.001   3.831  12.320 -0.0361 -0.0064  0.0793
   60TCq2    C7  919   2.976   3.836  12.453  0.6488  0.4497  0.4157
   60TCq2    C8  920   2.906   3.894  12.239  0.2318 -0.1598  0.5051
   60TCq2    O4  921   2.794   3.910  12.279 -0.1328 -0.1072 -0.3838
   60TCq2    C9  922   3.363   3.772  12.310 -0.5863  0.4382  0.2572
   60TCq2    O5  923   3.375   3.763  12.184  0.1088 -1.1373 -0.0284
   60TCq2    O6  924   3.463   3.800  12.386  0.2908  0.6312 -0.4455
   60TCq2    H2  925   3.291   3.765  12.548 -1.5503 -1.8236  0.3569
   60TCq2    H3  926   3.133   3.792  12.156 -1.2479 -0.6950  0.2412
   60TCq2    H4  927   2.878   3.849  12.497  0.2312 -0.7750 -0.1630
   61MPD2     C  928   2.143   0.550  14.421 -0.4055 -0.6600 -0.0028
   61MPD2    C1  929   2.233   0.645  14.469  0.3938  0.7656  0.2789
   61MPD2    C2  930   2.243   0.769  14.406  0.5828 -0.1651 -0.0337
   61MPD2    C3  931   2.164   0.792  14.290 -0.0617 -0.4539 -0.5400
   61MPD2    C4  932   2.086   0.689  14.239 -0.1211  0.2064 -1.1169
   61MPD2    C5  933   2.073   0.573  14.304 -0.3320 -0.1872 -0.8242
   61MPD2     H  934   2.296   0.847  14.459  1.1273 -0.1846 -0.5536
   61MPD2    H1  935   2.027   0.717  14.153  0.9036  0.5893 -1.6820
   61MPD2    H2  936   2.129   0.463  14.484  0.0284 -0.3396  0.5296
   61MPD2    H3  937   1.995   0.505  14.272  0.1802 -0.8266 -0.7184
   61MPD2     N  938   2.165   0.916  14.218 -0.4125  0.2697  0.1100
   61MPD2    H5  939   2.100   0.937  14.143  0.5832  0.6085 -0.6587
   61MPD2    N1  940   2.312   0.631  14.587  0.1614  0.4288 -0.0731
   61MPD2    H7  941   2.368   0.714  14.601  1.1065 -0.0365 -1.1407
   62TCq2    C1  942   2.311   0.523  14.673  0.1450 -0.1272 -0.1097
   62TCq2    O2  943   2.280   0.407  14.651 -0.5967 -0.1252  0.3637
   62TCq2    C2  944   2.381   0.548  14.805  0.0520  0.1419 -0.3735
   62TCq2    C3  945   2.375   0.444  14.896 -0.0898  0.0160 -0.2588
   62TCq2    C4  946   2.399   0.469  15.031 -0.0873 -0.4509  0.3252
   62TCq2    C5  947   2.414   0.600  15.070  0.1116 -0.0149  0.4551
   62TCq2    C6  948   2.414   0.705  14.979 -0.0317  0.1849 -0.1862
   62TCq2    C7  949   2.394   0.684  14.841  0.3666  0.1831 -0.6876
   62TCq2    C8  950   2.404   0.841  15.026  0.9176 -0.8077  0.0884
   62TCq2    O4  951   2.444   0.931  14.949  0.3498  0.4540 -0.3986
   62TCq2    C9  952   2.383   0.359  15.121 -0.5209 -1.6060  0.6543
   62TCq2    O5  953   2.380   0.386  15.244  0.4174 -0.1944 -0.6631
   62TCq2    O6  954   2.399   0.244  15.075 -0.4186  0.5220 -0.0167
   62TCq2    H2  955   2.360   0.343  14.862  2.2425 -0.2176 -0.5993
   62TCq2    H3  956   2.431   0.608  15.177  0.3845 -2.0383  0.5521
   62TCq2    H4  957   2.388   0.767  14.772 -2.0910 -0.0919 -0.8238
   63TMC2    C1  958   2.277   0.715  10.446  1.0327 -0.8575 -1.1179
   63TMC2    C2  959   2.297   0.787  10.557 -0.3205 -0.0307  0.4225
   63TMC2    C3  960   2.384   0.895  10.551  0.3677  0.1315 -0.4515
   63TMC2    C4  961   2.352   0.741  10.330 -0.0225  0.0329  0.3009
   63TMC2    C5  962   2.445   0.844  10.331 -0.8014  0.7256  0.1809
   63TMC2    C6  963   2.461   0.924  10.442 -0.1213 -0.1821 -0.0860
   63TMC2     C  964   2.157   0.639  10.432 -0.0755  0.3386  0.3797
   63TMC2     O  965   2.066   0.713  10.468 -0.5449  0.2682  0.2625
   63TMC2     H  966   2.239   0.764  10.646 -1.8116 -0.3471 -0.6360
   63TMC2    H1  967   2.324   0.691  10.239 -0.0296  0.4849  0.0559
   63TMC2    H2  968   2.519   1.015  10.442 -2.7496  1.4844 -0.6777
   63TMC2    C7  969   2.434   0.913  10.205 -0.5342  0.4275 -0.5568
   63TMC2    C8  970   2.465   0.919  10.670  0.1913 -0.2523  1.0313
   63TMC2    O1  971   2.333   0.888  10.132  0.2218 -0.0082  0.3584
   63TMC2    O2  972   2.583   0.957  10.668  0.3803  0.6165 -0.4855
   63TMC2    O5  973   2.400   0.893  10.785  0.2706 -0.4246  0.0533
   63TMC2    H5  974   2.303   0.881  10.776  0.6292 -3.0645 -0.2455
   64MPD2     C  975   1.871   0.334  10.121  0.1859 -0.6161  0.0679
   64MPD2    C1  976   1.984   0.274  10.151  0.5208  0.2653 -0.0523
   64MPD2    C2  977   2.084   0.351  10.216  0.5400 -0.3148  0.1861
   64MPD2    C3  978   2.058   0.479  10.266  0.3042  0.1867  0.5485
   64MPD2    C4  979   1.932   0.527  10.246  0.0027 -0.3948  0.1185
   64MPD2    C5  980   1.841   0.452  10.176 -0.8336  0.5910 -0.4752
   64MPD2     H  981   2.178   0.302  10.239  0.7539 -0.4326 -0.9468
   64MPD2    H1  982   1.897   0.621  10.288  1.3790  0.2244 -0.1214
   64MPD2    H2  983   1.802   0.285  10.052  2.1035  0.2120 -2.4651
   64MPD2    H3  984   1.740   0.486  10.156 -0.7239  0.6038 -1.0227
   64MPD2     N  985   2.163   0.536  10.342 -0.9456 -0.2448  0.6134
   64MPD2    H5  986   2.255   0.494  10.333 -0.4642  0.8293  0.6248
   64MPD2    N1  987   2.022   0.141  10.114  0.9321 -0.7564 -0.1632
   64MPD2    H7  988   2.119   0.113  10.126  1.1510 -0.5541 -1.4565
   65MPD2     C  989   2.996   0.181  15.714 -1.2754  0.1995  0.2729
   65MPD2    C1  990   3.013   0.165  15.580 -0.1762  0.5053  0.3312
   65MPD2    C2  991   2.990   0.042  15.518  0.0896  0.6331 -0.6342
   65MPD2    C3  992   2.955   4.663  15.600 -0.2137 -0.4882 -0.3428
   65MPD2    C4  993   2.934   4.679  15.732 -0.2222 -0.5222  0.0775
   65MPD2    C5  994   2.958   0.082  15.795  0.7525 -0.2043  0.2003
   65MPD2     H  995   2.994   0.042  15.410 -1.4071  4.0322 -0.6952
   65MPD2    H1  996   2.909   4.600  15.802 -0.4018 -1.2337 -0.7913
   65MPD2    H2  997   3.009   0.281  15.753  1.3386 -0.5550  1.3251
   65MPD2    H3  998   2.963   0.099  15.902 -0.1334 -1.8165  0.5091
   65MPD2     N  999   2.924   4.531  15.554  0.5439 -0.7155  0.1515
   65MPD2    H5 1000   2.879   4.458  15.608  0.0746 -0.6369 -0.1364
   65MPD2    N1 1001   3.025   0.279  15.494  0.7222 -0.1936 -0.4098
   65MPD2    H7 1002   3.039   0.248  15.398  0.0146 -2.8469  0.3249
   66TCq2    C1 1003   2.985   0.407  15.517 -0.1606 -0.0512 -0.6215
   66TCq2    O2 1004   2.935   0.447  15.624  0.0696  0.1390 -0.3356
   66TCq2    C2 1005   3.000   0.494  15.400  0.0161  0.1043 -0.1478
   66TCq2    C3 1006   3.103   0.479  15.314 -0.5514 -0.1512  0.0618
   66TCq2    C4 1007   3.127   0.575  15.216 -0.5843  0.5898 -0.2528
   66TCq2    C5 1008   3.062   0.694  15.217  0.2151  0.3184 -0.2193
   66TCq2    C6 1009   2.965   0.707  15.312 -0.0616 -0.4568  0.2443
   66TCq2    C7 1010   2.928   0.613  15.399 -0.2854  0.3836 -0.8351
   66TCq2    C8 1011   2.883   0.823  15.307  0.6875 -0.0696 -0.5474
   66TCq2    O4 1012   2.887   0.881  15.194  0.3301  1.0797  0.1378
   66TCq2    C9 1013   3.229   0.551  15.112  0.3650 -0.1674  0.0614
   66TCq2    O5 1014   3.305   0.449  15.124 -0.3578  0.2432 -1.1154
   66TCq2    O6 1015   3.215   0.612  15.006  0.0128  0.3628 -0.1205
   66TCq2    H2 1016   3.164   0.389  15.315 -1.2055 -0.6263 -1.9809
   66TCq2    H3 1017   3.087   0.773  15.146  0.6010 -1.2283 -1.7851
   66TCq2    H4 1018   2.844   0.623  15.467  0.1466 -1.8522  0.0308
   67MPD2     C 1019   3.046   4.361  14.097 -0.1716 -0.7902  0.9472
   67MPD2    C1 1020   3.030   4.493  14.130 -0.2955 -0.1678  0.2832
   67MPD2    C2 1021   2.962   4.582  14.046  0.0935 -0.4579  0.5391
   67MPD2    C3 1022   2.896   4.535  13.935 -0.0111 -0.1953 -0.3097
   67MPD2    C4 1023   2.909   4.400  13.897 -0.0802 -0.2811  0.6570
   67MPD2    C5 1024   2.985   4.318  13.979 -0.1113  0.2342 -0.3709
   67MPD2     H 1025   2.947   4.686  14.074  2.6992  0.3334 -1.0407
   67MPD2    H1 1026   2.879   4.354  13.804  0.9169  0.2291  0.0926
   67MPD2    H2 1027   3.103   4.290  14.155  1.1927 -2.2962 -2.2404
   67MPD2    H3 1028   3.000   4.216  13.944  0.5607 -0.5787  2.2930
   67MPD2     N 1029   2.817   4.620  13.850  0.2481 -0.3125 -0.3042
   67MPD2    H5 1030   2.769   4.583  13.768  1.8306 -0.7624 -1.0257
   67MPD2    N1 1031   3.095   4.554  14.241  0.8498  0.5169  0.2704
   67MPD2    H7 1032   3.078   4.653  14.249  0.7472  0.4818  0.4858
   68TCq2    C1 1033   3.185   4.499  14.321 -0.1649 -1.0247  0.4692
   68TCq2    O2 1034   3.231   4.387  14.329  0.2225  0.1997  0.0834
   68TCq2    C2 1035   3.245   4.598  14.417  0.3321  0.3688  0.0907
   68TCq2    C3 1036   3.174   4.709  14.456 -0.2548  0.3792 -0.2376
   68TCq2    C4 1037   3.219   0.072  14.554  0.0643 -0.4447  0.2665
   68TCq2    C5 1038   3.333   0.044  14.623  0.3192  0.3993 -1.0201
   68TCq2    C6 1039   3.404   4.654  14.584 -0.0469  0.2215 -0.6675
   68TCq2    C7 1040   3.355   4.566  14.488  0.0110 -0.1960  0.1013
   68TCq2    C8 1041   3.524   4.615  14.660  1.2835  0.6646 -0.8204
   68TCq2    O4 1042   3.594   4.533  14.607  0.3976 -0.1027  0.3446
   68TCq2    C9 1043   3.156   0.209  14.564 -0.3899  0.1166 -0.4792
   68TCq2    O5 1044   3.194   0.283  14.658 -0.2873  0.4256  0.3953
   68TCq2    O6 1045   3.089   0.248  14.460 -0.2169 -0.3867 -0.0170
   68TCq2    H2 1046   3.090   0.015  14.395 -0.6864 -0.2160  0.0637
   68TCq2    H3 1047   3.382   0.122  14.680  0.5094  0.6026 -1.4706
   68TCq2    H4 1048   3.415   4.481  14.459  1.2073  0.6871 -0.0298
   69TMC2    C1 1049   0.370   1.178  11.760  0.0913 -0.4497 -0.0890
   69TMC2    C2 1050   0.262   1.256  11.759 -0.0273  0.1032  0.3598
   69TMC2    C3 1051   0.237   1.335  11.647 -0.4432  0.1139  0.1511
   69TMC2    C4 1052   0.457   1.181  11.656 -0.5445 -0.1935 -0.1015
   69TMC2    C5 1053   0.421   1.264  11.547 -0.1886  0.4781  0.7746
   69TMC2    C6 1054   0.317   1.342  11.544  0.4863 -0.0729 -0.2666
   69TMC2     C 1055   0.411   1.113  11.881 -0.0878  0.2440  0.1454
   69TMC2     O 1056   0.327   1.095  11.967  0.7085  1.0431  0.0905
   69TMC2     H 1057   0.195   1.247  11.844  1.6963 -1.2142  1.5818
   69TMC2    H1 1058   0.537   1.110  11.638 -1.1227 -1.0441  0.6943
   69TMC2    H2 1059   0.287   1.399  11.456 -3.4331  0.4060  1.3626
   69TMC2    C7 1060   0.512   1.260  11.437  0.0334  0.6596  0.0552
   69TMC2    C8 1061   0.094   1.364  11.611 -0.4440 -0.9201 -0.1252
   69TMC2    O1 1062   0.628   1.219  11.455  0.2713  0.4231  0.6518
   69TMC2    O2 1063   0.052   1.340  11.500  0.4808  0.4308 -0.2026
   69TMC2    O5 1064   0.023   1.358  11.726  0.0714 -0.0348  0.0362
   69TMC2    H5 1065   0.071   1.408  11.795 -3.1575  3.4402 -0.2106
   70MPD2     C 1066   0.737   0.975  11.966 -0.8669  0.2477  0.5580
   70MPD2    C1 1067   0.612   1.017  11.992 -0.7068 -0.4248  0.1156
   70MPD2    C2 1068   0.566   1.004  12.120 -0.4316  0.9580 -0.4087
   70MPD2    C3 1069   0.638   0.942  12.217 -0.3103 -0.4101  0.0312
   70MPD2    C4 1070   0.762   0.897  12.183 -0.0317 -0.1792 -0.9175
   70MPD2    C5 1071   0.817   0.913  12.058 -0.3469 -0.3440 -0.0741
   70MPD2     H 1072   0.463   1.037  12.130 -1.0020 -1.1477  0.7093
   70MPD2    H1 1073   0.818   0.851  12.265 -1.1865 -0.3192 -0.2150
   70MPD2    H2 1074   0.773   0.966  11.864  0.4878 -0.7212  1.1241
   70MPD2    H3 1075   0.916   0.876  12.032  0.0846  0.9472 -0.2924
   70MPD2     N 1076   0.591   0.921  12.349 -0.5009 -0.3530  0.5116
   70MPD2    H5 1077   0.648   0.859  12.404 -1.3292 -0.4645  1.2452
   70MPD2    N1 1078   0.542   1.071  11.884  0.3528 -0.2032 -0.1890
   70MPD2    H7 1079   0.589   1.069  11.795 -0.9987  0.0346 -0.9070
   71TMC2    C1 1080   2.261   1.533   1.276  0.1148 -0.0640  0.1853
   71TMC2    C2 1081   2.341   1.535   1.387  0.1459  0.4755  0.7893
   71TMC2    C3 1082   2.294   1.602   1.501  0.6396  0.5458  0.1953
   71TMC2    C4 1083   2.132   1.573   1.278 -0.0532 -0.7984  0.0580
   71TMC2    C5 1084   2.088   1.625   1.395  0.3859  0.0062  0.2215
   71TMC2    C6 1085   2.163   1.646   1.512 -0.8533 -0.6177 -0.0328
   71TMC2     C 1086   2.307   1.482   1.150  0.1349 -0.0750 -0.1451
   71TMC2     O 1087   2.426   1.466   1.129  0.6786 -0.2243  0.1094
   71TMC2     H 1088   2.449   1.542   1.378  0.1202  0.0338  0.1718
   71TMC2    H1 1089   2.078   1.587   1.186  0.6019 -0.5262 -0.2875
   71TMC2    H2 1090   2.121   1.696   1.599  0.1649 -0.6532  0.4918
   71TMC2    C7 1091   1.955   1.674   1.403  0.9656 -0.2393  0.5347
   71TMC2    C8 1092   2.393   1.620   1.604  0.3100  0.7922 -0.2708
   71TMC2    O1 1093   1.919   1.718   1.508 -0.3611 -0.8506 -0.0349
   71TMC2    O2 1094   2.391   1.708   1.691 -0.1787  0.0020 -0.0312
   71TMC2    O5 1095   2.429   1.498   1.625 -0.4453 -0.2038  0.0606
   71TMC2    H5 1096   2.407   1.433   1.555  0.1992  0.3396 -0.6447
   72MPD2     C 1097   2.278   1.243   0.700 -0.0909 -0.0513 -0.3145
   72MPD2    C1 1098   2.367   1.337   0.744 -0.5009 -0.3945  0.7370
   72MPD2    C2 1099   2.343   1.399   0.870 -0.2249  0.1022 -0.3136
   72MPD2    C3 1100   2.227   1.377   0.939  0.2771  0.7364 -0.0365
   72MPD2    C4 1101   2.136   1.285   0.896 -0.2731 -0.1279 -0.3107
   72MPD2    C5 1102   2.164   1.219   0.777  0.1948  0.2286  0.1380
   72MPD2     H 1103   2.405   1.478   0.911 -2.5567  1.0254  1.4382
   72MPD2    H1 1104   2.042   1.260   0.945  1.0329 -0.3611  2.0473
   72MPD2    H2 1105   2.286   1.181   0.612 -0.3727  0.7038 -0.8602
   72MPD2    H3 1106   2.092   1.150   0.735 -1.0604  0.1381  2.4752
   72MPD2     N 1107   2.208   1.424   1.073 -0.3511  0.0005  0.1103
   72MPD2    H5 1108   2.117   1.413   1.116  0.2726  2.8977  2.2328
   72MPD2    N1 1109   2.482   1.389   0.678 -0.5210  0.0975  0.4286
   72MPD2    H7 1110   2.540   1.459   0.724  0.5791  0.2707 -1.1963
   73TMC2    C1 1111   2.243   2.739  13.757 -0.3269 -0.0552 -0.1735
   73TMC2    C2 1112   2.120   2.710  13.805  0.7442 -0.2244 -0.6339
   73TMC2    C3 1113   2.042   2.804  13.858  0.4843 -0.6747 -0.5276
   73TMC2    C4 1114   2.300   2.850  13.804 -0.1210 -0.0796  0.1575
   73TMC2    C5 1115   2.222   2.949  13.858 -0.4890  1.1983 -0.4948
   73TMC2    C6 1116   2.091   2.934  13.892  0.1254  0.4564 -0.6572
   73TMC2     C 1117   2.259   2.726  13.618 -0.3806 -0.2634 -1.0636
   73TMC2     O 1118   2.303   2.825  13.556  0.4783  0.4223  0.2168
   73TMC2     H 1119   2.068   2.617  13.786 -1.2346  0.4515  1.4571
   73TMC2    H1 1120   2.401   2.870  13.770  0.0343  1.7538  1.6637
   73TMC2    H2 1121   2.022   3.008  13.930 -0.5754 -0.1451 -0.7399
   73TMC2    C7 1122   2.257   3.077  13.806  0.3839  0.0449 -0.1992
   73TMC2    C8 1123   1.939   2.758  13.944  0.1717 -0.0624 -0.1257
   73TMC2    O1 1124   2.215   3.179  13.856 -0.0802  0.3915  0.1404
   73TMC2    O2 1125   1.954   2.663  14.017 -0.7418 -0.1160  0.1960
   73TMC2    O5 1126   1.817   2.805  13.902  0.6950 -0.4408 -0.4624
   73TMC2    H5 1127   1.821   2.862  13.823  1.8689  0.3854  0.1901
   74MPD2     C 1128   2.144   2.480  13.181 -0.4287  0.6856  0.4135
   74MPD2    C1 1129   2.180   2.610  13.209  0.0636  0.8382  0.3406
   74MPD2    C2 1130   2.202   2.646  13.341 -0.5567  0.6389  0.6382
   74MPD2    C3 1131   2.182   2.562  13.444  0.5907 -0.3695  0.8894
   74MPD2    C4 1132   2.143   2.428  13.422  0.5510 -0.7992 -0.0550
   74MPD2    C5 1133   2.123   2.394  13.290  0.1472 -0.2694 -0.5669
   74MPD2     H 1134   2.228   2.747  13.369  0.0731  0.3255  1.1604
   74MPD2    H1 1135   2.138   2.344  13.491  0.1670 -0.7781 -0.0590
   74MPD2    H2 1136   2.127   2.441  13.082  2.1428 -3.3655  1.5674
   74MPD2    H3 1137   2.090   2.292  13.273  0.7469 -0.8359  1.5963
   74MPD2     N 1138   2.200   2.605  13.576 -0.5437  0.3503  1.0416
   74MPD2    H5 1139   2.164   2.541  13.646 -0.6178  1.8714  2.3964
   74MPD2    N1 1140   2.205   2.702  13.103  0.1492  0.2631  0.2714
   74MPD2    H7 1141   2.206   2.664  13.009 -0.8370 -0.3533  0.5132
   75TCq2    C1 1142   2.803   0.032  13.864 -0.0250 -0.3864  0.1249
   75TCq2    O2 1143   2.858   0.113  13.939  0.2981  0.3864  0.3247
   75TCq2    C2 1144   2.721   0.093  13.762  0.3994  0.3713 -0.0207
   75TCq2    C3 1145   2.746   0.226  13.730 -0.3588 -0.4013  0.0848
   75TCq2    C4 1146   2.703   0.280  13.619  0.2255 -0.5811  0.3437
   75TCq2    C5 1147   2.628   0.205  13.534 -0.0538 -0.3687  0.5470
   75TCq2    C6 1148   2.590   0.078  13.575  0.1426  0.1438 -0.0791
   75TCq2    C7 1149   2.653   0.016  13.672 -0.4083  0.6237 -0.0291
   75TCq2    C8 1150   2.508   0.004  13.484 -0.5695  0.1156  0.5194
   75TCq2    O4 1151   2.514   0.049  13.371  0.6573  0.0166 -0.0444
   75TCq2    C9 1152   2.748   0.403  13.578 -0.4866 -0.4048 -0.3826
   75TCq2    O5 1153   2.692   0.458  13.479 -0.0620 -0.5797 -0.1656
   75TCq2    O6 1154   2.815   0.454  13.670 -0.2889  1.3240 -0.4753
   75TCq2    H2 1155   2.806   0.283  13.800  1.6402  0.5278 -2.3977
   75TCq2    H3 1156   2.605   0.244  13.436  1.1227 -0.5277  0.2126
   75TCq2    H4 1157   2.626   4.639  13.701 -1.0816  0.5843 -0.8153
   76MPD2     C 1158   1.363   1.582  11.554  0.7185 -0.3500  0.0241
   76MPD2    C1 1159   1.395   1.454  11.520 -0.4435 -0.8260 -0.0019
   76MPD2    C2 1160   1.477   1.372  11.598 -0.1329  0.0069 -0.4489
   76MPD2    C3 1161   1.520   1.421  11.725  0.3497 -0.4146 -0.3550
   76MPD2    C4 1162   1.482   1.547  11.761  0.4718 -0.6848  0.5758
   76MPD2    C5 1163   1.405   1.626  11.682 -0.5415  0.7026  0.4375
   76MPD2     H 1164   1.498   1.272  11.560 -2.1986  0.7562 -3.5294
   76MPD2    H1 1165   1.512   1.587  11.857  0.8494  0.4844 -0.0276
   76MPD2    H2 1166   1.299   1.654  11.505  2.1586  0.4059 -0.7748
   76MPD2    H3 1167   1.383   1.722  11.727 -2.2047  0.4214  0.2231
   76MPD2     N 1168   1.586   1.341  11.816 -0.0564 -0.3714  0.2011
   76MPD2    H5 1169   1.619   1.378  11.904  0.6614 -1.3047  0.3170
   76MPD2    N1 1170   1.352   1.397  11.397  0.3525  0.4616  0.9433
   76MPD2    H7 1171   1.369   1.300  11.371 -0.5654  0.2777  1.0257
   77TCq2    C1 1172   1.597   1.199  11.811 -0.0642 -0.0869 -0.2251
   77TCq2    O2 1173   1.539   1.123  11.735  0.3686 -0.3808 -0.2883
   77TCq2    C2 1174   1.649   1.135  11.921 -0.0820 -0.0341 -0.1176
   77TCq2    C3 1175   1.606   1.007  11.953 -0.7591  0.1893  0.1319
   77TCq2    C4 1176   1.664   0.939  12.062 -0.5631 -0.6752  0.2795
   77TCq2    C5 1177   1.759   0.990  12.143  0.1495 -0.0575 -0.2499
   77TCq2    C6 1178   1.791   1.124  12.111 -0.1318  0.7552  0.1882
   77TCq2    C7 1179   1.741   1.193  12.005  0.4228 -0.3191  0.6046
   77TCq2    C8 1180   1.924   1.165  12.146 -0.1194 -0.3994 -0.4705
   77TCq2    O4 1181   1.952   1.285  12.141  0.2112 -0.3896  0.1681
   77TCq2    C9 1182   1.626   0.801  12.086 -0.0124  0.0319  0.2519
   77TCq2    O5 1183   1.551   0.744  12.005  0.2102 -0.2850  0.2960
   77TCq2    O6 1184   1.684   0.749  12.190  0.3452  0.3349  0.2433
   77TCq2    H2 1185   1.531   0.950  11.899  0.3837 -2.0227  0.8945
   77TCq2    H3 1186   1.797   0.942  12.232 -1.1197  0.2013  0.4424
   77TCq2    H4 1187   1.793   1.286  11.985  0.9509 -1.2676 -2.5102
   78MPD1     C 1188   1.927   4.113   0.289 -0.0900 -0.4471 -0.2217
   78MPD1    C1 1189   1.892   4.096   0.416 -0.1630 -0.3240  0.1304
   78MPD1    C2 1190   1.896   4.194   0.512 -0.1559  0.7331  0.1240
   78MPD1    C3 1191   1.948   4.316   0.479  0.3748  0.3460 -0.3497
   78MPD1    C4 1192   2.002   4.329   0.351 -0.0201 -0.5337  0.9901
   78MPD1    C5 1193   1.988   4.231   0.261  0.2435  0.1679 -0.0907
   78MPD1     H 1194   1.867   4.178   0.615 -1.3781 -1.4145 -0.5587
   78MPD1    H1 1195   2.056   4.419   0.323  0.3924 -1.2786 -0.6301
   78MPD1    H2 1196   1.908   4.035   0.215  0.8062 -1.2417  0.3758
   78MPD1    H3 1197   2.024   4.238   0.159  2.3966  0.0551  0.6567
   78MPD1     N 1198   1.964   4.425   0.570 -0.1068 -1.0393 -0.1729
   78MPD1    H5 1199   2.021   4.507   0.547  1.3315 -2.7545 -2.6871
   78MPD1    N1 1200   1.817   3.980   0.447 -0.2573  0.3427 -0.2301
   78MPD1    H6 1201   1.856   3.895   0.406  2.3913  1.2920  0.3560
   78MPD1    H7 1202   1.814   3.972   0.549  0.5604  1.1386 -0.1510
   79TCq2    C1 1203   1.901   4.425   0.689  0.2865  0.7445  0.3926
   79TCq2    O2 1204   1.792   4.371   0.716  0.1343 -0.0560 -0.1685
   79TCq2    C2 1205   1.940   4.543   0.762  0.3101 -0.6917 -0.2307
   79TCq2    C3 1206   1.855   4.562   0.874  0.0349 -0.0746 -0.4678
   79TCq2    C4 1207   1.895   4.655   0.969  0.2315  0.7343  0.5791
   79TCq2    C5 1208   2.005   0.018   0.941  0.2914 -0.5273 -0.4893
   79TCq2    C6 1209   2.083   4.713   0.837 -0.3183  0.7602 -0.7210
   79TCq2    C7 1210   2.055   4.620   0.741 -0.0483 -0.4862 -0.3929
   79TCq2    C8 1211   2.197   0.074   0.819 -0.0181 -0.3641  0.5430
   79TCq2    O4 1212   2.262   0.105   0.918  0.1701  0.5456  0.1540
   79TCq2    C9 1213   1.840   4.664   1.106 -0.4472 -0.7240 -0.0432
   79TCq2    O5 1214   1.749   4.578   1.135  0.3548  0.3681  0.4585
   79TCq2    O6 1215   1.879   0.039   1.178  0.0896  0.3183 -0.6939
   79TCq2    H2 1216   1.773   4.493   0.891 -0.0143 -0.0812 -0.7437
   79TCq2    H3 1217   2.046   0.077   1.022  1.4702 -3.8402  1.3397
   79TCq2    H4 1218   2.126   4.586   0.667 -0.0005  0.0704 -0.6029
   80MPD2     C 1219   0.882   0.092  12.116  0.3705  0.7425 -0.6823
   80MPD2    C1 1220   0.794   0.128  12.019 -0.4112 -0.3008 -0.3198
   80MPD2    C2 1221   0.657   0.157  12.056 -0.2003  0.2790  0.1997
   80MPD2    C3 1222   0.617   0.160  12.190  0.7173  0.3704  0.1563
   80MPD2    C4 1223   0.710   0.119  12.282 -0.0141 -0.5883  0.1169
   80MPD2    C5 1224   0.840   0.088  12.249 -0.2906 -0.7024 -0.4156
   80MPD2     H 1225   0.598   0.207  11.979 -0.2611  0.5030  0.3902
   80MPD2    H1 1226   0.678   0.115  12.386  0.3656  0.5582  0.2827
   80MPD2    H2 1227   0.989   0.075  12.112 -0.0789 -1.8409 -1.7428
   80MPD2    H3 1228   0.911   0.072  12.329 -2.3029 -1.3903  1.2587
   80MPD2     N 1229   0.489   0.204  12.235  0.3274  0.3614 -0.3608
   80MPD2    H5 1230   0.465   0.185  12.332  2.0762 -0.2437 -0.0418
   80MPD2    N1 1231   0.823   0.107  11.880  0.4334  0.0318  0.3435
   80MPD2    H7 1232   0.742   0.114  11.819  0.4747  2.2776  0.5518
   81TCq2    C1 1233   0.940   0.086  11.827 -0.3649  0.0673 -0.3543
   81TCq2    O2 1234   1.056   0.101  11.867 -0.2951 -0.1370 -0.1290
   81TCq2    C2 1235   0.926   0.038  11.692 -0.1602  0.0492  0.3115
   81TCq2    C3 1236   1.007   0.081  11.589 -0.3035  0.1018 -0.4977
   81TCq2    C4 1237   0.971   0.045  11.460  0.4471  0.0040  0.6748
   81TCq2    C5 1238   0.863   4.693  11.435 -0.4976  0.0681 -0.6889
   81TCq2    C6 1239   0.794   4.638  11.541 -0.7782 -0.2620  0.8684
   81TCq2    C7 1240   0.821   4.680  11.669  0.4807 -0.4082 -0.4349
   81TCq2    C8 1241   0.665   4.580  11.499  0.7999 -0.1740 -0.1476
   81TCq2    O4 1242   0.623   4.624  11.392 -0.1654 -0.4610  0.0069
   81TCq2    C9 1243   1.064   0.075  11.349  1.1250 -0.1666 -0.3734
   81TCq2    O5 1244   1.016   0.060  11.232  0.2335 -0.0744  0.4321
   81TCq2    O6 1245   1.185   0.058  11.375  0.5510 -0.2022  0.0195
   81TCq2    H2 1246   1.093   0.147  11.595 -0.3344  0.1604 -0.6982
   81TCq2    H3 1247   0.846   4.671  11.330 -0.6344 -1.2944 -0.3841
   81TCq2    H4 1248   0.765   4.636  11.750 -0.2900  1.7011  0.1726
   82MPD2     C 1249   3.874   4.517  10.842  0.3718 -0.2598 -0.5539
   82MPD2    C1 1250   3.763   4.455  10.885  0.0364 -0.0527 -0.5982
   82MPD2    C2 1251   3.775   4.362  10.981  0.6972 -0.0541 -0.7654
   82MPD2    C3 1252   3.895   4.318  11.030 -0.0586  0.4148 -0.7870
   82MPD2    C4 1253   4.014   4.376  10.976  0.3319  0.4748 -0.3857
   82MPD2    C5 1254   4.001   4.481  10.886 -0.4140 -0.3142  0.0871
   82MPD2     H 1255   3.688   4.311  11.021  1.3887 -0.9957 -0.4587
   82MPD2    H1 1256   4.110   4.335  11.004 -0.0494 -0.8890 -1.1042
   82MPD2    H2 1257   3.881   4.594  10.766 -0.3801  0.7293  0.3857
   82MPD2    H3 1258   4.080   4.541  10.841 -0.1707 -0.6849  0.0241
   82MPD2     N 1259   3.910   4.199  11.109 -0.3932  0.0097 -0.6868
   82MPD2    H5 1260   4.008   4.179  11.125  0.0115  3.3614  1.0918
   82MPD2    N1 1261   3.638   4.484  10.824 -0.4891  0.3759 -0.0976
   82MPD2    H7 1262   3.629   4.559  10.757 -2.2922 -1.1921 -1.5906
   83TCq2    C1 1263   3.814   4.122  11.170  0.0838 -0.9605 -0.6211
   83TCq2    O2 1264   3.707   4.165  11.213  0.0122  0.7627  0.1622
   83TCq2    C2 1265   3.852   3.979  11.191  0.3174 -0.8184 -0.1894
   83TCq2    C3 1266   3.981   3.938  11.214  0.6784 -0.8414  0.7081
   83TCq2    C4 1267   4.005   3.802  11.204 -0.0956  0.5926  0.6970
   83TCq2    C5 1268   3.907   3.716  11.192  0.1199 -0.0445 -0.4182
   83TCq2    C6 1269   3.780   3.756  11.165 -0.1365  1.1753  0.1344
   83TCq2    C7 1270   3.748   3.886  11.169 -0.6834  0.4865  0.5152
   83TCq2    C8 1271   3.668   3.657  11.153 -0.5534 -0.5151 -0.6653
   83TCq2    O4 1272   3.685   3.553  11.218 -0.2438  0.0951  0.2630
   83TCq2    C9 1273   4.136   3.745  11.237 -0.0286  1.2038  0.7708
   83TCq2    O5 1274   4.230   3.831  11.260 -0.6597 -0.5950  0.0390
   83TCq2    O6 1275   4.133   3.620  11.254  0.3334 -0.6521 -0.4859
   83TCq2    H2 1276   4.070   3.998  11.229  0.7952  0.1609 -4.3205
   83TCq2    H3 1277   3.915   3.608  11.195  0.1828 -0.0454 -0.5875
   83TCq2    H4 1278   3.650   3.930  11.154 -0.1874  0.5459 -2.4024
   84TCq2    C1 1279   0.354   3.156  10.321 -0.6123  0.0753  0.1695
   84TCq2    O2 1280   0.286   3.083  10.386  0.6471 -0.3609 -0.2729
   84TCq2    C2 1281   0.366   3.297  10.367  0.2540  0.0795  0.6945
   84TCq2    C3 1282   0.424   3.391  10.285 -0.1637  0.1552 -0.2371
   84TCq2    C4 1283   0.394   3.517  10.312  0.1033 -0.1391  0.5895
   84TCq2    C5 1284   0.332   3.549  10.435 -0.2963  0.3138  0.1711
   84TCq2    C6 1285   0.308   3.453  10.531 -0.1480  0.2400 -0.1851
   84TCq2    C7 1286   0.311   3.322  10.489  0.2238 -0.2674 -0.1281
   84TCq2    C8 1287   0.265   3.485  10.664  0.1746  0.0047 -0.1922
   84TCq2    O4 1288   0.202   3.401  10.728  0.2050  0.5932  0.2776
   84TCq2    C9 1289   0.432   3.617  10.218 -0.2144 -0.2141 -0.7515
   84TCq2    O5 1290   0.443   3.732  10.265 -0.6980 -0.2659  0.6230
   84TCq2    O6 1291   0.446   3.582  10.098  0.0100 -0.2440  0.7439
   84TCq2    H2 1292   0.485   3.365  10.199  1.7782  1.7310  0.6625
   84TCq2    H3 1293   0.309   3.653  10.455 -0.9615 -0.2280  2.2296
   84TCq2    H4 1294   0.269   3.242  10.549  1.8428 -0.3505  0.8588
   85MPD2     C 1295   0.343   1.054  16.391 -0.1752 -0.5110  0.1437
   85MPD2    C1 1296   0.274   1.047  16.278 -0.8696  0.6994  0.5598
   85MPD2    C2 1297   0.306   1.144  16.183 -0.1527  0.6707  1.0355
   85MPD2    C3 1298   0.409   1.237  16.198  0.3169 -0.2845  0.2306
   85MPD2    C4 1299   0.488   1.233  16.316  0.3236  0.2992  0.2960
   85MPD2    C5 1300   0.454   1.144  16.410 -0.0013 -0.4800 -0.0604
   85MPD2     H 1301   0.239   1.147  16.098 -0.5300 -1.0561  1.2658
   85MPD2    H1 1302   0.565   1.306  16.341  0.7812  0.0145 -0.2578
   85MPD2    H2 1303   0.332   0.988  16.476 -1.5997  1.8707  1.8147
   85MPD2    H3 1304   0.496   1.139  16.510 -2.4637  0.9282  1.0383
   85MPD2     N 1305   0.430   1.328  16.093  0.1868  0.0709  0.2254
   85MPD2    H5 1306   0.373   1.334  16.009 -0.1064 -2.0988  0.2614
   85MPD2    N1 1307   0.165   0.958  16.262  0.2478 -0.3852  0.6226
   85MPD2    H7 1308   0.128   0.964  16.167  1.1314 -2.2767  0.1509
   86TCq2    C1 1309   0.553   1.383  16.072 -0.3834 -0.5238  1.3834
   86TCq2    O2 1310   0.652   1.389  16.145  0.4417  0.5602 -0.2846
   86TCq2    C2 1311   0.571   1.425  15.936 -0.1566 -0.3507 -0.1409
   86TCq2    C3 1312   0.468   1.479  15.863  0.3989 -0.0695 -0.1809
   86TCq2    C4 1313   0.504   1.539  15.746  0.3644  0.0194  0.2275
   86TCq2    C5 1314   0.621   1.525  15.679 -0.4629  0.2365  0.4632
   86TCq2    C6 1315   0.711   1.452  15.753 -0.4914 -0.1479  0.0118
   86TCq2    C7 1316   0.691   1.416  15.884 -0.0676 -0.3261 -0.4579
   86TCq2    C8 1317   0.828   1.407  15.691  0.2262  0.6323 -0.7679
   86TCq2    O4 1318   0.910   1.368  15.775  0.1466  0.0713  0.5861
   86TCq2    C9 1319   0.398   1.616  15.684  0.2174  0.5711  0.3143
   86TCq2    O5 1320   0.280   1.618  15.734  0.0697  0.2156 -0.4035
   86TCq2    O6 1321   0.421   1.693  15.587 -0.2294  0.2805 -0.1632
   86TCq2    H2 1322   0.380   1.504  15.921 -0.6498 -1.7538 -1.0365
   86TCq2    H3 1323   0.628   1.551  15.574 -1.5007 -0.3356  0.2574
   86TCq2    H4 1324   0.753   1.352  15.946 -1.1614 -0.5367  0.4284
   87MPD2     C 1325   2.905   4.385   1.812  0.0831 -0.2835 -0.1688
   87MPD2    C1 1326   2.946   4.360   1.684  0.1773  0.7313 -0.4803
   87MPD2    C2 1327   2.863   4.399   1.583 -0.1072  0.1806 -1.3858
   87MPD2    C3 1328   2.757   4.476   1.607  0.1437  0.1930 -0.6546
   87MPD2    C4 1329   2.717   4.499   1.735  0.0217  0.2034 -0.0672
   87MPD2    C5 1330   2.789   4.448   1.840  0.1072 -0.6211  0.0309
   87MPD2     H 1331   2.893   4.385   1.480  0.4711  2.1706 -1.5041
   87MPD2    H1 1332   2.626   4.557   1.744  0.2292  0.6350 -0.7751
   87MPD2    H2 1333   2.964   4.351   1.897  0.8886 -1.6554 -1.2777
   87MPD2    H3 1334   2.762   4.454   1.945  0.7038 -3.4350  0.3506
   87MPD2     N 1335   2.684   4.536   1.498 -0.1600  0.1795  0.1449
   87MPD2    H5 1336   2.740   4.534   1.414  0.6133 -1.0237  0.6832
   87MPD2    N1 1337   3.059   4.283   1.668 -0.5965  0.6061 -0.5609
   87MPD2    H7 1338   3.107   4.263   1.755 -1.3850  1.5590  0.0976
   88TCq2    C1 1339   3.102   4.236   1.551 -0.5427  0.1268 -0.3442
   88TCq2    O2 1340   3.042   4.216   1.445  0.0296  0.8834  0.2821
   88TCq2    C2 1341   3.245   4.198   1.552 -0.0065  0.2533 -0.4615
   88TCq2    C3 1342   3.296   4.154   1.671 -0.3831  0.0230  0.0540
   88TCq2    C4 1343   3.393   4.057   1.672  0.0225 -1.3650  0.2984
   88TCq2    C5 1344   3.436   3.993   1.561  0.1404 -0.3638  0.0072
   88TCq2    C6 1345   3.391   4.040   1.439  0.5187 -0.3968 -0.5704
   88TCq2    C7 1346   3.299   4.144   1.435 -0.4085  1.4060 -0.2170
   88TCq2    C8 1347   3.405   3.952   1.324  0.5742 -0.1000 -0.2076
   88TCq2    O4 1348   3.387   3.983   1.210  0.4650 -0.4533 -0.7457
   88TCq2    C9 1349   3.432   3.998   1.798 -0.3593 -0.0902 -0.5826
   88TCq2    O5 1350   3.422   3.871   1.804 -0.1479 -0.3435  0.1469
   88TCq2    O6 1351   3.431   4.074   1.897  0.0281 -0.1292 -0.3599
   88TCq2    H2 1352   3.266   4.183   1.771  1.7409  1.2569  0.3308
   88TCq2    H3 1353   3.507   3.912   1.565  0.8524  0.0852 -2.9849
   88TCq2    H4 1354   3.262   4.180   1.340 -0.0432 -0.1047 -0.9381
   89MPD2     C 1355   3.837   2.052   1.756 -0.8394  0.3265  0.1362
   89MPD2    C1 1356   3.748   1.991   1.667  0.0881 -0.2498 -0.2149
   89MPD2    C2 1357   3.799   1.937   1.548  0.2192 -0.1183  0.6914
   89MPD2    C3 1358   3.939   1.933   1.528 -0.1168  0.6649 -0.0906
   89MPD2    C4 1359   4.016   2.006   1.612 -0.0436 -0.1797  0.1277
   89MPD2    C5 1360   3.966   2.066   1.722 -0.3296  1.6802  1.1277
   89MPD2     H 1361   3.728   1.910   1.470 -0.1456  4.3334 -0.4747
   89MPD2    H1 1362   4.125   2.008   1.605  0.0749 -0.4584  1.6872
   89MPD2    H2 1363   3.806   2.094   1.851  0.0088  1.1480  0.0479
   89MPD2    H3 1364   4.038   2.120   1.783  0.9406  0.0341  1.1018
   89MPD2     N 1365   3.999   1.870   1.410  0.3553 -0.1003 -0.3959
   89MPD2    H5 1366   3.944   1.809   1.350  0.8634 -2.0277  1.0710
   89MPD2    N1 1367   3.605   2.006   1.681 -0.2724  0.1009  0.0622
   89MPD2    H7 1368   3.550   1.960   1.609  0.3949  1.1544 -1.0942
   90TCq2    C1 1369   4.127   1.894   1.367  1.4474 -0.3208 -0.6825
   90TCq2    O2 1370   4.214   1.977   1.392 -0.3229 -0.2718 -0.3110
   90TCq2    C2 1371   4.162   1.797   1.265 -0.2063 -0.0149 -0.1290
   90TCq2    C3 1372   4.135   1.664   1.278  0.5033  0.4565  0.2045
   90TCq2    C4 1373   4.172   1.580   1.178  1.0344 -0.5199  0.1378
   90TCq2    C5 1374   4.233   1.626   1.069 -0.1277 -0.3787 -0.3994
   90TCq2    C6 1375   4.269   1.757   1.059 -0.0963 -0.6607  0.5850
   90TCq2    C7 1376   4.242   1.840   1.167 -0.0494 -0.3209 -0.2516
   90TCq2    C8 1377   4.310   1.801   0.927  0.2104 -0.0377  0.6484
   90TCq2    O4 1378   4.258   1.739   0.831  0.6136  0.0618 -0.6656
   90TCq2    C9 1379   4.152   1.435   1.199 -0.2687 -0.0369 -0.7289
   90TCq2    O5 1380   4.191   1.359   1.107 -0.8169  0.1365 -0.2457
   90TCq2    O6 1381   4.052   1.405   1.272  0.6015  0.2954 -0.0822
   90TCq2    H2 1382   4.095   1.623   1.370 -1.4533 -0.4403 -1.0451
   90TCq2    H3 1383   4.254   1.560   0.985 -1.9679  1.0017 -1.9673
   90TCq2    H4 1384   4.236   1.948   1.160  1.0312 -0.1266  2.0203
   91TMC2    C1 1385   0.737   2.461  16.504  0.2910 -0.7658  0.7699
   91TMC2    C2 1386   0.802   2.547  16.589  0.2799 -0.8698  0.5377
   91TMC2    C3 1387   0.727   2.596  16.692 -0.0921  0.7815 -0.5415
   91TMC2    C4 1388   0.613   2.415  16.525  0.6242 -0.1278 -0.3869
   91TMC2    C5 1389   0.545   2.469  16.628 -0.5055  0.3034  0.9127
   91TMC2    C6 1390   0.596   2.565  16.713  0.7090 -0.4514 -0.9764
   91TMC2     C 1391   0.823   2.362  16.444  0.0253  0.4276  0.2169
   91TMC2     O 1392   0.791   2.246  16.472  0.8090  0.1686  0.1324
   91TMC2     H 1393   0.895   2.599  16.573 -0.8455  0.7538 -0.6566
   91TMC2    H1 1394   0.574   2.333  16.466  0.2926  1.3095 -2.1629
   91TMC2    H2 1395   0.531   2.589  16.796  1.7771  2.2250 -0.9077
   91TMC2    C7 1396   0.419   2.401  16.665 -0.2864 -0.8322 -0.7907
   91TMC2    C8 1397   0.776   2.702  16.773  0.3847  0.4886  0.5690
   91TMC2    O1 1398   0.384   2.377  16.779 -0.4417 -1.0555 -0.3220
   91TMC2    O2 1399   0.711   2.799  16.812  0.1464  0.5059  0.0087
   91TMC2    O5 1400   0.906   2.697  16.788  0.4739  0.4066  0.3446
   91TMC2    H5 1401   0.949   2.612  16.764 -0.1927  0.3231 -0.5590
   92MPD2     C 1402   1.065   2.207  16.388  0.2015 -0.0745  0.0056
   92MPD2    C1 1403   1.055   2.344  16.372 -0.4497  1.4493  0.1009
   92MPD2    C2 1404   1.174   2.415  16.353  0.8289  0.8139 -0.2418
   92MPD2    C3 1405   1.298   2.352  16.343  0.2560 -0.4293 -0.2205
   92MPD2    C4 1406   1.307   2.215  16.352  0.4342 -0.7858  0.4681
   92MPD2    C5 1407   1.190   2.146  16.378 -0.5967 -0.0664  1.2703
   92MPD2     H 1408   1.169   2.524  16.351 -1.7467  0.6817 -0.2971
   92MPD2    H1 1409   1.402   2.164  16.353  1.1816  0.6471  1.5444
   92MPD2    H2 1410   0.984   2.137  16.405  0.8069 -1.1007 -1.3229
   92MPD2    H3 1411   1.196   2.040  16.401  1.4749 -0.5675 -1.6563
   92MPD2     N 1412   1.417   2.429  16.333 -0.5235  0.1070  0.4566
   92MPD2    H5 1413   1.407   2.527  16.309  0.2881  0.0761 -0.0410
   92MPD2    N1 1414   0.937   2.423  16.391  0.5893  0.4174  0.0580
   92MPD2    H7 1415   0.946   2.524  16.388 -0.6324  0.5314  0.2747
   93MPD2     C 1416   2.052   1.607  13.954  0.0821 -0.3646  0.5746
   93MPD2    C1 1417   2.030   1.723  13.880 -0.0518 -0.6350 -0.2844
   93MPD2    C2 1418   1.914   1.731  13.804 -0.3830  0.4031 -0.3089
   93MPD2    C3 1419   1.828   1.628  13.789  0.7731  0.1535 -0.3460
   93MPD2    C4 1420   1.851   1.511  13.859  0.3318 -0.8124  0.1079
   93MPD2    C5 1421   1.965   1.504  13.940  0.6086 -0.1539  0.0161
   93MPD2     H 1422   1.901   1.830  13.759 -1.2593  0.4683  0.0852
   93MPD2    H1 1423   1.769   1.440  13.857 -0.9740  0.6968 -0.1131
   93MPD2    H2 1424   2.144   1.593  14.011  1.2905  1.5310 -0.8980
   93MPD2    H3 1425   1.976   1.415  14.000 -2.2750 -0.6578 -0.1636
   93MPD2     N 1426   1.704   1.641  13.724  0.2105  0.3098  0.3302
   93MPD2    H5 1427   1.639   1.565  13.739  0.5848  0.4387  2.6005
   93MPD2    N1 1428   2.109   1.837  13.879  1.1618 -0.2151  0.1458
   93MPD2    H7 1429   2.091   1.918  13.820  0.9062 -0.0135  0.4940
   94TCq2    C1 1430   2.232   1.856  13.935  0.3767  0.5657  0.3162
   94TCq2    O2 1431   2.302   1.771  13.992  0.7650 -0.1695  0.8237
   94TCq2    C2 1432   2.287   1.988  13.905  0.1566  0.0421  0.0521
   94TCq2    C3 1433   2.198   2.083  13.857 -0.1619  0.1833 -0.3024
   94TCq2    C4 1434   2.244   2.197  13.807 -0.6353  0.8009 -0.5470
   94TCq2    C5 1435   2.373   2.232  13.820 -0.1359  0.7519  0.4986
   94TCq2    C6 1436   2.462   2.143  13.869 -0.9043  0.0119  0.1301
   94TCq2    C7 1437   2.427   2.015  13.908  0.9488  0.1015  0.3537
   94TCq2    C8 1438   2.601   2.183  13.883  0.6387  0.5134  0.4413
   94TCq2    O4 1439   2.685   2.092  13.879 -0.4406  0.3358  0.2950
   94TCq2    C9 1440   2.151   2.297  13.761  0.5951 -0.1172  1.0148
   94TCq2    O5 1441   2.189   2.418  13.768  0.6173  0.2070 -0.0799
   94TCq2    O6 1442   2.031   2.261  13.740  0.4634  0.0460 -0.6579
   94TCq2    H2 1443   2.091   2.073  13.857 -0.3409  2.1531 -0.6065
   94TCq2    H3 1444   2.398   2.329  13.778  0.5554  0.2401 -0.2770
   94TCq2    H4 1445   2.497   1.938  13.939 -0.3283 -0.3750  2.0079
   95TMC2    C1 1446   2.202   4.456  16.073 -0.2916  0.0926 -0.4926
   95TMC2    C2 1447   2.195   4.374  16.180 -0.6263  0.7157 -0.2819
   95TMC2    C3 1448   2.240   4.435  16.296 -0.0775 -0.1568  0.6616
   95TMC2    C4 1449   2.230   4.590  16.078  0.5118  0.5273 -0.6800
   95TMC2    C5 1450   2.250   4.649  16.205  0.9323 -0.5417 -0.4845
   95TMC2    C6 1451   2.274   4.569  16.313  0.4034 -0.2339 -0.1417
   95TMC2     C 1452   2.236   4.396  15.942  0.2896  0.3187  0.0547
   95TMC2     O 1453   2.249   4.465  15.841  1.0818  0.3814 -0.4169
   95TMC2     H 1454   2.170   4.268  16.181  1.2880  0.2595 -0.3988
   95TMC2    H1 1455   2.217   4.643  15.985  0.2423  0.4803 -0.6675
   95TMC2    H2 1456   2.298   4.616  16.408 -2.8968  0.6201  0.2663
   95TMC2    C7 1457   2.270   0.064  16.223 -0.1036 -0.2356 -1.2994
   95TMC2    C8 1458   2.269   4.338  16.400 -0.3386 -0.0402  0.4853
   95TMC2    O1 1459   2.338   0.098  16.321  0.3144  0.4946 -0.0448
   95TMC2    O2 1460   2.218   4.227  16.399  0.1909  0.4385  0.5596
   95TMC2    O5 1461   2.388   4.367  16.461 -0.3842 -0.4048 -0.7550
   95TMC2    H5 1462   2.426   4.454  16.434 -1.1793 -0.2373 -1.3572
   96MPD2     C 1463   2.393   3.966  15.686  0.8442  0.7804  0.1370
   96MPD2    C1 1464   2.409   4.099  15.652 -1.1145  0.7750  0.0722
   96MPD2    C2 1465   2.351   4.197  15.732 -0.1277  0.0914 -0.1890
   96MPD2    C3 1466   2.282   4.166  15.851  0.0545 -0.6941 -0.2619
   96MPD2    C4 1467   2.268   4.032  15.880  0.0884  0.4577  0.2448
   96MPD2    C5 1468   2.313   3.935  15.796 -0.4038  0.4544  0.5179
   96MPD2     H 1469   2.378   4.300  15.710 -0.1243  0.0371 -0.4473
   96MPD2    H1 1470   2.212   4.005  15.969  0.2519 -1.0257 -0.1079
   96MPD2    H2 1471   2.439   3.880  15.638 -1.4923  0.7050 -2.0039
   96MPD2    H3 1472   2.301   3.829  15.813 -1.9308  0.8882  2.1692
   96MPD2     N 1473   2.233   4.258  15.946 -0.0407  0.5411  1.1361
   96MPD2    H5 1474   2.204   4.221  16.036 -0.0632 -2.2852 -0.0228
   96MPD2    N1 1475   2.503   4.131  15.549  0.7255 -0.8347  0.0279
   96MPD2    H7 1476   2.561   4.053  15.520 -0.1488 -0.7021 -2.0822
   97MPD2     C 1477   3.669   0.978   0.397 -0.5408 -0.7271  0.2946
   97MPD2    C1 1478   3.750   1.086   0.398 -0.2739  0.5146 -0.7831
   97MPD2    C2 1479   3.840   1.105   0.292 -0.0163 -0.1898 -0.2264
   97MPD2    C3 1480   3.829   1.022   0.172 -0.3020  0.0245  0.1951
   97MPD2    C4 1481   3.730   0.921   0.168 -0.4384 -0.2595  0.1506
   97MPD2    C5 1482   3.656   0.903   0.280 -0.2327  0.1623 -0.1252
   97MPD2     H 1483   3.911   1.185   0.309 -0.3350  0.0093  0.1693
   97MPD2    H1 1484   3.721   0.852   0.085  0.1516 -1.9290  1.4760
   97MPD2    H2 1485   3.595   0.960   0.474 -1.3826 -0.1433 -0.3786
   97MPD2    H3 1486   3.584   0.821   0.285 -2.1677  1.9657  1.3243
   97MPD2     N 1487   3.906   1.057   0.054 -0.4369 -0.0232  0.1151
   97MPD2    H5 1488   3.866   1.022  17.664 -0.1852 -0.4494  0.1697
   97MPD2    N1 1489   3.750   1.164   0.517  0.1842 -0.0479 -0.3934
   97MPD2    H7 1490   3.677   1.147   0.586 -1.6000  2.7635 -1.5879
   98TCq2    C1 1491   4.023   1.132   0.058  0.2062  0.1073 -0.5936
   98TCq2    O2 1492   4.085   1.171   0.156  0.2536 -0.1362 -0.2936
   98TCq2    C2 1493   4.068   1.173  17.619  0.1276  0.1328 -0.4292
   98TCq2    C3 1494   4.019   1.112  17.510 -0.2252  0.1475 -0.4936
   98TCq2    C4 1495   4.042   1.167  17.387 -0.2342 -0.3712 -0.3634
   98TCq2    C5 1496   4.118   1.278  17.373  0.4783  0.1348  0.2626
   98TCq2    C6 1497   4.168   1.337  17.490 -0.4484  0.5386 -0.6310
   98TCq2    C7 1498   4.143   1.290  17.616 -0.3846  0.5738 -0.7606
   98TCq2    C8 1499   4.271   1.445  17.479  0.2948 -0.0999  0.1918
   98TCq2    O4 1500   4.338   1.464  17.578 -0.4253  0.1548  0.3336
   98TCq2    C9 1501   3.978   1.110  17.266 -0.4485 -0.3981 -0.1034
   98TCq2    O5 1502   3.911   1.007  17.289 -0.0704 -0.1122  0.1526
   98TCq2    O6 1503   4.016   1.159  17.156 -0.3146  0.1874 -0.0894
   98TCq2    H2 1504   3.972   1.014  17.514 -0.0249  0.0030 -1.7198
   98TCq2    H3 1505   4.138   1.321  17.276  0.2099 -2.5565 -0.9825
   98TCq2    H4 1506   4.187   1.341   0.004 -1.5490  1.7607 -0.8785
   99MPD2     C 1507   3.798   3.609   2.172  0.7536 -0.3044 -0.5863
   99MPD2    C1 1508   3.831   3.504   2.094  0.1134 -0.0746 -0.2085
   99MPD2    C2 1509   3.963   3.504   2.041  0.6744 -0.2456 -0.3615
   99MPD2    C3 1510   4.041   3.616   2.063 -0.1822 -0.2021  0.3234
   99MPD2    C4 1511   4.001   3.722   2.141 -0.0755  1.1670  0.0110
   99MPD2    C5 1512   3.875   3.720   2.193  0.8146  0.3591  0.2582
   99MPD2     H 1513   4.000   3.416   1.988  1.7213  0.5584 -0.9572
   99MPD2    H1 1514   4.070   3.803   2.162  0.2674  0.9138 -0.1574
   99MPD2    H2 1515   3.699   3.624   2.214  0.3343 -0.5138 -1.4955
   99MPD2    H3 1516   3.848   3.804   2.256  0.8265  0.6521 -0.1265
   99MPD2     N 1517   4.168   3.602   2.008  0.2814  0.0597  0.1044
   99MPD2    H5 1518   4.191   3.513   1.965 -0.6392 -0.5486  0.8818
   99MPD2    N1 1519   3.752   3.391   2.081  0.0663  0.6340 -0.4058
   99MPD2    H7 1520   3.775   3.326   2.006 -0.7256  1.0993 -1.0568
  100TCq2    C1 1521   3.630   3.366   2.134  0.4050  0.7875  0.2740
  100TCq2    O2 1522   3.581   3.419   2.235  0.3577 -0.1056 -0.2492
  100TCq2    C2 1523   3.558   3.259   2.062  0.4327 -0.7680 -0.0684
  100TCq2    C3 1524   3.612   3.208   1.944  0.1644  0.4817 -0.0340
  100TCq2    C4 1525   3.542   3.115   1.879  0.5514 -0.0543 -0.0257
  100TCq2    C5 1526   3.413   3.077   1.920  0.7999  0.6767 -0.0914
  100TCq2    C6 1527   3.368   3.134   2.039  0.4257  0.2116 -0.2687
  100TCq2    C7 1528   3.435   3.220   2.111  0.1035  0.8741 -0.0925
  100TCq2    C8 1529   3.227   3.146   2.060 -0.5873 -0.9605 -0.3646
  100TCq2    O4 1530   3.182   3.171   2.170 -0.3879  0.7027 -0.3434
  100TCq2    C9 1531   3.594   3.067   1.746  0.5392  0.4784 -0.1374
  100TCq2    O5 1532   3.525   2.987   1.681  0.3983 -0.5338  0.4231
  100TCq2    O6 1533   3.679   3.143   1.689  0.5284 -0.2329 -0.0268
  100TCq2    H2 1534   3.708   3.228   1.897  0.3479 -0.2943  0.0222
  100TCq2    H3 1535   3.357   3.007   1.858  1.4862 -0.4786  0.6046
  100TCq2    H4 1536   3.397   3.268   2.200 -1.7018 -2.5919  0.9947
  101MPD2     C 1537   4.178   0.008  12.528 -0.5976  0.2265  0.2193
  101MPD2    C1 1538   4.056   0.066  12.559 -0.4364 -0.2193 -0.3620
  101MPD2    C2 1539   3.972   0.003  12.644  0.2960 -0.0343 -0.0116
  101MPD2    C3 1540   4.015   4.617  12.710 -0.2721 -0.2479  0.2912
  101MPD2    C4 1541   4.145   4.571  12.691  0.0968  0.3064 -0.3564
  101MPD2    C5 1542   4.220   4.624  12.592 -0.1389  0.0108 -0.0568
  101MPD2     H 1543   3.871   0.030  12.673  0.2579  1.2399 -1.3176
  101MPD2    H1 1544   4.183   4.487  12.748  0.0040 -0.7196 -1.8308
  101MPD2    H2 1545   4.235   0.052  12.447 -1.2987 -1.7898 -1.3639
  101MPD2    H3 1546   4.320   4.591  12.568 -0.3917  0.6531 -2.0126
  101MPD2     N 1547   3.929   4.557  12.805  0.2154 -0.0451  0.8479
  101MPD2    H5 1548   3.833   4.589  12.814  0.3145  0.1370  1.2519
  101MPD2    N1 1549   4.010   0.178  12.486  0.0827 -0.3376  0.5764
  101MPD2    H7 1550   4.072   0.217  12.416  0.8112 -0.7134  1.0088
  102TCq2    C1 1551   4.112   0.616  12.270 -0.6006  0.6050 -0.9685
  102TCq2    O2 1552   4.219   0.559  12.294  0.1412  0.0770  0.5796
  102TCq2    C2 1553   3.990   0.537  12.301  0.2219 -0.0943  0.0175
  102TCq2    C3 1554   3.868   0.582  12.247  0.2322 -0.5344  0.5356
  102TCq2    C4 1555   3.752   0.511  12.285 -0.4980  0.2529 -0.2518
  102TCq2    C5 1556   3.764   0.394  12.361 -0.5204  0.3130  0.4122
  102TCq2    C6 1557   3.886   0.347  12.402 -0.3807 -0.2990  0.1705
  102TCq2    C7 1558   3.998   0.425  12.381  0.4738  0.3799  0.1414
  102TCq2    C8 1559   3.887   0.234  12.481 -0.5784 -0.0779 -0.1078
  102TCq2    O4 1560   3.779   0.213  12.531 -0.7640  0.3772 -0.6747
  102TCq2    C9 1561   3.619   0.550  12.251  0.7205 -0.3227  0.4861
  102TCq2    O5 1562   3.527   0.483  12.298  0.3972  0.1769  0.2744
  102TCq2    O6 1563   3.610   0.653  12.178  0.8569  0.5907 -0.2379
  102TCq2    H2 1564   3.853   0.674  12.192  0.5172  0.0259  1.3877
  102TCq2    H3 1565   3.675   0.342  12.393  0.5875 -1.8322  0.0155
  102TCq2    H4 1566   4.099   0.407  12.416  0.4456 -0.6145 -0.2961
  103TMC2    C1 1567   2.378   0.608  12.522 -0.1966  0.0103  0.6185
  103TMC2    C2 1568   2.515   0.605  12.506  0.5512 -0.1962 -0.4566
  103TMC2    C3 1569   2.572   0.489  12.560  0.2528 -0.3171  0.3719
  103TMC2    C4 1570   2.310   0.508  12.583  0.1022  0.4287  0.1071
  103TMC2    C5 1571   2.376   0.406  12.637 -0.1676 -0.0102  0.2093
  103TMC2    C6 1572   2.510   0.387  12.622 -0.1926  0.9154 -0.3163
  103TMC2     C 1573   2.296   0.697  12.446 -1.1257 -0.3824 -0.3541
  103TMC2     O 1574   2.181   0.665  12.425 -0.5383 -0.1437 -0.2132
  103TMC2     H 1575   2.566   0.667  12.433  0.8984  0.1649  0.0928
  103TMC2    H1 1576   2.214   0.534  12.626 -0.2732 -1.3337  0.3204
  103TMC2    H2 1577   2.560   0.309  12.679 -0.6407  0.2927 -0.7745
  103TMC2    C7 1578   2.314   0.341  12.752 -0.0075 -0.5522  0.5377
  103TMC2    C8 1579   2.714   0.495  12.571  0.0229 -0.0100 -0.5653
  103TMC2    O1 1580   2.382   0.265  12.820  0.1310 -0.1928  0.5910
  103TMC2    O2 1581   2.785   0.397  12.596  0.6063 -0.2284 -0.1666
  103TMC2    O5 1582   2.738   0.625  12.612 -0.3691 -0.1649 -0.4217
  103TMC2    H5 1583   2.680   0.697  12.580 -2.0391 -2.0703 -1.7459
  104MPD2     C 1584   2.382   1.034  12.349 -0.5635 -0.4210  0.4221
  104MPD2    C1 1585   2.299   0.925  12.351  0.6669  1.0434 -0.3197
  104MPD2    C2 1586   2.172   0.936  12.293  0.2295  0.7896 -0.3245
  104MPD2    C3 1587   2.130   1.058  12.238 -0.2195 -0.9573 -0.7584
  104MPD2    C4 1588   2.214   1.162  12.242  0.1613  0.3000 -0.2110
  104MPD2    C5 1589   2.341   1.151  12.295  0.0317  0.3437 -0.6304
  104MPD2     H 1590   2.119   0.842  12.284 -2.4118  1.9543  3.2004
  104MPD2    H1 1591   2.189   1.259  12.199  2.4346  0.6997 -0.6382
  104MPD2    H2 1592   2.482   1.037  12.392 -0.6435  0.5880  0.5431
  104MPD2    H3 1593   2.409   1.235  12.298 -1.3525  1.4270  0.8392
  104MPD2     N 1594   2.003   1.053  12.179 -0.2592 -0.2731 -0.1095
  104MPD2    H5 1595   1.959   0.962  12.167 -3.7997  1.0832  2.6938
  104MPD2    N1 1596   2.359   0.813  12.410 -0.4248 -0.0549 -0.0196
  104MPD2    H7 1597   2.456   0.830  12.435 -0.3817 -0.6973  0.2504
  105MPD2     C 1598   4.048   3.551  17.652  0.2124 -0.8848 -0.2712
  105MPD2    C1 1599   3.994   3.675  17.675 -0.7536  0.9993  0.3036
  105MPD2    C2 1600   3.921   3.691   0.093 -0.0117  0.0420  0.2994
  105MPD2    C3 1601   3.920   3.599   0.196  0.0662 -0.7150  0.5368
  105MPD2    C4 1602   3.979   3.473   0.163  1.1319  0.3669  0.7907
  105MPD2    C5 1603   4.039   3.445   0.044 -0.3164 -0.4415  0.1932
  105MPD2     H 1604   3.873   3.784   0.120  1.2491  0.5401  0.8388
  105MPD2    H1 1605   4.001   3.402   0.243 -3.1425  0.4078  1.9949
  105MPD2    H2 1606   4.108   3.542  17.562 -1.7990  1.3183 -1.8538
  105MPD2    H3 1607   4.106   3.360   0.035  0.7147  0.4737 -0.8775
  105MPD2     N 1608   3.857   3.624   0.319 -0.0449 -0.5136 -0.0439
  105MPD2    H5 1609   3.801   3.707   0.334  0.5787 -0.1523  0.3082
  105MPD2    N1 1610   3.979   3.782  17.582 -0.1005 -0.6379  0.0981
  105MPD2    H7 1611   3.931   3.864  17.617  0.8190  0.1256 -0.4236
  106TCq2    C1 1612   3.839   3.528   0.413 -0.2032 -0.4851 -0.6138
  106TCq2    O2 1613   3.883   3.416   0.424 -0.1478 -0.1798 -0.2575
  106TCq2    C2 1614   3.743   3.582   0.511 -0.0623  0.3219  0.0576
  106TCq2    C3 1615   3.636   3.649   0.453 -0.0747  0.5683 -0.6800
  106TCq2    C4 1616   3.539   3.681   0.540 -0.6071 -0.2970 -1.0680
  106TCq2    C5 1617   3.544   3.650   0.671  0.1694 -0.3872  0.4629
  106TCq2    C6 1618   3.645   3.578   0.724 -1.0142 -0.3582  0.1312
  106TCq2    C7 1619   3.739   3.533   0.640 -0.0976 -0.1018  0.7155
  106TCq2    C8 1620   3.634   3.530   0.859 -0.2209 -0.9687  0.5233
  106TCq2    O4 1621   3.688   3.422   0.882  1.1060 -0.3749  0.0325
  106TCq2    C9 1622   3.425   3.743   0.491 -0.2645  0.3839 -0.4199
  106TCq2    O5 1623   3.319   3.738   0.561 -0.2313 -0.4466 -0.4967
  106TCq2    O6 1624   3.413   3.770   0.372 -0.4805  0.6379 -0.1299
  106TCq2    H2 1625   3.638   3.695   0.355  0.1791 -1.0865 -1.4593
  106TCq2    H3 1626   3.454   3.669   0.728 -1.9245  1.9164 -3.6287
  106TCq2    H4 1627   3.830   3.484   0.674  0.6278  0.5897 -0.2551
  107TMC2    C1 1628   4.590   3.444  11.533  0.0656 -0.3473 -0.6973
  107TMC2    C2 1629   4.590   3.310  11.503 -0.6237  0.0283 -0.0140
  107TMC2    C3 1630   4.662   3.287  11.387 -0.1400  1.1112 -0.2008
  107TMC2    C4 1631   4.647   3.540  11.453  0.7122 -0.2943  0.1123
  107TMC2    C5 1632   4.720   3.504  11.343  0.5709 -0.6340  0.0423
  107TMC2    C6 1633   0.001   3.374  11.306 -0.1154 -0.4263 -0.1322
  107TMC2     C 1634   4.497   3.486  11.634  0.6494  0.2079 -0.2778
  107TMC2     O 1635   4.458   3.393  11.707 -0.0231 -0.6197 -0.0128
  107TMC2     H 1636   4.554   3.231  11.568  1.0624 -1.8928 -1.4202
  107TMC2    H1 1637   4.651   3.643  11.485  0.0690 -0.5354  0.9642
  107TMC2    H2 1638   0.069   3.339  11.230  0.5231  0.0841  0.1995
  107TMC2    C7 1639   0.069   3.608  11.277 -0.1664 -0.2910 -1.0724
  107TMC2    C8 1640   4.676   3.143  11.355  0.4655  0.4667  0.1603
  107TMC2    O1 1641   0.137   3.689  11.343  0.2445 -0.5008 -0.4409
  107TMC2    O2 1642   4.616   3.064  11.424  0.4571 -0.0609  0.4258
  107TMC2    O5 1643   4.671   3.145  11.218  0.4985  0.3929  0.9418
  107TMC2    H5 1644   4.706   3.217  11.161 -1.3305  1.0216  0.6166
  108MPD2     C 1645   4.326   3.809  11.688 -0.0189  0.6425 -0.3171
  108MPD2    C1 1646   4.353   3.675  11.702  0.1871 -0.4434 -0.7163
  108MPD2    C2 1647   4.274   3.613  11.796  0.5591 -0.8221 -0.0419
  108MPD2    C3 1648   4.170   3.678  11.865  0.1212 -0.0804  0.4825
  108MPD2    C4 1649   4.153   3.809  11.846 -0.3413 -0.6403 -0.1285
  108MPD2    C5 1650   4.233   3.878  11.759  0.3060  0.0176  0.0684
  108MPD2     H 1651   4.298   3.508  11.812  2.7078 -0.2855  0.2613
  108MPD2    H1 1652   4.072   3.862  11.894 -0.6666 -1.0150 -0.2589
  108MPD2    H2 1653   4.390   3.871  11.625  0.8358 -1.0845 -1.1376
  108MPD2    H3 1654   4.230   3.986  11.750 -2.4492  0.1618  2.8105
  108MPD2     N 1655   4.074   3.610  11.943 -0.4051 -0.9208 -0.1868
  108MPD2    H5 1656   3.981   3.649  11.953 -0.0398 -0.3909  1.0163
  108MPD2    N1 1657   4.455   3.618  11.624  0.2841  0.0514 -0.3080
  108MPD2    H7 1658   4.493   3.683  11.556  1.0595  0.3792  0.4408
  109MPD2     C 1659   2.772   0.566   1.471  0.2985 -0.3535 -0.1076
  109MPD2    C1 1660   2.890   0.536   1.405  0.6795  0.6201 -0.2906
  109MPD2    C2 1661   3.016   0.553   1.468 -0.3554  0.3940 -1.1912
  109MPD2    C3 1662   3.025   0.627   1.583 -0.0261 -0.8675  0.2421
  109MPD2    C4 1663   2.903   0.646   1.653 -0.0734  0.1518  0.7754
  109MPD2    C5 1664   2.784   0.617   1.598 -0.3899  0.2121  0.2578
  109MPD2     H 1665   3.104   0.541   1.407 -0.0771 -0.5525 -0.6003
  109MPD2    H1 1666   2.894   0.693   1.751  0.1481 -2.8006  2.2355
  109MPD2    H2 1667   2.672   0.538   1.439 -0.5848  1.5497  0.9996
  109MPD2    H3 1668   2.691   0.643   1.647  0.1596 -1.4784  2.2014
  109MPD2     N 1669   3.154   0.673   1.622 -0.0727  0.2980  0.1982
  109MPD2    H5 1670   3.231   0.628   1.575  2.3017  1.4778  2.9906
  109MPD2    N1 1671   2.884   0.490   1.271 -0.7747  0.3650 -0.0687
  109MPD2    H7 1672   2.788   0.480   1.237 -1.0117  0.3955  0.5967
  110TCq2    C1 1673   3.189   0.759   1.720  0.2749 -0.7584  0.4069
  110TCq2    O2 1674   3.128   0.815   1.809  0.2661 -0.6076 -0.3468
  110TCq2    C2 1675   3.329   0.787   1.703 -0.3176  0.5537  1.3515
  110TCq2    C3 1676   3.416   0.811   1.806  0.6088  1.0083  0.7308
  110TCq2    C4 1677   3.544   0.837   1.785  0.5463  0.3011  0.5780
  110TCq2    C5 1678   3.592   0.846   1.660  0.3040 -0.3740 -0.0051
  110TCq2    C6 1679   3.504   0.836   1.554  0.5699 -0.5871 -0.2648
  110TCq2    C7 1680   3.372   0.814   1.573 -0.5238 -0.0156 -0.2850
  110TCq2    C8 1681   3.550   0.878   1.426  0.5343 -0.4358 -0.0986
  110TCq2    O4 1682   3.635   0.964   1.417  0.0075  0.9421  0.1745
  110TCq2    C9 1683   3.641   0.846   1.896  0.2569 -0.1011  0.2892
  110TCq2    O5 1684   3.760   0.876   1.864  0.4723 -0.2402  0.5637
  110TCq2    O6 1685   3.601   0.831   2.017  0.5209  0.2385  0.6907
  110TCq2    H2 1686   3.374   0.799   1.905  2.0159 -1.2640  1.0550
  110TCq2    H3 1687   3.692   0.884   1.644  0.7182 -1.5189 -0.0870
  110TCq2    H4 1688   3.304   0.813   1.490  0.2363  0.6187 -0.9194
  111TMC2    C1 1689   0.170   1.043  10.981  0.7360  0.6834  0.4265
  111TMC2    C2 1690   0.271   1.044  10.890 -0.3153 -0.1595  0.0223
  111TMC2    C3 1691   0.399   1.030  10.932  0.0853 -0.2810 -0.8176
  111TMC2    C4 1692   0.191   1.021  11.108  0.2194  0.3496 -1.2965
  111TMC2    C5 1693   0.323   1.009  11.150  1.0034  1.0961  0.2227
  111TMC2    C6 1694   0.431   1.015  11.064 -0.4669 -0.3639 -0.1886
  111TMC2     C 1695   0.028   1.039  10.935  0.7337 -0.3244 -0.1190
  111TMC2     O 1696   0.023   1.005  10.820  0.1591 -0.1751  0.1779
  111TMC2     H 1697   0.246   1.052  10.785  0.8490 -0.6194 -0.2960
  111TMC2    H1 1698   0.114   1.003  11.182  0.1396  1.0486 -1.2060
  111TMC2    H2 1699   0.533   1.016  11.099 -0.4181  0.7288 -0.3637
  111TMC2    C7 1700   0.333   0.997  11.292 -0.1526 -0.3570 -0.7868
  111TMC2    C8 1701   0.495   1.066  10.834  0.2837  0.6090 -0.6529
  111TMC2    O1 1702   0.245   1.038  11.365 -0.1124  0.3310 -0.3952
  111TMC2    O2 1703   0.482   1.118  10.724 -0.4204 -0.0131  0.3519
  111TMC2    O5 1704   0.605   0.998  10.863 -0.0810  0.2189 -0.0179
  111TMC2    H5 1705   0.582   0.924  10.924  1.8208 -0.0649  0.3389
  112MPD2     C 1706   4.244   1.012  11.008 -0.5590  0.2096  0.2667
  112MPD2    C1 1707   4.328   0.988  10.899  0.5269  0.0118 -0.6005
  112MPD2    C2 1708   4.463   1.016  10.913  0.5524 -0.0411 -0.2283
  112MPD2    C3 1709   4.522   1.056  11.029  0.0156 -0.4799  0.0247
  112MPD2    C4 1710   4.439   1.076  11.134 -0.5341 -0.2971 -0.0220
  112MPD2    C5 1711   4.304   1.058  11.124 -0.1649 -0.2122  0.9263
  112MPD2     H 1712   4.524   0.986  10.829  1.9225 -1.5675  1.3185
  112MPD2    H1 1713   4.466   1.103  11.235  0.2066 -0.1090 -0.2740
  112MPD2    H2 1714   4.136   1.005  11.011 -0.6602  2.3131  1.7277
  112MPD2    H3 1715   4.238   1.082  11.206 -1.2442 -0.3345  0.0964
  112MPD2     N 1716   4.664   1.072  11.034  0.5150  0.0588  0.4089
  112MPD2    H5 1717   4.706   1.105  11.121  0.6177  1.4872 -0.1869
  112MPD2    N1 1718   4.280   0.937  10.777 -0.6131  0.0959 -0.1244
  112MPD2    H7 1719   4.341   0.919  10.698  0.8169 -0.0067  0.9971
  113MPD2     C 1720   2.920   3.044   0.402  0.5305  0.2139  0.2089
  113MPD2    C1 1721   2.830   3.092   0.498  0.4989 -0.5707  0.1520
  113MPD2    C2 1722   2.707   3.138   0.457  0.4815 -0.0297 -0.1257
  113MPD2    C3 1723   2.670   3.131   0.322  0.4183  0.1491 -0.1586
  113MPD2    C4 1724   2.761   3.092   0.228 -0.6331  0.4619 -0.6373
  113MPD2    C5 1725   2.886   3.043   0.269 -0.2516  0.0471 -0.0153
  113MPD2     H 1726   2.636   3.178   0.529 -0.0446 -1.9870  0.4236
  113MPD2    H1 1727   2.733   3.088   0.123  0.8648  0.1847 -1.0282
  113MPD2    H2 1728   3.020   3.010   0.425  0.1928 -1.3531 -0.6591
  113MPD2    H3 1729   2.965   3.003   0.206 -1.0015 -0.2145 -0.8001
  113MPD2     N 1730   2.543   3.179   0.275 -0.6609  0.6658  0.6043
  113MPD2    H5 1731   2.528   3.185   0.175  0.2333  2.5884  0.5796
  113MPD2    N1 1732   2.861   3.102   0.634  0.0721 -0.2072 -0.5481
  113MPD2    H7 1733   2.795   3.153   0.692  0.1247 -0.5430 -0.1913
  114TCq2    C1 1734   2.435   3.202   0.354 -0.2789  0.0841 -0.9488
  114TCq2    O2 1735   2.425   3.198   0.474  0.1669 -0.3240  0.2528
  114TCq2    C2 1736   2.314   3.242   0.285 -0.1264 -0.4283 -0.3807
  114TCq2    C3 1737   2.316   3.279   0.151 -0.8083  0.0034  0.1785
  114TCq2    C4 1738   2.199   3.320   0.088 -0.2227 -0.2112 -0.3532
  114TCq2    C5 1739   2.092   3.340   0.172 -0.3518 -0.4962  0.3880
  114TCq2    C6 1740   2.091   3.306   0.298  0.1974 -0.1962  0.1607
  114TCq2    C7 1741   2.202   3.255   0.357 -0.5890 -0.1432  0.0731
  114TCq2    C8 1742   1.975   3.338   0.378 -0.2087  0.4720  0.2248
  114TCq2    O4 1743   1.884   3.403   0.324 -0.6002  0.1610 -0.0789
  114TCq2    C9 1744   2.196   3.373  17.651  0.1691  0.3602 -0.1755
  114TCq2    O5 1745   2.296   3.355  17.580 -0.1562  0.2265  0.9042
  114TCq2    O6 1746   2.083   3.426  17.613  0.4510 -0.4459 -0.2279
  114TCq2    H2 1747   2.405   3.271   0.090 -1.3022  0.1093 -0.5541
  114TCq2    H3 1748   2.005   3.373   0.117 -0.0120 -1.0438 -0.4981
  114TCq2    H4 1749   2.208   3.252   0.465 -0.1958  1.2031  0.0864
  115TMC2    C1 1750   3.147   2.081  17.263 -0.2757  0.1731  0.3651
  115TMC2    C2 1751   3.088   2.142  17.152  0.8317 -0.4817  0.3148
  115TMC2    C3 1752   3.164   2.224  17.070 -0.5191  0.1535 -0.3897
  115TMC2    C4 1753   3.284   2.090  17.289  0.2585 -0.1037 -0.8774
  115TMC2    C5 1754   3.360   2.158  17.191  0.2675 -0.2404  0.4764
  115TMC2    C6 1755   3.301   2.226  17.088 -0.2612 -0.9435 -0.4771
  115TMC2     C 1756   3.088   1.943  17.293  0.0177 -0.2502  0.2024
  115TMC2     O 1757   2.995   1.904  17.225  0.5699  0.3234 -0.1596
  115TMC2     H 1758   2.985   2.117  17.128  0.3990  3.1610 -1.6934
  115TMC2    H1 1759   3.335   2.032  17.365  1.2703 -0.8443 -2.1157
  115TMC2    H2 1760   3.349   2.293  17.018 -1.2559  1.3933  1.0772
  115TMC2    C7 1761   3.504   2.177  17.219  0.4701 -0.2469  0.3015
  115TMC2    C8 1762   3.113   2.321  16.967  0.0674 -0.3614 -0.4409
  115TMC2    O1 1763   3.544   2.136  17.323 -0.6741  0.1718 -0.2675
  115TMC2    O2 1764   3.187   2.360  16.875 -0.1124  0.1309 -0.2065
  115TMC2    O5 1765   2.983   2.297  16.962 -0.0469 -0.6604 -0.3934
  115TMC2    H5 1766   2.942   2.300  17.051 -0.4236 -2.0320 -0.5240
  116MPD2     C 1767   3.027   1.518  17.573 -0.6903 -0.9953 -0.3664
  116MPD2    C1 1768   3.008   1.542  17.443  0.0195 -0.4544  0.1174
  116MPD2    C2 1769   3.034   1.670  17.396  0.1413 -0.5920  0.3535
  116MPD2    C3 1770   3.091   1.771  17.468  0.4035  0.3441  0.3284
  116MPD2    C4 1771   3.118   1.743  17.599 -0.4696  0.4174  0.1605
  116MPD2    C5 1772   3.076   1.620  17.652 -0.3756 -0.4927 -0.1219
  116MPD2     H 1773   3.024   1.686  17.289 -0.1823 -0.1828  0.4427
  116MPD2    H1 1774   3.154   1.821  17.667  1.5455 -0.2211 -0.1609
  116MPD2    H2 1775   3.008   1.421  17.616 -0.7347 -0.7403  0.1897
  116MPD2    H3 1776   3.104   1.602   0.057  2.9466  0.1366 -0.9029
  116MPD2     N 1777   3.127   1.897  17.417  0.3510 -0.3379  0.1976
  116MPD2    H5 1778   3.182   1.958  17.477  1.2122 -0.6226 -0.2972
  116MPD2    N1 1779   2.949   1.453  17.347  0.0121 -0.8258  0.1521
  116MPD2    H7 1780   2.910   1.484  17.258  1.2375 -0.1579 -0.1444
  117TMC2    C1 1781   1.377   2.665  14.019  0.0687 -0.0577  0.1797
  117TMC2    C2 1782   1.336   2.594  14.129 -0.3506  0.0764  0.4437
  117TMC2    C3 1783   1.407   2.614  14.246  0.3864 -0.2133 -0.2441
  117TMC2    C4 1784   1.469   2.763  14.028 -0.2989  0.1282  0.4583
  117TMC2    C5 1785   1.538   2.778  14.142  0.0734 -0.1997  0.6129
  117TMC2    C6 1786   1.510   2.705  14.254  0.3548 -0.6103  0.0182
  117TMC2     C 1787   1.285   2.686  13.916 -0.0354  0.0077 -0.8519
  117TMC2     O 1788   1.242   2.596  13.842 -0.2439 -0.3644  0.1475
  117TMC2     H 1789   1.258   2.519  14.123 -0.2879  0.0164  0.3742
  117TMC2    H1 1790   1.495   2.815  13.936  1.8677 -0.9458  0.4595
  117TMC2    H2 1791   1.568   2.724  14.344 -0.0968 -1.3737  0.4679
  117TMC2    C7 1792   1.598   2.910  14.149 -0.8535 -0.5568 -0.0117
  117TMC2    C8 1793   1.360   2.557  14.372 -0.4522 -0.8353  0.6377
  117TMC2    O1 1794   1.546   3.001  14.081 -0.1878  1.4774 -0.2167
  117TMC2    O2 1795   1.404   2.601  14.474  0.1844 -0.2132  0.4554
  117TMC2    O5 1796   1.280   2.451  14.353  0.8970  0.0500 -0.2490
  117TMC2    H5 1797   1.269   2.426  14.258  1.2976 -0.1803 -0.2356
  118MPD2     C 1798   1.874   3.051  14.346 -0.5989  0.5368 -0.0154
  118MPD2    C1 1799   1.800   3.021  14.237  0.1983 -0.1275  0.3595
  118MPD2    C2 1800   1.820   3.095  14.124 -0.0401  0.4746 -0.0158
  118MPD2    C3 1801   1.914   3.202  14.118  0.7611  0.4820 -0.3834
  118MPD2    C4 1802   1.988   3.230  14.236 -0.4152 -0.4793  0.9180
  118MPD2    C5 1803   1.973   3.144  14.341 -0.5300  0.2259  0.4291
  118MPD2     H 1804   1.762   3.074  14.035  1.4960  1.7905 -1.3298
  118MPD2    H1 1805   2.057   3.313  14.245 -0.3808 -0.7415  2.9368
  118MPD2    H2 1806   1.846   3.000  14.438 -1.5817 -2.9145 -2.2367
  118MPD2    H3 1807   2.034   3.155  14.430  0.9282 -1.4054 -0.3736
  118MPD2     N 1808   1.940   3.282  14.009  0.1044  0.4895  0.7969
  118MPD2    H5 1809   2.025   3.337  14.012 -0.7310  1.7715  0.7708
  118MPD2    N1 1810   1.703   2.920  14.246 -0.1031  0.4059 -0.8171
  118MPD2    H7 1811   1.715   2.848  14.317  0.6332  1.9244  0.5866
  119MPD2     C 1812   0.132   4.359  12.908 -0.4072 -0.2733 -0.7690
  119MPD2    C1 1813   0.009   4.365  12.954 -0.3564  0.1477 -0.4345
  119MPD2    C2 1814   4.652   4.252  12.939 -0.1505  0.0483  0.4615
  119MPD2    C3 1815   4.699   4.132  12.906 -1.3084  0.3401 -0.7056
  119MPD2    C4 1816   0.107   4.125  12.864 -0.4435 -0.1718  0.3795
  119MPD2    C5 1817   0.186   4.244  12.863  0.1093  0.1340  0.5332
  119MPD2     H 1818   4.546   4.261  12.960  0.1330  0.7013  1.6188
  119MPD2    H1 1819   0.152   4.027  12.855 -1.0396 -0.2312 -1.9166
  119MPD2    H2 1820   0.197   4.446  12.910  0.7593 -1.1551 -0.1788
  119MPD2    H3 1821   0.282   4.254  12.814 -0.6078  1.6854 -0.5669
  119MPD2     N 1822   4.620   4.011  12.894 -0.4691  0.6884 -0.7256
  119MPD2    H5 1823   4.670   3.932  12.854 -1.4760 -0.8874  1.1976
  119MPD2    N1 1824   4.694   4.493  13.005  0.5436 -0.3331  0.1095
  119MPD2    H7 1825   0.004   4.582  12.969  0.2648  0.2395  1.2665
  120TCq2    C1 1826   4.484   4.004  12.934 -0.0564 -0.0392  0.1416
  120TCq2    O2 1827   4.422   4.073  13.018 -0.4447 -0.2460 -0.6610
  120TCq2    C2 1828   4.412   3.895  12.873 -0.4118  0.0485  0.1290
  120TCq2    C3 1829   4.474   3.823  12.782  0.1751 -0.5768  0.5358
  120TCq2    C4 1830   4.429   3.699  12.735  0.5693 -0.1978 -0.1987
  120TCq2    C5 1831   4.303   3.665  12.770 -0.0951 -0.5232 -0.1285
  120TCq2    C6 1832   4.238   3.741  12.860 -0.7035 -0.0157 -0.0024
  120TCq2    C7 1833   4.287   3.857  12.920  0.7058  0.0739  0.4211
  120TCq2    C8 1834   4.114   3.685  12.917  0.6101 -0.4838 -0.3609
  120TCq2    O4 1835   4.062   3.585  12.871  0.2278  0.7027 -0.1215
  120TCq2    C9 1836   4.510   3.609  12.655 -0.1803  0.3451  0.0192
  120TCq2    O5 1837   4.450   3.513  12.597  0.2998  0.7293  0.1966
  120TCq2    O6 1838   4.633   3.619  12.656 -0.1325 -0.1765  0.5790
  120TCq2    H2 1839   4.571   3.850  12.741  0.3928 -0.0476  1.4119
  120TCq2    H3 1840   4.257   3.572  12.737  0.0760 -0.6837  0.0912
  120TCq2    H4 1841   4.254   3.923  13.000 -2.9736  0.2063 -1.2268
  121TMC2    C1 1842   1.458   1.046  13.871  0.7706 -0.1560 -0.5748
  121TMC2    C2 1843   1.447   0.956  13.976  0.0625  0.6475 -0.7873
  121TMC2    C3 1844   1.318   0.937  14.024 -0.1412 -0.0964  0.3979
  121TMC2    C4 1845   1.346   1.119  13.831  0.2408  0.4901  0.5567
  121TMC2    C5 1846   1.218   1.084  13.872  0.0484 -0.8960 -0.8162
  121TMC2    C6 1847   1.204   0.997  13.977  0.1155  0.6589 -0.1047
  121TMC2     C 1848   1.589   1.089  13.834  0.0216 -0.6221 -0.8282
  121TMC2     O 1849   1.667   1.088  13.929 -0.3186  0.1882 -0.5745
  121TMC2     H 1850   1.531   0.903  14.021  0.0350 -0.4150 -1.9976
  121TMC2    H1 1851   1.364   1.194  13.755  1.8194 -1.0940 -0.6486
  121TMC2    H2 1852   1.105   0.979  14.017  0.6991  2.4074  2.1072
  121TMC2    C7 1853   1.110   1.137  13.784 -0.0087  0.5006 -0.5492
  121TMC2    C8 1854   1.294   0.831  14.131  0.3154 -0.4980  0.0460
  121TMC2    O1 1855   1.143   1.189  13.677  0.1062 -0.4247  0.3828
  121TMC2    O2 1856   1.187   0.824  14.197  0.1039  0.5325  0.1215
  121TMC2    O5 1857   1.370   0.728  14.090  0.7021  0.5397  0.2452
  121TMC2    H5 1858   1.433   0.755  14.020  1.1403  1.7391  1.0899
  122MPD2     C 1859   1.825   1.204  13.722 -0.3920  0.2333  0.4560
  122MPD2    C1 1860   1.714   1.191  13.645 -0.0682 -0.0217  0.4182
  122MPD2    C2 1861   1.723   1.225  13.509 -0.0046  0.4864 -0.4816
  122MPD2    C3 1862   1.842   1.259  13.445  0.2872 -0.5665  0.3949
  122MPD2    C4 1863   1.953   1.266  13.525 -0.0634  0.0224 -0.2910
  122MPD2    C5 1864   1.946   1.222  13.663  0.0293 -0.2111  0.4021
  122MPD2     H 1865   1.637   1.201  13.447 -0.8201 -0.3608  0.9774
  122MPD2    H1 1866   2.051   1.267  13.478  0.4331  1.6748  0.7852
  122MPD2    H2 1867   1.831   1.174  13.826 -1.9268 -0.5688  0.3202
  122MPD2    H3 1868   2.033   1.225  13.727 -0.4767 -1.4065  1.1573
  122MPD2     N 1869   1.857   1.277  13.304 -0.3452 -0.0631  0.1510
  122MPD2    H5 1870   1.948   1.303  13.267 -1.8704  0.7117 -3.0574
  122MPD2    N1 1871   1.601   1.124  13.703 -0.2232 -0.1256  0.8109
  122MPD2    H7 1872   1.530   1.094  13.637  0.5616  0.6692 -0.3967
  123MPD2     C 1873   0.131   3.998  10.528 -0.0326  0.0954  0.2008
  123MPD2    C1 1874   0.071   4.024  10.408  0.0568 -0.6138  0.1085
  123MPD2    C2 1875   0.121   4.123  10.326 -0.2678  0.3234 -0.7374
  123MPD2    C3 1876   0.229   4.206  10.368  0.8841  0.6815 -0.6871
  123MPD2    C4 1877   0.283   4.178  10.495  0.4935  0.7034  0.1634
  123MPD2    C5 1878   0.238   4.075  10.570  0.1946  0.5492 -0.4070
  123MPD2     H 1879   0.071   4.157  10.236 -0.5216 -0.5215 -0.9170
  123MPD2    H1 1880   0.365   4.235  10.535  1.0245  1.8905 -2.6180
  123MPD2    H2 1881   0.104   3.919  10.597  0.3875  0.9438  1.3429
  123MPD2    H3 1882   0.283   4.053  10.667  2.8564 -1.3858 -2.0654
  123MPD2     N 1883   0.276   4.309  10.278 -0.1658  0.5675  0.3491
  123MPD2    H5 1884   0.238   4.315  10.184 -0.8690 -2.0106  0.4614
  123MPD2    N1 1885   4.682   3.948  10.375 -0.1675  0.1966 -0.5241
  123MPD2    H7 1886   4.641   3.902  10.455  0.1422 -0.6739 -0.8597
  124TCq2    C1 1887   0.361   4.404  10.308  1.2274 -1.2608 -0.1959
  124TCq2    O2 1888   0.417   4.421  10.414 -0.6153 -0.4074  0.8782
  124TCq2    C2 1889   0.371   4.508  10.205  0.5141 -0.2615 -0.4316
  124TCq2    C3 1890   0.414   4.635  10.235 -0.3904 -0.4079 -0.4513
  124TCq2    C4 1891   0.389   0.018  10.144 -0.0851  0.5181 -0.4107
  124TCq2    C5 1892   0.330   4.720  10.022  0.2281  0.2589 -0.4849
  124TCq2    C6 1893   0.314   4.588   9.988  0.2353 -0.2616  0.1200
  124TCq2    C7 1894   0.347   4.481  10.074 -0.5326  0.0211 -0.3873
  124TCq2    C8 1895   0.251   4.540   9.863  0.0383  0.6008  0.8614
  124TCq2    O4 1896   0.241   4.419   9.842 -0.2471 -0.6835 -0.1157
  124TCq2    C9 1897   0.432   0.149  10.189 -0.1842 -0.0117 -0.1867
  124TCq2    O5 1898   0.481   0.156  10.311  0.3406 -0.3827 -0.3368
  124TCq2    O6 1899   0.373   0.241  10.122  0.5499 -0.4391  0.5382
  124TCq2    H2 1900   0.455   4.655  10.333 -0.4620  1.1317 -0.7328
  124TCq2    H3 1901   0.309   0.072   9.948  1.4527  1.6401  0.6030
  124TCq2    H4 1902   0.312   4.382  10.045  1.2128 -0.5741 -0.4586
  125TMC2    C1 1903   1.703   4.681   8.730 -0.7433 -0.6743 -0.1880
  125TMC2    C2 1904   1.834   4.659   8.760 -0.5686 -0.3217  0.0776
  125TMC2    C3 1905   1.924   0.038   8.751 -0.4203  0.9099  0.1210
  125TMC2    C4 1906   1.651   0.081   8.706  0.0188  0.5416  0.0055
  125TMC2    C5 1907   1.742   0.181   8.706 -0.4029 -0.2971 -0.6925
  125TMC2    C6 1908   1.873   0.166   8.724  0.0916 -0.0875  0.3210
  125TMC2     C 1909   1.611   4.573   8.752 -0.1474 -0.5701  0.2955
  125TMC2     O 1910   1.655   4.485   8.822 -0.0230 -0.2985 -0.1624
  125TMC2     H 1911   1.874   4.560   8.781  0.1849  0.6230  3.1961
  125TMC2    H1 1912   1.548   0.090   8.672  0.4699 -0.0571 -1.5282
  125TMC2    H2 1913   1.941   0.247   8.701 -0.2894  0.1614  0.0668
  125TMC2    C7 1914   1.692   0.311   8.662 -0.0763 -0.4850 -0.7871
  125TMC2    C8 1915   2.072   0.029   8.741  0.5179 -0.8247  0.0315
  125TMC2    O1 1916   1.583   0.317   8.609 -0.5085 -0.0510  0.1040
  125TMC2    O2 1917   2.146   0.124   8.768  0.3090 -0.0648 -0.2054
  125TMC2    O5 1918   2.115   4.627   8.713 -0.6288 -0.7708  0.0847
  125TMC2    H5 1919   2.041   4.570   8.684 -0.4686 -0.4147 -1.0111
  126MPD1     C 1920   1.178   4.301   8.672  0.4935  0.6787  0.2500
  126MPD1    C1 1921   1.162   4.424   8.605 -1.0284 -0.1182 -0.0089
  126MPD1    C2 1922   1.278   4.502   8.602 -0.5440  0.3405 -0.3832
  126MPD1    C3 1923   1.392   4.478   8.679 -0.3924  0.5624 -0.2026
  126MPD1    C4 1924   1.394   4.364   8.764  0.0108  0.2051 -0.1181
  126MPD1    C5 1925   1.286   4.275   8.754 -0.0532 -0.3426  0.4177
  126MPD1     H 1926   1.268   4.593   8.544  5.1420  0.5046 -1.0901
  126MPD1    H1 1927   1.477   4.344   8.830 -0.2908 -0.2092  0.1387
  126MPD1    H2 1928   1.110   4.217   8.665  1.7831 -0.2020 -1.6553
  126MPD1    H3 1929   1.284   4.185   8.814  0.5259 -0.7304 -0.1454
  126MPD1     N 1930   1.496   4.575   8.680  0.3545  0.5317 -0.3646
  126MPD1    H5 1931   1.489   4.651   8.613 -3.4051 -0.7811 -1.4818
  126MPD1    N1 1932   1.051   4.451   8.523  0.9000  0.0105 -0.2864
  126MPD1    H6 1933   0.970   4.403   8.562  0.5131  0.3384 -0.6742
  126MPD1    H7 1934   1.035   4.551   8.510 -2.3737 -0.3810  0.6343
  127MPD2     C 1935   1.963   4.420   9.122  0.2586 -0.6791  0.2728
  127MPD2    C1 1936   2.026   4.360   9.228  0.1048  0.6024 -0.1898
  127MPD2    C2 1937   2.125   4.435   9.296  0.2427 -0.1069  0.0609
  127MPD2    C3 1938   2.153   4.568   9.266  0.6430 -0.2326 -0.1127
  127MPD2    C4 1939   2.085   4.626   9.160  0.2332 -0.3988  0.5171
  127MPD2    C5 1940   1.986   4.555   9.097 -0.3442  0.4072  0.3848
  127MPD2     H 1941   2.184   4.374   9.363 -0.2493 -0.0232  0.5740
  127MPD2    H1 1942   2.103   0.006   9.137 -2.1473  0.3999  2.2492
  127MPD2    H2 1943   1.894   4.366   9.058 -0.1160 -1.1157  1.0337
  127MPD2    H3 1944   1.925   4.596   9.017 -0.3370 -0.2269  0.0461
  127MPD2     N 1945   2.246   4.632   9.347 -0.4048  0.6111  0.2284
  127MPD2    H5 1946   2.270   4.571   9.424  0.5431 -1.2942 -1.5857
  127MPD2    N1 1947   1.987   4.233   9.261  0.6534  0.1689 -0.1100
  127MPD2    H7 1948   1.908   4.205   9.204  0.1868  0.9388  0.1625
  128TCq2    C1 1949   2.040   4.151   9.351 -0.0205  0.0673  0.1624
  128TCq2    O2 1950   2.128   4.171   9.433  0.2539 -0.0330 -0.1309
  128TCq2    C2 1951   1.966   4.029   9.358 -0.0832  0.5261  0.6693
  128TCq2    C3 1952   2.002   3.934   9.452  0.1453 -0.4304 -0.1540
  128TCq2    C4 1953   1.938   3.814   9.448  0.2314  0.1193 -0.6137
  128TCq2    C5 1954   1.834   3.792   9.363 -0.0515  0.3677  0.2195
  128TCq2    C6 1955   1.796   3.880   9.271 -0.5565 -0.2012  0.6259
  128TCq2    C7 1956   1.867   4.003   9.260 -0.2120  0.9661 -0.2437
  128TCq2    C8 1957   1.715   3.838   9.155  0.1086  0.4110 -0.0564
  128TCq2    O4 1958   1.719   3.904   9.052 -0.3025 -0.0229 -0.0469
  128TCq2    C9 1959   1.973   3.718   9.543 -0.1214  0.0684  0.7850
  128TCq2    O5 1960   1.886   3.624   9.563  0.4725  0.2261 -0.1703
  128TCq2    O6 1961   2.076   3.743   9.604 -0.0539 -0.2217  0.0053
  128TCq2    H2 1962   2.059   3.968   9.538  0.3000 -1.2143  0.0568
  128TCq2    H3 1963   1.788   3.693   9.370  0.1075  0.3014  0.3167
  128TCq2    H4 1964   1.823   4.073   9.191  0.6500  0.1472 -1.6123
  129MPD2     C 1965   3.825   0.748   0.871 -0.8364  0.0664  0.9426
  129MPD2    C1 1966   3.928   0.802   0.941  0.0340  0.2365 -0.0445
  129MPD2    C2 1967   4.007   0.899   0.877 -0.5491  0.2136  0.3147
  129MPD2    C3 1968   3.993   0.921   0.737  0.4311  0.2226 -0.3722
  129MPD2    C4 1969   3.884   0.871   0.673 -0.0556 -0.3016 -0.2620
  129MPD2    C5 1970   3.800   0.792   0.739  0.6544 -1.0693 -0.5561
  129MPD2     H 1971   4.076   0.950   0.944  0.3437 -1.1011  0.4005
  129MPD2    H1 1972   3.851   0.882   0.570  5.1364 -1.1942 -2.0148
  129MPD2    H2 1973   3.756   0.676   0.915  0.7632 -0.9765  1.7352
  129MPD2    H3 1974   3.710   0.756   0.691  0.0257 -0.7596  0.3746
  129MPD2     N 1975   4.089   1.003   0.670 -0.3566  0.3356  0.5133
  129MPD2    H5 1976   4.140   1.065   0.733  1.5807 -0.5782 -0.1782
  129MPD2    N1 1977   3.931   0.800   1.081 -0.6666  0.3484  0.0490
  129MPD2    H7 1978   4.003   0.858   1.123 -0.5932  0.2429  0.0708
  130TCq2    C1 1979   3.855   0.704   1.150  0.0040 -0.2066  0.3298
  130TCq2    O2 1980   3.789   0.606   1.113  0.0046  0.2370 -0.2283
  130TCq2    C2 1981   3.846   0.732   1.293  0.5703  0.8257  0.3447
  130TCq2    C3 1982   3.914   0.833   1.354 -0.2458  0.0181 -0.0820
  130TCq2    C4 1983   3.942   0.827   1.486  0.0554 -0.8656 -0.2440
  130TCq2    C5 1984   3.924   0.710   1.554 -0.4788 -0.0300 -0.0628
  130TCq2    C6 1985   3.852   0.614   1.484  0.4960 -0.4892 -0.2899
  130TCq2    C7 1986   3.808   0.617   1.361 -0.2891  0.3220  0.2284
  130TCq2    C8 1987   3.871   0.477   1.537  0.0058  0.2007 -0.6235
  130TCq2    O4 1988   3.825   0.388   1.472  0.2947 -0.6430 -0.2410
  130TCq2    C9 1989   4.021   0.929   1.540 -0.8658  0.2836  0.1415
  130TCq2    O5 1990   4.057   0.910   1.658 -0.1199  0.5033  0.4828
  130TCq2    O6 1991   4.070   1.017   1.464 -0.0949 -0.0195  0.1431
  130TCq2    H2 1992   3.937   0.927   1.306  0.6721  0.1684  0.6542
  130TCq2    H3 1993   3.966   0.703   1.653 -0.8479 -0.7172  0.0484
  130TCq2    H4 1994   3.752   0.535   1.317 -0.6164  0.0346  1.1896
  131MPD2     C 1995   4.176   4.179   9.549  0.8157  0.1752  0.1379
  131MPD2    C1 1996   4.270   4.245   9.630  0.1797 -0.1937 -0.9122
  131MPD2    C2 1997   4.315   4.179   9.746 -0.2601 -0.4063  0.5925
  131MPD2    C3 1998   4.261   4.056   9.785 -0.2149 -0.5641 -0.1314
  131MPD2    C4 1999   4.163   3.999   9.707 -0.0508 -0.1497  0.2366
  131MPD2    C5 2000   4.121   4.062   9.594 -0.6949 -0.5184 -0.7026
  131MPD2     H 2001   4.378   4.231   9.817  2.5834 -2.0378 -0.7058
  131MPD2    H1 2002   4.114   3.904   9.726  0.6941 -0.4127  0.8316
  131MPD2    H2 2003   4.147   4.212   9.450  2.8206 -0.4114 -0.6543
  131MPD2    H3 2004   4.048   4.009   9.534 -1.3978 -1.1443  0.7135
  131MPD2     N 2005   4.307   4.011   9.909 -0.5284  0.1890 -0.8463
  131MPD2    H5 2006   4.371   4.064   9.968  2.3614 -1.6615 -2.3249
  131MPD2    N1 2007   4.312   4.373   9.585 -0.6724 -0.5720 -0.3486
  131MPD2    H7 2008   4.278   4.396   9.492 -1.3745 -0.3107 -0.0309
  132TCq2    C1 2009   4.424   0.036   9.290  0.5885 -0.0549 -0.5989
  132TCq2    O2 2010   4.384   4.683   9.203  0.3815 -0.0489  0.0012
  132TCq2    C2 2011   4.395   0.019   9.425  0.0851 -0.4361 -0.0942
  132TCq2    C3 2012   4.430   0.124   9.501  0.6498 -0.5031  0.8770
  132TCq2    C4 2013   4.444   0.096   9.633  0.1944  0.6111 -0.2444
  132TCq2    C5 2014   4.434   4.695   9.688  0.0091  0.3433 -0.1138
  132TCq2    C6 2015   4.395   4.594   9.608  0.2816 -0.2443  0.0396
  132TCq2    C7 2016   4.384   4.615   9.475 -0.0745 -0.7131  0.8342
  132TCq2    C8 2017   4.381   4.464   9.665 -0.6006 -0.3849 -0.2947
  132TCq2    O4 2018   4.429   4.445   9.774 -0.1213 -0.1264  0.1790
  132TCq2    C9 2019   4.485   0.210   9.716  0.5377  0.3097 -0.5779
  132TCq2    O5 2020   4.468   0.207   9.844  0.0340 -0.2624  0.3340
  132TCq2    O6 2021   4.525   0.310   9.657 -0.2950 -0.1658  0.2149
  132TCq2    H2 2022   4.425   0.227   9.466 -1.2972 -0.3625  1.5326
  132TCq2    H3 2023   4.455   4.677   9.793  1.5984 -1.3363 -0.7057
  132TCq2    H4 2024   4.371   4.536   9.403 -2.1221 -1.1620  1.7050
  133MPD2     C 2025   3.322   1.053   9.182 -0.2960 -0.1402 -0.4606
  133MPD2    C1 2026   3.423   1.010   9.096 -0.2491  0.3928 -0.0208
  133MPD2    C2 2027   3.412   0.884   9.038 -0.4060 -0.1681 -0.7066
  133MPD2    C3 2028   3.292   0.806   9.065  0.3462 -0.2477 -0.3872
  133MPD2    C4 2029   3.199   0.859   9.157  0.0082  0.5667 -0.4471
  133MPD2    C5 2030   3.218   0.978   9.212 -0.3898  0.0951  0.1928
  133MPD2     H 2031   3.483   0.848   8.964  0.2594 -1.1548  0.4084
  133MPD2    H1 2032   3.113   0.799   9.184  0.7975 -0.9224 -1.1947
  133MPD2    H2 2033   3.325   1.146   9.238  2.2495 -1.0746  0.9803
  133MPD2    H3 2034   3.144   1.021   9.279 -1.0238 -1.7942  0.6918
  133MPD2     N 2035   3.265   0.674   9.023 -0.3613  0.3239 -0.6294
  133MPD2    H5 2036   3.183   0.635   9.068  0.4376  0.8260  1.2781
  133MPD2    N1 2037   3.533   1.091   9.075 -0.4418 -0.6654 -0.5997
  133MPD2    H7 2038   3.522   1.184   9.114 -0.1325 -0.7277 -0.3655
  134TCq2    C1 2039   3.640   1.071   8.996  0.2564  0.7448  0.5241
  134TCq2    O2 2040   3.677   0.964   8.948  0.0863  0.0580 -0.3929
  134TCq2    C2 2041   3.737   1.178   8.995  0.4530 -0.3936 -0.0694
  134TCq2    C3 2042   3.695   1.309   9.000 -0.1119 -0.3099  0.6126
  134TCq2    C4 2043   3.796   1.405   8.993 -0.6298  0.1876 -0.6242
  134TCq2    C5 2044   3.927   1.373   8.980  0.3944 -0.4741  0.7069
  134TCq2    C6 2045   3.970   1.243   8.960 -0.8082  0.7204 -0.2053
  134TCq2    C7 2046   3.873   1.145   8.972  0.4617  0.4877 -0.5082
  134TCq2    C8 2047   4.106   1.219   8.929  0.0905 -0.5555 -0.2121
  134TCq2    O4 2048   4.181   1.313   8.926  0.3175  0.1032  0.1504
  134TCq2    C9 2049   3.777   1.545   8.989  0.0119 -0.0181  0.2708
  134TCq2    O5 2050   3.661   1.578   8.966  0.0213  0.3215  0.0055
  134TCq2    O6 2051   3.864   1.622   9.040  0.0895  0.2822 -0.1113
  134TCq2    H2 2052   3.595   1.351   9.004  0.1317  0.3122  0.1641
  134TCq2    H3 2053   3.987   1.462   8.963  1.0136 -0.7682  1.3760
  134TCq2    H4 2054   3.886   1.038   8.966 -0.9943  0.3490 -1.4468
  135MPD2     C 2055   1.640   1.235   8.146  0.1580  0.2438 -0.8394
  135MPD2    C1 2056   1.645   1.221   8.287  0.1955 -0.4134 -0.1227
  135MPD2    C2 2057   1.742   1.136   8.343  0.1862  0.3996 -0.3973
  135MPD2    C3 2058   1.821   1.063   8.255 -0.0018  0.2461 -0.3257
  135MPD2    C4 2059   1.827   1.084   8.121  0.8771 -0.0143  0.3648
  135MPD2    C5 2060   1.728   1.168   8.064  0.1757 -0.1926 -0.1108
  135MPD2     H 2061   1.741   1.102   8.446 -2.3156 -2.6818 -1.4588
  135MPD2    H1 2062   1.892   1.027   8.055  0.5372  1.5687 -1.3548
  135MPD2    H2 2063   1.563   1.294   8.098 -1.7722 -0.0757  1.8773
  135MPD2    H3 2064   1.712   1.178   7.957 -0.7041  0.5581  0.0945
  135MPD2     N 2065   1.901   0.959   8.296  0.2682  0.0829 -0.0576
  135MPD2    H5 2066   1.919   0.883   8.231  2.3130  0.2762  0.2717
  135MPD2    N1 2067   1.555   1.279   8.377 -0.0062 -0.2818 -0.0791
  135MPD2    H7 2068   1.563   1.265   8.477 -0.5998  0.6229  0.1002
  136TCq2    C1 2069   1.453   1.354   8.339  0.1946 -0.1841 -0.2061
  136TCq2    O2 2070   1.395   1.387   8.231 -0.3186 -0.1554 -0.6319
  136TCq2    C2 2071   1.374   1.398   8.458 -0.4226  0.3228 -0.1324
  136TCq2    C3 2072   1.243   1.357   8.466  0.9021 -0.0813 -0.3941
  136TCq2    C4 2073   1.186   1.340   8.589 -0.1190  1.0528 -0.8827
  136TCq2    C5 2074   1.254   1.378   8.702 -0.5704 -0.3291  0.3440
  136TCq2    C6 2075   1.388   1.413   8.692  0.4472  0.0424  0.9169
  136TCq2    C7 2076   1.449   1.423   8.568  0.0812  0.0188 -0.1790
  136TCq2    C8 2077   1.472   1.435   8.809  0.3628 -0.0568  0.6446
  136TCq2    O4 2078   1.583   1.483   8.799  0.0661 -0.1090 -0.1366
  136TCq2    C9 2079   1.049   1.281   8.600  0.6594  0.3983  0.3345
  136TCq2    O5 2080   1.005   1.245   8.717  0.2188 -0.0321 -0.4842
  136TCq2    O6 2081   0.997   1.250   8.490 -0.1016  0.0608  0.0719
  136TCq2    H2 2082   1.195   1.335   8.372 -1.0634  0.6770  0.4261
  136TCq2    H3 2083   1.200   1.353   8.792 -3.2978 -0.7266 -1.3985
  136TCq2    H4 2084   1.539   1.483   8.557  0.0125  0.3249  0.9662
  137MPD2     C 2085   1.372   4.236   9.534 -0.1399 -0.1770  0.5866
  137MPD2    C1 2086   1.328   4.334   9.446  0.1257  0.1122 -0.1050
  137MPD2    C2 2087   1.359   4.464   9.469  0.2522  0.4520 -0.4848
  137MPD2    C3 2088   1.445   4.507   9.567  0.4697 -0.0735 -0.0892
  137MPD2    C4 2089   1.477   4.401   9.660 -0.4916  0.6482 -0.5074
  137MPD2    C5 2090   1.435   4.270   9.647  0.2405 -0.6032 -0.3803
  137MPD2     H 2091   1.335   4.535   9.391 -2.2592  1.9627  1.6663
  137MPD2    H1 2092   1.527   4.418   9.754 -0.7168 -2.1494  0.1284
  137MPD2    H2 2093   1.336   4.134   9.523  0.2032 -0.4979  2.4960
  137MPD2    H3 2094   1.465   4.198   9.722  2.8424 -0.7552 -1.5656
  137MPD2     N 2095   1.484   4.641   9.573 -0.3774  0.4362  0.1066
  137MPD2    H5 2096   1.446   4.708   9.507 -0.6213  2.6039  2.4611
  137MPD2    N1 2097   1.259   4.293   9.327  0.2188 -0.8447  0.1063
  137MPD2    H7 2098   1.240   4.193   9.316  0.2041 -1.0475  1.9293
  138TCq2    C1 2099   1.202   4.379   9.237  0.0170  0.1014 -0.2423
  138TCq2    O2 2100   1.204   4.504   9.226  0.3000  0.3598  0.4357
  138TCq2    C2 2101   1.133   4.312   9.129 -0.4730  0.0851 -0.2234
  138TCq2    C3 2102   1.082   4.186   9.162 -0.4616  0.2527 -0.1925
  138TCq2    C4 2103   0.989   4.132   9.074  0.1691  0.4619 -0.1129
  138TCq2    C5 2104   0.949   4.206   8.973 -0.6420  0.2040  0.3600
  138TCq2    C6 2105   0.999   4.332   8.949 -0.2277  0.1371 -0.6787
  138TCq2    C7 2106   1.077   4.395   9.034  0.0244  0.0845 -0.4673
  138TCq2    C8 2107   0.923   4.409   8.850  0.9297 -0.1773  0.2867
  138TCq2    O4 2108   0.866   4.341   8.769 -0.0363 -0.1945  0.6079
  138TCq2    C9 2109   0.935   3.999   9.098  0.0152 -0.0495 -0.1196
  138TCq2    O5 2110   0.953   3.954   9.212 -0.2084  0.1255  0.1587
  138TCq2    O6 2111   0.837   3.968   9.022  0.8778 -0.2446  0.0818
  138TCq2    H2 2112   1.114   4.124   9.244  0.1530 -1.1029 -1.4551
  138TCq2    H3 2113   0.866   4.166   8.915 -1.5693  3.1012 -0.3025
  138TCq2    H4 2114   1.119   4.492   9.006 -1.1761  1.2625  1.8628
  139TMC2    C1 2115   1.527   3.571  13.490  0.2445 -0.4438 -0.3546
  139TMC2    C2 2116   1.391   3.570  13.498 -0.3067  0.4696 -0.1400
  139TMC2    C3 2117   1.322   3.680  13.471  0.5441 -0.5360  0.2649
  139TMC2    C4 2118   1.593   3.686  13.456  0.0813  0.6075  0.5565
  139TMC2    C5 2119   1.518   3.795  13.435  0.1191 -0.2936  0.0979
  139TMC2    C6 2120   1.385   3.793  13.454 -0.3549  0.4499 -0.1237
  139TMC2     C 2121   1.605   3.446  13.477  0.9360 -0.4276  0.1128
  139TMC2     O 2122   1.696   3.439  13.394  0.3518 -0.0318 -0.2796
  139TMC2     H 2123   1.336   3.481  13.524 -0.1492  0.7561  1.1929
  139TMC2    H1 2124   1.699   3.685  13.434 -0.4874  2.6336 -2.3054
  139TMC2    H2 2125   1.321   3.880  13.447  0.7285  0.9784 -3.4842
  139TMC2    C7 2126   1.582   3.924  13.405 -0.2703  0.4939 -1.4379
  139TMC2    C8 2127   1.178   3.678  13.491  0.0943  0.2488  0.0804
  139TMC2    O1 2128   1.699   3.932  13.444  0.1527  0.3738  0.1386
  139TMC2    O2 2129   1.124   3.783  13.519  0.1359  0.1496 -0.5188
  139TMC2    O5 2130   1.126   3.572  13.427  0.0071  0.4332  0.3662
  139TMC2    H5 2131   1.190   3.523  13.371 -0.7582 -2.5035  2.0095
  140MPD2     C 2132   1.489   3.121  13.611 -0.8797  0.1309  0.0475
  140MPD2    C1 2133   1.559   3.200  13.525  0.3467  0.0821 -0.0350
  140MPD2    C2 2134   1.644   3.137  13.434  0.6110  0.6260  0.2763
  140MPD2    C3 2135   1.650   2.993  13.427 -0.3040  0.4690  0.2632
  140MPD2    C4 2136   1.572   2.916  13.519  0.2467 -0.3695  0.2225
  140MPD2    C5 2137   1.492   2.985  13.606  0.3280 -0.1353  0.3044
  140MPD2     H 2138   1.703   3.203  13.370 -0.1173  1.8015  0.8138
  140MPD2    H1 2139   1.548   2.811  13.510  1.4292 -0.5811 -0.4714
  140MPD2    H2 2140   1.444   3.171  13.696 -0.3485 -0.4412  0.6614
  140MPD2    H3 2141   1.432   2.922  13.670 -1.3285  1.7028  0.5817
  140MPD2     N 2142   1.731   2.928  13.336  0.4294  0.6408 -0.2114
  140MPD2    H5 2143   1.767   2.982  13.257 -0.6728 -0.3245 -1.3755
  140MPD2    N1 2144   1.543   3.343  13.544 -0.0955  0.4988  0.1590
  140MPD2    H7 2145   1.476   3.376  13.613  0.2562 -0.9617  1.1962
  141TCq2    C1 2146   1.872   0.233  14.407  0.3303  0.2817 -0.2380
  141TCq2    O2 2147   1.867   0.332  14.336 -0.1183  0.1311 -0.1732
  141TCq2    C2 2148   1.906   0.242  14.549  0.4473 -0.2511 -0.1378
  141TCq2    C3 2149   1.949   0.124  14.607  0.4514  0.0617  1.0434
  141TCq2    C4 2150   2.019   0.134  14.724  0.3102  0.4698  0.3657
  141TCq2    C5 2151   2.018   0.262  14.791  0.5723 -0.6025 -0.5808
  141TCq2    C6 2152   1.957   0.368  14.739 -0.3200  0.2052 -0.2974
  141TCq2    C7 2153   1.908   0.366  14.609  0.1750  0.3426 -0.6901
  141TCq2    C8 2154   1.982   0.494  14.807 -0.1092 -0.5443  0.0497
  141TCq2    O4 2155   2.001   0.494  14.926  0.2047 -0.4096 -0.1139
  141TCq2    C9 2156   2.065   0.023  14.786  0.0828 -0.0708  0.5735
  141TCq2    O5 2157   2.100   0.029  14.906  0.2514 -0.2631 -0.3491
  141TCq2    O6 2158   2.050   4.642  14.714  0.5624 -0.0460  0.0595
  141TCq2    H2 2159   1.947   0.026  14.560 -1.9597  0.3295  0.5457
  141TCq2    H3 2160   2.058   0.273  14.891 -2.2858 -1.2896  0.6328
  141TCq2    H4 2161   1.861   0.446  14.554 -0.0610  1.1624  0.7007
  142MPD2     C 2162   4.645   3.500  10.149  0.2697  0.1571 -0.1431
  142MPD2    C1 2163   4.530   3.506  10.084 -0.4912 -0.8306  0.3579
  142MPD2    C2 2164   4.511   3.579   9.974  0.5733 -0.9814 -0.3841
  142MPD2    C3 2165   4.614   3.669   9.930  0.0519  0.2681  0.0843
  142MPD2    C4 2166   0.013   3.661   9.997  0.2519  0.4863  0.3766
  142MPD2    C5 2167   0.024   3.578  10.109  0.7846  0.5873  0.0959
  142MPD2     H 2168   4.423   3.563   9.914 -1.1975 -0.4270  2.0564
  142MPD2    H1 2169   0.097   3.728   9.981  0.5340 -0.1159 -0.7274
  142MPD2    H2 2170   4.663   3.428  10.228 -1.4002  0.4019  0.4663
  142MPD2    H3 2171   0.116   3.584  10.167  1.1329 -0.7702 -0.3177
  142MPD2     N 2172   4.597   3.758   9.821  0.0766  0.3992 -0.5058
  142MPD2    H5 2173   4.678   3.818   9.809  0.8421 -0.5653 -0.2320
  142MPD2    N1 2174   4.425   3.429  10.153 -0.5277  0.2330  0.4050
  142MPD2    H7 2175   4.447   3.378  10.238  0.8450  1.0693  0.5667
  143TCq2    C1 2176   4.499   3.757   9.723 -0.1770  0.2332  0.4335
  143TCq2    O2 2177   4.428   3.661   9.705  0.4967  0.4096 -0.2875
  143TCq2    C2 2178   4.526   3.866   9.627 -0.2986 -0.1672 -0.5352
  143TCq2    C3 2179   4.457   3.853   9.509 -0.1085  0.5669  0.5578
  143TCq2    C4 2180   4.469   3.957   9.423 -0.1912 -0.1364 -0.3331
  143TCq2    C5 2181   4.535   4.074   9.451  0.2257  0.0176 -0.7628
  143TCq2    C6 2182   4.605   4.084   9.574 -0.0222 -0.0936  0.2528
  143TCq2    C7 2183   4.600   3.976   9.657  0.9205 -0.0294 -0.2806
  143TCq2    C8 2184   4.668   4.207   9.621 -0.0789 -0.4213 -1.0078
  143TCq2    O4 2185   0.031   4.189   9.707 -0.2388 -0.1239 -0.1638
  143TCq2    C9 2186   4.395   3.947   9.300  0.5054 -0.0445  1.0201
  143TCq2    O5 2187   4.409   4.041   9.214 -0.0815 -0.5831  0.2839
  143TCq2    O6 2188   4.322   3.845   9.281  0.1466  0.4163 -0.0627
  143TCq2    H2 2189   4.413   3.759   9.479  2.3387 -0.2604 -0.4250
  143TCq2    H3 2190   4.537   4.155   9.380  0.8687 -0.3627 -1.1817
  143TCq2    H4 2191   4.650   3.990   9.753 -0.1926 -0.4532  0.3596
  144MPD2     C 2192   2.440   2.806   0.416  0.2684 -0.0398  0.4250
  144MPD2    C1 2193   2.449   2.710   0.319 -0.0586  0.6138  0.1255
  144MPD2    C2 2194   2.558   2.624   0.318  0.5240 -0.7384 -0.3046
  144MPD2    C3 2195   2.660   2.632   0.416 -0.4863  0.8217 -0.4239
  144MPD2    C4 2196   2.659   2.748   0.492 -0.8933  0.1954 -0.7540
  144MPD2    C5 2197   2.553   2.829   0.490 -0.5309 -0.1499 -0.5182
  144MPD2     H 2198   2.559   2.545   0.243 -1.6249  0.0239 -1.1363
  144MPD2    H1 2199   2.738   2.755   0.566 -2.9500 -2.1081  1.6133
  144MPD2    H2 2200   2.363   2.882   0.425  0.5421  0.2314  0.5164
  144MPD2    H3 2201   2.560   2.915   0.556 -0.5203  0.7780 -1.7270
  144MPD2     N 2202   2.760   2.527   0.430 -0.1464  0.1006 -0.3265
  144MPD2    H5 2203   2.839   2.551   0.490  0.9176 -0.1954 -1.6001
  144MPD2    N1 2204   2.348   2.698   0.221  0.2115 -0.9162 -0.4853
  144MPD2    H7 2205   2.347   2.621   0.154 -0.3882 -1.1857 -0.1723
  145TCq2    C1 2206   2.775   2.415   0.351  0.5289 -0.4131 -0.3875
  145TCq2    O2 2207   2.708   2.364   0.262  0.1653 -0.5902  0.0753
  145TCq2    C2 2208   2.904   2.353   0.386 -0.7499 -0.3451  0.1382
  145TCq2    C3 2209   2.968   2.273   0.296  0.5081 -0.3723 -0.0472
  145TCq2    C4 2210   3.103   2.246   0.313  0.1082  0.0956  0.0359
  145TCq2    C5 2211   3.175   2.289   0.428 -0.2807  0.4378 -0.1521
  145TCq2    C6 2212   3.102   2.364   0.518 -0.7379 -0.0258 -0.4565
  145TCq2    C7 2213   2.972   2.401   0.495  0.5184  0.0133  0.3457
  145TCq2    C8 2214   3.159   2.385   0.650 -0.3710 -0.2284  0.0029
  145TCq2    O4 2215   3.242   2.304   0.691  0.4138 -0.4882 -0.2611
  145TCq2    C9 2216   3.169   2.170   0.219 -0.2866 -0.2780  0.1533
  145TCq2    O5 2217   3.111   2.151   0.106 -0.4399 -0.0112  0.1946
  145TCq2    O6 2218   3.296   2.168   0.236 -0.5392 -0.1445 -0.5665
  145TCq2    H2 2219   2.917   2.241   0.206  0.7419  0.2713 -0.4116
  145TCq2    H3 2220   3.276   2.258   0.450 -0.4662 -1.9873 -2.6997
  145TCq2    H4 2221   2.913   2.433   0.581 -0.0692 -1.5396  0.5075
  146TMC2    C1 2222   3.526   1.832  12.440 -1.0565  0.5911 -0.4235
  146TMC2    C2 2223   3.455   1.942  12.398  0.2226 -0.3253  0.4199
  146TMC2    C3 2224   3.432   1.969  12.270 -0.0755 -0.1356 -0.0665
  146TMC2    C4 2225   3.600   1.761  12.346 -0.3878  0.7247  0.2549
  146TMC2    C5 2226   3.561   1.780  12.216  0.2827 -0.1433  0.1085
  146TMC2    C6 2227   3.480   1.884  12.172  0.4613 -0.8520 -0.9369
  146TMC2     C 2228   3.550   1.812  12.583 -0.2048  0.7702  0.1377
  146TMC2     O 2229   3.490   1.897  12.649 -0.1734  0.1598 -0.4309
  146TMC2     H 2230   3.415   2.001  12.479  0.3107  1.1971 -0.6510
  146TMC2    H1 2231   3.673   1.690  12.383  0.3949  1.1061 -0.5738
  146TMC2    H2 2232   3.451   1.896  12.068  0.0709  3.2047 -0.3568
  146TMC2    C7 2233   3.647   1.721  12.112  0.2318  0.6979 -0.1018
  146TMC2    C8 2234   3.356   2.092  12.238  0.1217  0.5376  0.3668
  146TMC2    O1 2235   3.632   1.769  12.000 -0.3026  0.5028  0.2392
  146TMC2    O2 2236   3.339   2.179  12.322  0.0583 -0.1429 -0.0756
  146TMC2    O5 2237   3.274   2.071  12.130  0.5630  0.7173 -0.4057
  146TMC2    H5 2238   3.300   1.993  12.077  2.1971  1.3296 -0.5029
  147MPD2     C 2239   4.057   1.435  11.987  0.2026 -0.3068  0.9822
  147MPD2    C1 2240   4.020   1.402  12.117  0.0246  0.4964 -0.3062
  147MPD2    C2 2241   3.903   1.454  12.164  0.0820  0.2799 -0.1537
  147MPD2    C3 2242   3.828   1.554  12.089  0.2948 -0.3910  0.0100
  147MPD2    C4 2243   3.872   1.586  11.962 -0.5817 -0.6006  0.9623
  147MPD2    C5 2244   3.981   1.520  11.913 -0.0134  0.0632  0.1671
  147MPD2     H 2245   3.860   1.423  12.259  0.1648  1.2551  0.2001
  147MPD2    H1 2246   3.822   1.656  11.897  0.0307 -1.4289 -0.3963
  147MPD2    H2 2247   4.153   1.402  11.950 -0.4059 -1.4120  0.4107
  147MPD2    H3 2248   4.010   1.538  11.810 -1.3762  0.3454 -0.1666
  147MPD2     N 2249   3.726   1.622  12.157 -0.4458 -0.1244  0.3417
  147MPD2    H5 2250   3.712   1.581  12.249 -1.6973  2.3323  1.2721
  147MPD2    N1 2251   4.104   1.313  12.188 -1.1569 -0.3214  0.6496
  147MPD2    H7 2252   4.181   1.269  12.137 -3.4004  0.8574 -3.7488
  148MPD2     C 2253   4.354   4.043  10.934  0.2970 -0.4108 -0.5349
  148MPD2    C1 2254   4.393   4.111  10.824 -0.7226  0.3205 -1.0120
  148MPD2    C2 2255   4.303   4.169  10.735  0.0565 -0.3199 -0.0811
  148MPD2    C3 2256   4.170   4.154  10.772 -0.0077  0.4066  0.5800
  148MPD2    C4 2257   4.134   4.076  10.879  0.4198 -0.8247 -0.3892
  148MPD2    C5 2258   4.224   4.020  10.958 -0.8395 -0.4371  0.3366
  148MPD2     H 2259   4.350   4.228  10.657  1.2534 -0.7261  0.3434
  148MPD2    H1 2260   4.029   4.057  10.892  0.3780  0.7073  1.6431
  148MPD2    H2 2261   4.419   4.004  11.011  1.6870 -1.2734 -2.1748
  148MPD2    H3 2262   4.190   3.966  11.046  0.1574 -1.7119 -0.0694
  148MPD2     N 2263   4.067   4.208  10.690  0.2034 -0.5694 -0.0669
  148MPD2    H5 2264   3.976   4.176  10.723  0.0979  0.7561  0.9235
  148MPD2    N1 2265   4.527   4.141  10.791 -0.1689  0.2287 -0.5043
  148MPD2    H7 2266   4.549   4.181  10.700 -0.3543  0.3367 -0.5013
  149TCq2    C1 2267   4.625   4.151  10.887 -0.6548 -0.0663  0.2950
  149TCq2    O2 2268   4.625   4.136  11.008 -0.1640  0.3107 -0.0735
  149TCq2    C2 2269   0.001   4.244  10.831 -0.1285  0.5125 -0.4243
  149TCq2    C3 2270   0.034   4.354  10.910  0.2282  0.4048 -0.4875
  149TCq2    C4 2271   0.033   4.476  10.853  0.2619 -0.5995  0.8848
  149TCq2    C5 2272   0.003   4.500  10.722  0.5574  0.5046 -0.5027
  149TCq2    C6 2273   4.717   4.391  10.649 -0.0638  0.5804 -0.5467
  149TCq2    C7 2274   4.705   4.266  10.701  0.0361 -0.3094 -0.0038
  149TCq2    C8 2275   4.655   4.410  10.520 -0.9377  0.7593 -0.3135
  149TCq2    O4 2276   4.568   4.332  10.477 -0.1402 -0.1345 -0.5933
  149TCq2    C9 2277   0.017   4.593  10.939 -0.2278  0.3190 -0.4253
  149TCq2    O5 2278   4.653   4.588  11.022 -0.3721  0.3078 -0.4087
  149TCq2    O6 2279   0.044   4.699  10.877 -0.3166  0.2318 -1.1735
  149TCq2    H2 2280   0.030   4.351  11.019  1.9367  1.1260 -0.4111
  149TCq2    H3 2281   4.707   4.600  10.686 -3.0000 -1.3295 -3.5400
  149TCq2    H4 2282   4.691   4.191  10.624  0.6081 -0.6897  0.2621
  150MPD2     C 2283   1.473   0.151  11.632  0.1384 -0.4733  0.4365
  150MPD2    C1 2284   1.430   0.028  11.670  1.1416  0.7503 -0.4078
  150MPD2    C2 2285   1.501   4.696  11.774  0.7351 -0.4665  0.0626
  150MPD2    C3 2286   1.602   0.031  11.848  0.1279  0.4945  0.1422
  150MPD2    C4 2287   1.630   0.159  11.814  0.1538  0.6621 -1.0553
  150MPD2    C5 2288   1.570   0.215  11.706  0.7930  0.0467  0.1219
  150MPD2     H 2289   1.474   4.595  11.804 -0.0584 -0.0571  0.7261
  150MPD2    H1 2290   1.703   0.220  11.865 -1.6204  0.3713  1.8215
  150MPD2    H2 2291   1.416   0.207  11.558 -1.0113 -0.2866  1.4702
  150MPD2    H3 2292   1.594   0.316  11.679  2.8318 -1.3479 -3.2040
  150MPD2     N 2293   1.654   4.679  11.956  0.3313 -0.4276 -0.2573
  150MPD2    H5 2294   1.626   4.582  11.970  0.0973 -0.2999  0.1593
  150MPD2    N1 2295   1.324   4.685  11.600 -0.3782 -0.0413 -0.0343
  150MPD2    H7 2296   1.277   0.007  11.523 -1.1997  3.1856  2.4155
  151TCq2    C1 2297   1.754   4.723  12.037 -0.3441 -0.4851  0.2175
  151TCq2    O2 2298   1.812   0.104  12.037 -0.8187 -0.5252  0.4140
  151TCq2    C2 2299   1.787   4.608  12.123 -0.1351 -0.5019  0.7428
  151TCq2    C3 2300   1.708   4.501  12.132 -0.1630  0.5108  0.0844
  151TCq2    C4 2301   1.764   4.380  12.158  0.0516  0.0586 -0.7503
  151TCq2    C5 2302   1.893   4.371  12.190  0.4035  0.1682  0.0383
  151TCq2    C6 2303   1.971   4.483  12.196  0.1648  0.5100  0.5214
  151TCq2    C7 2304   1.921   4.602  12.155  0.1327  0.0592 -0.4489
  151TCq2    C8 2305   2.115   4.483  12.212  1.0282  0.6904  0.0094
  151TCq2    O4 2306   2.178   4.576  12.162  0.0659  0.1788 -0.0079
  151TCq2    C9 2307   1.671   4.268  12.165  0.5835  0.5404  0.3443
  151TCq2    O5 2308   1.567   4.274  12.094  0.5011  0.0034 -0.0292
  151TCq2    O6 2309   1.705   4.159  12.220  0.7180 -0.0441 -0.0382
  151TCq2    H2 2310   1.600   4.508  12.127 -0.1406 -0.5911 -1.8266
  151TCq2    H3 2311   1.932   4.273  12.215 -0.5062 -0.5440 -1.3100
  151TCq2    H4 2312   1.985   4.686  12.131  1.5173 -0.9712 -0.3523
  152MPD2     C 2313   0.825   3.625  12.450  0.3191  1.1339  0.3849
  152MPD2    C1 2314   0.850   3.749  12.414 -0.0030  0.1343 -0.4492
  152MPD2    C2 2315   0.756   3.823  12.346  0.7378 -0.6881  0.3856
  152MPD2    C3 2316   0.626   3.775  12.339 -0.4938  0.0044  0.2125
  152MPD2    C4 2317   0.603   3.645  12.372 -0.1235  0.0206 -0.2411
  152MPD2    C5 2318   0.702   3.569  12.430  0.1507 -0.2670 -0.2302
  152MPD2     H 2319   0.772   3.929  12.330  3.0316 -1.4457 -2.4846
  152MPD2    H1 2320   0.507   3.595  12.365 -1.3692  2.3063  0.8726
  152MPD2    H2 2321   0.888   3.571  12.520  0.7104  0.1263 -0.7377
  152MPD2    H3 2322   0.678   3.473  12.475 -2.5554  0.3656 -0.3265
  152MPD2     N 2323   0.533   3.862  12.276  0.0141 -0.3265  0.4557
  152MPD2    H5 2324   0.563   3.957  12.254  2.2553 -1.0105  0.5640
  152MPD2    N1 2325   0.981   3.802  12.447  0.4811  0.5544  0.2445
  152MPD2    H7 2326   1.049   3.740  12.490 -1.0991 -2.1722 -1.1090
  153TCq2    C1 2327   1.010   3.935  12.456 -0.1466 -0.7847  0.1541
  153TCq2    O2 2328   0.936   4.036  12.454  0.1785  0.1247  0.1958
  153TCq2    C2 2329   1.150   3.957  12.435  0.7556  0.0104 -0.1399
  153TCq2    C3 2330   1.232   3.858  12.381 -0.5868 -0.0332 -0.2660
  153TCq2    C4 2331   1.352   3.907  12.344 -0.4787  0.6860 -0.2508
  153TCq2    C5 2332   1.403   4.039  12.359  0.8498  0.1834  0.5182
  153TCq2    C6 2333   1.313   4.127  12.406 -0.3340  0.1846 -0.9411
  153TCq2    C7 2334   1.188   4.091  12.454  0.6367 -0.3155  0.2849
  153TCq2    C8 2335   1.361   4.256  12.446  0.1640  0.7124 -1.1007
  153TCq2    O4 2336   1.275   4.343  12.441 -0.0954  1.0235  0.1420
  153TCq2    C9 2337   1.445   3.817  12.284  0.4277  0.5515  0.6624
  153TCq2    O5 2338   1.426   3.694  12.302 -0.1247 -0.2993 -0.2392
  153TCq2    O6 2339   1.552   3.872  12.245 -0.0984 -0.2293  0.1829
  153TCq2    H2 2340   1.198   3.757  12.362 -0.8975  0.2080 -0.9919
  153TCq2    H3 2341   1.502   4.062  12.320  0.9571  0.6602  1.0673
  153TCq2    H4 2342   1.125   4.165  12.503 -0.3937 -0.5545 -0.6650
  154MPD2     C 2343   2.767   3.997  17.610  0.1274  0.6356 -0.1805
  154MPD2    C1 2344   2.849   3.967   0.028 -0.2072  0.5305  0.7641
  154MPD2    C2 2345   2.789   3.970   0.157 -0.1623 -0.2077  0.0093
  154MPD2    C3 2346   2.661   4.014   0.168  0.0025 -0.0679 -0.2124
  154MPD2    C4 2347   2.583   4.042   0.060 -0.2871  0.3853  0.3651
  154MPD2    C5 2348   2.633   4.015  17.627 -1.0921  0.9622  0.1877
  154MPD2     H 2349   2.844   3.952   0.249 -3.2702  0.0734  1.8939
  154MPD2    H1 2350   2.478   4.067   0.058 -0.1981  0.8415  1.6305
  154MPD2    H2 2351   2.810   3.990  17.511  0.9940  3.4267  0.0144
  154MPD2    H3 2352   2.569   4.030  17.542  1.0908  0.2268 -1.5860
  154MPD2     N 2353   2.604   4.025   0.297 -0.3456  0.2925  0.3954
  154MPD2    H5 2354   2.662   4.022   0.381  1.3295 -0.6220 -0.7770
  154MPD2    N1 2355   2.980   3.920   0.010 -0.0946 -0.7731  0.8284
  154MPD2    H7 2356   3.007   3.898  17.613 -0.6668 -0.6104  0.6235
  155TCq2    C1 2357   3.071   3.913   0.113  0.3968 -0.1249  0.0189
  155TCq2    O2 2358   3.071   3.982   0.213 -0.5016  0.0793  0.0639
  155TCq2    C2 2359   3.194   3.861   0.062  0.4605  0.3756  0.0038
  155TCq2    C3 2360   3.188   3.769  17.663 -0.2158 -0.4868  0.0673
  155TCq2    C4 2361   3.306   3.735  17.600 -0.1092  0.3349 -0.2254
  155TCq2    C5 2362   3.430   3.785  17.638 -0.1165  0.3684 -0.6284
  155TCq2    C6 2363   3.431   3.867   0.046  0.1005  0.6466  0.0110
  155TCq2    C7 2364   3.315   3.913   0.103  0.0502  0.2671 -0.3660
  155TCq2    C8 2365   3.557   3.918   0.091  0.5773  0.0437 -0.3580
  155TCq2    O4 2366   3.646   3.930   0.013 -0.5166  0.2352  0.2151
  155TCq2    C9 2367   3.302   3.646  17.494 -0.3470 -0.3047  0.5503
  155TCq2    O5 2368   3.392   3.650  17.403 -0.1890  0.1846  0.3423
  155TCq2    O6 2369   3.198   3.572  17.477 -0.7293  0.7429 -0.0352
  155TCq2    H2 2370   3.103   3.704  17.647  0.9049 -1.2312 -2.8986
  155TCq2    H3 2371   3.519   3.759  17.582 -0.0222 -2.3958  0.8139
  155TCq2    H4 2372   3.319   3.993   0.176 -1.5154 -1.3954  1.5362
  156MPD2     C 2373   1.138   1.706  12.045  0.6211  0.2699  0.9165
  156MPD2    C1 2374   1.030   1.637  11.992 -0.5918  0.6077  0.8701
  156MPD2    C2 2375   0.934   1.587  12.080  0.2302  0.1818 -0.3881
  156MPD2    C3 2376   0.942   1.620  12.215  0.4532  0.2600 -0.7737
  156MPD2    C4 2377   1.041   1.704  12.262  0.3809 -0.4595 -0.2317
  156MPD2    C5 2378   1.144   1.743  12.178 -0.3091  0.0749 -0.1780
  156MPD2     H 2379   0.854   1.527  12.038  0.8127 -1.0575  0.2440
  156MPD2    H1 2380   1.050   1.736  12.366  0.1150  0.7352 -0.5806
  156MPD2    H2 2381   1.213   1.754  11.983  0.4248  1.6884  1.7828
  156MPD2    H3 2382   1.234   1.786  12.219  1.6020 -1.8268 -2.3320
  156MPD2     N 2383   0.852   1.557  12.300 -0.8650 -0.3599  0.1811
  156MPD2    H5 2384   0.788   1.500  12.245 -0.2393 -1.0785  0.2047
  156MPD2    N1 2385   1.011   1.624  11.852  0.8386  0.0802 -0.0825
  156MPD2    H7 2386   0.957   1.540  11.832  1.8338 -0.6657  0.3833
  157TCq2    C1 2387   1.080   1.695  11.757 -0.5198 -0.3476 -0.4711
  157TCq2    O2 2388   1.140   1.802  11.762 -0.1887  0.0733 -0.2736
  157TCq2    C2 2389   1.040   1.631  11.632 -0.1385 -0.4003  0.1802
  157TCq2    C3 2390   1.020   1.496  11.620  0.2893 -0.1110 -0.2698
  157TCq2    C4 2391   0.975   1.455  11.498 -0.9483 -1.0244  0.4387
  157TCq2    C5 2392   0.911   1.543  11.412  0.0090  0.1752  0.2400
  157TCq2    C6 2393   0.916   1.677  11.437  0.6959  0.3864  0.4466
  157TCq2    C7 2394   0.989   1.723  11.543 -0.5741 -0.2704  0.7440
  157TCq2    C8 2395   0.871   1.770  11.339 -0.2723 -0.2903 -0.1822
  157TCq2    O4 2396   0.923   1.880  11.332  0.1866 -0.6195  0.1057
  157TCq2    C9 2397   0.977   1.322  11.465  0.4948  0.3492  0.2582
  157TCq2    O5 2398   0.969   1.295  11.344 -0.0738  0.2246 -0.4972
  157TCq2    O6 2399   0.986   1.240  11.559 -0.4902 -0.7816  0.0560
  157TCq2    H2 2400   1.058   1.420  11.688  0.3959  0.2662  0.0904
  157TCq2    H3 2401   0.880   1.506  11.314 -1.2634 -2.9658  1.8260
  157TCq2    H4 2402   0.997   1.829  11.565  1.3582 -0.4872  1.0743
  158TMC2    C1 2403   1.936   0.570  13.315 -0.5052 -0.3865  0.3695
  158TMC2    C2 2404   2.053   0.596  13.249  0.6926 -0.3477 -0.0944
  158TMC2    C3 2405   2.047   0.624  13.117 -0.2929  0.6321  0.7032
  158TMC2    C4 2406   1.813   0.574  13.249  0.2647  0.4067 -0.7041
  158TMC2    C5 2407   1.818   0.596  13.111  0.0868  0.1793  0.3941
  158TMC2    C6 2408   1.932   0.633  13.042  0.4392 -0.1869  0.2484
  158TMC2     C 2409   1.940   0.542  13.454  0.2570  0.4430  0.0647
  158TMC2     O 2410   2.047   0.560  13.503  0.0187 -0.0090  0.4160
  158TMC2     H 2411   2.147   0.576  13.298  0.4245  2.0566  1.3924
  158TMC2    H1 2412   1.717   0.565  13.298  0.8654  1.4125  0.6463
  158TMC2    H2 2413   1.929   0.642  12.934  0.7331  0.1098  0.2645
  158TMC2    C7 2414   1.694   0.587  13.039  0.5481 -0.8536 -0.1534
  158TMC2    C8 2415   2.173   0.631  13.046  0.1177  0.3647 -0.3278
  158TMC2    O1 2416   1.687   0.650  12.936  0.1595 -0.1068  0.1396
  158TMC2    O2 2417   2.267   0.564  13.084  0.0116  0.0697  0.3971
  158TMC2    O5 2418   2.160   0.691  12.922  0.8615  0.0980 -0.0813
  158TMC2    H5 2419   2.102   0.770  12.926 -1.0009 -1.2698 -0.1164
  159MPD2     C 2420   1.753   0.404  13.916 -0.1686 -0.5550  0.0792
  159MPD2    C1 2421   1.671   0.354  13.821  0.6065  0.1318 -0.4239
  159MPD2    C2 2422   1.694   0.382  13.683 -0.2629  0.2254 -0.7792
  159MPD2    C3 2423   1.807   0.459  13.645  0.7932 -0.5810  0.4363
  159MPD2    C4 2424   1.893   0.495  13.742 -0.1492  0.0168 -0.3785
  159MPD2    C5 2425   1.870   0.467  13.874 -0.1051  0.3371  0.3325
  159MPD2     H 2426   1.629   0.331  13.614  0.6482 -1.2868 -0.5335
  159MPD2    H1 2427   1.985   0.546  13.714  1.0349 -0.8226  1.9943
  159MPD2    H2 2428   1.744   0.382  14.022 -0.2171 -0.8717  0.0071
  159MPD2    H3 2429   1.947   0.496  13.945 -1.1605  0.3788  1.4680
  159MPD2     N 2430   1.831   0.474  13.508 -0.2245 -0.0278 -0.5263
  159MPD2    H5 2431   1.759   0.430  13.452  1.6874 -1.2951 -1.9330
  159MPD2    N1 2432   1.563   0.261  13.850 -0.2268 -0.3154 -0.3039
  159MPD2    H7 2433   1.543   0.193  13.777  1.0031  1.3655 -2.1732
  160TMC2    C1 2434   1.393   4.486   1.427  0.1167  0.0183  0.2404
  160TMC2    C2 2435   1.522   4.474   1.479  1.3218  0.6042  0.6984
  160TMC2    C3 2436   1.619   4.415   1.404  0.9559 -0.0014  0.2419
  160TMC2    C4 2437   1.360   4.430   1.303 -0.5227 -0.1035  0.1071
  160TMC2    C5 2438   1.460   4.378   1.231 -0.0438  0.6410  0.3976
  160TMC2    C6 2439   1.588   4.377   1.279  0.4604 -0.2357  0.1403
  160TMC2     C 2440   1.284   4.527   1.514 -0.8527  0.5558 -0.2585
  160TMC2     O 2441   1.318   4.614   1.595 -0.3342  0.0718  0.1667
  160TMC2     H 2442   1.538   4.512   1.579 -2.6178 -1.4053  2.0911
  160TMC2    H1 2443   1.261   4.440   1.259 -0.2504  0.2183 -0.4361
  160TMC2    H2 2444   1.672   4.357   1.213 -0.0151 -0.2819 -0.4500
  160TMC2    C7 2445   1.431   4.307   1.109 -0.0394  0.4937  0.5563
  160TMC2    C8 2446   1.755   4.421   1.447 -0.4661 -0.7889 -0.5201
  160TMC2    O1 2447   1.321   4.320   1.058  0.2635 -0.7419  0.1118
  160TMC2    O2 2448   1.775   4.406   1.566 -0.2669 -0.6739  0.3996
  160TMC2    O5 2449   1.832   4.465   1.350 -0.1805 -0.0314  0.0265
  160TMC2    H5 2450   1.785   4.494   1.270 -2.6026 -2.4801  0.5590
  161MPD2     C 2451   1.032   4.638   1.627 -0.8704  0.3051 -0.2030
  161MPD2    C1 2452   1.041   4.523   1.549 -0.5741 -0.3576  0.4533
  161MPD2    C2 2453   0.929   4.450   1.519 -0.1985  0.1919 -0.0685
  161MPD2    C3 2454   0.807   4.484   1.565  0.2213  0.0220  0.2405
  161MPD2    C4 2455   0.796   4.607   1.631  0.3790  0.1300 -0.0162
  161MPD2    C5 2456   0.906   4.686   1.669 -0.0431 -0.5872 -1.0912
  161MPD2     H 2457   0.933   4.366   1.451 -0.4942 -2.6659  3.4400
  161MPD2    H1 2458   0.700   4.651   1.654  0.4713 -1.3152  3.0827
  161MPD2    H2 2459   1.119   4.694   1.659 -0.0403 -2.5087  2.4969
  161MPD2    H3 2460   0.897   0.051   1.731 -1.4092 -0.7817 -1.0140
  161MPD2     N 2461   0.688   4.413   1.539  0.1772  0.7590  0.3406
  161MPD2    H5 2462   0.604   4.465   1.564  1.2511  2.0884  1.1610
  161MPD2    N1 2463   1.157   4.483   1.494  0.3034 -0.7837  0.3998
  161MPD2    H7 2464   1.151   4.401   1.434  0.6662  0.6922 -1.6562
  162TMC2    C1 2465   2.919   4.472   0.837 -0.2154 -0.2624 -0.4727
  162TMC2    C2 2466   2.796   4.408   0.824 -0.2458  0.7368  0.0934
  162TMC2    C3 2467   2.740   4.361   0.944 -0.7288 -0.1075 -0.8839
  162TMC2    C4 2468   2.984   4.465   0.959  0.3181 -0.1148  0.5553
  162TMC2    C5 2469   2.928   4.412   1.067  0.1479 -0.7798  0.2432
  162TMC2    C6 2470   2.803   4.349   1.060 -0.3838 -0.2324  0.1169
  162TMC2     C 2471   3.004   4.484   0.716 -0.7867 -0.5344  0.3913
  162TMC2     O 2472   3.127   4.479   0.733  0.0002  0.3352 -0.0462
  162TMC2     H 2473   2.746   4.389   0.730 -1.5167  1.1453  0.6899
  162TMC2    H1 2474   3.073   4.524   0.976  0.9976 -0.8104 -0.5759
  162TMC2    H2 2475   2.769   4.302   1.152 -1.1727 -0.4776 -0.3019
  162TMC2    C7 2476   2.961   4.465   1.194  1.0053 -0.2449 -0.1759
  162TMC2    C8 2477   2.593   4.337   0.950  0.3092 -0.1554  0.0419
  162TMC2    O1 2478   2.865   4.496   1.260  0.3971 -0.0811 -0.3455
  162TMC2    O2 2479   2.510   4.426   0.930 -0.3732 -0.1771 -0.4817
  162TMC2    O5 2480   2.581   4.230   1.027  0.3274 -0.4921  0.5084
  162TMC2    H5 2481   2.663   4.177   1.014 -0.4871 -2.0439  1.5798
  163MPD2     C 2482   3.082   4.570   0.211 -0.1893  0.3687  0.7633
  163MPD2    C1 2483   3.169   4.585   0.318  0.2148 -0.7096  0.4710
  163MPD2    C2 2484   3.119   4.564   0.449  0.1052 -0.2996  0.6280
  163MPD2    C3 2485   2.987   4.528   0.470 -0.6003  0.2350 -0.1752
  163MPD2    C4 2486   2.902   4.521   0.363  0.7437  0.8808 -0.4542
  163MPD2    C5 2487   2.951   4.537   0.236  0.3488  0.1357 -0.9220
  163MPD2     H 2488   3.189   4.592   0.527 -0.2532 -3.0167  1.9633
  163MPD2    H1 2489   2.797   4.493   0.374  1.0299 -0.0455 -0.0846
  163MPD2    H2 2490   3.113   4.593   0.110 -1.4798  0.5860  0.4206
  163MPD2    H3 2491   2.882   4.531   0.153 -0.2596 -0.4619 -0.3828
  163MPD2     N 2492   2.936   4.511   0.602 -0.2712  0.1058 -0.8964
  163MPD2    H5 2493   2.836   4.519   0.610 -0.4156 -2.8341  0.3041
  163MPD2    N1 2494   3.293   4.636   0.273  0.1482 -0.3365  0.5870
  163MPD2    H7 2495   3.310   4.646   0.173 -1.4051  1.7004  0.5323
  164TCq2    C1 2496   0.206   0.006  11.213 -0.5295  0.0058  0.2423
  164TCq2    O2 2497   0.160   4.679  11.313 -0.0155 -0.0953  0.2960
  164TCq2    C2 2498   0.176   0.149  11.192  0.2840  0.1504 -0.2170
  164TCq2    C3 2499   0.225   0.210  11.077  0.1824  1.0181  0.6128
  164TCq2    C4 2500   0.162   0.330  11.039 -0.0489  0.1389 -0.1196
  164TCq2    C5 2501   0.061   0.381  11.115  0.0453  0.2533  1.2406
  164TCq2    C6 2502   0.008   0.307  11.218 -0.8771 -0.2843 -1.0353
  164TCq2    C7 2503   0.067   0.192  11.262 -0.2290  0.0106  0.1426
  164TCq2    C8 2504   4.607   0.337  11.286  0.0615  0.3625 -0.0507
  164TCq2    O4 2505   4.587   0.274  11.393  0.1377  0.3111  0.7235
  164TCq2    C9 2506   0.203   0.395  10.915  0.5786 -0.0762  0.1857
  164TCq2    O5 2507   0.295   0.336  10.843 -0.9691 -0.0257 -0.1852
  164TCq2    O6 2508   0.157   0.513  10.893  0.4075 -0.3288 -0.2336
  164TCq2    H2 2509   0.318   0.176  11.033  1.6501  4.4115  1.1587
  164TCq2    H3 2510   0.009   0.472  11.088 -0.1176  0.0435  0.8504
  164TCq2    H4 2511   0.024   0.137  11.345  0.1289  0.4422  0.6135
  165MPD2     C 2512   1.078   1.656   0.934 -0.2784 -0.1358  0.2628
  165MPD2    C1 2513   0.946   1.685   0.921 -0.6842  0.4099  0.5361
  165MPD2    C2 2514   0.901   1.809   0.968 -0.8474  0.0886  0.9960
  165MPD2    C3 2515   0.991   1.900   1.022 -0.0474  0.2167 -0.0026
  165MPD2    C4 2516   1.120   1.859   1.035  0.3458 -0.8186  0.2458
  165MPD2    C5 2517   1.162   1.743   0.997  0.1211  0.2557 -0.0186
  165MPD2     H 2518   0.795   1.831   0.973 -0.4007  2.4433  0.1970
  165MPD2    H1 2519   1.190   1.932   1.074 -0.2118  0.5345 -1.2474
  165MPD2    H2 2520   1.127   1.571   0.887  0.5031  0.9832 -0.9620
  165MPD2    H3 2521   1.270   1.733   1.002  0.2227 -0.0273 -2.3722
  165MPD2     N 2522   0.953   2.029   1.072 -0.0432  0.1424  0.1449
  165MPD2    H5 2523   1.020   2.089   1.118 -1.3748  1.2500  0.6425
  165MPD2    N1 2524   0.858   1.592   0.865 -0.2397 -0.8149 -0.2233
  165MPD2    H7 2525   0.902   1.501   0.860  0.0754 -0.6887  0.2670
  166TCq2    C1 2526   0.820   2.074   1.089  1.1378  0.7406 -0.7639
  166TCq2    O2 2527   0.717   2.026   1.046 -0.0889 -0.3391  0.1026
  166TCq2    C2 2528   0.805   2.212   1.143  0.0563  0.0993  0.3622
  166TCq2    C3 2529   0.677   2.235   1.188 -0.1034 -0.1721 -0.6022
  166TCq2    C4 2530   0.657   2.349   1.270 -0.3697  0.2538 -0.3189
  166TCq2    C5 2531   0.757   2.433   1.286 -0.1900  0.2213  0.2464
  166TCq2    C6 2532   0.878   2.409   1.234  0.1943  0.2732  0.1545
  166TCq2    C7 2533   0.912   2.294   1.166 -0.4894 -0.6050  0.2939
  166TCq2    C8 2534   0.991   2.504   1.254 -0.2365 -0.5052 -0.2397
  166TCq2    O4 2535   1.104   2.458   1.248  0.2135  0.4244  0.2197
  166TCq2    C9 2536   0.528   2.371   1.324  0.0051 -0.1464 -0.0414
  166TCq2    O5 2537   0.442   2.284   1.304  0.3180  0.6121  0.4172
  166TCq2    O6 2538   0.511   2.474   1.397 -0.8619 -0.3446  0.2082
  166TCq2    H2 2539   0.594   2.169   1.167  2.4410 -3.6046  0.2417
  166TCq2    H3 2540   0.733   2.521   1.345  0.0210 -0.6224  1.5995
  166TCq2    H4 2541   1.014   2.267   1.142 -0.5382 -0.7327  0.2321
  167TMC2    C1 2542   3.765   4.709  12.241  0.1386  0.1207  0.4661
  167TMC2    C2 2543   3.639   0.016  12.283  0.6510  0.1723 -0.0786
  167TMC2    C3 2544   3.601   4.680  12.398  0.3177 -1.1991  0.8844
  167TMC2    C4 2545   3.846   4.617  12.302  0.1829 -0.2724  0.6126
  167TMC2    C5 2546   3.791   4.538  12.402 -0.0941 -0.0713 -0.4240
  167TMC2    C6 2547   3.667   4.576  12.457 -0.2120  0.0097  0.0069
  167TMC2     C 2548   3.832   0.076  12.151 -0.6880  0.8214 -0.6439
  167TMC2     O 2549   3.947   0.055  12.126  0.0433  0.0626 -0.1949
  167TMC2     H 2550   3.587   0.105  12.252 -2.8931 -1.5248  1.0463
  167TMC2    H1 2551   3.946   4.597  12.265  1.0381  0.5973  2.4941
  167TMC2    H2 2552   3.630   4.518  12.541 -0.5232  0.3109  0.0770
  167TMC2    C7 2553   3.861   4.422  12.451  0.4417  0.1237 -0.2465
  167TMC2    C8 2554   3.481   0.010  12.463  0.0730  0.1904  0.4568
  167TMC2    O1 2555   3.810   4.368  12.551 -0.1758 -0.0834 -0.2180
  167TMC2    O2 2556   3.430   0.119  12.435  0.3357  0.3784  0.3587
  167TMC2    O5 2557   3.412   4.631  12.502 -0.1261  0.0698  0.4857
  167TMC2    H5 2558   3.452   4.542  12.508 -0.2407 -0.1129 -1.5910
  168MPD2     C 2559   3.723   0.380  11.995  0.3057 -1.3049 -0.0389
  168MPD2    C1 2560   3.792   0.260  12.003 -0.2135  0.4365  0.0300
  168MPD2    C2 2561   3.891   0.239  11.908  0.0424  0.0666  0.4604
  168MPD2    C3 2562   3.907   0.320  11.798  0.5989 -0.5092 -0.1211
  168MPD2    C4 2563   3.830   0.434  11.791  0.0214 -0.2414  0.1557
  168MPD2    C5 2564   3.747   0.466  11.898 -0.2741  0.1383 -0.4677
  168MPD2     H 2565   3.938   0.141  11.909 -0.2284 -0.0727 -1.1384
  168MPD2    H1 2566   3.827   0.500  11.705  1.1015  3.2873  2.8150
  168MPD2    H2 2567   3.638   0.407  12.057  2.5197 -0.5442  2.6657
  168MPD2    H3 2568   3.679   0.551  11.895  0.6557  0.9569  1.8923
  168MPD2     N 2569   3.990   0.292  11.687 -0.0990 -0.0039 -0.2805
  168MPD2    H5 2570   3.986   0.356  11.608  1.5120 -0.4991 -0.7639
  168MPD2    N1 2571   3.749   0.167  12.097 -0.1449 -0.2033  0.0737
  168MPD2    H7 2572   3.654   0.193  12.122  0.0237 -0.6057  1.1342
  169MPD1     C 2573   1.444   4.023   8.558 -0.0135 -0.1588 -0.0980
  169MPD1    C1 2574   1.498   3.900   8.597 -0.2096  0.6113 -0.4919
  169MPD1    C2 2575   1.617   3.895   8.672 -0.9339  0.3294 -0.3927
  169MPD1    C3 2576   1.691   4.013   8.690  0.3950  0.2448  0.1637
  169MPD1    C4 2577   1.650   4.132   8.635 -0.4112 -0.4546  0.2061
  169MPD1    C5 2578   1.530   4.133   8.568 -0.0541 -0.1129 -0.3361
  169MPD1     H 2579   1.652   3.810   8.728 -2.3711  0.2081  0.3175
  169MPD1    H1 2580   1.697   4.230   8.634  0.8077 -1.0211  1.0576
  169MPD1    H2 2581   1.344   4.041   8.519  1.1256 -0.1333 -2.9767
  169MPD1    H3 2582   1.506   4.232   8.530  0.6296  0.1723 -0.0268
  169MPD1     N 2583   1.805   4.001   8.768 -0.1002  0.1404  0.1543
  169MPD1    H5 2584   1.826   3.909   8.805 -0.3519 -0.4946 -1.2764
  169MPD1    N1 2585   1.415   3.783   8.591 -0.7192 -0.1828 -0.0121
  169MPD1    H6 2586   1.350   3.780   8.513 -0.6240 -2.2695 -0.0164
  169MPD1    H7 2587   1.471   3.698   8.594  2.4821  1.9384  0.4329
  170MPD1     C 2588   4.502   1.969  12.892 -0.0535  0.5799  0.3093
  170MPD1    C1 2589   4.448   2.087  12.912 -0.3389  0.2802 -0.3236
  170MPD1    C2 2590   4.478   2.163  13.024  0.9020 -0.1977 -0.0045
  170MPD1    C3 2591   4.572   2.123  13.119 -0.4040  0.1162 -0.1668
  170MPD1    C4 2592   4.628   2.002  13.091  0.4958  0.4871  0.5517
  170MPD1    C5 2593   4.601   1.927  12.982 -0.0290  0.3950 -0.3991
  170MPD1     H 2594   4.416   2.251  13.035  0.9394 -0.2091  0.3082
  170MPD1    H1 2595   4.714   1.972  13.150  1.2385  0.8657 -0.3572
  170MPD1    H2 2596   4.478   1.908  12.806 -0.2033 -0.2047  0.8960
  170MPD1    H3 2597   4.672   1.848  12.961 -1.0070 -0.1890 -1.5362
  170MPD1     N 2598   4.603   2.204  13.238 -0.1186  0.2593 -0.0792
  170MPD1    H5 2599   4.572   2.300  13.233  2.5245  1.0986 -0.1842
  170MPD1    N1 2600   4.342   2.124  12.829 -0.1777  0.3206 -0.2765
  170MPD1    H6 2601   4.320   2.223  12.821  0.8246  0.7068  1.7159
  170MPD1    H7 2602   4.332   2.097  12.731 -4.3875 -0.8801  0.4419
  171MPD1     C 2603   3.621   3.808  15.193  0.3516 -0.3853  0.1263
  171MPD1    C1 2604   3.562   3.719  15.104 -0.0430  0.2483  0.3047
  171MPD1    C2 2605   3.541   3.591  15.148 -0.3178 -0.5434 -0.3863
  171MPD1    C3 2606   3.596   3.556  15.271 -0.0011 -0.7272  0.2837
  171MPD1    C4 2607   3.667   3.643  15.351 -0.1311  0.1690  0.0762
  171MPD1    C5 2608   3.667   3.777  15.317 -0.1113 -0.4383 -0.3793
  171MPD1     H 2609   3.479   3.523  15.090 -0.8575 -0.7191  0.3996
  171MPD1    H1 2610   3.707   3.618  15.448  1.1428  0.3543 -0.4057
  171MPD1    H2 2611   3.633   3.912  15.165  1.8594 -1.0902 -1.8339
  171MPD1    H3 2612   3.716   3.854  15.375  1.1726 -1.4444 -0.1402
  171MPD1     N 2613   3.587   3.426  15.322 -0.3121  0.2609  0.6342
  171MPD1    H5 2614   3.628   3.424  15.414 -0.0751 -1.0701  0.5044
  171MPD1    N1 2615   3.500   3.763  14.988  0.0784 -0.2782 -0.4493
  171MPD1    H6 2616   3.483   3.699  14.911  0.4702  0.0553 -0.8136
  171MPD1    H7 2617   3.528   3.856  14.957  1.1282  0.1905  1.9338
  172MPD1     C 2618   2.096   2.206  17.556  0.6810 -0.4312 -0.2011
  172MPD1    C1 2619   2.146   2.240  17.673  0.1370 -0.0777  0.5546
  172MPD1    C2 2620   2.275   2.288  17.672  0.7430 -1.0563 -0.5709
  172MPD1    C3 2621   2.356   2.300  17.559 -0.9773 -0.0613  0.2771
  172MPD1    C4 2622   2.307   2.245  17.440  0.0187 -0.1203  0.0664
  172MPD1    C5 2623   2.175   2.206  17.445 -0.7514 -0.2825  0.1492
  172MPD1     H 2624   2.320   2.329   0.064  1.6806 -0.9244 -1.1099
  172MPD1    H1 2625   2.357   2.236  17.344 -0.2732 -0.6991 -0.0313
  172MPD1    H2 2626   1.992   2.179  17.542 -0.6549  4.6074 -0.0386
  172MPD1    H3 2627   2.129   2.182  17.350 -1.0289  1.2815 -0.1182
  172MPD1     N 2628   2.492   2.345  17.557 -0.0638  0.8546 -0.1542
  172MPD1    H5 2629   2.549   2.317  17.478 -0.1919 -1.7460  0.6453
  172MPD1    N1 2630   2.075   2.260   0.097  0.6381  0.1114 -0.0826
  172MPD1    H6 2631   2.143   2.273   0.171  1.1947 -0.7353 -0.4359
  172MPD1    H7 2632   2.017   2.179   0.117  2.5923 -0.8557  1.5872
  173MPD1     C 2633   4.200   2.279  14.095 -0.1955 -1.0933  0.3538
  173MPD1    C1 2634   4.089   2.358  14.090  0.3059  0.7792 -0.3283
  173MPD1    C2 2635   3.977   2.335  14.159  0.1813 -0.3727 -0.1803
  173MPD1    C3 2636   3.969   2.222  14.238 -0.0920  0.0562 -0.1398
  173MPD1    C4 2637   4.081   2.152  14.250 -0.1455  0.6644  0.4432
  173MPD1    C5 2638   4.198   2.178  14.184  0.4698  0.2027 -0.1457
  173MPD1     H 2639   3.895   2.405  14.148 -1.2310 -2.0390 -0.4536
  173MPD1    H1 2640   4.096   2.079  14.328 -1.9525  0.6836  0.7931
  173MPD1    H2 2641   4.284   2.292  14.028 -1.3639  1.2119 -0.6639
  173MPD1    H3 2642   4.282   2.111  14.197  0.4507  0.5442  1.7127
  173MPD1     N 2643   3.853   2.189  14.309  0.7664 -0.2607 -0.7789
  173MPD1    H5 2644   3.775   2.252  14.299  0.2029 -0.7943  0.2007
  173MPD1    N1 2645   4.096   2.474  14.008 -0.2447 -0.2656  0.5265
  173MPD1    H6 2646   4.195   2.493  13.991 -0.9293  2.0663 -0.8711
  173MPD1    H7 2647   4.054   2.561  14.039 -0.5958  0.2531 -1.3937
  174MPD1     C 2648   3.186   1.391  14.679  0.5019 -0.4870 -0.3925
  174MPD1    C1 2649   3.313   1.410  14.719 -0.0712  0.4495 -0.0985
  174MPD1    C2 2650   3.383   1.523  14.676 -0.5258  0.1116  0.7626
  174MPD1    C3 2651   3.329   1.615  14.589 -0.0439  0.1033  0.0709
  174MPD1    C4 2652   3.209   1.589  14.536 -0.0449 -0.0206  0.0521
  174MPD1    C5 2653   3.136   1.475  14.578  0.2563  0.2902 -0.5577
  174MPD1     H 2654   3.487   1.532  14.702  0.1585  3.2699 -3.0218
  174MPD1    H1 2655   3.165   1.646  14.456  1.1000 -0.7696 -1.1082
  174MPD1    H2 2656   3.112   1.317  14.706 -0.7459  1.0263  0.3701
  174MPD1    H3 2657   3.038   1.452  14.537 -0.7754 -1.9703  3.2098
  174MPD1     N 2658   3.400   1.733  14.565 -0.3799 -0.3206 -0.8321
  174MPD1    H5 2659   3.354   1.805  14.510 -0.8296  0.1145  0.1049
  174MPD1    N1 2660   3.371   1.317  14.800 -0.1181  0.3418 -0.7065
  174MPD1    H6 2661   3.456   1.355  14.841 -0.0266 -0.1190 -0.4642
  174MPD1    H7 2662   3.309   1.270  14.866  0.6669  1.1077  0.5686
  175MPD1     C 2663   1.803   3.253  15.432  0.6656 -0.5563  0.3008
  175MPD1    C1 2664   1.926   3.196  15.460 -0.2100  0.0335 -0.3141
  175MPD1    C2 2665   1.994   3.247  15.570  0.2598  0.4196  1.1483
  175MPD1    C3 2666   1.956   3.362  15.638  0.9562  0.0267 -0.1475
  175MPD1    C4 2667   1.834   3.415  15.606 -0.4395  0.1088  0.8233
  175MPD1    C5 2668   1.759   3.356  15.513 -1.1287  0.2420 -1.2937
  175MPD1     H 2669   2.088   3.200  15.594  0.5229  1.8371  2.9384
  175MPD1    H1 2670   1.794   3.496  15.665 -0.5660 -0.9883  2.2429
  175MPD1    H2 2671   1.744   3.214  15.350  0.6856 -3.0560  1.5008
  175MPD1    H3 2672   1.663   3.402  15.493 -1.8561 -1.1524 -1.0135
  175MPD1     N 2673   2.025   3.418  15.746  0.2826  0.7043 -0.0555
  175MPD1    H5 2674   1.981   3.498  15.791 -1.2639  0.7737 -1.7237
  175MPD1    N1 2675   1.970   3.071  15.407 -0.5087 -0.2687 -0.0704
  175MPD1    H6 2676   2.070   3.054  15.413 -0.2214  1.6020  0.4777
  175MPD1    H7 2677   1.940   3.065  15.310 -1.1363 -2.0884  0.2331
  176MPD1     C 2678   0.035   1.374  16.184  0.3264  0.1604 -0.2003
  176MPD1    C1 2679   0.052   1.348  16.316  0.5945 -0.6554 -0.1604
  176MPD1    C2 2680   4.669   1.311  16.393  0.6931 -0.6757 -0.0789
  176MPD1    C3 2681   4.543   1.299  16.329  0.0187  0.0649  0.6197
  176MPD1    C4 2682   4.533   1.335  16.196 -0.0488 -0.4734 -0.4283
  176MPD1    C5 2683   4.637   1.369  16.120  0.3968 -0.4049 -0.1178
  176MPD1     H 2684   4.680   1.295  16.500 -0.6524 -1.4933 -0.0768
  176MPD1    H1 2685   4.436   1.345  16.148 -0.0549 -0.6944 -0.4628
  176MPD1    H2 2686   0.128   1.402  16.136  0.5813 -0.6528 -0.1734
  176MPD1    H3 2687   4.626   1.408  16.019  0.8045  2.8042  1.0776
  176MPD1     N 2688   4.434   1.253  16.405  0.0330 -0.2274 -0.3761
  176MPD1    H5 2689   4.449   1.255  16.505 -0.0896  0.3295 -0.3649
  176MPD1    N1 2690   0.171   1.373  16.389 -0.5653  0.8560 -0.3620
  176MPD1    H6 2691   0.260   1.370  16.341 -1.2591 -3.2677 -1.3779
  176MPD1    H7 2692   0.181   1.309  16.468 -0.0270  0.7872 -0.4846
  177MPD1     C 2693   3.173   4.526   9.673 -0.0030  0.1306  0.1638
  177MPD1    C1 2694   3.100   4.576   9.779 -0.1280  0.1483  0.2959
  177MPD1    C2 2695   2.965   4.602   9.764  0.3369 -0.4253 -0.5650
  177MPD1    C3 2696   2.912   4.601   9.637  0.6154 -0.1968  0.1848
  177MPD1    C4 2697   2.988   4.562   9.534  0.1353 -0.8424 -0.4646
  177MPD1    C5 2698   3.114   4.516   9.553  0.0466  0.1268 -0.6235
  177MPD1     H 2699   2.916   4.649   9.849  1.9983 -1.5268  0.9987
  177MPD1    H1 2700   2.969   4.561   9.427 -0.0939  2.3423 -0.4739
  177MPD1    H2 2701   3.267   4.473   9.688 -0.2246 -0.5545 -0.8579
  177MPD1    H3 2702   3.169   4.478   9.468 -0.1437 -3.2320  0.7790
  177MPD1     N 2703   2.783   4.656   9.617 -0.3227 -0.1308 -0.5844
  177MPD1    H5 2704   2.741   4.695   9.701 -1.4623 -0.6923 -0.8892
  177MPD1    N1 2705   3.159   4.575   9.905 -0.1986  0.1751 -0.4249
  177MPD1    H6 2706   3.120   4.647   9.965  0.7331  0.6965 -0.4346
  177MPD1    H7 2707   3.261   4.587   9.907 -0.2872  0.4241  2.5671
  178MPD1     C 2708   0.084   1.474  17.634  0.2017  0.0906 -0.6369
  178MPD1    C1 2709   4.702   1.397  17.598 -0.0026 -0.6503  0.9336
  178MPD1    C2 2710   4.686   1.366  17.462  0.7149  0.4802 -0.9731
  178MPD1    C3 2711   0.058   1.393  17.369  0.2675 -0.4665  0.1225
  178MPD1    C4 2712   0.169   1.459  17.407  0.3875 -0.4659  0.0843
  178MPD1    C5 2713   0.180   1.503  17.537  0.2333 -0.4354  0.3335
  178MPD1     H 2714   4.604   1.305  17.425  0.4705  1.5775 -2.2239
  178MPD1    H1 2715   0.247   1.478  17.335  1.4209 -2.1515  0.7451
  178MPD1    H2 2716   0.096   1.515   0.036  0.4981  0.3793 -0.7923
  178MPD1    H3 2717   0.269   1.560  17.563  0.1142  0.0401 -0.2843
  178MPD1     N 2718   0.055   1.354  17.237  0.2313  0.5543  0.0215
  178MPD1    H5 2719   0.142   1.368  17.186  0.3299 -0.7008 -0.1581
  178MPD1    N1 2720   4.603   1.377   0.008  0.0139 -0.1007 -0.6503
  178MPD1    H6 2721   4.540   1.301  17.682 -2.1647  1.7404 -0.7746
  178MPD1    H7 2722   4.650   1.354   0.095 -1.0074 -1.1109 -0.3711
  179MPD1     C 2723   4.432   0.055  16.056 -0.4475  0.1933  0.1337
  179MPD1    C1 2724   4.299   0.022  16.039  0.4137 -0.1296  0.1766
  179MPD1    C2 2725   4.271   4.642  15.954 -0.2905 -0.1549  0.5490
  179MPD1    C3 2726   4.375   4.585  15.879 -0.0224  0.6350  0.4154
  179MPD1    C4 2727   4.509   4.620  15.894 -0.2955  0.8021  0.0524
  179MPD1    C5 2728   4.531   4.719  15.982 -0.5587  0.5543 -0.9192
  179MPD1     H 2729   4.166   4.629  15.927 -0.4053 -0.8767  1.3296
  179MPD1    H1 2730   4.589   4.569  15.842 -0.5343  1.0021 -0.5056
  179MPD1    H2 2731   4.457   0.137  16.123  1.1876 -1.0279  0.9870
  179MPD1    H3 2732   4.635   0.020  15.996  0.0047 -1.8162 -1.0102
  179MPD1     N 2733   4.354   4.483  15.782  0.4010 -0.3205  0.0720
  179MPD1    H5 2734   4.439   4.464  15.731  1.0918  0.4258  0.9381
  179MPD1    N1 2735   4.200   0.086  16.115  0.5008 -0.1289  0.0980
  179MPD1    H6 2736   4.113   0.078  16.063 -1.1940  3.5598  2.4194
  179MPD1    H7 2737   4.214   0.187  16.120  0.7435 -0.2020  0.7917
  180MPD1     C 2738   4.056   1.126  14.927 -0.2058 -0.4600  0.0295
  180MPD1    C1 2739   4.166   1.072  14.858 -0.2699 -0.5746 -0.7565
  180MPD1    C2 2740   4.148   1.028  14.726  0.7095 -1.0273 -0.3528
  180MPD1    C3 2741   4.025   1.027  14.670 -0.4399 -0.0479 -0.2393
  180MPD1    C4 2742   3.918   1.086  14.736 -0.5769 -0.5110  0.2158
  180MPD1    C5 2743   3.940   1.139  14.862 -0.1632 -0.6743 -0.0382
  180MPD1     H 2744   4.239   1.000  14.673  0.2274 -0.5693 -1.4211
  180MPD1    H1 2745   3.823   1.093  14.686 -0.6735  0.0585  0.4695
  180MPD1    H2 2746   4.060   1.170  15.026 -0.1620 -2.0141  0.7198
  180MPD1    H3 2747   3.857   1.191  14.908  0.3181  0.6883 -0.6906
  180MPD1     N 2748   4.007   0.968  14.541  0.0304 -0.4684 -0.0993
  180MPD1    H5 2749   4.096   0.934  14.504  0.8465  0.6286  0.8712
  180MPD1    N1 2750   4.295   1.082  14.912 -0.1248  0.1731 -0.5067
  180MPD1    H6 2751   4.368   1.025  14.870 -0.3305  0.5415 -1.3486
  180MPD1    H7 2752   4.301   1.087  15.014  0.8213  0.8846 -0.5940
  181MPD1     C 2753   0.734   2.059   9.053  0.0264  0.3219  0.3350
  181MPD1    C1 2754   0.731   2.197   9.039 -0.0137  0.5019  0.3780
  181MPD1    C2 2755   0.841   2.265   9.078  0.3404 -0.2581  0.2146
  181MPD1    C3 2756   0.958   2.211   9.121 -0.8260 -1.0221  0.2283
  181MPD1    C4 2757   0.957   2.073   9.131 -0.9664  0.3598 -0.1545
  181MPD1    C5 2758   0.848   1.998   9.100 -0.2958 -0.6245  0.4810
  181MPD1     H 2759   0.843   2.372   9.067 -2.8718 -0.1059  1.2888
  181MPD1    H1 2760   1.044   2.016   9.160 -0.1842  1.3590 -0.5408
  181MPD1    H2 2761   0.655   1.989   9.029 -1.1324  1.5080  0.6958
  181MPD1    H3 2762   0.851   1.890   9.110  2.1076 -0.7584 -1.5988
  181MPD1     N 2763   1.077   2.285   9.153  0.1314 -0.1949 -0.2792
  181MPD1    H5 2764   1.155   2.228   9.186  0.0864 -1.7028 -2.7396
  181MPD1    N1 2765   0.613   2.263   9.003 -0.2920 -0.1571  0.3836
  181MPD1    H6 2766   0.625   2.354   8.959  1.7190 -0.6548 -0.0865
  181MPD1    H7 2767   0.554   2.198   8.953  2.4133 -2.0252 -0.3395
  182MPD1     C 2768   2.220   2.005   1.469 -0.0469 -0.0138 -0.4906
  182MPD1    C1 2769   2.274   1.963   1.350 -0.1356 -0.2119 -0.2771
  182MPD1    C2 2770   2.204   1.989   1.239  0.3703 -0.0760  0.4784
  182MPD1    C3 2771   2.086   2.064   1.244  0.7962 -0.1128  0.6148
  182MPD1    C4 2772   2.042   2.110   1.364 -0.2312  0.1084 -0.1558
  182MPD1    C5 2773   2.107   2.072   1.481 -0.5212 -0.4965  0.2308
  182MPD1     H 2774   2.238   1.965   1.139  0.1550  1.4201  0.0432
  182MPD1    H1 2775   1.953   2.171   1.371  0.9310  2.0738 -2.2112
  182MPD1    H2 2776   2.262   1.968   1.562  1.0665  0.1692 -0.9268
  182MPD1    H3 2777   2.066   2.099   1.577  1.0267 -0.5460  0.8892
  182MPD1     N 2778   2.013   2.118   1.138 -0.0441  0.3297  0.5257
  182MPD1    H5 2779   1.938   2.182   1.159 -2.7262 -1.1037 -4.6988
  182MPD1    N1 2780   2.387   1.879   1.357 -0.0818 -0.0125 -0.1648
  182MPD1    H6 2781   2.437   1.862   1.270  1.1413  0.7366  0.3982
  182MPD1    H7 2782   2.450   1.910   1.431  0.3717 -1.4397  0.0441
  183MPD1     C 2783   1.953   2.006   8.380  0.2722  0.8338  0.4523
  183MPD1    C1 2784   1.893   2.126   8.406 -0.2966 -0.1329 -0.0431
  183MPD1    C2 2785   1.934   2.194   8.521  0.0356 -0.4685  0.0110
  183MPD1    C3 2786   2.036   2.146   8.600  0.2225  0.5287  0.3933
  183MPD1    C4 2787   2.091   2.023   8.573  0.4524 -0.5059  0.2201
  183MPD1    C5 2788   2.046   1.952   8.465 -0.6149 -0.4464 -0.0959
  183MPD1     H 2789   1.910   2.300   8.533  0.9668 -0.0210 -1.9779
  183MPD1    H1 2790   2.171   1.976   8.629  0.3209 -2.4132 -1.1851
  183MPD1    H2 2791   1.925   1.949   8.292  1.7264 -0.6547  0.9500
  183MPD1    H3 2792   2.093   1.858   8.440 -0.9702 -0.7668  0.4285
  183MPD1     N 2793   2.084   2.233   8.703 -0.4748 -0.0083 -0.2539
  183MPD1    H5 2794   2.037   2.322   8.717 -2.8985 -0.9185 -2.5934
  183MPD1    N1 2795   1.807   2.190   8.306  0.1594  0.1741  0.4967
  183MPD1    H6 2796   1.731   2.243   8.349 -1.1776 -0.9896 -0.4535
  183MPD1    H7 2797   1.762   2.122   8.245  0.2335  2.2031 -1.8758
  184MPD1     C 2798   1.740   3.932   9.749  0.8893  0.0244 -0.2041
  184MPD1    C1 2799   1.833   4.003   9.813  0.0692  0.0506  0.4488
  184MPD1    C2 2800   1.876   4.123   9.753 -0.7773  0.8434  0.3765
  184MPD1    C3 2801   1.806   4.175   9.644  0.5848 -0.5916 -0.1808
  184MPD1    C4 2802   1.714   4.095   9.582 -0.4512  0.0571 -0.2765
  184MPD1    C5 2803   1.680   3.972   9.634 -0.6047  0.5650  0.0202
  184MPD1     H 2804   1.953   4.175   9.809 -1.4417  0.9172  1.2344
  184MPD1    H1 2805   1.657   4.129   9.497 -2.1160  2.4788  1.7911
  184MPD1    H2 2806   1.706   3.834   9.782  0.1712  0.0741 -0.7878
  184MPD1    H3 2807   1.619   3.904   9.576  1.3237 -0.0957 -1.1987
  184MPD1     N 2808   1.823   4.304   9.584 -0.1662 -0.4033 -0.2227
  184MPD1    H5 2809   1.769   4.330   9.502 -2.0818  0.4574  1.3119
  184MPD1    N1 2810   1.902   3.938   9.915 -0.2017 -0.0003 -0.8175
  184MPD1    H6 2811   1.852   3.866   9.967 -0.2829 -0.3625 -1.4018
  184MPD1    H7 2812   1.936   4.010   9.979  0.6522 -2.4365  1.5221
  185MPD1     C 2813   1.451   0.185   8.943  0.3672  0.5049  0.3873
  185MPD1    C1 2814   1.459   0.048   8.966  0.2764  0.2117 -0.1353
  185MPD1    C2 2815   1.557   0.005   9.041 -0.0308 -0.0588 -0.5465
  185MPD1    C3 2816   1.647   0.088   9.107  0.3447 -0.0483 -0.5864
  185MPD1    C4 2817   1.656   0.219   9.074 -0.1434  0.3193 -0.9427
  185MPD1    C5 2818   1.552   0.266   8.997  0.3533  0.5256  0.6750
  185MPD1     H 2819   1.558   4.622   9.061 -1.1298 -0.1907 -1.2002
  185MPD1    H1 2820   1.716   0.284   9.137 -0.3559  1.3875 -1.8427
  185MPD1    H2 2821   1.360   0.228   8.902 -0.6855 -3.0683 -1.0353
  185MPD1    H3 2822   1.540   0.374   8.993 -1.5141  0.3591  1.7806
  185MPD1     N 2823   1.735   0.051   9.208  0.4350  0.5163 -0.0238
  185MPD1    H5 2824   1.814   0.114   9.209  0.8318  0.0189 -0.1721
  185MPD1    N1 2825   1.343   4.688   8.943  0.7321 -0.8364 -0.1521
  185MPD1    H6 2826   1.377   4.593   8.931 -1.7064 -1.6205 -0.8885
  185MPD1    H7 2827   1.290   0.001   8.864  0.3220 -2.3308 -0.5600
  186MPD1     C 2828   0.217   4.344  15.617 -0.1668 -0.2170 -0.0348
  186MPD1    C1 2829   0.136   4.274  15.710  0.5297  0.2509  0.6505
  186MPD1    C2 2830   0.093   4.346  15.816 -0.0543  0.2295 -0.2878
  186MPD1    C3 2831   0.135   4.473  15.844  0.4849 -0.0385 -0.3420
  186MPD1    C4 2832   0.213   4.544  15.750  0.7091 -0.1682 -0.3766
  186MPD1    C5 2833   0.260   4.469  15.645 -0.5523 -0.3765  0.1020
  186MPD1     H 2834   0.028   4.295  15.887 -0.8539  0.1387 -1.0855
  186MPD1    H1 2835   0.256   4.638  15.779 -1.0934  0.0159  1.7099
  186MPD1    H2 2836   0.249   4.300  15.524 -1.3751  1.0068 -1.0214
  186MPD1    H3 2837   0.323   4.511  15.568  1.6279  0.6372  2.4200
  186MPD1     N 2838   0.111   4.532  15.975  0.1139  0.0368 -0.9770
  186MPD1    H5 2839   0.163   4.616  15.998 -0.7789  0.0307  1.0146
  186MPD1    N1 2840   0.124   4.135  15.705  0.2544 -0.0142 -0.1666
  186MPD1    H6 2841   0.144   4.101  15.612 -0.0558 -0.9082  0.0918
  186MPD1    H7 2842   0.032   4.097  15.729  0.4851 -0.9262 -0.7169
  187MPD1     C 2843   3.728   1.328   0.058 -0.5539  0.5080  0.1049
  187MPD1    C1 2844   3.789   1.446   0.086 -0.1136  0.5085 -0.0328
  187MPD1    C2 2845   3.826   1.535  17.674 -0.0097  0.5089  0.0982
  187MPD1    C3 2846   3.825   1.490  17.545  0.1287 -0.4434  0.0271
  187MPD1    C4 2847   3.771   1.364  17.518  0.3677 -0.2635  0.0795
  187MPD1    C5 2848   3.723   1.293  17.623  0.2798 -0.3515  0.6957
  187MPD1     H 2849   3.858   1.637  17.694  0.1894  0.2908  0.8780
  187MPD1    H1 2850   3.762   1.323  17.418 -2.6704 -0.2594  0.3295
  187MPD1    H2 2851   3.675   1.270   0.133  0.7487 -0.4907  0.2535
  187MPD1    H3 2852   3.676   1.200  17.595  1.1531 -0.2211 -1.1795
  187MPD1     N 2853   3.876   1.574  17.439 -0.2012  0.0641  0.0073
  187MPD1    H5 2854   3.884   1.537  17.344  1.1465 -4.1373  1.7608
  187MPD1    N1 2855   3.774   1.499   0.216  0.0684  0.3188 -0.0450
  187MPD1    H6 2856   3.831   1.576   0.251  0.3856 -1.0635  2.5414
  187MPD1    H7 2857   3.780   1.423   0.284 -0.7468  0.7663  0.5315
  188MPD1     C 2858   4.252   1.553  10.122 -0.1421 -0.6541  0.2170
  188MPD1    C1 2859   4.314   1.436  10.123 -0.1581 -0.0461 -0.2211
  188MPD1    C2 2860   4.289   1.340  10.026 -0.3928  0.0906 -0.3964
  188MPD1    C3 2861   4.185   1.367   9.941 -0.2850  0.4689  0.1079
  188MPD1    C4 2862   4.119   1.481   9.945  0.2562  0.0017  0.2933
  188MPD1    C5 2863   4.158   1.588  10.022 -0.6172  0.6251 -0.3460
  188MPD1     H 2864   4.346   1.248  10.033  2.1127  1.4151 -3.3955
  188MPD1    H1 2865   4.056   1.512   9.862  2.4512 -0.0733 -1.4006
  188MPD1    H2 2866   4.291   1.634  10.182  0.0635 -1.3500  1.0386
  188MPD1    H3 2867   4.121   1.689  10.006  1.2359  0.7995 -3.5570
  188MPD1     N 2868   4.154   1.276   9.830 -0.8414  0.3836  0.6336
  188MPD1    H5 2869   4.077   1.301   9.768  1.7586  0.8081 -2.4540
  188MPD1    N1 2870   4.435   1.434  10.202 -0.9121  0.2879  0.0241
  188MPD1    H6 2871   4.472   1.341  10.218  2.0102  1.0486 -2.1193
  188MPD1    H7 2872   4.437   1.488  10.289 -1.1458 -1.8425  1.3387
  189MPD1     C 2873   0.792   1.527  17.678 -0.4287 -0.0386  0.5095
  189MPD1    C1 2874   0.795   1.649  17.617  0.8908  0.3273 -0.0174
  189MPD1    C2 2875   0.695   1.743  17.642  0.3013  0.2361 -0.2953
  189MPD1    C3 2876   0.573   1.700   0.005  0.8048  0.2312  0.0362
  189MPD1    C4 2877   0.560   1.567   0.053  0.3128  0.5125 -0.3920
  189MPD1    C5 2878   0.674   1.486   0.038  0.1640  0.4844  0.4173
  189MPD1     H 2879   0.697   1.838  17.589  1.3813 -0.5732 -1.7159
  189MPD1    H1 2880   0.478   1.528   0.112  0.4925  1.3280  0.4020
  189MPD1    H2 2881   0.878   1.461  17.681  0.1197  0.5903 -1.4623
  189MPD1    H3 2882   0.674   1.392   0.092 -3.7037 -0.0157 -0.4335
  189MPD1     N 2883   0.464   1.798   0.012  0.2548  0.8676  0.1159
  189MPD1    H5 2884   0.479   1.886  17.661 -0.9818  0.5976 -0.7442
  189MPD1    N1 2885   0.912   1.695  17.552 -0.4293  0.3351  0.4652
  189MPD1    H6 2886   0.956   1.616  17.505  0.8905  0.3040  1.7489
  189MPD1    H7 2887   0.891   1.769  17.485 -0.3471 -1.5993 -1.6912
  190MPD1     C 2888   4.207   4.440  15.312  0.3178 -0.7079  0.2565
  190MPD1    C1 2889   4.091   4.478  15.379  0.0868  0.0602  0.8184
  190MPD1    C2 2890   4.104   4.583  15.466 -0.4778  0.1144  0.0778
  190MPD1    C3 2891   4.223   4.655  15.477 -0.5583 -0.5453 -0.1062
  190MPD1    C4 2892   4.330   4.624  15.398  0.0580 -0.5702 -0.0178
  190MPD1    C5 2893   4.326   4.513  15.319 -0.2891 -0.0277  0.5563
  190MPD1     H 2894   4.024   4.598  15.538  0.5226  2.2901  0.7362
  190MPD1    H1 2895   4.426   4.673  15.400 -1.3761  2.2263  0.8214
  190MPD1    H2 2896   4.198   4.368  15.232  1.0627  2.8099 -3.0210
  190MPD1    H3 2897   4.420   4.482  15.275 -0.4672  0.1595  0.0396
  190MPD1     N 2898   4.221   0.036  15.570 -0.0872 -0.3552 -0.1323
  190MPD1    H5 2899   4.141   0.047  15.631  0.6907  0.3547  0.7629
  190MPD1    N1 2900   3.978   4.397  15.373 -0.3285  0.3992 -0.6031
  190MPD1    H6 2901   3.961   4.360  15.279  2.7602 -1.9106 -0.2708
  190MPD1    H7 2902   3.889   4.443  15.391 -0.0843  0.6692 -0.1112
  191MPD1     C 2903   3.587   2.578  13.152  0.6252  0.0574  0.0870
  191MPD1    C1 2904   3.473   2.587  13.077  0.1943  0.4077 -0.0186
  191MPD1    C2 2905   3.490   2.614  12.947  0.2632 -0.3023 -0.0329
  191MPD1    C3 2906   3.605   2.674  12.899  0.2578  0.5150  0.1686
  191MPD1    C4 2907   3.720   2.682  12.981 -0.1205 -0.5680  0.7362
  191MPD1    C5 2908   3.706   2.630  13.103  0.0458  0.2230 -0.3041
  191MPD1     H 2909   3.397   2.604  12.892  0.7273  2.2709 -1.2850
  191MPD1    H1 2910   3.813   2.732  12.958 -0.3912 -0.2190  0.4094
  191MPD1    H2 2911   3.582   2.534  13.251  0.8242  0.4118  0.2530
  191MPD1    H3 2912   3.798   2.632  13.160 -0.1165  0.0351 -0.0308
  191MPD1     N 2913   3.597   2.726  12.771 -0.0004 -0.2368  0.5941
  191MPD1    H5 2914   3.510   2.713  12.720  0.8981 -1.5963 -0.5901
  191MPD1    N1 2915   3.353   2.526  13.122  0.1536  0.5457 -0.6411
  191MPD1    H6 2916   3.351   2.532  13.223 -0.5408 -1.4614 -0.5402
  191MPD1    H7 2917   3.272   2.557  13.069 -0.0486 -1.4311 -1.4553
  192MPD1     C 2918   3.119   3.468  12.310 -0.0820 -0.0697 -0.5517
  192MPD1    C1 2919   3.098   3.370  12.407 -0.0429  0.7524 -0.1090
  192MPD1    C2 2920   3.193   3.267  12.422 -0.0452 -0.5643  0.0843
  192MPD1    C3 2921   3.311   3.269  12.348  0.2289 -0.5829  0.0221
  192MPD1    C4 2922   3.326   3.369  12.252  0.5060 -0.4792 -0.2188
  192MPD1    C5 2923   3.235   3.461  12.231  0.2519  0.1670 -0.8078
  192MPD1     H 2924   3.170   3.178  12.479  1.2970 -2.1222 -1.8357
  192MPD1    H1 2925   3.406   3.367  12.178 -0.4559 -0.4144 -1.2503
  192MPD1    H2 2926   3.049   3.550  12.302  0.2951  0.3526  0.5631
  192MPD1    H3 2927   3.261   3.533  12.154  0.3993  0.4512 -0.4902
  192MPD1     N 2928   3.403   3.162  12.358 -0.4865 -1.0881 -0.3649
  192MPD1    H5 2929   3.467   3.162  12.279 -2.3277  0.4122 -1.8530
  192MPD1    N1 2930   2.974   3.363  12.472 -0.1581 -0.6440  0.3275
  192MPD1    H6 2931   2.981   3.336  12.570  0.4193 -3.2959 -0.4386
  192MPD1    H7 2932   2.920   3.447  12.454  0.0749  0.0409  2.8839
  193MPD1     C 2933   3.269   2.721  15.782 -0.0412  0.9016 -0.6229
  193MPD1    C1 2934   3.246   2.855  15.824  0.3020 -0.5275 -0.4107
  193MPD1    C2 2935   3.343   2.914  15.902  0.2485 -0.4369 -0.2704
  193MPD1    C3 2936   3.452   2.839  15.956  0.4190  0.8305  0.7472
  193MPD1    C4 2937   3.461   2.706  15.913 -0.1987 -0.2245  0.1257
  193MPD1    C5 2938   3.382   2.651  15.818  0.0873 -0.1543 -0.3368
  193MPD1     H 2939   3.320   3.012  15.942  0.9223 -0.6958  0.7712
  193MPD1    H1 2940   3.542   2.641  15.946  0.5484  0.7007  0.1057
  193MPD1    H2 2941   3.201   2.682  15.708 -0.6166  2.1258 -0.7504
  193MPD1    H3 2942   3.396   2.546  15.792  0.3205 -0.7032  2.0114
  193MPD1     N 2943   3.549   2.892  16.030 -0.8944  0.2632  0.0704
  193MPD1    H5 2944   3.630   2.838  16.061  0.4787  3.2522  1.7308
  193MPD1    N1 2945   3.145   2.934  15.767 -0.1086 -0.4279  0.3659
  193MPD1    H6 2946   3.108   3.007  15.827 -0.2201  0.0074 -0.2301
  193MPD1    H7 2947   3.060   2.888  15.734 -0.5592  1.1362 -0.6672
  194MPD1     C 2948   1.914   0.880  16.687 -0.6608 -0.0284  0.0744
  194MPD1    C1 2949   2.011   0.861  16.782 -0.6523  0.3289  0.1446
  194MPD1    C2 2950   2.001   0.754  16.865 -0.6567  0.8240 -0.5237
  194MPD1    C3 2951   1.897   0.661  16.844  0.2959 -0.1587  0.1382
  194MPD1    C4 2952   1.812   0.675  16.741  0.1637 -0.2113  0.0673
  194MPD1    C5 2953   1.826   0.782  16.661  0.1590 -0.0863  0.2618
  194MPD1     H 2954   2.067   0.750  16.951 -0.5143 -0.6674 -0.6966
  194MPD1    H1 2955   1.730   0.607  16.722  0.1678  0.3412 -1.9052
  194MPD1    H2 2956   1.927   0.970  16.629  3.6468 -0.3580  0.5499
  194MPD1    H3 2957   1.757   0.800  16.579 -0.1046  0.1839  0.5434
  194MPD1     N 2958   1.876   0.544  16.927 -0.4621  0.5708 -0.2424
  194MPD1    H5 2959   1.806   0.480  16.893  1.3312 -1.4973 -0.0411
  194MPD1    N1 2960   2.102   0.965  16.811 -0.7723 -0.3769 -0.2209
  194MPD1    H6 2961   2.130   1.032  16.739 -2.0886  1.4125  0.9166
  194MPD1    H7 2962   2.188   0.927  16.848 -1.1215  0.5816  1.5868
  195MPD1     C 2963   2.991   1.295  16.850  0.4092 -0.2928  0.1131
  195MPD1    C1 2964   3.078   1.341  16.946 -0.4568 -0.0488  0.4339
  195MPD1    C2 2965   3.118   1.245  17.037 -0.4138  0.4758 -0.6406
  195MPD1    C3 2966   3.107   1.107  17.006  0.4286  0.5803  0.2698
  195MPD1    C4 2967   3.040   1.065  16.889  0.0247 -0.9495  0.6501
  195MPD1    C5 2968   2.967   1.161  16.828  0.3023  0.2174  1.0042
  195MPD1     H 2969   3.171   1.276  17.127  0.2384  0.1288 -0.9011
  195MPD1    H1 2970   3.030   0.959  16.872  1.8847 -0.4892 -3.1500
  195MPD1    H2 2971   2.938   1.370  16.792  0.4625  0.6704  1.3187
  195MPD1    H3 2972   2.903   1.132  16.746  2.2863  0.8125 -0.7705
  195MPD1     N 2973   3.167   1.006  17.076  0.2543  0.6385  0.2185
  195MPD1    H5 2974   3.166   0.918  17.025 -0.4030  0.1756  1.0309
  195MPD1    N1 2975   3.106   1.476  16.967 -0.3655  0.1365  0.5190
  195MPD1    H6 2976   3.195   1.485  17.017 -1.3391  0.1677  2.2238
  195MPD1    H7 2977   3.107   1.532  16.883  1.2420  1.6053  1.5097
  196MPD1     C 2978   3.344   1.162   0.035 -0.5852 -0.2209 -0.6270
  196MPD1    C1 2979   3.218   1.155  17.684 -0.2296 -0.4972  0.2064
  196MPD1    C2 2980   3.121   1.201   0.065  0.1838  0.1252  0.2090
  196MPD1    C3 2981   3.135   1.260   0.186  0.2363 -0.0401  0.5473
  196MPD1    C4 2982   3.260   1.258   0.230  0.0263  0.1066 -0.1934
  196MPD1    C5 2983   3.367   1.209   0.158  0.4289 -0.6453 -0.3570
  196MPD1     H 2984   3.021   1.201   0.023 -0.4461  0.9179  1.6876
  196MPD1    H1 2985   3.287   1.300   0.326  0.5826 -0.6094 -0.0398
  196MPD1    H2 2986   3.422   1.100  17.688  0.0808 -1.4626  2.2785
  196MPD1    H3 2987   3.466   1.207   0.203  0.6558 -0.9014 -0.8729
  196MPD1     N 2988   3.038   1.321   0.264 -0.1417 -0.2872 -0.0276
  196MPD1    H5 2989   3.069   1.373   0.346 -1.3960 -1.0166  0.9208
  196MPD1    N1 2990   3.184   1.094  17.562  0.1081 -0.2042  0.0219
  196MPD1    H6 2991   3.107   1.150  17.527  1.2388  3.4074  3.2801
  196MPD1    H7 2992   3.260   1.119  17.498  1.3457  1.7229  2.2424
  197MPD1     C 2993   3.137   4.223  17.660  0.1420 -0.8056  0.6081
  197MPD1    C1 2994   3.173   4.159  17.545  0.0183  0.3934 -0.0238
  197MPD1    C2 2995   3.093   4.145  17.433  0.2593 -0.1098  0.2922
  197MPD1    C3 2996   2.970   4.210  17.440  0.0875  0.5378  0.4843
  197MPD1    C4 2997   2.932   4.276  17.558  0.5037  0.4147 -0.5550
  197MPD1    C5 2998   3.017   4.284  17.663 -0.4003  0.1214 -0.0646
  197MPD1     H 2999   3.136   4.084  17.354 -1.4153 -0.8855 -0.0246
  197MPD1    H1 3000   2.831   4.315  17.564  0.3068 -0.0638 -0.6763
  197MPD1    H2 3001   3.203   4.217   0.049 -0.3573 -0.7941  0.9913
  197MPD1    H3 3002   2.986   4.322   0.062  1.1228  0.5335  0.2667
  197MPD1     N 3003   2.872   4.200  17.340 -0.3507  0.4929 -0.1833
  197MPD1    H5 3004   2.782   4.242  17.358  0.5584  2.1219  0.6669
  197MPD1    N1 3005   3.306   4.133  17.521  0.2731  0.2773  0.0035
  197MPD1    H6 3006   3.313   4.035  17.495  0.6616  0.2345  0.2747
  197MPD1    H7 3007   3.361   4.132  17.606  0.9066 -1.5153 -0.4321
  198MPD1     C 3008   4.024   2.174  15.440 -0.1630 -0.7782 -0.2730
  198MPD1    C1 3009   4.131   2.247  15.393 -0.1351 -0.1480 -0.4846
  198MPD1    C2 3010   4.231   2.272  15.483  0.1044  0.1410  0.4226
  198MPD1    C3 3011   4.224   2.203  15.604  0.2609  0.1142 -0.2696
  198MPD1    C4 3012   4.131   2.116  15.643  0.0381 -0.4121  0.3143
  198MPD1    C5 3013   4.020   2.109  15.557 -0.1501  0.3609  1.2671
  198MPD1     H 3014   4.319   2.332  15.463 -0.2487  0.1513 -1.0928
  198MPD1    H1 3015   4.138   2.058  15.734  2.4841 -1.6367 -0.6736
  198MPD1    H2 3016   3.939   2.162  15.375  0.4763 -1.7555 -0.9233
  198MPD1    H3 3017   3.941   2.036  15.568  0.1767 -0.0376  0.9952
  198MPD1     N 3018   4.331   2.214  15.693  0.2840 -0.0159  0.5975
  198MPD1    H5 3019   4.393   2.290  15.665 -1.7319  1.8591  1.2646
  198MPD1    N1 3020   4.129   2.318  15.267 -0.0029  0.1761  0.3185
  198MPD1    H6 3021   4.221   2.357  15.246  0.2433 -0.7425 -0.3099
  198MPD1    H7 3022   4.088   2.280  15.182 -0.0528 -0.4391  0.6200
  199MPD1     C 3023   1.952   2.448   9.128  0.0997  0.1120  0.8464
  199MPD1    C1 3024   1.863   2.438   9.026  1.1024  1.1723 -0.2789
  199MPD1    C2 3025   1.779   2.543   8.999  0.2248  0.4525  1.1114
  199MPD1    C3 3026   1.785   2.656   9.076 -0.3281 -0.1764  0.6355
  199MPD1    C4 3027   1.857   2.655   9.192  0.0406 -0.3966 -0.2539
  199MPD1    C5 3028   1.938   2.552   9.219  0.0035 -0.8588  0.5027
  199MPD1     H 3029   1.709   2.535   8.917  1.4530  1.0625 -0.0038
  199MPD1    H1 3030   1.858   2.744   9.254  0.5673  0.1561 -1.0582
  199MPD1    H2 3031   2.029   2.374   9.147 -0.0836 -0.0348  1.0165
  199MPD1    H3 3032   2.014   2.561   9.296 -2.3767 -0.6730  2.8238
  199MPD1     N 3033   1.711   2.774   9.049 -0.3954  0.0997 -0.0428
  199MPD1    H5 3034   1.739   2.860   9.094  0.4217 -0.9054  1.3496
  199MPD1    N1 3035   1.874   2.338   8.930 -0.5801  0.7061 -0.0103
  199MPD1    H6 3036   1.784   2.321   8.884  0.2200 -1.1013 -0.9122
  199MPD1    H7 3037   1.904   2.248   8.966  1.8552  0.1920 -3.3873
  200MPD1     C 3038   0.035   3.199  14.486 -0.2086 -0.0546  0.4588
  200MPD1    C1 3039   0.132   3.217  14.577 -0.0494 -0.1224  0.1533
  200MPD1    C2 3040   0.262   3.210  14.532 -0.2034 -0.7031  0.4162
  200MPD1    C3 3041   0.288   3.174  14.403 -0.6952 -0.3109 -0.7610
  200MPD1    C4 3042   0.184   3.155  14.316 -0.0887 -0.1887  0.3518
  200MPD1    C5 3043   0.060   3.174  14.356 -0.2239 -1.0127  0.3036
  200MPD1     H 3044   0.345   3.224  14.602  1.1381 -1.6523 -0.9840
  200MPD1    H1 3045   0.195   3.134  14.210  0.7843  2.8554 -0.1669
  200MPD1    H2 3046   4.657   3.224  14.515 -0.5362 -0.6065 -0.2307
  200MPD1    H3 3047   4.701   3.172  14.286 -1.1611 -0.1270  1.3779
  200MPD1     N 3048   0.426   3.156  14.365 -0.1285  0.3889  0.0859
  200MPD1    H5 3049   0.493   3.163  14.441 -0.6939 -0.1645  0.6323
  200MPD1    N1 3050   0.103   3.227  14.713 -0.2053  0.1308 -0.4572
  200MPD1    H6 3051   0.182   3.242  14.776 -1.7772 -0.9357  1.7885
  200MPD1    H7 3052   0.009   3.264  14.726  0.2672  0.5563  1.7974
  201MPD1     C 3053   2.751   2.585  13.164 -0.1220  0.2613 -0.3140
  201MPD1    C1 3054   2.854   2.535  13.243 -0.4731 -0.1999  0.2525
  201MPD1    C2 3055   2.928   2.433  13.195  0.2962 -1.1635 -0.3604
  201MPD1    C3 3056   2.890   2.367  13.077  0.6305  0.4744  0.0190
  201MPD1    C4 3057   2.780   2.416  13.003 -0.0073  0.8968 -0.4913
  201MPD1    C5 3058   2.714   2.528  13.045  0.4854  0.2513  0.4294
  201MPD1     H 3059   3.018   2.396  13.242 -0.2647  0.1273  1.7027
  201MPD1    H1 3060   2.746   2.372  12.910 -2.4524 -1.0140  1.3207
  201MPD1    H2 3061   2.694   2.669  13.201 -1.3731 -1.2600  1.2542
  201MPD1    H3 3062   2.630   2.556  12.983  0.7240  0.0432  0.0023
  201MPD1     N 3063   2.967   2.257  13.037  0.4018  0.8951  0.5419
  201MPD1    H5 3064   3.059   2.252  13.078  0.5102 -0.3455  0.1208
  201MPD1    N1 3065   2.892   2.606  13.356 -0.2283 -1.0654 -0.4682
  201MPD1    H6 3066   2.925   2.545  13.431  1.7745  0.8118  0.1999
  201MPD1    H7 3067   2.812   2.653  13.397  0.9912 -0.6934  1.4940
  202MPD1     C 3068   2.384   1.289   8.763 -0.4285 -1.5076  0.1561
  202MPD1    C1 3069   2.418   1.195   8.863  0.3878  0.6347 -0.5494
  202MPD1    C2 3070   2.519   1.245   8.951  1.1547  0.0162 -0.6149
  202MPD1    C3 3071   2.541   1.380   8.969  0.5721 -0.1330 -0.2510
  202MPD1    C4 3072   2.486   1.469   8.884  0.8624  0.6584  1.1364
  202MPD1    C5 3073   2.410   1.418   8.783  0.1165 -1.2743  0.2776
  202MPD1     H 3074   2.542   1.170   9.025  0.7167  0.4485 -0.0381
  202MPD1    H1 3075   2.507   1.575   8.896  1.6917  0.9413 -2.8413
  202MPD1    H2 3076   2.327   1.257   8.676 -2.2856 -0.8267  1.1237
  202MPD1    H3 3077   2.374   1.486   8.707 -0.6380  0.0552  1.8153
  202MPD1     N 3078   2.619   1.430   9.069  0.1746 -0.2103  0.3955
  202MPD1    H5 3079   2.630   1.530   9.078 -0.7072 -0.0112 -0.6875
  202MPD1    N1 3080   2.411   1.057   8.825  0.2381 -0.3350  0.2879
  202MPD1    H6 3081   2.323   1.025   8.786 -0.1316  1.2882 -0.2290
  202MPD1    H7 3082   2.436   1.002   8.906 -0.9496  1.8318  2.1150
  203MPD1     C 3083   0.769   2.266  12.406  0.3407  0.3186 -1.0618
  203MPD1    C1 3084   0.875   2.250  12.498 -0.2231  0.4063  0.1729
  203MPD1    C2 3085   1.001   2.205  12.456 -0.0274 -0.5869  0.2612
  203MPD1    C3 3086   1.037   2.189  12.324  1.1778 -0.1620 -0.4788
  203MPD1    C4 3087   0.934   2.213  12.235  0.0581 -0.4588 -0.7084
  203MPD1    C5 3088   0.805   2.243  12.274  0.3024  0.0556 -0.0934
  203MPD1     H 3089   1.081   2.200  12.529  2.3076 -1.0460 -2.3112
  203MPD1    H1 3090   0.945   2.203  12.128  0.8981  0.5992 -0.7237
  203MPD1    H2 3091   0.667   2.286  12.436  0.7530  0.3794  0.2830
  203MPD1    H3 3092   0.731   2.261  12.197 -0.7127 -1.2954  0.5672
  203MPD1     N 3093   1.162   2.142  12.294 -0.1382 -0.2450  0.0898
  203MPD1    H5 3094   1.224   2.141  12.374  1.3615 -0.6628 -1.0877
  203MPD1    N1 3095   0.853   2.282  12.632 -0.5017  0.4096  0.3131
  203MPD1    H6 3096   0.760   2.252  12.659  0.5828 -1.6109  1.7856
  203MPD1    H7 3097   0.920   2.244  12.698 -0.2726  0.5326  0.1513
  204MPD1     C 3098   0.611   3.031  17.502 -0.1757  0.4747  0.2379
  204MPD1    C1 3099   0.704   3.130  17.469 -0.2845  0.6663  0.1488
  204MPD1    C2 3100   0.802   3.106  17.380  0.9586 -0.5130  0.1559
  204MPD1    C3 3101   0.827   2.985  17.328  0.7864 -0.1761 -0.2077
  204MPD1    C4 3102   0.742   2.887  17.365 -0.1289  0.3963 -0.3894
  204MPD1    C5 3103   0.631   2.906  17.451 -0.7205  0.3955  0.4272
  204MPD1     H 3104   0.860   3.193  17.351  0.5874 -0.7543 -1.3003
  204MPD1    H1 3105   0.748   2.788  17.321 -2.7797 -0.0992  0.3408
  204MPD1    H2 3106   0.520   3.049  17.558 -0.3347 -1.1927  0.5300
  204MPD1    H3 3107   0.563   2.828  17.481 -1.3492  1.3781  1.5344
  204MPD1     N 3108   0.920   2.964  17.234  0.6385 -0.0593  0.2384
  204MPD1    H5 3109   0.986   3.040  17.223  2.2569 -1.4574  0.3293
  204MPD1    N1 3110   0.686   3.267  17.509 -0.0043  0.5976 -0.1523
  204MPD1    H6 3111   0.775   3.318  17.504  0.4909 -0.1644  0.9427
  204MPD1    H7 3112   0.650   3.281  17.604  0.8151  2.5332 -0.1124
  205MPD1     C 3113   0.627   1.589  16.751 -0.0134  0.6162 -0.5566
  205MPD1    C1 3114   0.676   1.634  16.631  0.0448  1.0097 -0.4259
  205MPD1    C2 3115   0.811   1.675  16.629  0.7157  0.2498 -0.3529
  205MPD1    C3 3116   0.884   1.680  16.747 -0.5218 -0.2379 -0.1942
  205MPD1    C4 3117   0.830   1.636  16.863  0.1468  0.6641 -0.4432
  205MPD1    C5 3118   0.699   1.597  16.866 -0.3533  0.3979  0.1737
  205MPD1     H 3119   0.848   1.706  16.532  0.0248 -1.7371 -1.2559
  205MPD1    H1 3120   0.886   1.635  16.956 -0.6590 -0.0625  0.0376
  205MPD1    H2 3121   0.529   1.544  16.762  0.2752 -0.1975 -1.3433
  205MPD1    H3 3122   0.648   1.559  16.954  0.8508 -0.5507  0.4682
  205MPD1     N 3123   1.012   1.741  16.751 -0.4912  0.3165  0.6133
  205MPD1    H5 3124   1.072   1.716  16.829  2.0429  0.6829 -1.1965
  205MPD1    N1 3125   0.615   1.601  16.512  0.0279  0.2574 -0.0112
  205MPD1    H6 3126   0.514   1.596  16.522 -0.1839  2.2057 -1.0093
  205MPD1    H7 3127   0.633   1.681  16.451  1.3351 -0.4521 -0.5463
  206MPD1     C 3128   1.465   0.795  16.591 -0.6885  0.0909  0.6173
  206MPD1    C1 3129   1.436   0.893  16.494  0.0940 -0.3315 -0.0361
  206MPD1    C2 3130   1.395   0.848  16.373  0.5080 -0.3487  0.7695
  206MPD1    C3 3131   1.396   0.714  16.342 -1.4122 -0.4000  0.1455
  206MPD1    C4 3132   1.433   0.619  16.433  0.2831  0.1589 -0.4407
  206MPD1    C5 3133   1.452   0.665  16.562 -0.0999 -0.1881  0.3923
  206MPD1     H 3134   1.364   0.926  16.304 -0.4359 -0.4679  1.0561
  206MPD1    H1 3135   1.435   0.512  16.416  3.4082 -0.0320  1.1880
  206MPD1    H2 3136   1.492   0.819  16.693  0.6619 -0.6369  0.4213
  206MPD1    H3 3137   1.461   0.585  16.635 -0.3181  0.4011  1.0576
  206MPD1     N 3138   1.343   0.666  16.218  1.4444 -0.1043  0.5373
  206MPD1    H5 3139   1.354   0.566  16.207  1.1802  0.1381 -2.1267
  206MPD1    N1 3140   1.410   1.025  16.538  0.0734  0.6856  0.0673
  206MPD1    H6 3141   1.431   1.085  16.459  1.0091 -0.9322 -0.9225
  206MPD1    H7 3142   1.481   1.048  16.608 -0.6892 -1.4350  1.5646
  207MPD1     C 3143   3.554   2.963   9.860 -0.4065  0.5997 -0.0990
  207MPD1    C1 3144   3.537   3.090   9.915  0.1951 -0.3000  0.6602
  207MPD1    C2 3145   3.644   3.142   9.993 -0.2361  0.5657 -0.0188
  207MPD1    C3 3146   3.736   3.050  10.046 -0.4732 -0.6522  0.3616
  207MPD1    C4 3147   3.748   2.929   9.995 -0.2752  0.0043  0.2190
  207MPD1    C5 3148   3.662   2.885   9.899 -1.0572 -0.1313  0.2475
  207MPD1     H 3149   3.643   3.243  10.032  0.9809  0.1246  1.1409
  207MPD1    H1 3150   3.832   2.867  10.025 -0.0579  0.5022  0.6435
  207MPD1    H2 3151   3.476   2.921   9.797 -0.8129  1.1165  0.0550
  207MPD1    H3 3152   3.666   2.782   9.863 -0.7266  1.2968 -3.7620
  207MPD1     N 3153   3.850   3.092  10.122 -0.2413  0.3012  0.2387
  207MPD1    H5 3154   3.912   3.017  10.150  0.0685 -0.0131 -1.2683
  207MPD1    N1 3155   3.433   3.170   9.868  0.1976  0.3514  0.3764
  207MPD1    H6 3156   3.406   3.253   9.921  0.1134 -0.1533  1.1293
  207MPD1    H7 3157   3.349   3.119   9.840  0.3356  0.8307 -0.8823
  208MPD1     C 3158   2.845   2.037  17.545 -0.0266 -0.4842 -0.0586
  208MPD1    C1 3159   2.797   1.991  17.667  0.1743 -0.1279  0.1515
  208MPD1    C2 3160   2.675   1.926  17.659 -0.4725 -0.2405  0.1642
  208MPD1    C3 3161   2.597   1.909  17.546  0.2460 -0.4220 -0.4688
  208MPD1    C4 3162   2.654   1.946  17.428 -0.2850  0.6168 -0.2695
  208MPD1    C5 3163   2.776   2.010  17.422 -0.0972  0.3750  0.0908
  208MPD1     H 3164   2.645   1.887   0.057 -0.4581 -0.0307  0.2542
  208MPD1    H1 3165   2.602   1.946  17.333 -0.4100 -0.1360 -0.1987
  208MPD1    H2 3166   2.942   2.085  17.558  0.6383 -1.8271 -0.0158
  208MPD1    H3 3167   2.815   2.056  17.332 -0.4312  2.3054  0.9292
  208MPD1     N 3168   2.461   1.862  17.561 -0.0500  0.1130 -0.1217
  208MPD1    H5 3169   2.432   1.846  17.657  0.9772 -1.0369 -0.0065
  208MPD1    N1 3170   2.851   2.037   0.092  0.1101 -0.2136  0.8442
  208MPD1    H6 3171   2.947   2.068   0.086 -0.0997 -0.1333 -1.9254
  208MPD1    H7 3172   2.832   1.967   0.164  1.1662 -2.4666 -1.0929
  209MPD1     C 3173   4.027   2.544  11.733 -0.0977 -0.6355 -0.2574
  209MPD1    C1 3174   4.119   2.642  11.747 -0.7643 -0.2417 -0.5595
  209MPD1    C2 3175   4.201   2.677  11.646 -1.0077 -0.3766 -0.5743
  209MPD1    C3 3176   4.200   2.600  11.529 -0.4657 -0.2169  0.0819
  209MPD1    C4 3177   4.106   2.492  11.519  0.3093 -0.5448  0.2421
  209MPD1    C5 3178   4.019   2.465  11.618  0.2825  0.6916 -0.2348
  209MPD1     H 3179   4.270   2.760  11.662 -2.9660  1.6577 -2.8576
  209MPD1    H1 3180   4.097   2.432  11.430  0.3353  1.1053 -0.8805
  209MPD1    H2 3181   3.963   2.501  11.810 -1.8335  1.0548 -0.7623
  209MPD1    H3 3182   3.950   2.382  11.606 -2.0634  2.6281 -0.1959
  209MPD1     N 3183   4.293   2.634  11.430  0.0920 -0.0065  0.1921
  209MPD1    H5 3184   4.366   2.703  11.444  0.7793 -0.5831 -0.5318
  209MPD1    N1 3185   4.131   2.713  11.871 -0.3005 -0.4488  0.0835
  209MPD1    H6 3186   4.224   2.698  11.909  0.8519  1.8665 -1.8758
  209MPD1    H7 3187   4.079   2.663  11.944 -1.2501  0.2454 -0.1177
  210MPD1     C 3188   0.456   3.077  11.301  0.3969 -0.0461  0.2027
  210MPD1    C1 3189   0.385   3.022  11.403  0.3742 -0.0470  0.6805
  210MPD1    C2 3190   0.272   2.954  11.370 -0.3491 -0.2405  0.1428
  210MPD1    C3 3191   0.219   2.933  11.243 -0.6474  0.4080 -0.3538
  210MPD1    C4 3192   0.298   2.988  11.140  0.1098 -0.2031  0.0076
  210MPD1    C5 3193   0.418   3.054  11.168  0.2234 -0.8931  0.1032
  210MPD1     H 3194   0.212   2.918  11.454  0.5488 -0.9654  0.4782
  210MPD1    H1 3195   0.275   2.971  11.036  0.3517  2.0846 -0.4120
  210MPD1    H2 3196   0.553   3.122  11.313  0.6278  0.3115 -3.0198
  210MPD1    H3 3197   0.465   3.103  11.084  0.5008 -1.0188  0.1854
  210MPD1     N 3198   0.097   2.872  11.212 -0.3809  0.1068 -0.0394
  210MPD1    H5 3199   0.065   2.886  11.117  1.8223  2.2809 -0.4680
  210MPD1    N1 3200   0.423   3.043  11.532  0.1021 -0.3430  0.0613
  210MPD1    H6 3201   0.354   3.043  11.607  1.0163 -0.5317  0.9055
  210MPD1    H7 3202   0.484   3.124  11.546  2.3243 -1.9790 -0.0482
  211MPD1     C 3203   2.528   2.579  16.389  0.2151  0.3352  0.0450
  211MPD1    C1 3204   2.475   2.656  16.287 -0.7666 -0.2442  0.2875
  211MPD1    C2 3205   2.337   2.649  16.265 -0.3200  0.2113  0.4782
  211MPD1    C3 3206   2.255   2.558  16.332 -0.6177  0.0077 -0.0264
  211MPD1    C4 3207   2.312   2.469  16.423 -0.0543 -0.0916  0.1086
  211MPD1    C5 3208   2.446   2.488  16.455  0.1488 -0.0888  0.3435
  211MPD1     H 3209   2.294   2.706  16.183  1.6386  0.8650 -0.0782
  211MPD1    H1 3210   2.250   2.394  16.471 -0.8491 -0.5660 -1.6818
  211MPD1    H2 3211   2.635   2.569  16.406  0.2590 -0.5769 -0.7210
  211MPD1    H3 3212   2.500   2.422  16.521  1.0467 -0.0604 -0.3578
  211MPD1     N 3213   2.123   2.554  16.290  0.4724 -0.0142  0.5026
  211MPD1    H5 3214   2.089   2.641  16.251 -0.8421  1.1579  4.2563
  211MPD1    N1 3215   2.553   2.767  16.247  0.0324 -0.3686 -0.0649
  211MPD1    H6 3216   2.521   2.811  16.161 -1.1268 -1.6254 -0.2876
  211MPD1    H7 3217   2.650   2.738  16.230  0.3409  0.7635 -0.2048
  212MPD1     C 3218   0.845   0.786  16.141 -0.4659 -0.4482 -0.6692
  212MPD1    C1 3219   0.805   0.840  16.260 -0.2655  0.5135  0.6866
  212MPD1    C2 3220   0.774   0.754  16.360  0.7582 -0.2292  0.2713
  212MPD1    C3 3221   0.750   0.619  16.337 -0.1853 -0.5072 -0.1271
  212MPD1    C4 3222   0.787   0.571  16.214  0.5436 -0.2500  0.4941
  212MPD1    C5 3223   0.838   0.655  16.119  0.1446  0.6223 -0.4107
  212MPD1     H 3224   0.736   0.798  16.452  2.6658 -1.5076  1.6706
  212MPD1    H1 3225   0.781   0.466  16.188  0.7416 -0.0380 -0.3843
  212MPD1    H2 3226   0.889   0.852  16.067 -1.6401  0.5055 -0.5049
  212MPD1    H3 3227   0.880   0.609  16.030  0.6443 -2.1161  1.2499
  212MPD1     N 3228   0.696   0.526  16.431 -0.3281  0.2059 -0.2931
  212MPD1    H5 3229   0.674   0.431  16.400 -0.5983 -0.2269  1.2218
  212MPD1    N1 3230   0.833   0.977  16.285  0.1675 -1.1490 -0.4052
  212MPD1    H6 3231   0.796   1.030  16.206 -0.9976 -0.7355  0.4145
  212MPD1    H7 3232   0.779   1.014  16.363  0.4021 -0.9099 -0.3580
  213MPD1     C 3233   4.560   2.419  15.260 -0.2987  1.2071 -0.1573
  213MPD1    C1 3234   4.469   2.394  15.167  0.6902 -0.0695 -0.2410
  213MPD1    C2 3235   4.447   2.261  15.134  0.4034 -0.1068  1.1636
  213MPD1    C3 3236   4.551   2.172  15.153  0.8742 -0.0671  0.8453
  213MPD1    C4 3237   4.653   2.205  15.238  0.3951 -0.0687 -0.3474
  213MPD1    C5 3238   4.656   2.333  15.296  0.1902 -0.6806 -0.1327
  213MPD1     H 3239   4.361   2.230  15.076  0.9131  3.2647 -1.3396
  213MPD1    H1 3240   0.007   2.133  15.261 -1.4070 -1.2335  2.1303
  213MPD1    H2 3241   4.584   2.521  15.285  1.2339  1.0819 -1.1681
  213MPD1    H3 3242   0.011   2.356  15.367 -0.6470  2.0932 -0.0858
  213MPD1     N 3243   4.537   2.037  15.104 -0.7561  0.6005 -0.2029
  213MPD1    H5 3244   4.448   2.014  15.060 -1.0185 -1.7942  1.5851
  213MPD1    N1 3245   4.379   2.495  15.140  0.3034  0.8115 -0.2143
  213MPD1    H6 3246   4.320   2.468  15.062  0.7694 -0.1431 -0.2327
  213MPD1    H7 3247   4.427   2.582  15.118 -0.2369  0.5128 -2.5252
  214MPD1     C 3248   0.046   1.177  15.487  0.2671  0.0999  0.4634
  214MPD1    C1 3249   0.107   1.174  15.363  0.1723 -0.2418  0.4817
  214MPD1    C2 3250   0.076   1.274  15.273  0.2979  0.3494 -0.1685
  214MPD1    C3 3251   4.711   1.370  15.312 -0.4130 -0.2899  0.0949
  214MPD1    C4 3252   4.662   1.375  15.434 -0.7562  0.4791 -0.1669
  214MPD1    C5 3253   4.675   1.270  15.517  0.1129  0.2304 -0.7922
  214MPD1     H 3254   0.110   1.264  15.171 -2.0320 -2.2689 -0.6864
  214MPD1    H1 3255   4.604   1.454  15.481  0.3943 -0.3012  2.5889
  214MPD1    H2 3256   0.073   1.101  15.560 -3.1021 -0.0242  1.6019
  214MPD1    H3 3257   4.629   1.270  15.615 -1.5572  1.0758 -1.5808
  214MPD1     N 3258   4.662   1.468  15.224 -0.0611 -0.4234 -0.7235
  214MPD1    H5 3259   4.598   1.537  15.263  0.8120 -1.1216  1.9791
  214MPD1    N1 3260   0.177   1.062  15.326  0.5164 -0.4769  0.1228
  214MPD1    H6 3261   0.233   1.075  15.242  1.8644 -1.7775  0.7956
  214MPD1    H7 3262   0.237   1.033  15.404 -0.2023  0.3617  0.9779
  215MPD1     C 3263   4.163   1.747  10.417  0.5201  0.1236  0.2022
  215MPD1    C1 3264   4.198   1.742  10.551 -0.6203  0.1388  0.2677
  215MPD1    C2 3265   4.218   1.860  10.611  0.0134  0.2050 -0.7886
  215MPD1    C3 3266   4.186   1.974  10.549  0.5186 -0.1780 -0.2998
  215MPD1    C4 3267   4.162   1.984  10.412 -0.2764 -0.0747  1.0086
  215MPD1    C5 3268   4.158   1.866  10.342 -0.5070  0.3021  0.2225
  215MPD1     H 3269   4.244   1.857  10.716 -1.2329 -2.4791 -0.5365
  215MPD1    H1 3270   4.147   2.076  10.356  0.1162 -0.0276  0.9803
  215MPD1    H2 3271   4.147   1.657  10.358  2.0910  1.0660 -1.6244
  215MPD1    H3 3272   4.142   1.871  10.235  0.5320  1.4155  0.1204
  215MPD1     N 3273   4.178   2.086  10.640  0.3191 -0.4060 -0.4535
  215MPD1    H5 3274   4.204   2.069  10.737  0.7315  0.5113 -0.4028
  215MPD1    N1 3275   4.221   1.620  10.616  0.1379 -0.2361 -0.3134
  215MPD1    H6 3276   4.223   1.631  10.717  1.3945  0.4768 -0.4179
  215MPD1    H7 3277   4.160   1.541  10.597  1.6995 -0.7130 -3.2840
  216MPD1     C 3278   1.571   0.371  17.312  0.0783 -0.7841 -0.0204
  216MPD1    C1 3279   1.586   0.252  17.383  0.5490  0.2278 -0.3153
  216MPD1    C2 3280   1.516   0.142  17.344  0.7438 -0.0794  1.2112
  216MPD1    C3 3281   1.433   0.134  17.232  0.5037 -0.2383  0.4426
  216MPD1    C4 3282   1.426   0.243  17.149  0.4952  0.3586  0.1176
  216MPD1    C5 3283   1.489   0.360  17.200 -0.0944  0.6628  0.1538
  216MPD1     H 3284   1.537   0.055  17.405 -1.4075 -1.9115 -0.7149
  216MPD1    H1 3285   1.381   0.242  17.051  0.9273  1.0810 -0.0926
  216MPD1    H2 3286   1.629   0.460  17.334  1.1325 -1.0978 -1.5934
  216MPD1    H3 3287   1.485   0.455  17.148  2.1354 -0.1212 -1.4706
  216MPD1     N 3288   1.378   0.010  17.202  0.2823  0.1203 -0.3015
  216MPD1    H5 3289   1.396   4.659  17.268  0.9416  0.4608 -0.0890
  216MPD1    N1 3290   1.665   0.240  17.498 -0.4758 -0.3631 -0.1244
  216MPD1    H6 3291   1.751   0.290  17.479  1.0994 -2.4962  1.4715
  216MPD1    H7 3292   1.704   0.146  17.496 -0.4847 -0.3401 -2.2022
  217MPD1     C 3293   2.052   4.680   8.379 -0.3286  0.0993  0.3916
  217MPD1    C1 3294   1.936   0.032   8.371 -0.7749 -0.3715  1.4708
  217MPD1    C2 3295   1.943   0.165   8.388 -0.8311 -0.2241 -0.0010
  217MPD1    C3 3296   2.059   0.228   8.420  0.2836  0.3476  0.0829
  217MPD1    C4 3297   2.178   0.153   8.419  0.1484  0.2024 -0.0943
  217MPD1    C5 3298   2.168   0.018   8.398 -0.1150  0.7130 -0.2479
  217MPD1     H 3299   1.849   0.220   8.384 -0.3951  0.5247  0.0708
  217MPD1    H1 3300   2.276   0.199   8.426  1.2120 -2.1183  0.2666
  217MPD1    H2 3301   2.049   4.573   8.366  0.0149  0.0033  1.0997
  217MPD1    H3 3302   2.263   4.691   8.385 -0.3778  0.5456 -1.5647
  217MPD1     N 3303   2.079   0.370   8.430  0.3153  0.3072  0.1248
  217MPD1    H5 3304   2.176   0.401   8.430  0.0503  1.1358  1.5374
  217MPD1    N1 3305   1.819   4.690   8.333  0.1924 -0.2715 -0.0103
  217MPD1    H6 3306   1.826   4.589   8.335  2.3260 -0.0640  2.3856
  217MPD1    H7 3307   1.739   0.010   8.378 -0.3211 -1.1437 -0.0808
  218MPD1     C 3308   2.965   2.555  12.531 -1.4023 -0.8778  0.8349
  218MPD1    C1 3309   3.020   2.486  12.428  0.0216  0.0383 -0.8213
  218MPD1    C2 3310   3.111   2.384  12.453 -0.5584 -0.6394  0.1218
  218MPD1    C3 3311   3.156   2.365  12.585 -0.4957  0.2372  0.1530
  218MPD1    C4 3312   3.088   2.430  12.689 -0.3412  0.5479  0.3904
  218MPD1    C5 3313   2.996   2.529  12.656  0.0484  0.0683  0.2489
  218MPD1     H 3314   3.157   2.329  12.371 -1.2290 -2.1966  0.7915
  218MPD1    H1 3315   3.114   2.420  12.794 -0.9350  1.8830  0.6682
  218MPD1    H2 3316   2.881   2.623  12.522 -0.9634 -0.6980 -1.7581
  218MPD1    H3 3317   2.949   2.585  12.736 -1.6639 -1.4375  0.2952
  218MPD1     N 3318   3.268   2.292  12.612  0.2737 -0.2741 -1.0265
  218MPD1    H5 3319   3.309   2.255  12.527  0.5793  0.4197 -1.1789
  218MPD1    N1 3320   2.963   2.500  12.303  0.3669  0.5302  0.5552
  218MPD1    H6 3321   2.929   2.593  12.279  0.1848  0.3670  0.1755
  218MPD1    H7 3322   3.024   2.484  12.223 -1.7170 -1.9683 -0.5669
  219MPD1     C 3323   4.030   2.689  12.229  0.2513  0.4763  0.2779
  219MPD1    C1 3324   3.920   2.611  12.184 -0.0284 -0.0858 -1.2774
  219MPD1    C2 3325   3.850   2.525  12.272 -0.1345 -0.5099 -0.5769
  219MPD1    C3 3326   3.884   2.527  12.404 -0.2495 -0.2189  0.3366
  219MPD1    C4 3327   3.991   2.606  12.450  0.2762 -0.0533 -0.6510
  219MPD1    C5 3328   4.062   2.679  12.365 -0.0167 -0.1106 -0.1968
  219MPD1     H 3329   3.764   2.467  12.240 -1.0503  1.7649 -2.1575
  219MPD1    H1 3330   4.022   2.611  12.554  4.7735  1.5920 -2.0841
  219MPD1    H2 3331   4.085   2.760  12.168 -0.1344  1.0617  0.6137
  219MPD1    H3 3332   4.144   2.739  12.403  0.5948 -0.9183 -0.2357
  219MPD1     N 3333   3.827   2.443  12.501 -0.3258 -0.1096 -0.9790
  219MPD1    H5 3334   3.855   2.468  12.595 -0.2268 -0.0794 -1.0160
  219MPD1    N1 3335   3.902   2.594  12.049  0.2470  0.5215 -0.0970
  219MPD1    H6 3336   3.814   2.553  12.018 -0.4823  0.7679  1.6752
  219MPD1    H7 3337   3.909   2.688  12.013 -0.9028  0.3589 -0.7385
  220MPD1     C 3338   2.851   3.432  10.433  1.0499 -0.0454  0.6260
  220MPD1    C1 3339   2.945   3.386  10.524  0.1449  0.0077 -0.7052
  220MPD1    C2 3340   3.047   3.310  10.483  0.2579 -0.0029  0.0084
  220MPD1    C3 3341   3.060   3.279  10.347  0.1971  0.9664 -1.1372
  220MPD1    C4 3342   2.977   3.343  10.258  0.6175 -0.3601 -0.1310
  220MPD1    C5 3343   2.867   3.418  10.300  0.4461  0.7498  0.7356
  220MPD1     H 3344   3.120   3.275  10.555  1.3011  1.7832 -0.1709
  220MPD1    H1 3345   2.982   3.332  10.151  0.1181  1.0507 -0.3005
  220MPD1    H2 3346   2.769   3.497  10.460  1.0480  0.5412 -0.7535
  220MPD1    H3 3347   2.801   3.466  10.229  0.4921 -0.6269 -0.2466
  220MPD1     N 3348   3.164   3.190  10.311 -0.2595 -0.1800 -0.4489
  220MPD1    H5 3349   3.219   3.169  10.394  0.2175  0.9491 -0.4860
  220MPD1    N1 3350   2.940   3.431  10.653 -0.2513  0.1116 -0.3074
  220MPD1    H6 3351   2.848   3.457  10.689 -0.7516 -1.7309 -0.2589
  220MPD1    H7 3352   2.968   3.352  10.710  2.1884  1.3202  0.1753
  221MPD1     C 3353   0.799   1.743  15.453  0.2123 -0.4322 -0.9923
  221MPD1    C1 3354   0.756   1.873  15.491 -0.4882  0.2164  0.0375
  221MPD1    C2 3355   0.823   1.932  15.597 -0.5029 -0.1269  0.4577
  221MPD1    C3 3356   0.930   1.863  15.657  0.5432  0.6992  0.4091
  221MPD1    C4 3357   0.970   1.733  15.617 -0.2605 -0.5984  0.3837
  221MPD1    C5 3358   0.906   1.683  15.515 -0.5045  0.7777  0.1791
  221MPD1     H 3359   0.789   2.023  15.644 -1.2263  0.0862 -0.4786
  221MPD1    H1 3360   1.060   1.679  15.643  0.3860  0.9951  1.4042
  221MPD1    H2 3361   0.753   1.694  15.368  1.0687  0.3776 -1.9336
  221MPD1    H3 3362   0.951   1.601  15.461 -1.8193  0.6988 -0.7915
  221MPD1     N 3363   1.001   1.918  15.763 -0.3298  0.8640 -0.3828
  221MPD1    H5 3364   1.072   1.860  15.808 -0.3871  1.0657 -0.0334
  221MPD1    N1 3365   0.647   1.934  15.430  0.4370 -1.1955  0.4849
  221MPD1    H6 3366   0.672   2.031  15.415  1.6123 -1.1034  3.0017
  221MPD1    H7 3367   0.622   1.895  15.339  2.1826 -1.6398  0.2053
  222MPD1     C 3368   1.059   0.464  16.356 -0.2637  0.0581 -0.2842
  222MPD1    C1 3369   1.053   0.326  16.356 -0.4820  0.1517  0.9774
  222MPD1    C2 3370   1.044   0.256  16.474 -0.2866 -0.0738  0.1302
  222MPD1    C3 3371   1.033   0.324  16.592  0.1222 -0.1169 -0.1925
  222MPD1    C4 3372   1.042   0.460  16.590  0.0288 -0.5006  0.5012
  222MPD1    C5 3373   1.050   0.528  16.475 -0.4745  0.4959 -0.4980
  222MPD1     H 3374   1.055   0.148  16.479  1.3048  0.0888 -0.1442
  222MPD1    H1 3375   1.064   0.512  16.683 -0.0021 -1.1415  0.8710
  222MPD1    H2 3376   1.073   0.520  16.265 -1.4971  0.6040 -0.1348
  222MPD1    H3 3377   1.049   0.636  16.485 -1.1863  0.6642 -2.3028
  222MPD1     N 3378   1.012   0.261  16.720 -0.1948 -0.4654 -0.2746
  222MPD1    H5 3379   1.023   0.319  16.802  0.8151 -0.8669 -0.1342
  222MPD1    N1 3380   1.086   0.253  16.237  0.3854  1.1115  0.1067
  222MPD1    H6 3381   1.060   0.301  16.151 -1.2147 -0.9747 -0.5961
  222MPD1    H7 3382   1.052   0.156  16.238  1.2631  0.8210  1.0474
  223MPD1     C 3383   0.506   4.138  16.783  0.5150  0.0068  0.5862
  223MPD1    C1 3384   0.550   4.160  16.912 -0.0758  1.1254 -0.1494
  223MPD1    C2 3385   0.581   4.288  16.952  0.2233 -0.9589  0.0302
  223MPD1    C3 3386   0.623   4.375  16.853  0.5762  0.0595  0.1234
  223MPD1    C4 3387   0.593   4.348  16.721  0.2746 -0.4151 -0.2856
  223MPD1    C5 3388   0.523   4.239  16.691 -0.0013 -0.1625 -0.3771
  223MPD1     H 3389   0.609   4.305  17.056 -0.3936  0.9675 -0.1220
  223MPD1    H1 3390   0.608   4.428  16.649  0.5460 -0.0130  0.2139
  223MPD1    H2 3391   0.478   4.042  16.743  1.3909  0.1373 -0.3297
  223MPD1    H3 3392   0.489   4.222  16.590 -0.4166  0.6919 -0.3837
  223MPD1     N 3393   0.683   4.497  16.881 -0.1151  0.5164  0.5857
  223MPD1    H5 3394   0.695   4.556  16.800 -0.8497  0.6149  0.5469
  223MPD1    N1 3395   0.548   4.057  17.011  0.3078 -0.4228  0.4482
  223MPD1    H6 3396   0.631   4.068  17.070  1.1003 -3.5803 -0.1215
  223MPD1    H7 3397   0.542   3.964  16.972  2.1176  0.3246 -1.6111
  224MPD1     C 3398   1.669   1.635   8.364  0.1013  0.8364 -0.3603
  224MPD1    C1 3399   1.791   1.575   8.375  0.0822  0.6494 -0.5465
  224MPD1    C2 3400   1.863   1.595   8.488  0.3643  0.2742  0.0865
  224MPD1    C3 3401   1.823   1.680   8.589  0.4485 -0.4721 -0.6465
  224MPD1    C4 3402   1.701   1.741   8.576  0.2664  0.8240  0.2687
  224MPD1    C5 3403   1.625   1.723   8.467  0.0653 -0.0207 -0.2447
  224MPD1     H 3404   1.961   1.547   8.490  0.9075  1.3878  0.4311
  224MPD1    H1 3405   1.667   1.802   8.659 -3.8420 -1.9014  0.6363
  224MPD1    H2 3406   1.617   1.620   8.271 -1.1971  2.4077  0.1047
  224MPD1    H3 3407   1.531   1.777   8.465 -0.2093 -0.4415  2.0062
  224MPD1     N 3408   1.900   1.714   8.705 -0.0465 -0.4296  0.8443
  224MPD1    H5 3409   1.849   1.762   8.779 -1.1299 -2.0709  1.1880
  224MPD1    N1 3410   1.844   1.495   8.279 -0.2840 -0.3064  0.0971
  224MPD1    H6 3411   1.783   1.451   8.210 -0.4332 -2.1073  1.3840
  224MPD1    H7 3412   1.920   1.434   8.307 -0.1766  0.7852  2.1661
  225MPD1     C 3413   3.420   2.576  12.452 -0.0891  0.4745 -0.1836
  225MPD1    C1 3414   3.322   2.657  12.495  0.6694 -1.1158  0.1371
  225MPD1    C2 3415   3.264   2.721  12.390  0.6503  0.7297  0.0981
  225MPD1    C3 3416   3.300   2.695  12.261  0.7627 -0.6613 -0.4735
  225MPD1    C4 3417   3.400   2.604  12.224  0.6792  0.2508  0.8774
  225MPD1    C5 3418   3.469   2.550  12.330  0.5435  0.8226 -0.1649
  225MPD1     H 3419   3.175   2.777  12.416  0.7279  1.2656 -0.7941
  225MPD1    H1 3420   3.419   2.568  12.124 -3.1630 -1.8457  0.9146
  225MPD1    H2 3421   3.463   2.510  12.527  0.0945 -0.0323 -0.7351
  225MPD1    H3 3422   3.555   2.484  12.324 -0.1437 -0.2749  2.1356
  225MPD1     N 3423   3.227   2.752  12.159  0.0526  0.3405 -0.3947
  225MPD1    H5 3424   3.244   2.714  12.067 -1.1244  1.9733 -1.2812
  225MPD1    N1 3425   3.296   2.684  12.630 -0.2763 -0.5293  0.1461
  225MPD1    H6 3426   3.254   2.600  12.670  0.9570 -1.6649 -0.9020
  225MPD1    H7 3427   3.226   2.755  12.647  0.0973 -0.0396 -0.3577
  226MPD1     C 3428   2.490   4.200   8.689  0.1199 -0.0227  1.0413
  226MPD1    C1 3429   2.588   4.105   8.730  0.3563 -0.0318  0.2232
  226MPD1    C2 3430   2.549   3.975   8.748  0.5159  0.4994  0.0468
  226MPD1    C3 3431   2.414   3.938   8.731  0.5434 -0.2949  0.5098
  226MPD1    C4 3432   2.315   4.031   8.699 -0.4863  0.8058  0.6653
  226MPD1    C5 3433   2.355   4.166   8.682 -0.1921 -0.4331 -0.0137
  226MPD1     H 3434   2.620   3.901   8.780 -0.6598  0.2893  2.1418
  226MPD1    H1 3435   2.211   4.011   8.679  0.0322  2.0676 -3.3750
  226MPD1    H2 3436   2.531   4.300   8.678 -1.7486  0.9288  2.7320
  226MPD1    H3 3437   2.277   4.236   8.656  0.9850  1.0943  0.6093
  226MPD1     N 3438   2.384   3.803   8.772  0.5719  0.7312  0.1454
  226MPD1    H5 3439   2.464   3.744   8.790  0.6192  1.2522  1.5874
  226MPD1    N1 3440   2.725   4.127   8.708  0.0532  0.2394  0.0235
  226MPD1    H6 3441   2.792   4.071   8.760  0.7815  1.6464  0.6141
  226MPD1    H7 3442   2.742   4.228   8.713 -1.6717  0.4148  2.2103
  227MPD1     C 3443   2.836   3.436   9.378  0.3620  0.2530 -0.7816
  227MPD1    C1 3444   2.829   3.548   9.299  0.3308 -0.3686 -0.8127
  227MPD1    C2 3445   2.725   3.562   9.210 -0.8697 -0.7826 -0.3360
  227MPD1    C3 3446   2.627   3.468   9.198 -1.1350  0.2274 -0.1594
  227MPD1    C4 3447   2.625   3.363   9.287 -0.0035 -0.9510 -0.1500
  227MPD1    C5 3448   2.735   3.349   9.365  0.3482 -1.0064 -0.4246
  227MPD1     H 3449   2.737   3.648   9.145  0.3995 -0.7050  0.0106
  227MPD1    H1 3450   2.547   3.288   9.288 -1.7807  0.8782 -1.4179
  227MPD1    H2 3451   2.919   3.420   9.446 -0.2915  0.4400  0.0531
  227MPD1    H3 3452   2.745   3.255   9.418 -0.7673  0.8696  3.0911
  227MPD1     N 3453   2.526   3.480   9.099  0.0254  0.3625 -0.0331
  227MPD1    H5 3454   2.531   3.566   9.046 -0.0407  0.9586  0.9172
  227MPD1    N1 3455   2.943   3.627   9.289  0.0174  0.0178  0.4174
  227MPD1    H6 3456   2.931   3.724   9.259  0.0813 -0.5404 -1.3484
  227MPD1    H7 3457   3.007   3.625   9.369 -1.9229 -1.5299  1.9169
  228MPD1     C 3458   0.231   1.098  12.765 -0.3864  0.2790  1.0212
  228MPD1    C1 3459   0.120   1.068  12.840  0.4962  0.1646  0.2599
  228MPD1    C2 3460   4.716   1.074  12.785 -0.2837 -0.1630 -0.1533
  228MPD1    C3 3461   4.701   1.132  12.663 -0.7806  0.1389  0.7140
  228MPD1    C4 3462   0.089   1.165  12.587  0.5581  0.3262  0.2580
  228MPD1    C5 3463   0.208   1.150  12.641  0.3797  0.6993 -0.7285
  228MPD1     H 3464   4.629   1.047  12.844 -0.4239  0.1285 -0.2252
  228MPD1    H1 3465   0.087   1.203  12.486  0.2538 -1.3493 -0.3751
  228MPD1    H2 3466   0.332   1.079  12.799 -0.3756 -1.4269  0.0202
  228MPD1    H3 3467   0.295   1.178  12.581  1.7673 -1.6580  0.1759
  228MPD1     N 3468   4.567   1.150  12.619  0.6032  0.5492 -0.1265
  228MPD1    H5 3469   4.498   1.140  12.693  0.2470  4.4824  0.0663
  228MPD1    N1 3470   0.141   1.010  12.967 -0.3430  0.1640 -0.4779
  228MPD1    H6 3471   0.080   1.040  13.042  0.7713  3.3254 -0.8370
  228MPD1    H7 3472   0.240   1.009  12.992  0.7475 -1.9330 -4.7343
  229MPD1     C 3473   4.025   0.348  13.955  0.0334  0.2787 -0.1491
  229MPD1    C1 3474   4.156   0.352  13.916 -0.0241 -0.3070 -0.5917
  229MPD1    C2 3475   4.234   0.238  13.924  0.1754  0.4856 -0.0548
  229MPD1    C3 3476   4.179   0.117  13.972  0.1513  0.6312  0.5555
  229MPD1    C4 3477   4.047   0.108  14.008 -0.2189 -0.0459  0.1236
  229MPD1    C5 3478   3.974   0.228  13.994  0.6979  0.2548  0.1366
  229MPD1     H 3479   4.339   0.239  13.897  0.2002  0.4899  0.0396
  229MPD1    H1 3480   4.005   0.023  14.060 -1.0818  0.1908 -0.1709
  229MPD1    H2 3481   3.962   0.436  13.959 -1.7828 -0.8932 -2.3597
  229MPD1    H3 3482   3.874   0.231  14.036  0.8941 -2.4782  0.8154
  229MPD1     N 3483   4.255   0.001  13.993  0.8855  0.5317  0.2728
  229MPD1    H5 3484   4.217   4.647  14.046  0.8510  1.2900  1.3553
  229MPD1    N1 3485   4.210   0.469  13.865 -0.4038  0.3875  0.4050
  229MPD1    H6 3486   4.180   0.543  13.928  1.4090  1.4701 -0.0030
  229MPD1    H7 3487   4.312   0.472  13.866 -0.3948  0.2908 -1.8684
  230MPD1     C 3488   4.458   4.074  14.688  0.0291  0.6752 -0.5126
  230MPD1    C1 3489   4.536   4.031  14.585  0.4471  0.2103  0.1302
  230MPD1    C2 3490   4.556   4.119  14.481 -0.2313 -0.1832  0.1860
  230MPD1    C3 3491   4.478   4.228  14.461  0.2389  0.5824 -0.2780
  230MPD1    C4 3492   4.372   4.254  14.554 -0.0804  0.0357  0.5414
  230MPD1    C5 3493   4.375   4.185  14.675  0.0806 -0.2707 -0.0921
  230MPD1     H 3494   4.635   4.107  14.408 -0.9710  1.1065 -0.8249
  230MPD1    H1 3495   4.306   4.340  14.548 -1.8825 -1.3372  0.5951
  230MPD1    H2 3496   4.449   4.007  14.773 -3.2537  0.7790 -0.7544
  230MPD1    H3 3497   4.296   4.202  14.748  0.7181  0.5872  0.3936
  230MPD1     N 3498   4.503   4.305  14.346  0.1542 -0.1665  0.6344
  230MPD1    H5 3499   4.578   4.275  14.284 -1.1373  1.3771 -1.6743
  230MPD1    N1 3500   4.628   3.923  14.605  0.2560  0.3093  0.4178
  230MPD1    H6 3501   4.646   3.879  14.515 -1.5643  1.0702 -0.3232
  230MPD1    H7 3502   4.603   3.849  14.670  0.2817  0.5857  0.7459
  231MPD1     C 3503   2.203   1.600  15.534 -0.3143 -0.3041 -0.1691
  231MPD1    C1 3504   2.265   1.514  15.455  0.3926  0.0176 -0.0697
  231MPD1    C2 3505   2.363   1.553  15.366 -0.1679 -0.0972  0.7458
  231MPD1    C3 3506   2.397   1.683  15.357 -0.8718 -0.1439 -0.8652
  231MPD1    C4 3507   2.350   1.769  15.448 -0.1113  0.0552  0.1522
  231MPD1    C5 3508   2.249   1.726  15.532  0.7578 -0.2987 -0.3007
  231MPD1     H 3509   2.405   1.469  15.313 -0.9116  0.3444 -0.5338
  231MPD1    H1 3510   2.377   1.874  15.454  0.7507  0.0294 -3.0104
  231MPD1    H2 3511   2.122   1.568  15.598 -0.7349 -0.3813 -0.7360
  231MPD1    H3 3512   2.199   1.801  15.592  2.0955  0.9023 -0.6635
  231MPD1     N 3513   2.486   1.722  15.253  0.4930 -0.1185 -0.1713
  231MPD1    H5 3514   2.520   1.645  15.197  2.1708  2.6192 -2.8739
  231MPD1    N1 3515   2.242   1.378  15.466 -0.0915 -0.4340 -0.4805
  231MPD1    H6 3516   2.271   1.332  15.380 -0.6683  1.3651 -1.6430
  231MPD1    H7 3517   2.147   1.359  15.498 -0.3655  0.2480 -0.8750
  232MPD1     C 3518   0.146   4.006   1.926  0.4473 -0.0077 -0.2526
  232MPD1    C1 3519   0.240   3.908   1.936 -0.2352  0.3659 -0.1171
  232MPD1    C2 3520   0.252   3.821   1.832  0.2100 -0.5705 -0.1570
  232MPD1    C3 3521   0.200   3.849   1.706 -0.7602 -0.1823  0.9343
  232MPD1    C4 3522   0.117   3.961   1.695 -0.3877  0.1609  0.6519
  232MPD1    C5 3523   0.087   4.034   1.811 -0.4132 -0.1068 -0.4856
  232MPD1     H 3524   0.317   3.737   1.853  1.5026  0.9784  2.0095
  232MPD1    H1 3525   0.071   3.993   1.602 -1.4255  0.5987  1.3160
  232MPD1    H2 3526   0.123   4.060   2.017 -1.1539  0.1232 -0.7338
  232MPD1    H3 3527   0.014   4.113   1.801  0.7154  1.2139  1.8308
  232MPD1     N 3528   0.224   3.754   1.601  0.5495 -0.3917  0.2587
  232MPD1    H5 3529   0.293   3.681   1.620  0.3174 -0.1837  1.8466
  232MPD1    N1 3530   0.300   3.876   2.053 -0.3320  0.1744  0.0739
  232MPD1    H6 3531   0.316   3.959   2.110  1.3832 -0.6506  0.7971
  232MPD1    H7 3532   0.382   3.816   2.041  0.3333  1.1527 -0.2495
  233MPD1     C 3533   0.738   3.412   0.927 -0.5565  0.2974 -0.0855
  233MPD1    C1 3534   0.666   3.301   0.907  0.0281 -0.5509 -0.3554
  233MPD1    C2 3535   0.729   3.176   0.922  0.0861  0.1041  0.7747
  233MPD1    C3 3536   0.867   3.165   0.925 -0.1071 -0.0721 -0.4016
  233MPD1    C4 3537   0.944   3.281   0.942  0.4344  0.4855 -0.1621
  233MPD1    C5 3538   0.878   3.402   0.940  0.0155 -0.9040  0.3335
  233MPD1     H 3539   0.663   3.090   0.914 -0.7585  0.9182 -0.9837
  233MPD1    H1 3540   1.052   3.282   0.946  0.4854 -1.0914 -1.4110
  233MPD1    H2 3541   0.699   3.514   0.922 -1.2888  0.0598  0.6209
  233MPD1    H3 3542   0.937   3.494   0.939 -3.1199  1.0952 -0.0080
  233MPD1     N 3543   0.934   3.038   0.913  0.4868 -0.4736 -0.0700
  233MPD1    H5 3544   1.033   3.043   0.936  0.0352  2.0087  1.3397
  233MPD1    N1 3545   0.530   3.314   0.892 -0.3122  0.3779 -0.0575
  233MPD1    H6 3546   0.501   3.407   0.863  1.5720  0.9610 -0.1074
  233MPD1    H7 3547   0.491   3.253   0.821  0.1362 -0.7811  0.7039
  234MPD1     C 3548   3.057   0.558   9.923 -1.0566 -0.4226  0.9092
  234MPD1    C1 3549   3.083   0.689   9.904  0.7514 -0.0898 -0.0699
  234MPD1    C2 3550   3.065   0.745   9.778 -0.1973 -0.3858 -0.0231
  234MPD1    C3 3551   2.987   0.681   9.683  0.2708  0.1577 -0.4250
  234MPD1    C4 3552   2.935   0.559   9.715  0.3117  0.2204  0.6944
  234MPD1    C5 3553   2.985   0.496   9.828  0.0797  0.0019  0.4322
  234MPD1     H 3554   3.102   0.845   9.757 -0.0675 -0.4440 -0.0730
  234MPD1    H1 3555   2.862   0.507   9.654  2.1380 -1.7072  0.1224
  234MPD1    H2 3556   3.087   0.498  10.008 -2.5274 -0.5246  1.3533
  234MPD1    H3 3557   2.942   0.400   9.852  2.5101 -1.6052 -1.7063
  234MPD1     N 3558   2.927   0.762   9.586 -0.3381  0.3245 -0.1543
  234MPD1    H5 3559   2.954   0.860   9.593  0.4655  0.1740 -1.1221
  234MPD1    N1 3560   3.157   0.754  10.007 -0.2378  0.0693 -0.3217
  234MPD1    H6 3561   3.129   0.714  10.096 -0.8673  1.4117  0.0779
  234MPD1    H7 3562   3.137   0.854  10.015 -0.1824 -0.0571  1.4300
  235MPD1     C 3563   3.844   3.404  10.542  0.7451  0.3610  0.1687
  235MPD1    C1 3564   3.814   3.443  10.411 -0.6928  0.0811 -0.1606
  235MPD1    C2 3565   3.895   3.533  10.361  0.3683  0.3740  0.0425
  235MPD1    C3 3566   4.020   3.566  10.419 -0.0444 -0.5977  0.6454
  235MPD1    C4 3567   4.050   3.514  10.537 -0.2772  0.4575  1.7966
  235MPD1    C5 3568   3.966   3.419  10.589 -0.4899  0.8093  0.2595
  235MPD1     H 3569   3.873   3.574  10.263 -3.1102 -0.0408  0.6446
  235MPD1    H1 3570   4.142   3.546  10.584  1.2210 -0.0853 -0.8281
  235MPD1    H2 3571   3.777   3.336  10.594  0.3919 -0.5856 -1.5115
  235MPD1    H3 3572   3.986   3.392  10.692  1.5719  0.1281 -0.3102
  235MPD1     N 3573   4.114   3.641  10.349 -0.0789 -0.6240 -0.0117
  235MPD1    H5 3574   4.091   3.698  10.268 -1.0561 -0.5509  0.3149
  235MPD1    N1 3575   3.695   3.406  10.351 -0.0034  0.2965  0.5789
  235MPD1    H6 3576   3.659   3.313  10.375  1.0498 -0.2655  0.0048
  235MPD1    H7 3577   3.714   3.406  10.251 -0.2010 -1.9499  0.5320
  236MPD1     C 3578   4.127   0.352  10.133  0.6047  1.0655  0.6202
  236MPD1    C1 3579   3.993   0.304  10.118 -0.3151 -0.0942 -0.3935
  236MPD1    C2 3580   3.954   0.182  10.169 -0.1321 -0.3709  0.0379
  236MPD1    C3 3581   4.044   0.111  10.248  0.3941 -0.3342  0.3526
  236MPD1    C4 3582   4.171   0.165  10.283  0.9007  0.0158 -0.6838
  236MPD1    C5 3583   4.211   0.278  10.223 -0.3875  0.4897  0.1093
  236MPD1     H 3584   3.854   0.146  10.150 -0.8806  0.5460  2.2167
  236MPD1    H1 3585   4.231   0.107  10.352 -0.4685 -3.4736 -2.3814
  236MPD1    H2 3586   4.163   0.440  10.083  0.7893  0.1394 -0.8724
  236MPD1    H3 3587   4.310   0.317  10.245 -0.3855  0.5658 -0.0363
  236MPD1     N 3588   4.016   4.711  10.309 -0.0536 -0.1414 -0.6460
  236MPD1    H5 3589   4.088   4.674  10.370  0.3728  2.8638  0.7046
  236MPD1    N1 3590   3.894   0.366  10.039 -0.1349  0.3579 -0.1084
  236MPD1    H6 3591   3.802   0.339  10.075 -0.1227  0.7502  0.2139
  236MPD1    H7 3592   3.908   0.466  10.050 -2.0459  0.7008 -0.7974
  237MPD1     C 3593   3.239   3.343  15.436 -0.4841 -0.1731 -0.1561
  237MPD1    C1 3594   3.200   3.235  15.509 -0.4928 -0.2379  0.0320
  237MPD1    C2 3595   3.112   3.147  15.449  1.2901 -1.2193 -0.6899
  237MPD1    C3 3596   3.063   3.165  15.317 -0.3299 -0.7143 -0.2324
  237MPD1    C4 3597   3.118   3.276  15.247 -0.8747 -0.0080 -0.0287
  237MPD1    C5 3598   3.210   3.359  15.305 -0.6378  0.3039  0.4690
  237MPD1     H 3599   3.064   3.070  15.508 -0.2946  1.7599  1.9239
  237MPD1    H1 3600   3.086   3.296  15.145 -0.0144 -1.0708 -0.5097
  237MPD1    H2 3601   3.305   3.417  15.480  1.8946 -2.2768 -0.1974
  237MPD1    H3 3602   3.240   3.449  15.254  0.8652 -0.7851 -0.5852
  237MPD1     N 3603   2.969   3.079  15.255 -0.2663  0.2342  0.4237
  237MPD1    H5 3604   2.923   3.100  15.168 -1.9960 -0.9826  1.0439
  237MPD1    N1 3605   3.231   3.217  15.644 -0.3028  0.4062 -0.1733
  237MPD1    H6 3606   3.309   3.273  15.679  1.0640 -1.4296 -0.2774
  237MPD1    H7 3607   3.235   3.120  15.674 -0.9789 -0.0965 -1.7293
  238MPD1     C 3608   0.284   1.321  14.450 -0.1073 -0.1766 -0.5290
  238MPD1    C1 3609   0.209   1.338  14.564 -0.4426  0.7212 -0.2377
  238MPD1    C2 3610   0.212   1.235  14.666  0.8115 -0.1534 -0.8850
  238MPD1    C3 3611   0.287   1.122  14.645  1.0979  0.0649 -0.4787
  238MPD1    C4 3612   0.358   1.106  14.529  0.1503 -0.2362 -0.0749
  238MPD1    C5 3613   0.353   1.206  14.437 -0.6040 -0.5385 -0.0962
  238MPD1     H 3614   0.143   1.247  14.749  1.4051 -2.3100 -0.0640
  238MPD1    H1 3615   0.424   1.022  14.511  2.1058  1.6877 -1.8771
  238MPD1    H2 3616   0.269   1.385  14.363  2.9361  1.6026  0.2557
  238MPD1    H3 3617   0.401   1.184  14.342  0.9878 -3.5838  1.4300
  238MPD1     N 3618   0.285   1.010  14.727  0.5684 -0.7238 -0.3254
  238MPD1    H5 3619   0.334   0.928  14.692 -3.6392 -2.9815 -0.8744
  238MPD1    N1 3620   0.117   1.441  14.571 -0.0571  0.5746 -0.1867
  238MPD1    H6 3621   0.160   1.518  14.519 -1.4859  2.5264  1.5163
  238MPD1    H7 3622   0.109   1.459  14.671  0.0928 -0.3055 -0.0237
  239MPD1     C 3623   0.478   2.073  14.782 -0.2986  0.0567  1.0037
  239MPD1    C1 3624   0.347   2.048  14.769  0.0947 -0.1487 -0.3570
  239MPD1    C2 3625   0.277   2.125  14.681 -0.5996  0.2989 -0.2535
  239MPD1    C3 3626   0.340   2.212  14.592 -0.6668  0.0542 -0.3202
  239MPD1    C4 3627   0.478   2.228  14.603  0.0497 -0.3628 -0.1874
  239MPD1    C5 3628   0.545   2.159  14.698 -0.0969 -0.3642 -0.2461
  239MPD1     H 3629   0.170   2.108  14.674 -0.9819  1.8632  2.0550
  239MPD1    H1 3630   0.547   2.295  14.554  0.2296  0.1362  0.7500
  239MPD1    H2 3631   0.540   2.016  14.850 -1.2855 -2.5555 -0.3050
  239MPD1    H3 3632   0.652   2.173  14.705 -0.2353  1.1752 -1.3759
  239MPD1     N 3633   0.270   2.281  14.492 -0.2234  0.6044 -0.3218
  239MPD1    H5 3634   0.327   2.325  14.420 -0.5010  1.3032 -0.1113
  239MPD1    N1 3635   0.283   1.962  14.863 -0.7254 -0.2566 -0.0963
  239MPD1    H6 3636   0.192   1.943  14.820 -0.9263  0.2881  0.0886
  239MPD1    H7 3637   0.335   1.882  14.899 -1.2640 -1.5178 -2.1366
  240MPD1     C 3638   4.245   2.186  13.404  0.0646 -0.6997  0.3469
  240MPD1    C1 3639   4.200   2.219  13.527  0.5001 -0.3398 -0.4164
  240MPD1    C2 3640   4.252   2.155  13.636 -0.5728 -0.0288  0.5623
  240MPD1    C3 3641   4.328   2.035  13.620 -0.3592  0.1424  0.9966
  240MPD1    C4 3642   4.372   2.003  13.497  0.0303 -0.3160  0.3062
  240MPD1    C5 3643   4.340   2.084  13.393 -0.0858  0.1998  0.4616
  240MPD1     H 3644   4.239   2.186  13.739 -1.4682 -0.2772  0.5226
  240MPD1    H1 3645   4.436   1.918  13.480  1.6219  0.9295  0.0974
  240MPD1    H2 3646   4.215   2.238  13.314  1.6311 -0.3104  0.0570
  240MPD1    H3 3647   4.376   2.049  13.297  0.1785 -0.3013  0.7413
  240MPD1     N 3648   4.360   1.963  13.743 -0.0855 -0.1494  0.0603
  240MPD1    H5 3649   4.308   1.994  13.824 -0.1580 -1.2333  0.4196
  240MPD1    N1 3650   4.099   2.317  13.552 -0.2447 -0.2022  0.3297
  240MPD1    H6 3651   4.052   2.296  13.640  0.8485 -0.7760  0.7902
  240MPD1    H7 3652   4.036   2.309  13.473  0.0040  0.3595  0.0715
  241MPD1     C 3653   0.365   1.280  14.070  0.5131  0.7447 -0.4562
  241MPD1    C1 3654   0.387   1.418  14.090 -0.3475  0.3283  0.2143
  241MPD1    C2 3655   0.279   1.507  14.105  0.7021 -0.0669 -0.5692
  241MPD1    C3 3656   0.148   1.456  14.109  0.1306  0.1963  0.5368
  241MPD1    C4 3657   0.135   1.321  14.113  0.3747 -1.0373  0.3431
  241MPD1    C5 3658   0.240   1.238  14.090 -0.2554 -0.1080 -0.6296
  241MPD1     H 3659   0.290   1.612  14.129 -0.0175 -0.2419  0.5057
  241MPD1    H1 3660   0.036   1.277  14.118  0.4111 -1.1001  0.4879
  241MPD1    H2 3661   0.448   1.213  14.052 -0.8642 -1.6829  2.1137
  241MPD1    H3 3662   0.235   1.131  14.077 -2.1842 -0.0931  0.0796
  241MPD1     N 3663   0.028   1.542  14.105 -0.2696 -0.1069 -0.0639
  241MPD1    H5 3664   4.662   1.497  14.121 -1.4491  1.6919 -1.6162
  241MPD1    N1 3665   0.513   1.471  14.073 -0.4558 -0.2548 -0.2060
  241MPD1    H6 3666   0.538   1.535  14.148 -1.7528 -1.6703  1.4124
  241MPD1    H7 3667   0.580   1.394  14.069  0.0366  0.1807 -0.4084
  242MPD1     C 3668   3.829   0.712  15.536 -0.5211 -0.1627  0.0691
  242MPD1    C1 3669   3.959   0.716  15.500  0.4974  0.9010 -0.4450
  242MPD1    C2 3670   4.015   0.619  15.416 -0.6801 -0.1930  0.6346
  242MPD1    C3 3671   3.936   0.509  15.373 -0.1945 -0.2789  0.7094
  242MPD1    C4 3672   3.808   0.505  15.420  0.0232  0.1362  0.6323
  242MPD1    C5 3673   3.748   0.605  15.491 -0.8245  0.4724 -0.4051
  242MPD1     H 3674   4.121   0.623  15.391 -0.1907 -2.9825  2.2958
  242MPD1    H1 3675   3.746   0.426  15.379  1.6082 -1.2554  0.9853
  242MPD1    H2 3676   3.795   0.780  15.613 -1.1484 -0.6194  0.1957
  242MPD1    H3 3677   3.645   0.612  15.523 -0.3209  0.6664  1.1735
  242MPD1     N 3678   3.970   0.402  15.292 -0.0833 -0.7057 -0.1965
  242MPD1    H5 3679   3.904   0.327  15.276 -0.3590 -0.6815  0.7732
  242MPD1    N1 3680   4.046   0.798  15.571  0.2823  0.8118  0.2928
  242MPD1    H6 3681   3.998   0.882  15.603 -0.0209  0.6776  0.1920
  242MPD1    H7 3682   4.139   0.825  15.540  0.3367  1.4879  1.0742
  243MPD1     C 3683   0.376   3.311  16.940 -0.1487  0.0812 -0.0274
  243MPD1    C1 3684   0.383   3.181  16.900 -0.1818 -0.0190  0.6119
  243MPD1    C2 3685   0.464   3.143  16.797  0.1905 -0.1945 -0.0420
  243MPD1    C3 3686   0.520   3.238  16.707 -0.7425 -0.3350 -0.2602
  243MPD1    C4 3687   0.505   3.373  16.744 -0.2777 -0.8956 -0.1377
  243MPD1    C5 3688   0.435   3.405  16.860 -0.2152  0.3221  0.4941
  243MPD1     H 3689   0.484   3.037  16.781 -2.9009 -0.5750 -1.3079
  243MPD1    H1 3690   0.551   3.453  16.688  2.4296  0.8621  4.5736
  243MPD1    H2 3691   0.322   3.344  17.028  2.9315  0.8058  1.5841
  243MPD1    H3 3692   0.426   3.510  16.884 -3.4568  0.4654 -1.3061
  243MPD1     N 3693   0.605   3.191  16.604 -0.6077  0.6072  0.3496
  243MPD1    H5 3694   0.631   3.093  16.602 -2.1336  0.1319  3.2778
  243MPD1    N1 3695   0.329   3.078  16.988 -0.1288 -0.0240 -0.3286
  243MPD1    H6 3696   0.247   3.116  17.035 -0.5254 -0.2312 -0.8500
  243MPD1    H7 3697   0.319   2.987  16.944 -0.4987  1.3821 -3.2105
  244MPD1     C 3698   1.447   2.738  16.533  0.6300  0.2854  0.0576
  244MPD1    C1 3699   1.475   2.859  16.479  0.0262 -0.4350 -0.2396
  244MPD1    C2 3700   1.371   2.948  16.451  0.4258  0.6531 -0.1438
  244MPD1    C3 3701   1.236   2.909  16.448  0.0153  0.7165 -0.3850
  244MPD1    C4 3702   1.215   2.782  16.494  0.8750 -0.4670 -0.3402
  244MPD1    C5 3703   1.318   2.700  16.540  0.1529  0.4598  0.1438
  244MPD1     H 3704   1.393   3.051  16.425 -0.2445  1.0097  0.6959
  244MPD1    H1 3705   1.120   2.731  16.506  1.3582 -0.9479  1.4568
  244MPD1    H2 3706   1.525   2.672  16.570 -0.4382 -1.8636 -1.5258
  244MPD1    H3 3707   1.293   2.603  16.580  0.7708 -0.4308 -1.6103
  244MPD1     N 3708   1.144   3.000  16.401 -0.6292 -0.0189 -0.0543
  244MPD1    H5 3709   1.183   3.087  16.366  0.1231 -0.0548  0.6940
  244MPD1    N1 3710   1.604   2.923  16.494  0.1821  0.1113  0.1668
  244MPD1    H6 3711   1.673   2.850  16.512 -2.3931 -2.4402 -0.4137
  244MPD1    H7 3712   1.637   2.977  16.414  1.6367  1.2294  1.4911
  245MPD1     C 3713   2.992   4.421  12.732  0.3516 -0.3504  1.1174
  245MPD1    C1 3714   2.918   4.531  12.771  0.1863  0.6084  0.4525
  245MPD1    C2 3715   2.989   4.637  12.824 -0.3846 -0.0040 -0.3946
  245MPD1    C3 3716   3.121   4.633  12.844 -0.4698 -0.4177 -0.2143
  245MPD1    C4 3717   3.193   4.526  12.790 -1.1856 -0.4460  0.0901
  245MPD1    C5 3718   3.130   4.428  12.719 -0.5353 -0.4980  0.8198
  245MPD1     H 3719   2.940   0.002  12.862  0.8013  0.0058  1.1311
  245MPD1    H1 3720   3.299   4.504  12.797 -1.2258 -0.8613 -0.5497
  245MPD1    H2 3721   2.944   4.336  12.686  0.0671  0.6624 -0.4806
  245MPD1    H3 3722   3.187   4.339  12.694 -0.3088  0.3431 -1.7231
  245MPD1     N 3723   3.181   0.017  12.921  0.5375  0.4055  0.0060
  245MPD1    H5 3724   3.122   0.092  12.955 -1.3980 -0.2489 -1.9499
  245MPD1    N1 3725   2.773   4.523  12.777 -0.4158  0.0090 -0.0023
  245MPD1    H6 3726   2.724   4.604  12.740 -1.6145 -0.7117 -0.0166
  245MPD1    H7 3727   2.730   4.440  12.737 -1.0071 -1.0308  2.7581
  246MPD1     C 3728   4.506   0.947   8.762 -0.0575  0.7811  0.1178
  246MPD1    C1 3729   4.510   1.062   8.841 -0.5073  0.0409 -0.1119
  246MPD1    C2 3730   4.389   1.117   8.870  0.0024  0.1101  0.3195
  246MPD1    C3 3731   4.265   1.048   8.843  0.0112 -0.2396 -0.6585
  246MPD1    C4 3732   4.268   0.932   8.770  1.0714 -0.5435 -0.0123
  246MPD1    C5 3733   4.389   0.878   8.733  0.0934  0.0909  0.2974
  246MPD1     H 3734   4.386   1.210   8.926 -0.1658  0.5018 -0.3469
  246MPD1    H1 3735   4.178   0.896   8.721 -0.4549  2.0400  0.8703
  246MPD1    H2 3736   4.599   0.924   8.711 -0.0375 -2.0441  1.4529
  246MPD1    H3 3737   4.381   0.798   8.660  0.4769  0.1393  0.1998
  246MPD1     N 3738   4.139   1.099   8.868 -0.0991 -0.4429 -1.1617
  246MPD1    H5 3739   4.058   1.041   8.845 -1.2720  0.4789  0.6735
  246MPD1    N1 3740   4.627   1.138   8.847 -0.5477 -0.6675 -0.1025
  246MPD1    H6 3741   4.713   1.086   8.838 -0.3101 -0.1305 -1.0089
  246MPD1    H7 3742   4.629   1.200   8.928  0.6980 -1.1323  0.2095
  247MPD1     C 3743   2.220   0.549  16.078  0.6856 -0.1269 -0.5018
  247MPD1    C1 3744   2.300   0.488  16.174 -0.5401 -0.0099 -0.2901
  247MPD1    C2 3745   2.277   0.360  16.210 -0.2488  0.0548 -0.4073
  247MPD1    C3 3746   2.198   0.277  16.126 -0.6027  0.6518 -0.0455
  247MPD1    C4 3747   2.124   0.335  16.030  0.2686 -0.1877  0.2174
  247MPD1    C5 3748   2.140   0.466  16.004 -0.2641 -0.4462  0.1717
  247MPD1     H 3749   2.343   0.318  16.285 -0.1211  1.0751  0.0523
  247MPD1    H1 3750   2.062   0.280  15.960  0.4429 -0.1059  0.0002
  247MPD1    H2 3751   2.233   0.652  16.046  0.7432  0.4302  1.2974
  247MPD1    H3 3752   2.089   0.506  15.918 -0.6051 -0.6678  0.2677
  247MPD1     N 3753   2.195   0.137  16.133 -0.1871 -0.2119 -0.1904
  247MPD1    H5 3754   2.157   0.080  16.059  0.9260 -1.7257  0.4099
  247MPD1    N1 3755   2.387   0.565  16.248  0.1568 -0.3824  0.2309
  247MPD1    H6 3756   2.473   0.527  16.286  1.3434 -1.5505 -3.5498
  247MPD1    H7 3757   2.397   0.659  16.210  0.4885 -1.4233 -2.2602
  248MPD1     C 3758   3.849   4.115   0.464  0.2473 -0.1671  0.1639
  248MPD1    C1 3759   3.728   4.068   0.508 -0.1808  0.2185 -0.7995
  248MPD1    C2 3760   3.628   4.027   0.427 -0.0830  0.0117 -0.0193
  248MPD1    C3 3761   3.662   4.004   0.294  0.0019 -0.0802 -0.1855
  248MPD1    C4 3762   3.793   4.038   0.246  0.2550  0.1942 -0.0502
  248MPD1    C5 3763   3.886   4.095   0.332  0.5341 -0.1499 -0.4419
  248MPD1     H 3764   3.530   4.001   0.463  1.0484 -1.4354  1.9882
  248MPD1    H1 3765   3.820   4.023   0.142 -2.6869  1.2837 -0.9892
  248MPD1    H2 3766   3.916   4.168   0.531  0.7758 -1.9187  1.0299
  248MPD1    H3 3767   3.977   4.140   0.294  0.0122 -2.3531 -4.2925
  248MPD1     N 3768   3.555   3.937   0.220 -0.0341 -0.8939  0.3966
  248MPD1    H5 3769   3.479   3.904   0.279 -1.2941  1.0714 -0.1517
  248MPD1    N1 3770   3.694   4.093   0.646  0.6868  0.3446 -0.2688
  248MPD1    H6 3771   3.784   4.103   0.692  0.5642 -1.8545  0.4565
  248MPD1    H7 3772   3.637   4.017   0.684  2.4015 -1.2630 -0.9090
  249MPD1     C 3773   0.428   2.528  10.973 -0.4207 -0.6902 -0.2166
  249MPD1    C1 3774   0.443   2.631  10.889 -0.1966  0.0072 -0.6354
  249MPD1    C2 3775   0.478   2.594  10.758  0.1076  0.1278  0.4442
  249MPD1    C3 3776   0.473   2.461  10.712 -0.0474  0.3265  0.0229
  249MPD1    C4 3777   0.432   2.367  10.801 -0.2325  0.2819 -0.3911
  249MPD1    C5 3778   0.412   2.405  10.938  0.4584  0.1592 -0.5617
  249MPD1     H 3779   0.526   2.664  10.690 -0.7774  0.8095  0.5196
  249MPD1    H1 3780   0.418   2.264  10.771 -0.1195  0.0833  0.2326
  249MPD1    H2 3781   0.412   2.554  11.077  1.4194 -1.1185  0.1645
  249MPD1    H3 3782   0.406   2.321  11.006 -0.2124 -0.1312 -0.9731
  249MPD1     N 3783   0.493   2.437  10.575 -0.4283 -0.1777  0.8761
  249MPD1    H5 3784   0.513   2.515  10.514 -0.0667 -0.1608  1.0127
  249MPD1    N1 3785   0.461   2.766  10.924  0.7198  0.6509  0.8175
  249MPD1    H6 3786   0.444   2.835  10.851  1.2263  0.2124  0.2819
  249MPD1    H7 3787   0.416   2.803  11.008 -0.4197  2.6494 -0.6623
  250MPD2     C 3788   0.886   3.089  12.880 -0.0021  0.5871  0.3403
  250MPD2    C1 3789   0.933   3.058  12.751  0.1867  0.3620  0.7709
  250MPD2    C2 3790   0.876   2.952  12.683 -0.2979 -0.7586  0.3864
  250MPD2    C3 3791   0.775   2.880  12.735 -0.2704  0.3932  0.0931
  250MPD2    C4 3792   0.726   2.912  12.863 -0.4380 -1.1009  0.1716
  250MPD2    C5 3793   0.783   3.011  12.938 -0.4372 -0.9079  0.7200
  250MPD2     H 3794   0.920   2.940  12.585  0.9642  0.2858  0.8370
  250MPD2    H1 3795   0.647   2.850  12.906 -0.2142 -1.1613  0.4901
  250MPD2    H2 3796   0.927   3.174  12.933  0.5657  0.5077  0.0227
  250MPD2    H3 3797   0.754   3.021  13.042  2.3922  1.0065  1.3286
  250MPD2     N 3798   0.719   2.775  12.653 -0.1819 -0.1002 -0.1363
  250MPD2    H5 3799   0.648   2.715  12.694  1.6175 -0.3319  2.6836
  250MPD2    N1 3800   1.020   3.154  12.694  0.7747 -0.2827 -0.2079
  250MPD2    H7 3801   1.035   3.232  12.758  0.5094 -0.8204  0.5100
  251TMC3    C1 3802   1.190   3.243  12.557  0.5698  0.2507  0.3969
  251TMC3    C2 3803   1.163   3.367  12.607 -0.4342 -0.8051 -0.4657
  251TMC3    C3 3804   1.274   3.453  12.608 -0.0374  0.1070 -0.5487
  251TMC3    C4 3805   1.312   3.211  12.504 -0.2543  0.5604 -0.3907
  251TMC3    C5 3806   1.422   3.293  12.529  0.3143  0.5188 -0.0152
  251TMC3    C6 3807   1.404   3.420  12.579  0.1389  0.4635 -0.7643
  251TMC3     C 3808   1.105   3.131  12.585 -0.3179  0.1905 -0.3513
  251TMC3     O 3809   1.135   3.028  12.530 -0.0536 -0.5101  0.3441
  251TMC3     H 3810   1.062   3.405  12.604 -0.5840 -1.2496 -1.0048
  251TMC3    H1 3811   1.335   3.108  12.480  1.9563  1.0009 -0.1729
  251TMC3    H2 3812   1.485   3.492  12.585  2.2174 -1.9968  0.6486
  251TMC3    C7 3813   1.557   3.236  12.515 -0.0219 -0.0946  0.8154
  251TMC3    C8 3814   1.239   3.593  12.638  0.4944  0.4314 -0.0899
  251TMC3    O1 3815   1.561   3.118  12.489  0.0285 -0.1064 -0.1848
  251TMC3    O2 3816   1.124   3.624  12.619  0.1036 -0.5752 -0.3591
  252TMC3    C1 3817   1.998   4.055   8.896  0.2204 -1.0858 -0.0880
  252TMC3    C2 3818   2.101   4.135   8.921 -0.1252 -0.1393  0.0530
  252TMC3    C3 3819   2.206   4.087   8.992  0.0321  0.2851  0.4593
  252TMC3    C4 3820   1.996   3.928   8.945 -0.5119  0.1068  0.1646
  252TMC3    C5 3821   2.103   3.887   9.024 -0.9905  0.3598 -0.4388
  252TMC3    C6 3822   2.211   3.962   9.044 -0.2148 -0.1400 -0.9089
  252TMC3     C 3823   1.889   4.103   8.811 -0.8441  0.1443 -0.5440
  252TMC3     O 3824   1.887   4.224   8.790  0.4523 -0.3371  0.3129
  252TMC3     H 3825   2.106   4.237   8.887  1.2689 -0.5539 -0.9703
  252TMC3    H1 3826   1.928   3.848   8.918 -1.1865  0.5852  0.4500
  252TMC3    H2 3827   2.290   3.925   9.108 -0.3808  1.6644  0.3344
  252TMC3    C7 3828   2.097   3.766   9.109 -0.2011 -0.2211  0.3045
  252TMC3    C8 3829   2.299   4.184   9.051 -0.3165 -0.1465  0.1074
  252TMC3    O1 3830   2.187   3.757   9.191  0.3287  0.4750  0.5018
  252TMC3    O2 3831   2.304   4.294   8.998  0.3610 -0.0464 -1.0288
  253MPD2     C 3832   1.973   2.600  15.097  0.0593  0.3052 -0.3101
  253MPD2    C1 3833   1.838   2.601  15.117  0.2422  0.4795  0.6690
  253MPD2    C2 3834   1.781   2.663  15.224 -0.0202 -0.3015  0.0531
  253MPD2    C3 3835   1.865   2.736  15.305 -0.1987 -0.2664 -0.3698
  253MPD2    C4 3836   1.998   2.751  15.271 -0.0844  0.7439  0.2630
  253MPD2    C5 3837   2.052   2.670  15.177  0.3147  0.3045 -0.3882
  253MPD2     H 3838   1.680   2.630  15.250 -0.7440 -0.0671 -2.4221
  253MPD2    H1 3839   2.061   2.815  15.331 -0.3912  1.8875 -0.6187
  253MPD2    H2 3840   2.020   2.543  15.018  1.4657  1.8282 -0.5858
  253MPD2    H3 3841   2.159   2.663  15.163  0.4329 -1.4003  1.3509
  253MPD2     N 3842   1.828   2.803  15.424  0.3865  1.2700  0.2243
  253MPD2    H5 3843   1.885   2.881  15.458  0.6463  1.5265 -0.7877
  253MPD2    N1 3844   1.755   2.555  15.008  0.8702  0.0083  0.0153
  253MPD2    H7 3845   1.655   2.569  15.024  0.5384  0.5769 -2.6473
  254TMC3    C1 3846   1.691   2.915  15.584  0.4857 -0.4733  0.1214
  254TMC3    C2 3847   1.591   3.003  15.581 -0.3042 -0.1976  0.0815
  254TMC3    C3 3848   1.575   3.088  15.681 -0.3361 -0.0434 -0.1023
  254TMC3    C4 3849   1.793   2.911  15.675  0.0400  0.5639 -0.0336
  254TMC3    C5 3850   1.764   2.989  15.779  0.6955 -0.3020  0.9110
  254TMC3    C6 3851   1.663   3.084  15.787  0.3361  0.0717  0.5765
  254TMC3     C 3852   1.699   2.812  15.483 -0.1880 -0.1203 -0.1932
  254TMC3     O 3853   1.595   2.744  15.463  0.3513 -0.2211  0.5020
  254TMC3     H 3854   1.520   3.002  15.499 -2.3560  3.7122  1.8274
  254TMC3    H1 3855   1.868   2.834  15.680 -3.2423 -2.7102 -1.0595
  254TMC3    H2 3856   1.648   3.134  15.881 -2.1512 -1.1265  0.8296
  254TMC3    C7 3857   1.872   3.014  15.867 -0.7984  0.2399  0.0955
  254TMC3    C8 3858   1.504   3.206  15.660  0.1676 -0.0401 -0.6269
  254TMC3    O1 3859   1.951   2.927  15.899  0.3129  0.4447  0.2235
  254TMC3    O2 3860   1.439   3.219  15.559 -0.3286  0.2257  0.4856
  255MPD2     C 3861   1.171   0.687  10.070 -0.3469 -0.1048 -0.3524
  255MPD2    C1 3862   1.256   0.745   9.982 -0.3578  0.3658  0.5501
  255MPD2    C2 3863   1.366   0.679   9.941 -0.0207  0.0230 -0.4260
  255MPD2    C3 3864   1.385   0.543   9.975 -0.1972  0.5749 -0.2776
  255MPD2    C4 3865   1.291   0.478  10.054 -0.1998 -0.3324 -0.8195
  255MPD2    C5 3866   1.189   0.547  10.105 -0.4596  0.4829 -0.7760
  255MPD2     H 3867   1.442   0.723   9.878 -0.5152  0.6203 -0.6075
  255MPD2    H1 3868   1.294   0.380  10.099 -0.8059 -0.7425 -1.6658
  255MPD2    H2 3869   1.085   0.741  10.107 -1.1409  0.5345 -3.1346
  255MPD2    H3 3870   1.122   0.494  10.171  2.6684  0.1477  2.1502
  255MPD2     N 3871   1.500   0.484   9.920  0.4433 -0.0470 -0.6777
  255MPD2    H5 3872   1.562   0.541   9.863  1.3319  0.3459  0.6852
  255MPD2    N1 3873   1.215   0.868   9.925 -0.0667 -0.0752  0.4676
  255MPD2    H7 3874   1.130   0.904   9.966  0.2925  2.3140 -0.9233
  256TMC3    C1 3875   1.229   1.055   9.780  0.4881 -0.3666 -0.0676
  256TMC3    C2 3876   1.322   1.122   9.699 -0.4034 -0.3256 -0.3014
  256TMC3    C3 3877   1.288   1.156   9.572 -0.5726  0.0616 -0.5305
  256TMC3    C4 3878   1.100   1.034   9.733  0.4643  0.3760  0.1885
  256TMC3    C5 3879   1.068   1.080   9.611 -0.1821 -0.2957  0.5520
  256TMC3    C6 3880   1.159   1.140   9.528  0.1558 -0.4274  0.2783
  256TMC3     C 3881   1.286   0.938   9.826 -0.3116 -0.2960  0.1639
  256TMC3     O 3882   1.365   0.889   9.752  0.3591  0.1738  0.4373
  256TMC3     H 3883   1.425   1.115   9.733 -0.4960  2.1266  0.4423
  256TMC3    H1 3884   1.031   0.967   9.784  0.5182  1.1029  1.2288
  256TMC3    H2 3885   1.133   1.176   9.430  1.1259 -2.8472 -0.8670
  256TMC3    C7 3886   0.958   1.015   9.548  0.6910  0.2258 -0.7012
  256TMC3    C8 3887   1.393   1.220   9.494 -0.7078 -0.2062 -0.7153
  256TMC3    O1 3888   0.982   0.979   9.433 -0.2332 -0.0549 -0.5433
  256TMC3    O2 3889   1.478   1.267   9.570 -0.4816 -0.5518 -0.7144
  257MPD2     C 3890   4.681   3.049  13.251 -0.4031 -0.3761  0.5505
  257MPD2    C1 3891   4.671   2.945  13.165  0.0358 -0.1848  0.1215
  257MPD2    C2 3892   4.663   2.813  13.216  0.4269  0.1513  0.4617
  257MPD2    C3 3893   4.653   2.796  13.353  0.5354  0.1073  0.0971
  257MPD2    C4 3894   4.657   2.913  13.437 -0.0451  0.3052  0.6435
  257MPD2    C5 3895   4.667   3.035  13.386  0.2737  0.6680 -1.0249
  257MPD2     H 3896   4.641   2.725  13.156  1.7759 -1.3677  2.1641
  257MPD2    H1 3897   4.653   2.915  13.545  1.6350  2.1085  0.6805
  257MPD2    H2 3898   4.692   3.154  13.225  2.9921 -0.4676  1.6223
  257MPD2    H3 3899   4.677   3.117  13.455  1.8891 -0.7048  0.3572
  257MPD2     N 3900   4.643   2.664  13.405  0.0642  0.0190 -0.3443
  257MPD2    H5 3901   4.657   2.586  13.342 -1.9286  0.7304 -1.6696
  257MPD2    N1 3902   4.684   2.971  13.027  0.2809 -0.6950  0.2462
  257MPD2    H7 3903   4.697   3.067  12.997 -1.4952  0.2731  2.6342
  258TMC3    C1 3904   4.641   2.479  13.555 -0.3975  0.3333  0.2096
  258TMC3    C2 3905   4.654   2.387  13.449  0.1632  0.6954 -0.6737
  258TMC3    C3 3906   4.647   2.250  13.469 -0.7086 -0.0297  0.5912
  258TMC3    C4 3907   4.617   2.431  13.680 -1.3113 -0.7849  0.2437
  258TMC3    C5 3908   4.609   2.291  13.691  0.6649 -0.0686 -1.4463
  258TMC3    C6 3909   4.633   2.199  13.593 -0.2606  0.4316 -0.6356
  258TMC3     C 3910   4.632   2.629  13.539  0.6183 -0.1890  0.5962
  258TMC3     O 3911   4.628   2.691  13.644 -0.5875  0.8755 -0.0794
  258TMC3     H 3912   4.653   2.427  13.348  3.1274  1.2458 -0.4850
  258TMC3    H1 3913   4.586   2.493  13.762 -0.9943 -1.5429  0.9338
  258TMC3    H2 3914   4.621   2.093  13.612 -0.8052  0.6626  0.3248
  258TMC3    C7 3915   4.594   2.241  13.822 -0.7354  0.4322 -0.0593
  258TMC3    C8 3916   4.648   2.153  13.364  0.9503 -0.2238  0.4408
  258TMC3    O1 3917   4.528   2.302  13.903 -0.0779 -0.1874 -0.5606
  258TMC3    O2 3918   4.674   2.040  13.400 -0.2337 -0.7879  0.3623
  259MPD2     C 3919   3.971   3.766   0.776  0.0242  0.2949  0.1046
  259MPD2    C1 3920   4.027   3.641   0.805  0.1302  0.4543 -0.2422
  259MPD2    C2 3921   4.128   3.593   0.729 -0.9290 -0.6617  0.3870
  259MPD2    C3 3922   4.164   3.658   0.618 -0.1756 -0.6629  0.5651
  259MPD2    C4 3923   4.107   3.783   0.590 -0.1007 -0.0985 -0.5000
  259MPD2    C5 3924   4.013   3.838   0.667  0.4855  0.1872 -0.2430
  259MPD2     H 3925   4.183   3.505   0.759 -3.0698 -0.1582  5.8584
  259MPD2    H1 3926   4.137   3.831   0.497 -0.6282 -1.1057 -1.2023
  259MPD2    H2 3927   3.890   3.807   0.836  1.0767  0.6811  1.2719
  259MPD2    H3 3928   3.957   3.927   0.642 -1.7496 -1.1238  0.0549
  259MPD2     N 3929   4.265   3.594   0.547 -0.5055  0.8887 -0.1723
  259MPD2    H5 3930   4.294   3.505   0.586 -0.0424  0.8717 -0.5475
  259MPD2    N1 3931   3.987   3.577   0.921  0.2958  0.1486 -0.2174
  259MPD2    H7 3932   3.929   3.632   0.984  1.7230  1.2282  0.1696
  260TMC3    C1 3933   4.411   3.555   0.358  0.6408 -0.4088 -0.6395
  260TMC3    C2 3934   4.533   3.549   0.420  0.1403 -0.3370  0.0111
  260TMC3    C3 3935   4.636   3.495   0.344  0.5280 -0.8919  0.4033
  260TMC3    C4 3936   4.380   3.497   0.239 -0.1031 -0.2800 -0.1107
  260TMC3    C5 3937   4.484   3.437   0.173  0.4877 -0.1169  0.0890
  260TMC3    C6 3938   4.611   3.436   0.230  0.0020 -1.0180 -0.5020
  260TMC3     C 3939   4.314   3.642   0.425 -0.2137  0.5196  0.0741
  260TMC3     O 3940   4.276   3.735   0.355  0.0530 -0.1700 -0.1800
  260TMC3     H 3941   4.552   3.598   0.515  1.9422  0.9765 -1.0290
  260TMC3    H1 3942   4.280   3.504   0.198 -1.0437  0.2287  2.2904
  260TMC3    H2 3943   4.695   3.398   0.173  0.4257  0.7222 -1.0275
  260TMC3    C7 3944   4.462   3.355   0.061 -0.6695  0.3852  0.5261
  260TMC3    C8 3945   0.050   3.497   0.391 -1.4046 -0.8045  0.7724
  260TMC3    O1 3946   4.540   3.369  17.665 -0.3311 -0.0752 -0.1516
  260TMC3    O2 3947   0.138   3.473   0.310  0.5239 -0.1282  0.2525
  261MPD2     C 3948   0.394   2.965  12.083  0.7820 -0.1374  0.2734
  261MPD2    C1 3949   0.499   2.897  12.027  0.4268  0.2307 -0.0380
  261MPD2    C2 3950   0.582   2.959  11.939 -0.1228  0.8237 -0.2082
  261MPD2    C3 3951   0.561   3.088  11.904 -0.1465 -0.0441 -0.2698
  261MPD2    C4 3952   0.453   3.156  11.955 -0.7842  0.3002  0.2926
  261MPD2    C5 3953   0.366   3.093  12.040 -0.9247  0.1365  0.1199
  261MPD2     H 3954   0.670   2.912  11.896 -1.1366 -2.0021  0.8319
  261MPD2    H1 3955   0.430   3.257  11.923  0.5371  0.3083 -0.6082
  261MPD2    H2 3956   0.321   2.928  12.154  0.7337 -0.0617  0.2633
  261MPD2    H3 3957   0.275   3.140  12.076  0.2723  1.7113  1.0574
  261MPD2     N 3958   0.658   3.154  11.822  0.1107 -0.3543 -0.1434
  261MPD2    H5 3959   0.739   3.100  11.795  1.2671  0.6123  1.4134
  261MPD2    N1 3960   0.531   2.771  12.076 -0.3571  0.0457 -0.1494
  261MPD2    H7 3961   0.630   2.748  12.073 -0.6212 -1.0122 -0.9551
  262TMC3    C1 3962   0.761   3.313  11.686 -0.3923  0.4772  0.0483
  262TMC3    C2 3963   0.775   3.450  11.670 -0.1172 -0.3441  0.3179
  262TMC3    C3 3964   0.816   3.502  11.552 -0.2973 -0.4728  0.2397
  262TMC3    C4 3965   0.793   3.229  11.585 -0.5329 -0.0559  0.3960
  262TMC3    C5 3966   0.849   3.286  11.471  0.3772  0.6132  0.7886
  262TMC3    C6 3967   0.857   3.423  11.448 -0.5154  0.5059 -0.1063
  262TMC3     C 3968   0.655   3.285  11.779 -0.0995  0.0311 -0.5968
  262TMC3     O 3969   0.578   3.378  11.797  0.0563  0.1800 -0.1414
  262TMC3     H 3970   0.761   3.518  11.753  0.9847 -1.3261  1.3130
  262TMC3    H1 3971   0.756   3.127  11.592  1.2659 -0.7399 -0.0802
  262TMC3    H2 3972   0.862   3.468  11.349  0.9703  0.3977 -0.0858
  262TMC3    C7 3973   0.848   3.206  11.350  0.0813 -0.2598 -0.8900
  262TMC3    C8 3974   0.820   3.642  11.533 -0.4709 -0.2435 -0.1231
  262TMC3    O1 3975   0.809   3.092  11.371 -0.3287 -0.0014  0.3387
  262TMC3    O2 3976   0.906   3.682  11.455 -0.3154  1.0481 -0.2154
  263MPD2     C 3977   1.463   1.846  10.770 -0.1522  0.5181  0.0486
  263MPD2    C1 3978   1.512   1.965  10.803 -0.6478 -0.4687  0.1458
  263MPD2    C2 3979   1.583   2.035  10.701  0.7374  0.2346  0.4320
  263MPD2    C3 3980   1.603   1.985  10.576 -0.1350 -0.0843  0.6362
  263MPD2    C4 3981   1.538   1.865  10.541  0.6372 -0.2293 -0.0676
  263MPD2    C5 3982   1.479   1.795  10.646  0.1050  0.2871  0.2505
  263MPD2     H 3983   1.623   2.133  10.724  0.8400 -0.2726  2.4092
  263MPD2    H1 3984   1.552   1.811  10.447 -0.1241  0.8643 -0.8061
  263MPD2    H2 3985   1.421   1.789  10.852  0.7711 -0.2200  0.0090
  263MPD2    H3 3986   1.440   1.696  10.627 -0.5496  0.6426 -0.2417
  263MPD2     N 3987   1.674   2.060  10.481 -0.2520 -0.0067  0.0871
  263MPD2    H5 3988   1.724   2.142  10.514  1.7199 -0.5923 -1.4801
  263MPD2    N1 3989   1.527   2.009  10.938  0.0484  0.1509 -0.1470
  263MPD2    H7 3990   1.493   1.949  11.012 -0.1137 -0.6320 -0.8637
  264TMC3    C1 3991   1.767   2.124  10.276  0.1678  0.0394 -0.0829
  264TMC3    C2 3992   1.714   2.250  10.301  0.1037 -0.5352 -0.5534
  264TMC3    C3 3993   1.754   2.355  10.227 -1.2919  0.0986 -0.2010
  264TMC3    C4 3994   1.849   2.098  10.174  0.2908  0.1166  0.3032
  264TMC3    C5 3995   1.877   2.205  10.098 -0.4143 -0.1724  0.6177
  264TMC3    C6 3996   1.849   2.333  10.133 -0.0792  0.2584  0.0584
  264TMC3     C 3997   1.725   2.016  10.359 -0.0629 -0.3491  0.5409
  264TMC3     O 3998   1.732   1.901  10.320 -0.1766 -0.2147 -0.2279
  264TMC3     H 3999   1.643   2.277  10.378  0.6901  1.5047 -0.7346
  264TMC3    H1 4000   1.884   2.000  10.142  1.9755  1.0598 -0.7409
  264TMC3    H2 4001   1.884   2.415  10.072  2.4913 -1.6118 -1.0069
  264TMC3    C7 4002   1.997   2.193  10.013 -0.8019 -0.8798 -0.4354
  264TMC3    C8 4003   1.746   2.494  10.274 -0.7024  0.4423  0.0314
  264TMC3    O1 4004   2.091   2.125  10.055 -0.1141  0.2749  0.0442
  264TMC3    O2 4005   1.833   2.565  10.232  0.0753 -0.5169  0.7094
  265MPD2     C 4006   3.332   2.518  15.333  0.1412  0.3603  0.0452
  265MPD2    C1 4007   3.431   2.602  15.279 -0.0921 -0.5026 -0.2081
  265MPD2    C2 4008   3.508   2.549  15.173 -0.1217  0.6915  0.4357
  265MPD2    C3 4009   3.500   2.417  15.138  0.6976  0.6118 -0.2233
  265MPD2    C4 4010   3.419   2.328  15.207  0.2181 -0.5862  0.1826
  265MPD2    C5 4011   3.332   2.391  15.292 -0.0632 -0.1377 -0.1264
  265MPD2     H 4012   3.578   2.612  15.119  0.4157  0.6489  1.0810
  265MPD2    H1 4013   3.409   2.221  15.189  0.5094 -0.3537 -1.3802
  265MPD2    H2 4014   3.262   2.560  15.405  1.5874  2.4867  0.2206
  265MPD2    H3 4015   3.255   2.323  15.327  0.0414  0.4309  1.2036
  265MPD2     N 4016   3.576   2.356  15.040  0.7355 -0.1317 -0.4675
  265MPD2    H5 4017   3.568   2.255  15.036  2.0429 -0.1987 -1.5073
  265MPD2    N1 4018   3.430   2.734  15.325 -0.3289 -0.1416 -0.1075
  265MPD2    H7 4019   3.378   2.737  15.412 -1.3729  1.1859 -0.7842
  266TMC3    C1 4020   3.467   2.966  15.342  0.2148 -0.2684  0.7566
  266TMC3    C2 4021   3.492   2.959  15.479  0.1298  0.6038  0.1294
  266TMC3    C3 4022   3.530   3.073  15.545  0.1673 -0.0104  0.3816
  266TMC3    C4 4023   3.483   3.078  15.267  0.3952  0.1723 -0.2372
  266TMC3    C5 4024   3.518   3.190  15.331  0.6313 -0.4221  0.1445
  266TMC3    C6 4025   3.542   3.190  15.469 -0.0835  0.0064  0.5213
  266TMC3     C 4026   3.474   2.844  15.263 -0.3136 -0.1137 -0.2609
  266TMC3     O 4027   3.506   2.847  15.146 -0.0791 -0.8350  0.5782
  266TMC3     H 4028   3.492   2.865  15.533 -0.0466  1.5461  1.7560
  266TMC3    H1 4029   3.481   3.074  15.159  0.7431 -2.4114 -0.1539
  266TMC3    H2 4030   3.590   3.273  15.521  0.1192  0.4727 -0.3847
  266TMC3    C7 4031   3.544   3.312  15.256 -0.0992 -0.6583 -0.3697
  266TMC3    C8 4032   3.635   3.046  15.646  0.5183 -0.2308 -0.2888
  266TMC3    O1 4033   3.506   3.298  15.140  0.3451  0.3946 -0.4203
  266TMC3    O2 4034   3.684   2.933  15.660  0.2567  0.2373 -0.4938
  267MPD2     C 4035   1.646   3.802  17.243  0.9491 -0.4416  0.3564
  267MPD2    C1 4036   1.697   3.928  17.259 -0.0573  0.1270  0.4461
  267MPD2    C2 4037   1.615   4.041  17.235  0.0416 -0.5454 -0.1351
  267MPD2    C3 4038   1.489   4.023  17.177  0.5291 -0.1748  0.3044
  267MPD2    C4 4039   1.440   3.895  17.152  0.1819  0.5987  0.0484
  267MPD2    C5 4040   1.518   3.785  17.185  0.3974  0.2234 -0.9105
  267MPD2     H 4041   1.655   4.141  17.249  0.0396 -0.8987  2.3848
  267MPD2    H1 4042   1.355   3.870  17.090  0.3452  1.1025 -0.3745
  267MPD2    H2 4043   1.700   3.712  17.271 -0.2209 -0.4243  2.7185
  267MPD2    H3 4044   1.482   3.684  17.170  0.1765  0.1347  0.2362
  267MPD2     N 4045   1.409   4.131  17.129  0.4144 -0.2418  0.1485
  267MPD2    H5 4046   1.324   4.100  17.083  0.3200  0.2884 -0.0257
  267MPD2    N1 4047   1.830   3.940  17.318 -0.6394  0.1795 -0.0054
  267MPD2    H7 4048   1.880   3.855  17.341  2.2380  1.8448 -0.0824
  268TMC3    C1 4049   2.004   4.033  17.453  0.0064  0.0582 -0.1228
  268TMC3    C2 4050   2.089   4.140  17.443 -0.1077  0.5268  0.1404
  268TMC3    C3 4051   2.193   4.137  17.524  0.5874  0.7768 -0.7198
  268TMC3    C4 4052   2.016   3.933  17.543 -0.0442  0.2708 -0.1962
  268TMC3    C5 4053   2.129   3.926  17.615 -0.4694 -0.5596 -0.6433
  268TMC3    C6 4054   2.224   4.029  17.604 -0.1745  0.0028 -0.1625
  268TMC3     C 4055   1.883   4.056  17.370  0.3487  0.2135  0.4117
  268TMC3     O 4056   1.842   4.173  17.354  0.2575  0.1937 -0.4931
  268TMC3     H 4057   2.064   4.220  17.373  0.0774  1.5119  1.2014
  268TMC3    H1 4058   1.948   3.849  17.543 -0.1824  0.3841 -0.8725
  268TMC3    H2 4059   2.319   4.033  17.656  0.6434 -0.6492 -1.5843
  268TMC3    C7 4060   2.137   3.830   0.025 -0.9111 -0.4463 -0.1004
  268TMC3    C8 4061   2.261   4.264  17.554 -0.1268 -0.5743 -0.1240
  268TMC3    O1 4062   2.030   3.789   0.073 -0.0203 -0.2241 -0.4068
  268TMC3    O2 4063   2.371   4.273  17.604  0.0957  0.5695  0.3365
  269MPD2     C 4064   1.411   3.357  15.283 -0.4181  0.3576  0.3308
  269MPD2    C1 4065   1.282   3.391  15.318  0.4257  0.0351  0.7986
  269MPD2    C2 4066   1.224   3.508  15.269 -0.8251 -0.2912  0.1206
  269MPD2    C3 4067   1.305   3.581  15.181 -0.1278  0.4668  0.4504
  269MPD2    C4 4068   1.435   3.544  15.146 -0.0830 -0.6363 -0.1302
  269MPD2    C5 4069   1.486   3.426  15.196 -0.9716  0.0549 -0.0649
  269MPD2     H 4070   1.128   3.543  15.304 -0.1065  2.9628 -1.1942
  269MPD2    H1 4071   1.485   3.605  15.071 -1.2866  0.0333 -0.3918
  269MPD2    H2 4072   1.460   3.270  15.324 -0.2501  0.9551  1.4093
  269MPD2    H3 4073   1.579   3.382  15.162 -0.3637 -0.5965  2.4779
  269MPD2     N 4074   1.251   3.696  15.126  0.0548 -0.0194 -0.2497
  269MPD2    H5 4075   1.157   3.722  15.153  0.3715 -1.7042  2.4379
  269MPD2    N1 4076   1.211   3.310  15.410  0.5353 -0.4479 -0.2526
  269MPD2    H7 4077   1.265   3.235  15.452  0.7764  0.6627  1.4067
  270TMC3    C1 4078   1.027   3.216  15.534 -0.8895  0.4923  0.1783
  270TMC3    C2 4079   0.894   3.190  15.524 -0.2172  0.1925  0.0471
  270TMC3    C3 4080   0.853   3.056  15.523 -0.4248 -0.1270 -0.5258
  270TMC3    C4 4081   1.113   3.114  15.564 -0.1561  0.4484  0.4625
  270TMC3    C5 4082   1.067   2.987  15.576  0.0326 -0.3725 -0.3213
  270TMC3    C6 4083   0.940   2.951  15.543  0.3707 -0.1097  1.0071
  270TMC3     C 4084   1.071   3.323  15.439  0.3192  0.1786 -0.2616
  270TMC3     O 4085   0.983   3.403  15.402 -0.2165  0.0336 -0.1570
  270TMC3     H 4086   0.830   3.271  15.492 -1.7207 -1.0499 -0.1382
  270TMC3    H1 4087   1.220   3.121  15.581  0.1960 -1.4662 -1.0195
  270TMC3    H2 4088   0.902   2.850  15.555 -1.9636  0.4394 -1.9794
  270TMC3    C7 4089   1.167   2.882  15.616  0.4621  0.3357 -0.3867
  270TMC3    C8 4090   0.747   3.031  15.438  0.3168  0.0458 -0.4367
  270TMC3    O1 4091   1.282   2.912  15.602  0.2469 -0.3762  0.1302
  270TMC3    O2 4092   0.658   3.113  15.433 -0.0505  0.3285 -0.4994
  271MPD2     C 4093   0.315   3.030  13.745  0.4729  0.2040 -0.0751
  271MPD2    C1 4094   0.254   2.957  13.858  0.8728  0.0626  0.0087
  271MPD2    C2 4095   0.128   2.983  13.902  0.4347 -0.9045 -0.1750
  271MPD2    C3 4096   0.049   3.066  13.822 -0.0004 -0.6457 -0.6069
  271MPD2    C4 4097   0.097   3.123  13.709 -0.0759 -0.3381 -0.1399
  271MPD2    C5 4098   0.230   3.115  13.678 -0.2130 -0.7988 -0.7237
  271MPD2     H 4099   0.078   2.934  13.984  1.0660 -0.5184  0.4401
  271MPD2    H1 4100   0.030   3.194  13.662 -0.1890 -0.3881 -0.0541
  271MPD2    H2 4101   0.419   3.031  13.713  0.3221 -0.6276 -0.5707
  271MPD2    H3 4102   0.262   3.164  13.586 -0.1546 -0.5432 -0.5662
  271MPD2     N 4103   4.649   3.113  13.870  0.0080  0.0578 -0.1391
  271MPD2    H5 4104   4.605   3.184  13.812 -0.6029  0.5459  0.9299
  271MPD2    N1 4105   0.321   2.869  13.934 -0.4860 -0.5457 -0.3258
  271MPD2    H7 4106   0.256   2.824  13.997  0.5673  0.6692  1.6360
  272TMC3    C1 4107   0.485   2.708  13.985 -0.2099 -0.1658  0.7809
  272TMC3    C2 4108   0.545   2.604  13.920  0.5614  0.8001  0.1238
  272TMC3    C3 4109   0.583   2.497  13.993  0.4217 -0.1649  0.1026
  272TMC3    C4 4110   0.455   2.707  14.119 -0.3441  0.0823  0.1955
  272TMC3    C5 4111   0.492   2.594  14.185  0.0364 -0.1739  0.2281
  272TMC3    C6 4112   0.558   2.493  14.127 -0.4833 -0.3222 -0.7018
  272TMC3     C 4113   0.439   2.814  13.896  0.9771 -0.1845 -0.1701
  272TMC3     O 4114   0.519   2.837  13.804 -0.5310  0.0807 -0.0357
  272TMC3     H 4115   0.580   2.617  13.818 -0.8663  0.1888 -0.4428
  272TMC3    H1 4116   0.414   2.793  14.172  0.6718 -0.5363  2.0061
  272TMC3    H2 4117   0.575   2.401  14.181  0.7236  1.6329  2.2453
  272TMC3    C7 4118   0.469   2.580  14.324  0.3428 -0.5149 -0.0097
  272TMC3    C8 4119   0.695   2.421  13.939 -0.5886 -0.5253  0.1350
  272TMC3    O1 4120   0.434   2.466  14.366  0.2077  0.4919 -0.2550
  272TMC3    O2 4121   0.680   2.395  13.821 -0.4502 -0.1017  0.2403
  273MPD2     C 4122   2.888   1.077  11.491 -0.4481  0.0431 -0.7411
  273MPD2    C1 4123   2.802   1.179  11.536 -0.3469 -0.0617  0.4069
  273MPD2    C2 4124   2.703   1.233  11.454 -0.9461  0.0950 -0.0706
  273MPD2    C3 4125   2.683   1.175  11.330  0.2883  0.1888 -0.0289
  273MPD2    C4 4126   2.767   1.072  11.289 -0.0361  0.1799  0.3724
  273MPD2    C5 4127   2.869   1.022  11.365 -0.1059 -0.6865 -0.4441
  273MPD2     H 4128   2.636   1.311  11.490  0.1567  0.1646  1.8379
  273MPD2    H1 4129   2.752   1.017  11.196 -2.4229 -0.1198  0.9397
  273MPD2    H2 4130   2.963   1.034  11.556 -0.3537  0.7382 -0.3889
  273MPD2    H3 4131   2.930   0.943  11.324 -0.5306 -0.8155 -0.8324
  273MPD2     N 4132   2.586   1.233  11.243  0.2222 -0.0090  0.2658
  273MPD2    H5 4133   2.582   1.201  11.147 -0.4755  0.1182  0.2561
  273MPD2    N1 4134   2.849   1.234  11.662  0.0505  0.1880  0.2451
  273MPD2    H7 4135   2.933   1.195  11.704  0.8774  0.3721 -1.2522
  274TMC3    C1 4136   2.455   1.396  11.141  0.3575 -0.6871  0.2929
  274TMC3    C2 4137   2.440   1.304  11.033 -0.2995 -0.3070  0.2894
  274TMC3    C3 4138   2.429   1.359  10.912 -0.3630 -0.4871 -0.1192
  274TMC3    C4 4139   2.451   1.532  11.127  0.0365 -0.1375 -0.6968
  274TMC3    C5 4140   2.440   1.579  11.000 -0.2862  0.2744  0.1139
  274TMC3    C6 4141   2.433   1.492  10.891  0.7258 -0.1137  0.5167
  274TMC3     C 4142   2.508   1.348  11.265 -0.6241  0.1018 -0.0157
  274TMC3     O 4143   2.489   1.418  11.361  0.2804  0.6564 -0.8326
  274TMC3     H 4144   2.433   1.196  11.034  1.1284 -0.3932  0.4716
  274TMC3    H1 4145   2.458   1.600  11.211  1.5519 -0.1822 -0.7836
  274TMC3    H2 4146   2.393   1.529  10.797  0.8620 -0.9752  0.1222
  274TMC3    C7 4147   2.346   1.688  10.993  0.1939 -0.1402 -0.0495
  274TMC3    C8 4148   2.376   1.272  10.807  0.1047 -1.0073 -0.1232
  274TMC3    O1 4149   2.235   1.667  11.037  0.1825 -0.5268 -0.0243
  274TMC3    O2 4150   2.309   1.173  10.837 -0.5985  0.0459  0.0882
  275MPD2     C 4151   2.064   3.657  14.224  0.4157  0.1138  0.2805
  275MPD2    C1 4152   2.011   3.594  14.332  0.3302  0.5137  0.7202
  275MPD2    C2 4153   1.884   3.531  14.320  0.5190  0.0821  0.5888
  275MPD2    C3 4154   1.803   3.557  14.207  0.2272  0.3616 -0.0816
  275MPD2    C4 4155   1.851   3.639  14.103  0.7033 -1.1485 -0.3427
  275MPD2    C5 4156   1.980   3.677  14.113  0.8726  0.3385 -0.4147
  275MPD2     H 4157   1.842   3.482  14.407  0.7644  0.0824  0.7075
  275MPD2    H1 4158   1.799   3.664  14.011  0.6117  0.8306  0.2528
  275MPD2    H2 4159   2.163   3.701  14.219  0.0801  0.8336 -0.1088
  275MPD2    H3 4160   2.021   3.746  14.040  2.4227 -0.2855 -0.1522
  275MPD2     N 4161   1.675   3.509  14.200  0.2984  0.0947 -0.3503
  275MPD2    H5 4162   1.621   3.537  14.118  1.7060  1.4724 -0.8124
  275MPD2    N1 4163   2.081   3.576  14.449 -0.3284 -0.1943 -0.1735
  275MPD2    H7 4164   2.048   3.511  14.520 -2.1734  1.2905  0.3594
  276TMC3    C1 4165   2.248   3.585  14.607  0.4741 -0.4697 -0.4405
  276TMC3    C2 4166   2.219   3.454  14.649 -0.4193 -0.3356  0.3202
  276TMC3    C3 4167   2.253   3.415  14.773 -0.0719  0.4126  0.0145
  276TMC3    C4 4168   2.312   3.678  14.682 -0.4485  0.2222 -0.1568
  276TMC3    C5 4169   2.352   3.629  14.809  0.0225 -0.4937  0.2889
  276TMC3    C6 4170   2.315   3.507  14.857  0.7403  0.0400 -0.4594
  276TMC3     C 4171   2.194   3.641  14.484  0.2262 -0.3237 -0.0878
  276TMC3     O 4172   2.248   3.738  14.439  0.1660 -0.1207 -0.4459
  276TMC3     H 4173   2.173   3.379  14.586 -0.5900  1.8617 -2.1742
  276TMC3    H1 4174   2.341   3.770  14.633  1.9590 -0.4450  0.0128
  276TMC3    H2 4175   2.343   3.480  14.958 -0.9073 -2.3207 -0.6318
  276TMC3    C7 4176   2.430   3.713  14.904 -0.8160  0.4840  0.6773
  276TMC3    C8 4177   2.245   3.285  14.832 -0.3386 -0.0445 -0.7094
  276TMC3    O1 4178   2.425   3.834  14.883 -0.5620  0.6569 -0.2398
  276TMC3    O2 4179   2.295   3.266  14.943  0.1516 -0.5135 -0.6493
  277MPD2     C 4180   3.883   2.753  13.376  0.1435  0.6649  0.1417
  277MPD2    C1 4181   3.755   2.803  13.402  0.2853  0.4316 -0.5479
  277MPD2    C2 4182   3.685   2.750  13.510 -0.5980  0.1939  0.3902
  277MPD2    C3 4183   3.738   2.651  13.588 -0.0030  0.8903 -0.7200
  277MPD2    C4 4184   3.870   2.608  13.569 -0.1600  0.0107 -0.1865
  277MPD2    C5 4185   3.938   2.662  13.460  0.0055  0.4387  0.3319
  277MPD2     H 4186   3.578   2.763  13.522 -0.4475  2.4252 -0.7271
  277MPD2    H1 4187   3.915   2.534  13.634 -1.4470 -2.7086 -2.3818
  277MPD2    H2 4188   3.938   2.798  13.295 -0.9230 -2.6650 -2.4232
  277MPD2    H3 4189   4.039   2.623  13.445  0.6538  2.2343  0.0875
  277MPD2     N 4190   3.653   2.580  13.669  0.0032  0.0798 -0.5056
  277MPD2    H5 4191   3.552   2.591  13.663 -0.0773  0.1232  0.8967
  277MPD2    N1 4192   3.695   2.885  13.301  0.0814 -0.0730 -0.6273
  277MPD2    H7 4193   3.757   2.925  13.232  0.6196 -1.4746 -0.9567
  278TMC3    C1 4194   3.572   2.390  13.802  0.2220  0.1600  0.1467
  278TMC3    C2 4195   3.575   2.256  13.820  0.3790  0.3664 -0.0668
  278TMC3    C3 4196   3.454   2.188  13.833  1.2497  0.4931  0.0722
  278TMC3    C4 4197   3.449   2.461  13.823  0.1154  0.1702 -0.8159
  278TMC3    C5 4198   3.331   2.392  13.838  0.3878  1.1220 -0.1451
  278TMC3    C6 4199   3.333   2.254  13.835 -0.4408  0.3765 -0.2365
  278TMC3     C 4200   3.687   2.467  13.747 -0.2520  0.4598  1.1078
  278TMC3     O 4201   3.792   2.401  13.749  0.4612 -0.0321 -0.4499
  278TMC3     H 4202   3.661   2.200  13.787  1.7863  1.1822  2.2547
  278TMC3    H1 4203   3.457   2.569  13.834 -0.3416 -0.0498  1.6485
  278TMC3    H2 4204   3.249   2.191  13.862  0.7760 -1.1662 -0.0451
  278TMC3    C7 4205   3.218   2.467  13.888  0.0448 -0.0121  0.0490
  278TMC3    C8 4206   3.466   2.056  13.779  0.7438 -0.9096 -0.0351
  278TMC3    O1 4207   3.233   2.584  13.918 -0.0679  0.1838  0.4062
  278TMC3    O2 4208   3.556   1.983  13.819  0.0042  0.3989 -0.0357
  279MPD2     C 4209   3.329   2.411  17.632  0.3293  0.1150  0.6358
  279MPD2    C1 4210   3.221   2.408  17.549  0.2689  0.8070 -0.1412
  279MPD2    C2 4211   3.234   2.453  17.415 -0.0382 -0.1493  0.0128
  279MPD2    C3 4212   3.354   2.510  17.371 -0.0595  0.9466 -0.3813
  279MPD2    C4 4213   3.461   2.516  17.462 -0.0763  1.2685 -0.4931
  279MPD2    C5 4214   3.451   2.462  17.587 -0.2137  1.0269 -0.6068
  279MPD2     H 4215   3.153   2.435  17.346 -1.4066  0.1531  1.5379
  279MPD2    H1 4216   3.558   2.549  17.427  0.1903  0.0786 -0.8917
  279MPD2    H2 4217   3.321   2.377   0.037  0.7741  0.2500  0.7179
  279MPD2    H3 4218   3.533   2.464  17.658 -0.2854 -1.5445 -0.4310
  279MPD2     N 4219   3.375   2.560  17.245  0.4408 -0.5790  0.2142
  279MPD2    H5 4220   3.466   2.601  17.228  0.9257 -0.8946  2.0824
  279MPD2    N1 4221   3.107   2.346  17.606  1.0252 -0.0482 -0.1769
  279MPD2    H7 4222   3.117   2.301  17.697  1.8162  0.8252  0.1713
  280TMC3    C1 4223   2.881   2.372  17.659 -0.0281  0.0216  0.4651
  280TMC3    C2 4224   2.749   2.373  17.610 -0.1630  0.0330 -0.2350
  280TMC3    C3 4225   2.669   2.474  17.643 -0.3570 -1.9472 -0.0378
  280TMC3    C4 4226   2.926   2.476   0.037  0.0286 -0.1064 -0.4626
  280TMC3    C5 4227   2.836   2.588   0.059 -0.5062 -0.5462 -0.1610
  280TMC3    C6 4228   2.709   2.586   0.016 -0.6342  0.5535 -0.7007
  280TMC3     C 4229   2.982   2.343  17.556  0.4665  0.0746  0.0172
  280TMC3     O 4230   2.945   2.359  17.442 -0.5899 -0.0490  0.1723
  280TMC3     H 4231   2.722   2.287  17.551 -0.3680 -0.7889  1.0703
  280TMC3    H1 4232   3.023   2.474   0.084  0.9942  0.7363 -2.4124
  280TMC3    H2 4233   2.636   2.652   0.062  1.5511  2.2202  0.3915
  280TMC3    C7 4234   2.907   2.713   0.057  0.1436 -1.1379  0.2819
  280TMC3    C8 4235   2.529   2.447  17.641  0.1002 -0.6871 -0.9334
  280TMC3    O1 4236   3.024   2.714   0.093 -0.1863  0.0445  0.2130
  280TMC3    O2 4237   2.463   2.509   0.023  0.3668 -0.6561  0.3430
  281TMC3    C1 4238   1.762   2.752  13.183  0.8354 -0.4606  0.0088
  281TMC3    C2 4239   1.777   2.840  13.082 -0.8523 -0.0224 -0.3459
  281TMC3    C3 4240   1.800   2.798  12.954 -0.4133 -0.8654 -0.1197
  281TMC3    C4 4241   1.781   2.618  13.155 -0.1308 -0.4147 -0.1997
  281TMC3    C5 4242   1.808   2.577  13.024 -0.5895 -0.2444  0.1258
  281TMC3    C6 4243   1.818   2.668  12.919 -0.4336  0.0801 -0.1439
  281TMC3     C 4244   1.740   2.791  13.319 -0.6874  0.3211 -0.6271
  281TMC3     O 4245   1.712   2.704  13.397  0.5245 -0.0316 -0.6825
  281TMC3     H 4246   1.761   2.945  13.105 -0.3699 -0.1628  0.6498
  281TMC3    H1 4247   1.784   2.548  13.238  0.4800  0.9274  0.9112
  281TMC3    H2 4248   1.848   2.633  12.821  1.4685 -2.5967  1.4030
  281TMC3    C7 4249   1.827   2.435  12.990  0.4432 -0.0547  0.0065
  281TMC3    C8 4250   1.778   2.898  12.857  0.1790 -0.2618  0.5127
  281TMC3    O1 4251   1.921   2.421  12.916  0.1893 -0.0939 -0.3727
  281TMC3    O2 4252   1.741   2.859  12.744  0.2547 -0.6000 -0.4413
  282MPD2     C 4253   3.770   4.585  15.115 -0.7144 -0.1198  0.2415
  282MPD2    C1 4254   3.646   4.654  15.122  0.0868  0.3747  0.4758
  282MPD2    C2 4255   3.572   4.692  15.015  0.4755  0.1277 -0.0229
  282MPD2    C3 4256   3.614   4.642  14.890 -0.2603 -0.1554  1.1399
  282MPD2    C4 4257   3.733   4.571  14.873  0.3061  0.3251 -0.2861
  282MPD2    C5 4258   3.811   4.550  14.982  0.3619 -0.2689  0.0803
  282MPD2     H 4259   3.474   0.015  15.015 -0.0355 -0.9219 -4.4411
  282MPD2    H1 4260   3.768   4.532  14.778  2.0418 -1.9493  1.2665
  282MPD2    H2 4261   3.836   4.561  15.198 -0.1474  0.1954 -0.1161
  282MPD2    H3 4262   3.903   4.494  14.969 -0.5083 -1.9273  1.0159
  282MPD2     N 4263   3.521   4.665  14.787  0.7029 -0.4482  0.1718
  282MPD2    H5 4264   3.437   4.719  14.808  0.3823  0.1637 -2.7151
  282MPD2    N1 4265   3.581   4.667  15.242 -0.0479 -0.4519  0.6700
  282MPD2    H7 4266   3.492   4.715  15.255 -0.0594 -0.3428  0.1773
  283TMC3    C1 4267   3.513   4.638  15.461 -0.1138  0.0808 -0.3415
  283TMC3    C2 4268   3.472   0.043  15.467 -0.7391  0.1064  0.7256
  283TMC3    C3 4269   3.368   0.077  15.548 -0.2219 -0.0409  0.2020
  283TMC3    C4 4270   3.467   4.551  15.562  0.2091 -0.3945 -1.0007
  283TMC3    C5 4271   3.371   4.586  15.645  0.7802 -0.2256 -0.1385
  283TMC3    C6 4272   3.314   4.711  15.637  0.2758  0.3113 -0.2907
  283TMC3     C 4273   3.610   4.599  15.359 -0.3114  0.7146  0.7632
  283TMC3     O 4274   3.692   4.508  15.381 -0.4552 -0.0637  0.0753
  283TMC3     H 4275   3.517   0.118  15.403 -1.5588  0.8472  1.0155
  283TMC3    H1 4276   3.511   4.452  15.565  0.3815 -0.2919 -0.0644
  283TMC3    H2 4277   3.234   0.016  15.703 -0.4789 -1.1651 -0.5513
  283TMC3    C7 4278   3.284   4.477  15.708  0.3201 -0.5282  0.3330
  283TMC3    C8 4279   3.362   0.216  15.595 -0.0996  0.3212  0.4707
  283TMC3    O1 4280   3.182   4.511  15.764  0.0828 -0.4627  0.1187
  283TMC3    O2 4281   3.315   0.225  15.708  0.1004  0.7918  0.5696
  284MPD2     C 4282   2.066   3.430  11.850 -0.3247 -0.2463  0.0632
  284MPD2    C1 4283   1.995   3.442  11.727  0.7127  0.1477  0.1465
  284MPD2    C2 4284   1.865   3.399  11.721 -1.0418  0.4831 -0.1429
  284MPD2    C3 4285   1.801   3.340  11.831 -0.0999  0.4547 -0.3554
  284MPD2    C4 4286   1.869   3.334  11.952  0.6283 -0.1750 -0.6176
  284MPD2    C5 4287   1.992   3.375  11.955  0.4460  0.5043 -0.0585
  284MPD2     H 4288   1.818   3.400  11.623  1.3349 -1.8113 -1.2961
  284MPD2    H1 4289   1.832   3.286  12.042  0.8504  0.1221 -0.3701
  284MPD2    H2 4290   2.173   3.435  11.866 -0.3013  0.6096 -0.3975
  284MPD2    H3 4291   2.051   3.355  12.044 -0.8201  2.3612  1.2076
  284MPD2     N 4292   1.681   3.273  11.823  0.1992 -0.5152 -0.0154
  284MPD2    H5 4293   1.657   3.205  11.894  2.4733 -1.0859  0.1950
  284MPD2    N1 4294   2.062   3.503  11.619  0.4874 -0.2052  0.2412
  284MPD2    H7 4295   2.008   3.509  11.533  1.5915  0.9941 -0.3507
  285TMC3    C1 4296   2.227   3.641  11.522  0.4252 -0.1846 -0.2479
  285TMC3    C2 4297   2.205   3.573  11.405  0.4026  0.6552 -0.1286
  285TMC3    C3 4298   2.264   3.624  11.296  0.1340 -0.1701 -0.2902
  285TMC3    C4 4299   2.304   3.751  11.542 -0.3992 -0.8238  0.3824
  285TMC3    C5 4300   2.359   3.793  11.429  0.1519  0.5612  0.2233
  285TMC3    C6 4301   2.352   3.729  11.309  0.0819  0.9730  0.6312
  285TMC3     C 4302   2.178   3.579  11.641  0.7127 -0.9387  0.1083
  285TMC3     O 4303   2.235   3.605  11.745  0.5099  0.1548 -0.2431
  285TMC3     H 4304   2.149   3.480  11.404  1.6766 -0.1012 -1.1233
  285TMC3    H1 4305   2.315   3.809  11.633 -1.0556  1.2226 -0.8379
  285TMC3    H2 4306   2.399   3.767  11.219 -1.0624  1.6589  0.3219
  285TMC3    C7 4307   2.424   3.923  11.420  0.3205  0.5606  0.7505
  285TMC3    C8 4308   2.277   3.526  11.184  0.1567 -0.4879 -0.1033
  285TMC3    O1 4309   2.411   3.985  11.314 -0.4771  0.4708  0.0034
  285TMC3    O2 4310   2.167   3.477  11.142  0.1203  0.2095  0.2769
  286MPD2     C 4311   2.085   2.538   1.372 -0.3797 -0.2375  0.0391
  286MPD2    C1 4312   2.073   2.548   1.234  0.0041  0.4633 -0.1196
  286MPD2    C2 4313   2.170   2.489   1.153  0.3632 -0.1890  0.1529
  286MPD2    C3 4314   2.275   2.416   1.209 -0.0727  0.1481 -0.1166
  286MPD2    C4 4315   2.292   2.421   1.342  0.3993 -0.0333 -0.1850
  286MPD2    C5 4316   2.201   2.483   1.416  0.4141  0.1640 -0.3484
  286MPD2     H 4317   2.159   2.503   1.046 -0.3722  1.3452  0.4287
  286MPD2    H1 4318   2.381   2.374   1.382 -1.1217 -2.3549  0.4408
  286MPD2    H2 4319   2.023   2.586   1.447 -0.2016  1.1302 -0.7014
  286MPD2    H3 4320   2.215   2.482   1.524 -1.0994 -0.5502 -0.1568
  286MPD2     N 4321   2.366   2.344   1.136  0.4020  0.3059 -0.1629
  286MPD2    H5 4322   2.436   2.297   1.192  0.2551  2.2635  1.6420
  286MPD2    N1 4323   1.968   2.627   1.176  0.2240  1.2198 -0.6846
  286MPD2    H7 4324   1.984   2.642   1.077 -0.4518 -1.5339 -1.2236
  287TMC3    C1 4325   2.453   2.201   0.954  0.0304 -0.3651  0.5870
  287TMC3    C2 4326   2.460   2.157   0.824  0.0947  0.6677  0.7974
  287TMC3    C3 4327   2.559   2.066   0.787  0.2795 -0.5184 -0.0847
  287TMC3    C4 4328   2.539   2.152   1.049 -0.3712 -0.8356  0.1560
  287TMC3    C5 4329   2.643   2.070   1.008 -0.4091  0.3974  0.6665
  287TMC3    C6 4330   2.658   2.028   0.877 -0.3879 -0.1973  0.3781
  287TMC3     C 4331   2.352   2.304   1.000 -0.2474  0.4267  0.9335
  287TMC3     O 4332   2.271   2.341   0.919 -0.0107  0.4462  0.0105
  287TMC3     H 4333   2.398   2.195   0.743  0.1660 -0.6627  0.1219
  287TMC3    H1 4334   2.534   2.171   1.155  1.3886 -0.6746  0.2190
  287TMC3    H2 4335   2.736   1.956   0.856  0.6332  1.3103 -1.0120
  287TMC3    C7 4336   2.753   2.048   1.098  0.3037 -0.1412  0.4031
  287TMC3    C8 4337   2.576   2.035   0.642 -0.4794 -0.5103 -0.7514
  287TMC3    O1 4338   2.774   2.134   1.182 -0.8274 -0.0421 -0.2549
  287TMC3    O2 4339   2.476   2.041   0.567 -0.0310  0.3330  0.5440
  288TMC3    C1 4340   3.556   1.901  14.545 -1.1332  0.1011 -0.0543
  288TMC3    C2 4341   3.457   1.991  14.540 -0.5798  0.4736  0.4370
  288TMC3    C3 4342   3.493   2.123  14.499 -0.1056  0.1521 -0.2948
  288TMC3    C4 4343   3.677   1.920  14.488  0.2004 -0.0158  0.5704
  288TMC3    C5 4344   3.701   2.047  14.441  0.3093 -0.1948  0.3907
  288TMC3    C6 4345   3.616   2.147  14.452 -0.4434  0.0627  0.3488
  288TMC3     C 4346   3.535   1.762  14.592  0.2123  0.3993  0.8754
  288TMC3     O 4347   3.635   1.691  14.612  0.0405 -0.2100 -0.1599
  288TMC3     H 4348   3.363   1.977  14.592 -0.1416 -0.4740  0.9637
  288TMC3    H1 4349   3.747   1.839  14.470 -1.0338 -0.8448 -0.5438
  288TMC3    H2 4350   3.654   2.247  14.433 -0.4138  0.3490  1.9962
  288TMC3    C7 4351   3.841   2.075  14.393  0.0690 -1.6431  0.1866
  288TMC3    C8 4352   3.427   2.235  14.562  0.3310 -0.6478  0.2777
  288TMC3    O1 4353   3.925   1.996  14.429 -0.3176  0.5161 -0.0715
  288TMC3    O2 4354   3.487   2.340  14.579  0.6466 -0.0547  0.1104
  289MPD2     C 4355   4.247   1.501  14.448  0.9082 -0.0453  0.5077
  289MPD2    C1 4356   4.207   1.578  14.346 -0.4110  0.0022 -0.4699
  289MPD2    C2 4357   4.071   1.590  14.315  0.2929 -0.0980 -0.0744
  289MPD2    C3 4358   3.978   1.512  14.388  0.1508 -0.9721  0.4784
  289MPD2    C4 4359   4.024   1.425  14.487  0.1693  0.2384  0.5607
  289MPD2    C5 4360   4.158   1.430  14.518 -0.1273 -0.2707  0.1072
  289MPD2     H 4361   4.046   1.656  14.233  1.1091 -0.5572 -0.6960
  289MPD2    H1 4362   3.959   1.360  14.546  0.9495 -1.2277 -0.1938
  289MPD2    H2 4363   4.348   1.486  14.483  0.5298  0.5047  1.8463
  289MPD2    H3 4364   4.200   1.369  14.597 -1.1216 -0.0813  0.7792
  289MPD2     N 4365   3.839   1.518  14.361 -0.4410  0.0101 -0.4155
  289MPD2    H5 4366   3.782   1.448  14.406 -0.6187  1.3968  1.5442
  289MPD2    N1 4367   4.310   1.649  14.278  0.1801  0.5288  0.4115
  289MPD2    H7 4368   4.403   1.607  14.274  0.5534  1.3510  0.3753
  290TMC3    C1 4369   3.631   1.607  14.284 -0.1647 -0.2774  0.1946
  290TMC3    C2 4370   3.576   1.717  14.219  0.2032  1.0617  0.2985
  290TMC3    C3 4371   3.447   1.708  14.181 -0.4766  0.5090 -0.0443
  290TMC3    C4 4372   3.559   1.490  14.306 -0.2426  0.4860 -0.3391
  290TMC3    C5 4373   3.424   1.493  14.268  0.3752 -0.0792  0.3215
  290TMC3    C6 4374   3.369   1.599  14.208  0.1452 -0.5331  0.1978
  290TMC3     C 4375   3.778   1.608  14.278  0.3442  0.7789  0.1029
  290TMC3     O 4376   3.833   1.691  14.207  0.0539 -0.1524  0.2091
  290TMC3     H 4377   3.637   1.807  14.214  2.1357 -0.4094 -2.6854
  290TMC3    H1 4378   3.603   1.410  14.365  0.8540  0.8826 -0.6109
  290TMC3    H2 4379   3.268   1.605  14.171  0.2152 -1.2276 -0.1164
  290TMC3    C7 4380   3.347   1.369  14.256 -0.1085  0.0248  0.3818
  290TMC3    C8 4381   3.368   1.829  14.199 -0.4857 -0.3250  0.4921
  290TMC3    O1 4382   3.235   1.377  14.212  0.3743 -0.4107 -0.0243
  290TMC3    O2 4383   3.263   1.813  14.262  0.0740  0.0134  0.3417
  291MPD2     C 4384   3.660   0.343   0.072 -0.0748 -0.6995 -0.7736
  291MPD2    C1 4385   3.541   0.413   0.068 -0.2839 -0.2465  0.3124
  291MPD2    C2 4386   3.514   0.488  17.651  0.0847  0.9734 -0.4530
  291MPD2    C3 4387   3.600   0.491  17.543  0.2163  0.2811  0.1024
  291MPD2    C4 4388   3.716   0.420  17.555  0.1090 -0.4025 -0.4587
  291MPD2    C5 4389   3.748   0.351  17.670 -0.4769 -0.5138  0.8881
  291MPD2     H 4390   3.421   0.544  17.643 -1.6938 -1.5724  2.2518
  291MPD2    H1 4391   3.791   0.418  17.476  1.0693 -0.1348  0.4378
  291MPD2    H2 4392   3.687   0.290   0.163 -1.8189 -0.2074  0.0249
  291MPD2    H3 4393   3.834   0.285  17.666  0.5715  0.8931  0.3774
  291MPD2     N 4394   3.569   0.564  17.428  0.4448 -0.2754 -0.3420
  291MPD2    H5 4395   3.631   0.557  17.349  2.5915  0.7466  1.2549
  291MPD2    N1 4396   3.440   0.401   0.169 -0.7692  0.1575  0.6661
  291MPD2    H7 4397   3.362   0.466   0.170 -0.8086  0.0882  2.4772
  292TMC3    C1 4398   3.325   0.307   0.360  0.7263 -0.3129 -0.1630
  292TMC3    C2 4399   3.333   0.247   0.482 -0.4549  0.6222 -0.1360
  292TMC3    C3 4400   3.205   0.215   0.541  0.1891  0.0141 -0.1203
  292TMC3    C4 4401   3.205   0.337   0.293  0.2100 -0.3062  0.0650
  292TMC3    C5 4402   3.091   0.305   0.354  0.1550  0.6819 -0.1961
  292TMC3    C6 4403   3.087   0.253   0.483 -0.3576 -0.3092 -0.0218
  292TMC3     C 4404   3.451   0.318   0.285 -0.0838 -0.0897 -0.0969
  292TMC3     O 4405   3.553   0.254   0.328  0.4742 -0.7549 -0.2345
  292TMC3     H 4406   3.426   0.231   0.535  0.4354 -2.1765 -2.5658
  292TMC3    H1 4407   3.197   0.358   0.187  1.2383  0.7437  0.1954
  292TMC3    H2 4408   2.991   0.227   0.526  1.2658 -0.4130  3.4627
  292TMC3    C7 4409   2.973   0.301   0.266 -0.2569  0.0657 -0.4791
  292TMC3    C8 4410   3.210   0.160   0.674  0.5648 -0.1312  0.5212
  292TMC3    O1 4411   2.973   0.373   0.169 -0.0288  0.1981 -0.0984
  292TMC3    O2 4412   3.317   0.128   0.727 -0.0285 -0.6608  0.0116
  293MPD2     C 4413   0.233   2.803  12.475 -1.2204  0.4170  0.2226
  293MPD2    C1 4414   0.150   2.723  12.557 -0.1601  0.0474 -0.1625
  293MPD2    C2 4415   0.167   2.734  12.699  0.5049  0.1471 -0.4292
  293MPD2    C3 4416   0.270   2.814  12.752  0.5762  1.0409  0.6098
  293MPD2    C4 4417   0.352   2.880  12.662 -0.0789 -0.1298  0.3187
  293MPD2    C5 4418   0.333   2.880  12.525 -0.1809 -0.3918 -0.2393
  293MPD2     H 4419   0.103   2.681  12.768  2.4048 -0.4980  0.8387
  293MPD2    H1 4420   0.427   2.945  12.706  0.2134  0.3313 -0.8509
  293MPD2    H2 4421   0.215   2.812  12.368  4.8127  2.3505 -0.5997
  293MPD2    H3 4422   0.381   2.951  12.459  0.9123 -1.1581 -0.2698
  293MPD2     N 4423   0.271   2.835  12.893 -0.5907  0.1053  0.6316
  293MPD2    H5 4424   0.221   2.776  12.959 -0.6160  0.6925  1.1351
  293MPD2    N1 4425   0.036   2.662  12.489 -0.5072  0.2003 -0.1134
  293MPD2    H7 4426   0.038   2.667  12.388  2.9243  0.6026 -0.0435
  294TMC3    C1 4427   4.546   2.557  12.473 -0.1758  0.1238  0.9801
  294TMC3    C2 4428   4.433   2.518  12.549  0.2599  0.1445 -0.4700
  294TMC3    C3 4429   4.324   2.470  12.480  0.2816 -0.2958 -0.3814
  294TMC3    C4 4430   4.551   2.552  12.340 -0.4286  0.0326 -0.3108
  294TMC3    C5 4431   4.439   2.507  12.276 -0.5773 -0.4743  0.1264
  294TMC3    C6 4432   4.321   2.480  12.345  0.7701  0.0282 -0.9311
  294TMC3     C 4433   4.655   2.599  12.553  0.0636 -0.4518  0.0651
  294TMC3     O 4434   4.642   2.571  12.670  0.1845  0.0557 -1.0095
  294TMC3     H 4435   4.429   2.518  12.658 -0.9142 -0.8544 -0.5202
  294TMC3    H1 4436   4.638   2.575  12.280  1.1164  0.4250  2.0603
  294TMC3    H2 4437   4.227   2.457  12.295 -0.5269  1.2045  0.9813
  294TMC3    C7 4438   4.423   2.519  12.129 -1.0177  0.9320  1.0114
  294TMC3    C8 4439   4.232   2.378  12.551  0.2392 -0.5364 -0.2033
  294TMC3    O1 4440   4.313   2.496  12.087  0.4365 -0.8770  0.0271
  294TMC3    O2 4441   4.225   2.389  12.670  0.6303 -0.3983  0.0187
  295MPD2     C 4442   4.484   0.981  17.434 -0.0162  1.1060  0.2263
  295MPD2    C1 4443   4.588   1.007  17.517  0.5800 -0.7422 -0.0664
  295MPD2    C2 4444   4.558   1.040  17.650 -0.2358  0.8505 -0.4421
  295MPD2    C3 4445   4.429   1.029   0.001  0.2376  0.2697 -0.1824
  295MPD2    C4 4446   4.330   0.990  17.613 -0.5199  0.3446 -0.0179
  295MPD2    C5 4447   4.357   0.973  17.486 -0.0007 -0.0055  0.2386
  295MPD2     H 4448   4.645   1.048   0.016 -0.2066  0.0154 -0.3676
  295MPD2    H1 4449   4.227   0.985  17.644  0.1338 -0.3019  2.0453
  295MPD2    H2 4450   4.498   0.955  17.329  0.0404 -0.7275  0.6936
  295MPD2    H3 4451   4.271   0.961  17.420  0.8203  0.9281 -1.0055
  295MPD2     N 4452   4.391   1.054   0.134  0.3476 -0.0964 -0.9348
  295MPD2    H5 4453   4.291   1.045   0.148  0.2337  0.0529 -1.6496
  295MPD2    N1 4454   0.002   0.994  17.488 -0.5409 -0.0410  0.4900
  295MPD2    H7 4455   0.071   1.012  17.560 -0.1673 -3.8037  1.0775
  296TMC3    C1 4456   4.385   1.132   0.348 -0.1658  0.1111  0.1816
  296TMC3    C2 4457   4.421   1.239   0.421  0.9615 -0.0706  0.5628
  296TMC3    C3 4458   4.340   1.273   0.529 -0.7004 -0.0696  0.8420
  296TMC3    C4 4459   4.285   1.045   0.381  0.6001  1.0801  0.5537
  296TMC3    C5 4460   4.206   1.085   0.482 -0.5318  0.4863 -0.0745
  296TMC3    C6 4461   4.237   1.196   0.559 -0.4635  0.4002  0.0966
  296TMC3     C 4462   4.464   1.113   0.233 -0.9181 -0.0758 -0.6917
  296TMC3     O 4463   4.575   1.168   0.226  0.2402 -0.0502  0.2621
  296TMC3     H 4464   4.509   1.299   0.398 -0.3536  0.4157 -3.1655
  296TMC3    H1 4465   4.265   0.952   0.327  0.2214  0.6047  1.5107
  296TMC3    H2 4466   4.181   1.228   0.647 -0.1345  0.3717  0.3161
  296TMC3    C7 4467   4.108   0.985   0.537  0.9149 -0.2443 -0.0430
  296TMC3    C8 4468   4.401   1.354   0.642 -0.5043 -0.0544 -0.1409
  296TMC3    O1 4469   4.078   0.892   0.462  0.2370  0.9192  0.5088
  296TMC3    O2 4470   4.333   1.406   0.728 -0.0830  0.2118  0.6812
  297MPD2     C 4471   2.804   3.444  16.168 -0.3571  0.1264  0.1224
  297MPD2    C1 4472   2.752   3.569  16.136 -0.3685  0.0540 -0.2194
  297MPD2    C2 4473   2.835   3.679  16.165 -0.1271  0.0461 -0.1398
  297MPD2    C3 4474   2.967   3.655  16.202 -0.2031 -0.0712  0.2465
  297MPD2    C4 4475   3.013   3.524  16.219 -0.1844  0.3125  0.1128
  297MPD2    C5 4476   2.923   3.428  16.215  0.0308 -0.1343  0.3250
  297MPD2     H 4477   2.805   3.781  16.144 -0.2867 -0.1079 -0.6637
  297MPD2    H1 4478   3.113   3.504  16.255  0.1949  2.1096  0.0725
  297MPD2    H2 4479   2.748   3.351  16.168  1.0832 -0.7447  1.4403
  297MPD2    H3 4480   2.960   3.327  16.231 -2.5784 -0.9853  0.9537
  297MPD2     N 4481   3.051   3.768  16.217  0.3931 -0.0204 -0.4559
  297MPD2    H5 4482   3.017   3.860  16.190 -0.6828 -1.0564 -2.6769
  297MPD2    N1 4483   2.618   3.586  16.094 -0.1986  0.3316  0.0784
  297MPD2    H7 4484   2.589   3.683  16.084  0.0358  0.3991  0.0507
  298TMC3    C1 4485   2.406   3.530  16.016 -0.5400  0.5449  0.3906
  298TMC3    C2 4486   2.342   3.450  15.917 -0.6896 -0.2035 -0.1002
  298TMC3    C3 4487   2.216   3.484  15.877 -0.1701  0.0069  0.1878
  298TMC3    C4 4488   2.350   3.640  16.072 -0.1497 -0.5836 -0.3219
  298TMC3    C5 4489   2.218   3.657  16.040 -0.0782  0.1619 -0.0627
  298TMC3    C6 4490   2.151   3.589  15.936  0.2152 -0.0278  0.7399
  298TMC3     C 4491   2.530   3.484  16.066  0.5869  0.4956 -0.0380
  298TMC3     O 4492   2.559   3.368  16.056 -0.6509 -0.0849 -0.1198
  298TMC3     H 4493   2.392   3.362  15.877 -1.0725  0.8483 -2.9241
  298TMC3    H1 4494   2.401   3.698  16.148  0.1063 -0.6801 -0.4213
  298TMC3    H2 4495   2.048   3.615  15.917  0.2666 -0.8708 -0.6762
  298TMC3    C7 4496   2.154   3.754  16.127  0.0487  0.4388  0.1206
  298TMC3    C8 4497   2.158   3.393  15.775  0.0209  0.1840  0.3982
  298TMC3    O1 4498   2.215   3.786  16.227 -0.5941  0.1054 -0.0470
  298TMC3    O2 4499   2.233   3.315  15.718  0.3976 -0.9037 -0.5387
  299MPD2     C 4500   3.513   3.555  10.048 -0.4906 -0.1898 -0.3680
  299MPD2    C1 4501   3.405   3.556  10.131 -0.1792 -0.0499  0.1454
  299MPD2    C2 4502   3.281   3.539  10.069  0.1400 -0.3600  0.3107
  299MPD2    C3 4503   3.267   3.534   9.932 -0.4681 -0.1309  0.6499
  299MPD2    C4 4504   3.375   3.533   9.849 -0.3126  0.5143  0.1312
  299MPD2    C5 4505   3.499   3.548   9.909 -0.7986  0.4283  0.2330
  299MPD2     H 4506   3.196   3.542  10.136 -0.0496  0.2672  0.0384
  299MPD2    H1 4507   3.364   3.535   9.741  0.2957 -0.1819  0.0590
  299MPD2    H2 4508   3.615   3.570  10.084  0.0741 -1.5063 -1.4256
  299MPD2    H3 4509   3.587   3.551   9.846 -1.2890 -0.5752 -0.5105
  299MPD2     N 4510   3.144   3.537   9.868  0.5835 -0.2113  0.0164
  299MPD2    H5 4511   3.146   3.507   9.771  2.3080  0.8883 -0.2743
  299MPD2    N1 4512   3.433   3.577  10.267  0.4222  0.1144 -0.0334
  299MPD2    H7 4513   3.531   3.593  10.288  0.8885  0.7133 -2.7140
  300TMC3    C1 4514   2.914   3.565   9.824 -0.0959  1.1851  0.0297
  300TMC3    C2 4515   2.829   3.648   9.890  0.8687  0.6226  0.5651
  300TMC3    C3 4516   2.697   3.605   9.894 -0.5165  0.1981  0.2645
  300TMC3    C4 4517   2.877   3.442   9.777 -0.2084 -0.5301 -0.1213
  300TMC3    C5 4518   2.756   3.396   9.808 -0.3592 -0.0318 -0.4260
  300TMC3    C6 4519   2.654   3.477   9.858  0.5673  0.2384  0.1251
  300TMC3     C 4520   3.022   3.563   9.929  0.4814 -0.3601 -0.0501
  300TMC3     O 4521   3.004   3.625  10.031 -0.4392 -0.3820 -0.0451
  300TMC3     H 4522   2.849   3.753   9.908 -0.4598  1.3265 -2.0195
  300TMC3    H1 4523   2.953   3.380   9.729 -0.4295 -0.3730 -0.6756
  300TMC3    H2 4524   2.552   3.448   9.878 -0.4355  2.6747 -1.3710
  300TMC3    C7 4525   2.761   3.254   9.853 -0.0224  0.4166 -0.7556
  300TMC3    C8 4526   2.605   3.666   9.984  0.4835  0.7774 -0.3714
  300TMC3    O1 4527   2.866   3.197   9.828 -0.4713 -0.2711 -0.7364
  300TMC3    O2 4528   2.487   3.648   9.972 -0.3593 -0.0843  0.6758
  301MPD2     C 4529   4.709   4.640   1.894  0.0968  0.0989  0.0873
  301MPD2    C1 4530   4.655   4.577   1.785 -0.3969  0.3772  0.1807
  301MPD2    C2 4531   0.009   4.486   1.712  0.3509  0.5127 -0.0410
  301MPD2    C3 4532   0.139   4.460   1.744 -0.1148 -0.0984  0.5001
  301MPD2    C4 4533   0.185   4.523   1.853 -0.1970  0.3095  0.5235
  301MPD2    C5 4534   0.115   4.616   1.927 -0.2403  0.2803  0.1826
  301MPD2     H 4535   4.691   4.440   1.624  0.5314 -0.8699  0.5935
  301MPD2    H1 4536   0.289   4.512   1.881  0.5103  0.7564 -1.9293
  301MPD2    H2 4537   4.655   4.698   1.968  3.4863  3.8764 -0.3664
  301MPD2    H3 4538   0.166   4.666   2.008  0.5321  1.1166 -0.8298
  301MPD2     N 4539   0.229   4.378   1.679  0.2488 -0.2228 -0.3447
  301MPD2    H5 4540   0.321   4.371   1.721 -0.1159 -0.8288  0.3606
  301MPD2    N1 4541   4.521   4.605   1.754 -0.4980  0.0952 -0.0634
  301MPD2    H7 4542   4.465   4.545   1.693 -1.0494 -0.3524  0.8860
  302TMC3    C1 4543   0.310   4.239   1.500  0.3923  0.1117  0.6821
  302TMC3    C2 4544   0.436   4.290   1.530  0.8530 -0.5341 -0.4366
  302TMC3    C3 4545   0.546   4.239   1.464 -0.0873  0.3672  0.8018
  302TMC3    C4 4546   0.292   4.151   1.399  0.9184  0.5433  0.3076
  302TMC3    C5 4547   0.404   4.116   1.324 -0.8680 -0.5087  0.2027
  302TMC3    C6 4548   0.531   4.149   1.358  0.6285 -0.2220 -0.3790
  302TMC3     C 4549   0.196   4.301   1.562 -0.6217 -0.2135 -0.8611
  302TMC3     O 4550   0.090   4.290   1.502  0.3451  0.2137  0.0163
  302TMC3     H 4551   0.454   4.358   1.613  1.2928  2.5431 -3.0869
  302TMC3    H1 4552   0.190   4.128   1.372  0.8568  0.7666  0.3506
  302TMC3    H2 4553   0.616   4.129   1.295 -0.1969  1.7855 -2.1298
  302TMC3    C7 4554   0.381   4.061   1.185  0.4911 -0.2784  0.1115
  302TMC3    C8 4555   0.681   4.290   1.473  0.0502  0.1233 -0.1220
  302TMC3    O1 4556   0.480   4.051   1.119  0.0562  0.1808  0.4223
  302TMC3    O2 4557   0.775   4.222   1.428 -0.2648 -0.8431  0.2794
  303MPD2     C 4558   1.398   2.317   9.586 -0.3885  0.0861  0.3440
  303MPD2    C1 4559   1.323   2.233   9.506 -0.0404 -0.2244  0.3724
  303MPD2    C2 4560   1.192   2.273   9.476 -0.0484  0.0910 -0.0461
  303MPD2    C3 4561   1.143   2.395   9.515 -0.3829  0.4237  0.3590
  303MPD2    C4 4562   1.228   2.486   9.578  0.0687  0.0682 -0.0936
  303MPD2    C5 4563   1.356   2.442   9.615 -0.5003  0.0932 -0.2936
  303MPD2     H 4564   1.130   2.221   9.404 -0.6319  0.4197  0.2179
  303MPD2    H1 4565   1.199   2.587   9.604  0.1328 -0.3206  1.5351
  303MPD2    H2 4566   1.503   2.293   9.600 -0.4824 -0.0239  0.8463
  303MPD2    H3 4567   1.414   2.503   9.683 -1.8294 -0.1527  1.0487
  303MPD2     N 4568   1.007   2.427   9.494 -0.0223  0.4838 -0.1193
  303MPD2    H5 4569   0.985   2.526   9.506 -1.5337  0.3251 -1.5680
  303MPD2    N1 4570   1.380   2.118   9.446  0.2051  0.2475 -0.1033
  303MPD2    H7 4571   1.472   2.086   9.474  0.6255  0.2570 -1.4924
  304TMC3    C1 4572   1.407   1.934   9.302 -0.2153 -0.1047 -0.2867
  304TMC3    C2 4573   1.430   1.855   9.412  0.2054 -0.1321  0.7527
  304TMC3    C3 4574   1.433   1.721   9.384  0.1698  0.5376  0.1419
  304TMC3    C4 4575   1.395   1.901   9.172  0.1335 -0.5580 -0.5247
  304TMC3    C5 4576   1.416   1.770   9.144  0.1279 -0.2861  0.3701
  304TMC3    C6 4577   1.421   1.683   9.250  0.1645 -0.3757  0.0204
  304TMC3     C 4578   1.335   2.059   9.328 -0.0748  0.9862 -0.1742
  304TMC3     O 4579   1.250   2.106   9.254  0.4540  0.0725 -0.3962
  304TMC3     H 4580   1.410   1.887   9.514  0.3485  2.1529  0.0648
  304TMC3    H1 4581   1.373   1.981   9.103 -3.5059 -0.0293  1.2207
  304TMC3    H2 4582   1.426   1.577   9.228  0.1219 -0.7236  1.7451
  304TMC3    C7 4583   1.304   1.712   9.066  0.6009 -0.5351  0.4299
  304TMC3    C8 4584   1.359   1.644   9.475 -0.0583  0.2982  0.2511
  304TMC3    O1 4585   1.238   1.624   9.120 -0.5006 -0.0861  0.2665
  304TMC3    O2 4586   1.385   1.645   9.594 -0.0020  0.2200 -0.0781
  305MPD2     C 4587   3.736   0.154  13.683 -0.7994 -0.0098  0.1092
  305MPD2    C1 4588   3.699   0.026  13.697  0.1026 -0.2272 -0.8553
  305MPD2    C2 4589   3.686   4.674  13.577  0.3797  0.4023 -0.4761
  305MPD2    C3 4590   3.729   4.720  13.449  0.1562  0.1534  0.0564
  305MPD2    C4 4591   3.760   0.128  13.445  0.1910  0.3707  0.2312
  305MPD2    C5 4592   3.766   0.201  13.557  0.1668 -0.2624  0.7500
  305MPD2     H 4593   3.648   4.575  13.599  1.4753  0.1338  0.1975
  305MPD2    H1 4594   3.801   0.179  13.358  0.3909  2.2813  1.4573
  305MPD2    H2 4595   3.739   0.231  13.759  2.2860 -0.1190  0.1084
  305MPD2    H3 4596   3.794   0.305  13.540 -0.9657  0.0447  0.7874
  305MPD2     N 4597   3.741   4.635  13.336  0.0569 -0.3603 -0.4201
  305MPD2    H5 4598   3.778   4.675  13.251 -0.9606 -1.2862 -1.2928
  305MPD2    N1 4599   3.654   4.708  13.825  0.0861  0.3476 -0.0806
  305MPD2    H7 4600   3.651   0.056  13.896 -0.1064 -1.9820  2.2739
  306TMC3    C1 4601   3.622   4.570  14.012 -0.6962 -0.0413 -0.1639
  306TMC3    C2 4602   3.676   4.456  14.079  0.3191  0.2102 -0.2984
  306TMC3    C3 4603   3.696   4.456  14.219  0.5290 -0.4964 -0.1493
  306TMC3    C4 4604   3.592   4.680  14.091  0.2664 -0.3304 -0.1581
  306TMC3    C5 4605   3.612   4.667  14.225  0.4438  0.1910  0.0257
  306TMC3    C6 4606   3.666   4.565  14.294  0.7636  0.1341  0.7113
  306TMC3     C 4607   3.647   4.579  13.872  0.5212  0.0141  0.4195
  306TMC3     O 4608   3.694   4.478  13.816  0.1644  0.1035 -0.0064
  306TMC3     H 4609   3.699   4.367  14.021 -1.3304  0.3731 -1.2109
  306TMC3    H1 4610   3.536   0.038  14.046 -1.8171 -1.1608  0.9401
  306TMC3    H2 4611   3.678   4.571  14.402  0.6617  2.9836  0.5554
  306TMC3    C7 4612   3.581   0.062  14.304  0.2718  0.0489 -0.5203
  306TMC3    C8 4613   3.778   4.354  14.279  0.7690 -1.3642  0.1415
  306TMC3    O1 4614   3.484   0.125  14.280  0.0707 -0.4551 -0.5628
  306TMC3    O2 4615   3.823   4.270  14.199 -0.4075  0.1023  0.4203
  307MPD2     C 4616   0.322   1.325   0.290  0.0564  0.1889  0.1179
  307MPD2    C1 4617   0.371   1.427   0.371  0.6518 -0.5372  0.6172
  307MPD2    C2 4618   0.285   1.523   0.408 -0.3366  0.3430  0.1550
  307MPD2    C3 4619   0.154   1.523   0.365 -0.0787  0.4907 -0.0552
  307MPD2    C4 4620   0.104   1.419   0.287 -0.0012 -0.6664 -0.1150
  307MPD2    C5 4621   0.196   1.321   0.250 -0.4203  0.3268  0.0024
  307MPD2     H 4622   0.321   1.599   0.477  0.6148  2.2009 -2.3913
  307MPD2    H1 4623   4.724   1.420   0.258 -0.0212  0.6906  0.0332
  307MPD2    H2 4624   0.391   1.246   0.261  0.2649  0.6073 -0.5197
  307MPD2    H3 4625   0.159   1.239   0.189 -0.7173  1.0041 -0.7300
  307MPD2     N 4626   0.079   1.633   0.405 -0.5677  0.2020 -0.2722
  307MPD2    H5 4627   0.133   1.704   0.454 -3.5732  1.2106  1.5906
  307MPD2    N1 4628   0.512   1.453   0.394 -0.6123 -0.6174  0.6734
  307MPD2    H7 4629   0.534   1.542   0.437  2.7161 -1.0392 -0.1654
  308TMC3    C1 4630   4.640   2.019   0.332 -0.4599 -0.3448  0.3652
  308TMC3    C2 4631   0.005   2.047   0.432  0.5771  0.1080 -0.6240
  308TMC3    C3 4632   0.038   1.954   0.526  0.0931  0.0862  0.5899
  308TMC3    C4 4633   4.595   1.890   0.323  0.1913  0.0747  0.5389
  308TMC3    C5 4634   4.631   1.793   0.421  0.1532  0.6820 -0.3506
  308TMC3    C6 4635   4.715   1.827   0.526  0.1249  0.0213  0.5033
  308TMC3     C 4636   4.641   2.109   0.213  0.1294  0.3309  0.2323
  308TMC3     O 4637   0.017   2.180   0.198  0.3045 -0.3626  0.0202
  308TMC3     H 4638   0.021   2.152   0.449  1.2020 -0.2224  0.8652
  308TMC3    H1 4639   4.556   1.849   0.231  0.3773 -1.9846  1.3829
  308TMC3    H2 4640   0.033   1.753   0.593 -0.7472  0.5943  1.6845
  308TMC3    C7 4641   4.669   1.661   0.365  0.1438 -0.1772 -0.4691
  308TMC3    C8 4642   0.121   1.996   0.639  0.4098 -0.0893  0.7016
  308TMC3    O1 4643   4.606   1.619   0.266  0.6344  0.7856 -0.3410
  308TMC3    O2 4644   0.126   1.929   0.744  0.1204 -0.4415 -0.7682
  309MPD2     C 4645   0.494   2.900  16.378 -0.3823 -0.0137 -1.3848
  309MPD2    C1 4646   0.495   3.015  16.299  0.6006 -0.6090  0.2664
  309MPD2    C2 4647   0.401   3.114  16.331 -0.4992  0.2783  0.2306
  309MPD2    C3 4648   0.323   3.100  16.439  0.2494 -0.3560 -1.0079
  309MPD2    C4 4649   0.325   2.987  16.519 -0.6121  0.1221 -0.6278
  309MPD2    C5 4650   0.416   2.891  16.491  0.6958 -0.1025 -0.2890
  309MPD2     H 4651   0.405   3.202  16.268  0.7344  1.8439  2.4997
  309MPD2    H1 4652   0.255   2.971  16.599 -0.2791 -1.1854 -0.5873
  309MPD2    H2 4653   0.567   2.820  16.367  0.9469  1.1148 -0.7190
  309MPD2    H3 4654   0.430   2.805  16.555  0.3675 -1.0085 -1.4258
  309MPD2     N 4655   0.224   3.196  16.477  0.1177 -0.0738 -0.3584
  309MPD2    H5 4656   0.168   3.168  16.557 -2.0970 -3.2135 -2.9752
  309MPD2    N1 4657   0.578   3.036  16.187  0.1405  0.2151  0.7599
  309MPD2    H7 4658   0.557   3.124  16.141 -1.9754 -0.8080 -0.2134
  310TMC3    C1 4659   0.771   3.014  16.048  0.0060 -0.6177  0.0733
  310TMC3    C2 4660   0.737   3.130  15.982 -0.0280 -0.2970 -0.8926
  310TMC3    C3 4661   0.834   3.198  15.917 -0.2036 -0.3235 -0.5022
  310TMC3    C4 4662   0.893   2.961  16.032 -0.9901 -0.1059 -0.6470
  310TMC3    C5 4663   0.989   3.032  15.961  0.3513 -0.1259  0.2365
  310TMC3    C6 4664   0.963   3.154  15.918 -0.2561  0.7219 -0.3882
  310TMC3     C 4665   0.686   2.960  16.154  0.4214  0.4284 -0.1548
  310TMC3     O 4666   0.730   2.860  16.211 -0.4289 -0.1745  0.2210
  310TMC3     H 4667   0.646   3.183  16.008  0.9599  1.3362 -0.7327
  310TMC3    H1 4668   0.921   2.871  16.086 -0.2108  0.0812 -0.7383
  310TMC3    H2 4669   1.036   3.205  15.856  0.2891 -0.5835 -0.8270
  310TMC3    C7 4670   1.127   2.990  15.981  0.0235  1.2149 -0.1762
  310TMC3    C8 4671   0.789   3.312  15.842 -0.1542  0.1976 -0.2648
  310TMC3    O1 4672   1.142   2.873  16.015 -0.1839  0.6695 -0.4306
  310TMC3    O2 4673   0.673   3.304  15.803  0.2752  0.1015 -0.8379
  311MPD2     C 4674   2.860   4.203  12.479 -0.7804  0.2055  0.1630
  311MPD2    C1 4675   2.817   4.331  12.448 -0.9476  0.5321 -0.1711
  311MPD2    C2 4676   2.694   4.364  12.503  0.0874 -0.1847  0.4316
  311MPD2    C3 4677   2.623   4.292  12.590 -0.1569  0.1585  0.5859
  311MPD2    C4 4678   2.674   4.171  12.631  0.3268  0.1370  0.3540
  311MPD2    C5 4679   2.793   4.125  12.571  0.3791  0.5210 -0.0256
  311MPD2     H 4680   2.653   4.461  12.477 -1.5607 -0.3363  2.4482
  311MPD2    H1 4681   2.630   4.114  12.713 -1.2956  0.2993 -0.4047
  311MPD2    H2 4682   2.947   4.156  12.435 -1.2227 -0.0274 -0.4861
  311MPD2    H3 4683   2.849   4.034  12.587 -0.9820 -0.2800  0.2070
  311MPD2     N 4684   2.509   4.351  12.644  0.1249  0.1986  0.4400
  311MPD2    H5 4685   2.458   4.427  12.601 -2.6335 -0.7475  2.0540
  311MPD2    N1 4686   2.893   4.416  12.370  0.8734  0.2892 -0.1229
  311MPD2    H7 4687   2.852   4.505  12.342 -0.1246 -0.7943 -2.0748
  312TMC3    C1 4688   2.317   4.361  12.775 -1.0810 -0.2234 -0.8228
  312TMC3    C2 4689   2.232   4.363  12.665 -0.3883 -0.4501  0.0515
  312TMC3    C3 4690   2.100   4.398  12.686 -0.3179 -0.3866  0.3837
  312TMC3    C4 4691   2.277   4.387  12.903  0.4279  0.6275 -0.1363
  312TMC3    C5 4692   2.149   4.438  12.915  0.9825  0.7187 -0.1268
  312TMC3    C6 4693   2.057   4.430  12.811 -0.4061  0.1849  0.8685
  312TMC3     C 4694   2.446   4.304  12.759  0.4842  0.3439  0.0073
  312TMC3     O 4695   2.489   4.234  12.848 -0.3660 -0.2262  0.1883
  312TMC3     H 4696   2.269   4.330  12.569 -0.5732  1.8032 -0.7760
  312TMC3    H1 4697   2.346   4.378  12.986  0.1009  2.5758  0.3315
  312TMC3    H2 4698   1.953   4.457  12.830  0.0186  1.7413  0.9595
  312TMC3    C7 4699   2.102   4.447  13.055 -0.0888  0.2926  0.6157
  312TMC3    C8 4700   2.005   4.372  12.580  0.1906  0.7085 -0.2674
  312TMC3    O1 4701   1.980   4.445  13.072  0.4242  0.2082 -0.2979
  312TMC3    O2 4702   2.016   4.276  12.508  0.2571 -0.2122  0.3116
  313MPD2     C 4703   2.389   3.454  10.478 -0.4103 -0.4385  0.6760
  313MPD2    C1 4704   2.256   3.474  10.523 -0.2476  0.0046 -0.1806
  313MPD2    C2 4705   2.155   3.437  10.438 -0.0466  0.5163  0.4326
  313MPD2    C3 4706   2.165   3.411  10.302 -0.4398 -0.0338 -0.2681
  313MPD2    C4 4707   2.296   3.407  10.253 -0.0597 -0.2054  0.1402
  313MPD2    C5 4708   2.405   3.419  10.348 -0.4270 -0.8787  0.3132
  313MPD2     H 4709   2.057   3.453  10.482  0.5862  2.3010  1.1652
  313MPD2    H1 4710   2.319   3.384  10.149  1.6302 -2.6475  1.0441
  313MPD2    H2 4711   2.473   3.481  10.541  0.8780 -1.5943 -0.5323
  313MPD2    H3 4712   2.506   3.400  10.311 -0.1424  1.3675 -0.0492
  313MPD2     N 4713   2.047   3.374  10.229 -0.0294  0.1459  0.5217
  313MPD2    H5 4714   1.963   3.363  10.285 -0.7783 -0.9011 -0.8085
  313MPD2    N1 4715   2.223   3.523  10.657 -0.0971 -0.0341 -0.0134
  313MPD2    H7 4716   2.125   3.525  10.684 -0.2247 -0.3718 -0.4459
  314TMC3    C1 4717   2.247   3.652  10.853 -0.4456 -0.1714 -0.0394
  314TMC3    C2 4718   2.325   3.755  10.894 -0.1235 -0.0377  0.1891
  314TMC3    C3 4719   2.275   3.882  10.881  0.0580  0.6744  0.6053
  314TMC3    C4 4720   2.119   3.672  10.817 -0.4145 -0.0808  0.1104
  314TMC3    C5 4721   2.073   3.801  10.798 -0.2568  0.3917  0.2538
  314TMC3    C6 4722   2.155   3.908  10.823 -1.0275  0.4448  0.5023
  314TMC3     C 4723   2.310   3.561  10.760  0.1835  0.0200 -0.2532
  314TMC3     O 4724   2.431   3.544  10.766  0.1560  0.0338 -1.0159
  314TMC3     H 4725   2.431   3.734  10.902  0.5792  3.0306 -0.8059
  314TMC3    H1 4726   2.053   3.586  10.820  2.9864 -2.7226 -0.5154
  314TMC3    H2 4727   2.123   4.011  10.812  1.5042  1.3324  1.5571
  314TMC3    C7 4728   2.011   3.785  10.670  0.7550  0.0876 -0.1928
  314TMC3    C8 4729   2.355   3.989  10.925  0.6225 -0.4667  0.0993
  314TMC3    O1 4730   1.952   3.679  10.650  0.0615  0.0370  0.4306
  314TMC3    O2 4731   2.345   4.095  10.866  0.3501  0.1712 -0.3581
  315MPD2     C 4732   1.897   3.026  17.384 -0.3403 -0.0242 -0.4316
  315MPD2    C1 4733   1.999   3.015  17.471 -0.5635  0.4761  0.0710
  315MPD2    C2 4734   2.128   3.058  17.432  0.0105  0.7407 -0.5368
  315MPD2    C3 4735   2.141   3.130  17.317 -0.0184 -0.0342  0.4262
  315MPD2    C4 4736   2.033   3.148  17.233 -0.0462 -0.3221 -0.3073
  315MPD2    C5 4737   1.924   3.076  17.262  0.8421  0.2493  0.1553
  315MPD2     H 4738   2.217   3.032  17.488  0.0356 -1.3510 -1.5237
  315MPD2    H1 4739   2.037   3.202  17.139  1.5165  0.2247  0.0705
  315MPD2    H2 4740   1.804   2.972  17.394  0.0145  0.0091  2.7589
  315MPD2    H3 4741   1.842   3.065  17.192 -0.8540 -3.1880  2.7195
  315MPD2     N 4742   2.272   3.188  17.297 -0.0360  0.7249  0.1486
  315MPD2    H5 4743   2.332   3.175  17.378 -0.4573  0.6784  0.4532
  315MPD2    N1 4744   1.988   2.939  17.593 -0.4445  0.1774  0.2069
  315MPD2    H7 4745   2.079   2.930  17.637 -0.5387 -1.8165 -0.0446
  316TMC3    C1 4746   2.421   3.350  17.214 -0.3612 -0.0802  0.4275
  316TMC3    C2 4747   2.533   3.296  17.275 -0.0142 -0.6191  0.2372
  316TMC3    C3 4748   2.638   3.387  17.304 -0.3133 -0.1649 -0.6403
  316TMC3    C4 4749   2.419   3.480  17.174  0.4770  0.3644 -0.5523
  316TMC3    C5 4750   2.531   3.559  17.187  0.2284 -0.2238  0.0643
  316TMC3    C6 4751   2.641   3.515  17.256  0.5487 -0.1568 -0.2929
  316TMC3     C 4752   2.301   3.278  17.196 -0.3522  0.2330  0.3633
  316TMC3     O 4753   2.224   3.319  17.109 -0.0225  0.0847 -0.0380
  316TMC3     H 4754   2.534   3.191  17.305  0.0471 -0.7766 -0.3083
  316TMC3    H1 4755   2.327   3.528  17.143 -1.0487 -1.5728  0.9816
  316TMC3    H2 4756   2.719   3.589  17.269  0.6916 -0.4625  0.5864
  316TMC3    C7 4757   2.511   3.705  17.199 -0.2182 -0.5397  0.0718
  316TMC3    C8 4758   2.765   3.337  17.363  0.2582  0.2127  0.1762
  316TMC3    O1 4759   2.568   3.768  17.288  0.2921  0.4820 -0.0961
  316TMC3    O2 4760   2.858   3.412  17.347  0.0181  0.5462 -0.1280
  317MPD2     C 4761   3.629   1.785  12.861 -1.1280  0.1085 -0.3545
  317MPD2    C1 4762   3.676   1.707  12.753  0.1084  0.5008  0.2282
  317MPD2    C2 4763   3.764   1.613  12.781 -0.4398  0.2329  0.5484
  317MPD2    C3 4764   3.824   1.604  12.906  0.0964  0.3645  0.4126
  317MPD2    C4 4765   3.797   1.694  13.006 -0.3680 -0.0383  0.5529
  317MPD2    C5 4766   3.696   1.786  12.983  0.0837  0.2398 -0.1058
  317MPD2     H 4767   3.793   1.535  12.712 -3.4363  0.0765 -0.5161
  317MPD2    H1 4768   3.836   1.697  13.107 -3.1957 -1.4015  1.6898
  317MPD2    H2 4769   3.555   1.864  12.852 -1.0134  0.4707  1.7083
  317MPD2    H3 4770   3.670   1.853  13.065  0.3199 -0.7887  0.8055
  317MPD2     N 4771   3.921   1.509  12.914  0.1447 -0.3600  0.0418
  317MPD2    H5 4772   3.934   1.453  12.830 -0.4885 -0.2602 -0.1141
  317MPD2    N1 4773   3.642   1.722  12.619  0.1475 -0.1009 -0.1990
  317MPD2    H7 4774   3.679   1.668  12.541  1.8197 -0.2544  0.7066
  318TMC3    C1 4775   4.066   1.354  13.006 -0.1204 -0.5143  0.4541
  318TMC3    C2 4776   3.985   1.249  12.971 -0.6517 -0.5123  0.6311
  318TMC3    C3 4777   4.042   1.124  12.993 -0.5429 -0.5774 -0.3907
  318TMC3    C4 4778   4.176   1.335  13.078 -0.0599 -0.3682  0.2574
  318TMC3    C5 4779   4.221   1.213  13.110 -0.1381 -0.2429  0.1656
  318TMC3    C6 4780   4.155   1.100  13.068 -0.0443  0.5938 -0.2300
  318TMC3     C 4781   3.998   1.487  13.021  0.7242 -0.2590  0.1390
  318TMC3     O 4782   4.041   1.569  13.099 -0.1807 -0.1594  0.3455
  318TMC3     H 4783   3.894   1.269  12.916  0.8183 -0.0453 -1.5905
  318TMC3    H1 4784   4.232   1.419  13.116 -1.5539  0.6724  0.1431
  318TMC3    H2 4785   4.184   1.006  13.113 -1.8428  1.2015  2.2141
  318TMC3    C7 4786   4.289   1.207  13.235 -0.7794 -1.0963 -0.0413
  318TMC3    C8 4787   3.954   1.009  12.998 -0.4082 -0.2073 -0.1492
  318TMC3    O1 4788   4.259   1.288  13.322  0.4950  0.2454 -0.0447
  318TMC3    O2 4789   3.988   0.921  13.079  0.1423 -0.3824 -0.0887
  319MPD2     C 4790   0.092   2.572  16.173  0.4441  0.3868  0.5084
  319MPD2    C1 4791   4.704   2.565  16.248  0.0618  0.3738  0.0179
  319MPD2    C2 4792   4.588   2.532  16.177  0.4504  0.4271 -0.4857
  319MPD2    C3 4793   4.584   2.531  16.036  0.6465 -0.1598 -0.1789
  319MPD2    C4 4794   4.704   2.541  15.968 -0.2640  0.2505  0.1203
  319MPD2    C5 4795   0.090   2.555  16.040  0.1825  0.0763  0.4176
  319MPD2     H 4796   4.504   2.530  16.245  1.3269 -1.0148  0.5700
  319MPD2    H1 4797   4.716   2.549  15.861 -0.5818 -2.3110 -0.1249
  319MPD2    H2 4798   0.184   2.593  16.227 -0.5930 -1.2990  2.8950
  319MPD2    H3 4799   0.184   2.562  15.986  0.6293  2.6588  1.5400
  319MPD2     N 4800   4.467   2.531  15.956  0.2270  0.1119  0.1046
  319MPD2    H5 4801   4.482   2.533  15.855 -0.4307  0.6980  0.0180
  319MPD2    N1 4802   4.696   2.585  16.387 -0.0998 -0.2635  0.0006
  319MPD2    H7 4803   4.613   2.556  16.439 -1.3104  3.8053  0.3175
  320TMC3    C1 4804   4.243   2.502  15.898  0.0393  0.0464  0.0940
  320TMC3    C2 4805   4.255   2.588  15.790  0.8430  0.6849  0.0028
  320TMC3    C3 4806   4.162   2.586  15.689 -0.2577  0.4502 -0.3455
  320TMC3    C4 4807   4.132   2.424  15.915 -0.0081 -0.8011 -0.0662
  320TMC3    C5 4808   4.036   2.439  15.828  0.3958 -0.0519 -0.0700
  320TMC3    C6 4809   4.047   2.515  15.718 -0.5141  0.1590 -0.0578
  320TMC3     C 4810   4.341   2.511  16.002 -0.4323 -0.0031 -0.0825
  320TMC3     O 4811   4.297   2.492  16.112  0.2485  0.0168 -0.1206
  320TMC3     H 4812   4.347   2.642  15.771  2.0173 -1.8188 -1.4726
  320TMC3    H1 4813   4.120   2.353  15.996  0.9235 -1.0701 -0.1653
  320TMC3    H2 4814   3.970   2.528  15.642 -0.3439  0.7438 -0.1288
  320TMC3    C7 4815   3.918   2.346  15.830  0.9223 -0.4025 -0.1735
  320TMC3    C8 4816   4.149   2.719  15.622  0.1405  0.4848 -0.1434
  320TMC3    O1 4817   3.936   2.234  15.869 -0.5790  0.7141 -0.0471
  320TMC3    O2 4818   4.224   2.798  15.680 -0.1482  0.2637 -0.6322
  321TMC3    C1 4819   0.047   2.635  16.606 -0.5098  0.5717 -0.2057
  321TMC3    C2 4820   4.688   2.549  16.667  0.0879 -0.7339  0.0092
  321TMC3    C3 4821   4.662   2.562  16.801  1.2867  0.4188  0.4291
  321TMC3    C4 4822   0.116   2.729  16.674  0.4748  0.0528  0.1059
  321TMC3    C5 4823   0.083   2.740  16.800 -0.2523 -0.8096  0.2999
  321TMC3    C6 4824   4.715   2.668  16.870 -0.0463 -0.1797  0.0415
  321TMC3     C 4825   0.079   2.634  16.462  0.3247  0.4231 -0.1235
  321TMC3     O 4826   0.172   2.699  16.422  0.1857  0.5075 -0.7910
  321TMC3     H 4827   4.657   2.462  16.612  0.2715 -0.7679 -0.0378
  321TMC3    H1 4828   0.204   2.781  16.638  1.5384 -0.7816  1.4950
  321TMC3    H2 4829   4.685   2.686  16.972 -0.5940 -1.4382  0.1037
  321TMC3    C7 4830   0.200   2.769  16.876  0.5621  0.5106  0.7187
  321TMC3    C8 4831   4.674   2.445  16.881  1.1366 -0.2073  0.5953
  321TMC3    O1 4832   0.276   2.857  16.833 -0.4985 -0.3057  0.0935
  321TMC3    O2 4833   0.004   2.462  16.991  0.0396 -0.4164 -0.6758
  322MPD2     C 4834   3.413   3.517  13.046  0.3233 -0.3688 -0.0421
  322MPD2    C1 4835   3.387   3.580  13.165  0.0238  0.2420 -0.2225
  322MPD2    C2 4836   3.357   3.504  13.275  0.1725 -0.0884  0.1674
  322MPD2    C3 4837   3.335   3.368  13.264 -0.1577  0.0070  0.3904
  322MPD2    C4 4838   3.344   3.306  13.138  0.2814  0.5019  0.3531
  322MPD2    C5 4839   3.376   3.385  13.028 -0.4314  0.0560  0.0372
  322MPD2     H 4840   3.349   3.552  13.372  0.9248  0.3311  0.0203
  322MPD2    H1 4841   3.310   3.203  13.138  2.1306 -0.0925 -2.4789
  322MPD2    H2 4842   3.438   3.580  12.962  3.9928 -2.5227 -0.5468
  322MPD2    H3 4843   3.368   3.332  12.935  0.7022 -3.0156  1.7107
  322MPD2     N 4844   3.322   3.303  13.387 -0.8623  0.3735  0.2187
  322MPD2    H5 4845   3.343   3.356  13.471 -0.1010  0.4895 -0.0458
  322MPD2    N1 4846   3.400   3.726  13.172  0.0211  1.2498 -0.1738
  322MPD2    H7 4847   3.424   3.782  13.092  0.6193  0.8924 -0.2458
  323TMC3    C1 4848   3.395   3.935  13.269 -0.6383  0.0821  0.3158
  323TMC3    C2 4849   3.529   3.961  13.251  0.2691 -0.7659  0.1918
  323TMC3    C3 4850   3.585   4.062  13.318 -0.0608  1.2445 -0.3002
  323TMC3    C4 4851   3.322   4.014  13.349 -0.5709 -0.6656 -0.3374
  323TMC3    C5 4852   3.381   4.120  13.417 -0.6477 -0.3034  0.0618
  323TMC3    C6 4853   3.513   4.146  13.396 -0.3039  0.4710 -1.0303
  323TMC3     C 4854   3.366   3.796  13.282  0.2691  0.1795 -0.2421
  323TMC3     O 4855   3.291   3.766  13.377  0.0214 -0.2318  0.1964
  323TMC3     H 4856   3.600   3.888  13.213  1.3470  0.4535 -0.1283
  323TMC3    H1 4857   3.218   3.993  13.368  0.0466 -1.5083  2.1182
  323TMC3    H2 4858   3.566   4.224  13.449 -1.4032 -0.3325  1.2556
  323TMC3    C7 4859   3.341   4.124  13.557  0.3525  0.5881 -0.6706
  323TMC3    C8 4860   3.721   4.098  13.288 -0.2838 -0.7281  0.1263
  323TMC3    O1 4861   3.298   4.021  13.611 -0.6655 -0.1179  0.5034
  323TMC3    O2 4862   3.785   4.135  13.384 -0.2943 -0.3776 -0.1818
  324MPD2     C 4863   0.772   0.175  13.770 -0.0077  0.6865  1.3139
  324MPD2    C1 4864   0.701   0.255  13.854  0.1046  0.3189  0.7051
  324MPD2    C2 4865   0.567   0.276  13.840 -0.4049 -0.0636  0.2247
  324MPD2    C3 4866   0.495   0.199  13.744  0.0941  0.5394  0.3481
  324MPD2    C4 4867   0.558   0.114  13.658  0.3205  0.0304 -0.3741
  324MPD2    C5 4868   0.699   0.109  13.670 -0.3398 -0.1697 -0.2840
  324MPD2     H 4869   0.513   0.344  13.904 -0.6604 -0.8531  0.8491
  324MPD2    H1 4870   0.508   0.060  13.580  0.4229 -0.1686 -0.3033
  324MPD2    H2 4871   0.880   0.174  13.766 -0.1751 -1.0258 -3.0013
  324MPD2    H3 4872   0.742   0.058  13.584  0.3551  1.7303 -1.0487
  324MPD2     N 4873   0.356   0.201  13.736 -0.1447 -0.6454 -0.5382
  324MPD2    H5 4874   0.314   0.170  13.650 -2.3464 -0.4502  0.4683
  324MPD2    N1 4875   0.765   0.325  13.962  0.1089  0.3167  0.0556
  324MPD2    H7 4876   0.701   0.381  14.018 -1.3213 -1.7107  0.4373
  325TMC3    C1 4877   0.137   0.246  13.814 -1.0004  0.9118  0.7074
  325TMC3    C2 4878   0.085   0.180  13.704  0.2544 -0.7953 -0.0407
  325TMC3    C3 4879   4.672   0.197  13.680  0.0247  0.3271  0.2714
  325TMC3    C4 4880   0.069   0.318  13.902 -0.6173  0.0316  0.3413
  325TMC3    C5 4881   4.664   0.332  13.869  0.1192  0.4576  0.0765
  325TMC3    C6 4882   4.595   0.282  13.759 -0.6708 -0.1250  0.3371
  325TMC3     C 4883   0.272   0.227  13.843  0.3537 -0.3458 -0.3303
  325TMC3     O 4884   0.298   0.255  13.954 -0.2145  0.4367 -0.4644
  325TMC3     H 4885   0.137   0.098  13.655  0.9496 -1.7526  2.3316
  325TMC3    H1 4886   0.119   0.380  13.976 -0.0647 -0.8818  0.7375
  325TMC3    H2 4887   4.489   0.299  13.742 -0.7546 -0.6511  0.3539
  325TMC3    C7 4888   4.578   0.407  13.957 -0.0764  0.0404 -0.5992
  325TMC3    C8 4889   4.604   0.124  13.577 -0.2085  0.3678  0.2798
  325TMC3    O1 4890   4.496   0.473  13.898  0.0412  0.0762 -0.0915
  325TMC3    O2 4891   4.671   0.097  13.475  0.3112  0.1251 -0.4873
  326MPD2     C 4892   1.938   1.196  10.948  0.2065 -0.6130 -0.1331
  326MPD2    C1 4893   1.872   1.264  10.846  0.5566  0.3404 -0.0861
  326MPD2    C2 4894   1.889   1.401  10.825 -0.1303 -0.3512 -0.2762
  326MPD2    C3 4895   1.981   1.469  10.905 -0.6395  0.1179  0.1198
  326MPD2    C4 4896   2.046   1.406  11.010 -0.1290  0.1615  0.0491
  326MPD2    C5 4897   2.023   1.270  11.027  0.8853 -0.5804 -0.4494
  326MPD2     H 4898   1.853   1.453  10.737  0.8821 -0.0545 -0.5131
  326MPD2    H1 4899   2.113   1.459  11.077 -1.2730  2.0865 -0.3271
  326MPD2    H2 4900   1.922   1.089  10.955 -0.8402 -0.4409  0.1117
  326MPD2    H3 4901   2.088   1.223  11.101 -0.7313 -0.4524  1.0577
  326MPD2     N 4902   2.026   1.598  10.870  0.1517 -1.1280 -0.3046
  326MPD2    H5 4903   2.108   1.634  10.917 -1.4639 -0.0117  1.6122
  326MPD2    N1 4904   1.799   1.195  10.743 -0.1890  0.0112  0.1276
  326MPD2    H7 4905   1.752   1.253  10.675  0.5871  0.7515  0.2198
  327TMC3    C1 4906   1.773   1.064  10.563  0.2836 -0.1897  0.8407
  327TMC3    C2 4907   1.690   1.162  10.519 -0.0597 -0.9931  0.0351
  327TMC3    C3 4908   1.699   1.192  10.381 -0.2785  0.2962  0.5570
  327TMC3    C4 4909   1.867   0.999  10.487  0.0092  0.0153 -0.1719
  327TMC3    C5 4910   1.877   1.037  10.360 -0.3288  0.2422 -0.2008
  327TMC3    C6 4911   1.791   1.129  10.307 -0.3579  0.7739 -0.1259
  327TMC3     C 4912   1.804   1.066  10.703 -0.1192  0.3942  0.1383
  327TMC3     O 4913   1.879   0.981  10.744 -0.2601 -0.2637  0.1618
  327TMC3     H 4914   1.615   1.209  10.582 -0.4500 -0.7178 -0.6349
  327TMC3    H1 4915   1.921   0.918  10.535  0.4558 -0.0635 -0.8005
  327TMC3    H2 4916   1.801   1.164  10.205 -0.7574 -1.7613 -1.0402
  327TMC3    C7 4917   2.013   1.064  10.309  0.0981  0.1430 -0.3427
  327TMC3    C8 4918   1.645   1.319  10.330  0.0407  0.3359  0.2151
  327TMC3    O1 4919   2.023   1.093  10.191  0.2899 -0.1026  0.4758
  327TMC3    O2 4920   1.720   1.377  10.250 -0.2308 -0.6488  0.6986
  328MPD2     C 4921   4.209   1.650  16.857 -0.2760  0.4538  0.0484
  328MPD2    C1 4922   4.118   1.552  16.831 -0.3090  0.3209  0.5426
  328MPD2    C2 4923   3.981   1.585  16.840  0.5731 -0.1064 -0.0544
  328MPD2    C3 4924   3.952   1.717  16.864  0.3584 -0.7628  0.1505
  328MPD2    C4 4925   4.052   1.808  16.901  0.1401  0.0480  1.0565
  328MPD2    C5 4926   4.180   1.774  16.895  0.6029  0.2153  1.2453
  328MPD2     H 4927   3.902   1.517  16.812 -0.2676  0.9540 -0.2798
  328MPD2    H1 4928   4.019   1.910  16.921  0.8349  0.7077 -1.1565
  328MPD2    H2 4929   4.314   1.622  16.855 -0.1751  0.7987  0.4190
  328MPD2    H3 4930   4.263   1.843  16.909  1.9072 -1.4975  1.9184
  328MPD2     N 4931   3.816   1.751  16.852  0.0258  0.0906  0.0987
  328MPD2    H5 4932   3.802   1.850  16.836  2.4555  0.4461  0.2958
  328MPD2    N1 4933   4.167   1.422  16.804  0.2933  0.0926 -0.7068
  328MPD2    H7 4934   4.268   1.412  16.805  0.3604  1.0573  1.1895
  329TMC3    C1 4935   4.166   1.217  16.690 -0.3879  0.2020 -0.1178
  329TMC3    C2 4936   4.097   1.097  16.693 -0.6955  0.1752  0.2081
  329TMC3    C3 4937   4.071   1.044  16.565  0.0471  0.8108 -0.1805
  329TMC3    C4 4938   4.242   1.267  16.583  0.8501 -0.3703 -0.0637
  329TMC3    C5 4939   4.226   1.188  16.464 -0.0182 -0.1568 -0.2430
  329TMC3    C6 4940   4.140   1.082  16.457 -0.3108  0.9585 -0.8573
  329TMC3     C 4941   4.088   1.315  16.762  0.9805  0.0864 -0.1072
  329TMC3     O 4942   3.966   1.295  16.765 -0.3212  0.0061 -0.2021
  329TMC3     H 4943   4.041   1.079  16.785 -0.0317  1.9455  0.9561
  329TMC3    H1 4944   4.286   1.366  16.581 -0.9893  0.5264  3.7426
  329TMC3    H2 4945   4.124   1.033  16.362  0.5591 -0.7891 -0.1081
  329TMC3    C7 4946   4.315   1.210  16.354 -0.7272  0.5509  0.1609
  329TMC3    C8 4947   3.979   0.931  16.554  0.0372  0.2157  0.1530
  329TMC3    O1 4948   4.279   1.183  16.238  0.2186  0.6888  0.8548
  329TMC3    O2 4949   3.942   0.904  16.439  0.2239  0.7183 -0.0483
  330TMC3    C1 4950   2.518   0.246   9.522  0.1831 -0.0020 -0.1484
  330TMC3    C2 4951   2.395   0.204   9.458 -0.4028 -0.0153  0.1190
  330TMC3    C3 4952   2.392   0.070   9.428  0.3868 -0.4971  0.4580
  330TMC3    C4 4953   2.621   0.165   9.559 -0.4468  0.7102 -0.0311
  330TMC3    C5 4954   2.608   0.031   9.526  0.2977  0.0705 -0.2679
  330TMC3    C6 4955   2.500   4.706   9.458 -0.1819  0.9995  0.2677
  330TMC3     C 4956   2.539   0.388   9.552  0.2815 -0.0783 -0.2405
  330TMC3     O 4957   2.647   0.421   9.599  0.2069  0.3071  0.2472
  330TMC3     H 4958   2.305   0.264   9.444 -0.5588 -0.2266  0.2274
  330TMC3    H1 4959   2.705   0.196   9.620 -3.3453  2.4054  3.1558
  330TMC3    H2 4960   2.498   4.602   9.428 -1.2504  0.8027  1.0581
  330TMC3    C7 4961   2.722   4.680   9.501 -0.2413 -0.3211 -0.4838
  330TMC3    C8 4962   2.297   0.035   9.331  0.1168 -0.3339 -0.1497
  330TMC3    O1 4963   2.746   4.651   9.386 -0.7051  0.1417  0.8236
  330TMC3    O2 4964   2.255   0.119   9.253  0.3189 -0.0457 -0.1775
  331MPD2     C 4965   4.458   4.526  12.326 -0.1623  0.3547  0.3591
  331MPD2    C1 4966   4.592   4.553  12.307 -0.2020 -0.0838  0.4322
  331MPD2    C2 4967   4.676   4.440  12.300  0.2083 -0.4599 -0.2049
  331MPD2    C3 4968   4.631   4.307  12.281 -0.0722 -0.2964  0.4588
  331MPD2    C4 4969   4.497   4.282  12.293 -0.3395 -0.2981 -0.2740
  331MPD2    C5 4970   4.418   4.394  12.318  0.1079  0.5550  0.7432
  331MPD2     H 4971   0.060   4.444  12.295  0.2051 -0.7138 -0.4818
  331MPD2    H1 4972   4.462   4.181  12.307  1.0342 -0.3527  2.6998
  331MPD2    H2 4973   4.384   4.605  12.335 -1.0970 -0.4984  0.1497
  331MPD2    H3 4974   4.313   4.382  12.343 -0.0403 -1.5234 -0.8285
  331MPD2     N 4975   4.724   4.218  12.228  0.3118 -0.5664 -0.3465
  331MPD2    H5 4976   0.095   4.253  12.222 -1.0342  2.9929 -0.8573
  331MPD2    N1 4977   4.642   4.689  12.316  0.7566 -0.2700  0.0948
  331MPD2    H7 4978   4.572   0.039  12.320  1.1848  0.1057  0.5544
  332TMC3    C1 4979   0.115   4.037  12.155  0.1300  0.1695  0.8737
  332TMC3    C2 4980   0.176   4.132  12.073 -0.2314  0.2771 -0.5111
  332TMC3    C3 4981   0.311   4.121  12.052  0.0166 -0.2984 -0.6245
  332TMC3    C4 4982   0.186   3.941  12.219  0.8766  0.0784 -1.0182
  332TMC3    C5 4983   0.322   3.932  12.196 -0.1609 -0.4225 -0.1097
  332TMC3    C6 4984   0.387   4.029  12.122 -0.1007 -0.1223  0.0977
  332TMC3     C 4985   4.718   4.087  12.215  0.4374 -0.0128 -0.2861
  332TMC3     O 4986   4.638   4.013  12.268 -0.6530 -0.1107 -0.4348
  332TMC3     H 4987   0.128   4.209  12.013 -2.9840  0.1150  1.4955
  332TMC3    H1 4988   0.152   3.868  12.292  1.5385  0.4987 -0.2864
  332TMC3    H2 4989   0.491   4.015  12.095  0.0546 -1.3964  1.3829
  332TMC3    C7 4990   0.405   3.825  12.263  0.2237 -0.2231  0.3390
  332TMC3    C8 4991   0.375   4.207  11.950  0.0999 -0.4931 -0.1705
  332TMC3    O1 4992   0.333   3.752  12.332  0.1931 -0.1304  0.5534
  332TMC3    O2 4993   0.499   4.215  11.956 -0.2630  0.2556 -0.6578
  333MPD2     C 4994   0.806   4.336  11.161 -0.0505 -0.4952 -0.8305
  333MPD2    C1 4995   0.876   4.243  11.086 -0.2201  0.4859 -0.4695
  333MPD2    C2 4996   0.834   4.112  11.109  0.1084  0.1702 -0.1797
  333MPD2    C3 4997   0.728   4.075  11.184 -0.0740  0.2010 -0.1017
  333MPD2    C4 4998   0.655   4.177  11.241 -0.1343  0.4132  0.3103
  333MPD2    C5 4999   0.700   4.307  11.240 -0.5032 -0.5005  0.3587
  333MPD2     H 5000   0.882   4.029  11.059  0.1450  0.7999 -1.1862
  333MPD2    H1 5001   0.566   4.160  11.300 -1.3124 -3.6497 -2.5799
  333MPD2    H2 5002   0.839   4.438  11.150  0.0855 -0.7021 -2.4337
  333MPD2    H3 5003   0.645   4.382  11.295 -1.6380 -0.8181 -0.3635
  333MPD2     N 5004   0.696   3.942  11.197  0.4457 -0.2224 -0.0771
  333MPD2    H5 5005   0.759   3.877  11.152  0.3932 -0.0136 -0.4551
  333MPD2    N1 5006   0.976   4.282  10.990 -0.3105  0.2620 -0.1062
  333MPD2    H7 5007   0.985   4.382  10.976 -1.3785  0.5314  1.1561
  334TMC3    C1 5008   1.129   4.264  10.799  0.0149 -0.4532  0.1120
  334TMC3    C2 5009   1.200   4.178  10.723  0.0273  0.3482  0.2017
  334TMC3    C3 5010   1.319   4.222  10.673  0.1948  0.8474 -0.0258
  334TMC3    C4 5011   1.170   4.395  10.810 -0.1255  0.5389 -0.1943
  334TMC3    C5 5012   1.285   4.441  10.749 -0.2875  0.3683  0.0166
  334TMC3    C6 5013   1.361   4.353  10.670  0.0080 -0.0505  0.1923
  334TMC3     C 5014   1.048   4.196  10.903 -0.2084 -0.4543  0.2636
  334TMC3     O 5015   1.032   4.074  10.894 -0.4406  0.0459  0.3004
  334TMC3     H 5016   1.167   4.076  10.709 -2.6368  1.6412 -2.7334
  334TMC3    H1 5017   1.117   4.464  10.875 -0.3441  1.7362 -1.6480
  334TMC3    H2 5018   1.463   4.384  10.651 -0.2361  0.0811 -0.9088
  334TMC3    C7 5019   1.308   4.577  10.722 -0.0488  0.0291  0.2265
  334TMC3    C8 5020   1.375   4.139  10.570 -1.0298 -0.3426 -0.0655
  334TMC3    O1 5021   1.423   4.624  10.698 -0.1197  0.4642  0.0220
  334TMC3    O2 5022   1.346   4.022  10.576 -0.1516 -0.2831 -0.2012
  335TMC3    C1 5023   4.716   1.252  17.032 -0.3140 -0.2906  0.2481
  335TMC3    C2 5024   4.624   1.180  16.958 -0.5026  0.4937  0.1741
  335TMC3    C3 5025   4.644   1.169  16.822 -0.2408  0.2794  0.2678
  335TMC3    C4 5026   0.114   1.283  16.977  0.0187  0.0970 -0.6439
  335TMC3    C5 5027   0.130   1.265  16.845 -0.7568  0.1051  0.6510
  335TMC3    C6 5028   0.032   1.217  16.762  0.4927 -0.4801 -0.1066
  335TMC3     C 5029   4.679   1.290  17.167  0.4453 -0.5328 -0.5818
  335TMC3     O 5030   4.566   1.273  17.207  0.2537 -0.1437 -0.7070
  335TMC3     H 5031   4.535   1.140  17.007 -0.0724 -0.8040 -0.1116
  335TMC3    H1 5032   0.196   1.324  17.034 -0.7800 -0.1382  0.6653
  335TMC3    H2 5033   0.050   1.194  16.658 -0.0865  0.4941 -0.4298
  335TMC3    C7 5034   0.262   1.280  16.785 -0.8135 -0.8962 -0.4873
  335TMC3    C8 5035   4.539   1.105  16.746  0.3315  0.2167 -0.0063
  335TMC3    O1 5036   0.270   1.308  16.666  0.2786 -0.0811  0.0276
  335TMC3    O2 5037   4.535   1.140  16.627 -0.6065  0.0535  0.1990
  336MPD2     C 5038   4.696   3.797  15.742  0.2299 -0.5361 -0.1026
  336MPD2    C1 5039   4.584   3.780  15.665 -0.4494 -0.6386 -0.7880
  336MPD2    C2 5040   4.569   3.652  15.603 -0.1069 -0.1699  0.2211
  336MPD2    C3 5041   4.673   3.559  15.607 -0.4098  0.4625  0.7476
  336MPD2    C4 5042   0.061   3.582  15.678  0.4484  0.2297 -0.1544
  336MPD2    C5 5043   0.065   3.698  15.749 -0.5573  0.0916 -0.3726
  336MPD2     H 5044   4.473   3.628  15.559  0.4178 -1.2589 -0.3241
  336MPD2    H1 5045   0.112   3.490  15.703 -0.4829  0.3337  2.0759
  336MPD2    H2 5046   4.709   3.890  15.797  1.5545  0.6297 -2.4084
  336MPD2    H3 5047   0.142   3.708  15.825  0.9234 -0.9456 -1.7458
  336MPD2     N 5048   4.652   3.423  15.553  0.4975 -0.2857  0.4660
  336MPD2    H5 5049   4.721   3.351  15.574  0.3303 -0.5158  0.2324
  336MPD2    N1 5050   4.479   3.874  15.653 -0.1550 -0.4312 -0.3478
  336MPD2    H7 5051   4.413   3.852  15.578 -1.5078  2.9094 -0.1543
  337TMC3    C1 5052   4.358   4.085  15.668 -0.6581 -0.1455 -0.2339
  337TMC3    C2 5053   4.243   4.024  15.618 -0.2479 -0.3398 -0.8699
  337TMC3    C3 5054   4.146   4.116  15.585 -0.5045 -0.4294 -0.3523
  337TMC3    C4 5055   4.371   4.219  15.700 -0.0090 -0.3984  1.0261
  337TMC3    C5 5056   4.264   4.301  15.676  0.5179 -0.0664  0.0575
  337TMC3    C6 5057   4.147   4.247  15.622  0.1815  0.4225 -0.0589
  337TMC3     C 5058   4.483   4.007  15.696  0.5818  0.0054 -0.4481
  337TMC3     O 5059   4.577   4.067  15.750  0.2119 -0.2713  0.2354
  337TMC3     H 5060   4.244   3.919  15.591 -2.2687 -0.7731  0.6869
  337TMC3    H1 5061   4.456   4.248  15.761 -0.2472  0.3264  1.0076
  337TMC3    H2 5062   4.063   4.312  15.599 -1.4444 -1.4554  0.5914
  337TMC3    C7 5063   4.240   4.419  15.758 -0.4110 -0.0815  0.6306
  337TMC3    C8 5064   4.021   4.054  15.558  0.0435 -0.1527 -0.5927
  337TMC3    O1 5065   4.132   4.427  15.808 -0.1077  0.6299 -0.1994
  337TMC3    O2 5066   4.019   3.933  15.561 -0.7687  0.5043 -0.1772
  338MPD2     C 5067   0.418   2.897   0.186 -0.2229  0.1431 -0.6528
  338MPD2    C1 5068   0.309   2.809   0.173  0.5542 -0.5919  0.0434
  338MPD2    C2 5069   0.265   2.746   0.289  0.0473 -0.3405  0.4181
  338MPD2    C3 5070   0.329   2.772   0.405  0.3367  0.1416 -0.9069
  338MPD2    C4 5071   0.423   2.875   0.417  0.1225 -0.5840  0.1587
  338MPD2    C5 5072   0.468   2.935   0.304  0.3753  0.4526  0.6210
  338MPD2     H 5073   0.194   2.664   0.288  0.8491 -1.0276 -0.2617
  338MPD2    H1 5074   0.471   2.891   0.513 -1.5498 -0.5477  0.9859
  338MPD2    H2 5075   0.468   2.940   0.101  3.0641 -1.3332  0.5631
  338MPD2    H3 5076   0.557   2.996   0.306  0.4452  0.3352  1.1716
  338MPD2     N 5077   0.278   2.698   0.518 -0.2529  0.0908  0.5800
  338MPD2    H5 5078   0.207   2.627   0.503  0.6156 -0.1899 -2.2340
  338MPD2    N1 5079   0.264   2.760   0.050  0.7715 -0.1058  0.2143
  338MPD2    H7 5080   0.199   2.682   0.051  0.1242  0.4254 -0.5888
  339TMC3    C1 5081   0.226   2.639   0.730 -0.0946  0.2800  0.4765
  339TMC3    C2 5082   0.143   2.539   0.682  0.3386 -0.0980 -0.4626
  339TMC3    C3 5083   0.060   2.475   0.771 -0.5651 -1.0823  0.1555
  339TMC3    C4 5084   0.226   2.669   0.860 -0.7949  0.3999 -0.0500
  339TMC3    C5 5085   0.142   2.596   0.946 -0.0784 -0.6779 -0.5997
  339TMC3    C6 5086   0.052   2.499   0.902 -0.2425 -0.3344 -0.0545
  339TMC3     C 5087   0.312   2.717   0.648 -0.2983 -0.3399  0.1239
  339TMC3     O 5088   0.395   2.785   0.706  0.1032 -0.1096 -0.0556
  339TMC3     H 5089   0.137   2.517   0.576 -1.0690 -0.2578 -0.3502
  339TMC3    H1 5090   0.301   2.737   0.898  2.5478 -3.6483  0.5792
  339TMC3    H2 5091   4.711   2.452   0.974 -0.4091  0.0465  0.0461
  339TMC3    C7 5092   0.139   2.625   1.090  0.4661  0.5204 -0.0379
  339TMC3    C8 5093   4.676   2.401   0.709 -0.4300  0.4152  0.9350
  339TMC3    O1 5094   0.105   2.543   1.172  0.1787 -0.3842  0.3892
  339TMC3    O2 5095   4.657   2.431   0.590 -0.5552 -1.0513 -0.0761
  340MPD2     C 5096   0.468   0.871   9.547  1.1243  0.7130  0.0241
  340MPD2    C1 5097   0.574   0.840   9.456  0.0881 -0.6016 -0.0215
  340MPD2    C2 5098   0.700   0.892   9.477 -0.2062  0.1802 -0.9538
  340MPD2    C3 5099   0.718   0.982   9.581  0.0627 -0.2603  0.5766
  340MPD2    C4 5100   0.614   1.030   9.654  0.9299  0.3074  0.2137
  340MPD2    C5 5101   0.492   0.969   9.641  0.1715  0.9408  0.2578
  340MPD2     H 5102   0.783   0.848   9.424  0.4849  1.5323 -0.9911
  340MPD2    H1 5103   0.624   1.089   9.745  0.0602  1.2136 -0.2862
  340MPD2    H2 5104   0.367   0.833   9.539  1.3052 -0.1649  1.7883
  340MPD2    H3 5105   0.415   1.000   9.712 -1.1207  0.0125 -0.7317
  340MPD2     N 5106   0.846   1.031   9.615  0.4701 -0.0146 -0.0263
  340MPD2    H5 5107   0.860   1.073   9.706 -1.0490  1.0810 -0.3064
  340MPD2    N1 5108   0.546   0.741   9.356  0.1015 -0.0541 -0.1017
  340MPD2    H7 5109   0.453   0.700   9.360  0.3287 -0.5786 -0.1569
  341TMC3    C1 5110   0.564   0.577   9.186 -0.4551  0.2347 -0.6379
  341TMC3    C2 5111   0.432   0.555   9.187 -0.5034 -0.0233  0.4972
  341TMC3    C3 5112   0.384   0.449   9.111 -0.1543 -0.1859 -0.1213
  341TMC3    C4 5113   0.652   0.493   9.115 -0.2190 -0.0564 -0.0222
  341TMC3    C5 5114   0.597   0.385   9.043  0.0683  0.0686  0.1585
  341TMC3    C6 5115   0.464   0.359   9.039  0.1308 -0.2686  0.0643
  341TMC3     C 5116   0.628   0.693   9.255 -0.8155 -0.1139 -0.6537
  341TMC3     O 5117   0.744   0.726   9.222  0.0058  0.4701  0.6028
  341TMC3     H 5118   0.369   0.619   9.247  0.1022  1.0524 -0.0272
  341TMC3    H1 5119   0.759   0.506   9.113  0.0005 -2.0646 -1.0267
  341TMC3    H2 5120   0.428   0.267   8.993 -1.4529 -0.7532  2.2730
  341TMC3    C7 5121   0.691   0.287   8.991  0.1813  0.1305  0.1483
  341TMC3    C8 5122   0.244   0.407   9.137  0.2971 -0.1427  0.0359
  341TMC3    O1 5123   0.790   0.273   9.061 -0.4454 -0.1908 -0.5782
  341TMC3    O2 5124   0.200   0.429   9.249  1.0156 -0.4591 -0.4494
  342MPD2     C 5125   2.848   4.264  16.659  0.1649 -0.2068 -0.0698
  342MPD2    C1 5126   2.930   4.201  16.749 -1.1799 -1.1010 -0.5476
  342MPD2    C2 5127   2.965   4.264  16.868  0.3008 -0.2137  0.0771
  342MPD2    C3 5128   2.910   4.390  16.900  0.1574  0.6943 -0.2774
  342MPD2    C4 5129   2.829   4.452  16.811  0.3279  0.2179 -0.2897
  342MPD2    C5 5130   2.794   4.384  16.696 -1.1381  0.1812  0.5030
  342MPD2     H 5131   3.043   4.223  16.931  1.7525  1.6101 -0.5198
  342MPD2    H1 5132   2.801   4.557  16.815 -1.9046 -0.3388 -1.5330
  342MPD2    H2 5133   2.830   4.224  16.560 -1.4372 -0.1695  0.2112
  342MPD2    H3 5134   2.724   4.439  16.634 -0.3760  0.3675 -0.1973
  342MPD2     N 5135   2.949   4.460  17.020 -0.1162 -0.3541 -0.2933
  342MPD2    H5 5136   2.892   4.543  17.036 -0.7005 -0.8919  0.4487
  342MPD2    N1 5137   2.987   4.074  16.724 -0.6572  0.4284  0.1605
  342MPD2    H7 5138   3.043   4.042  16.802 -0.4247  3.8470  1.4231
  343TMC3    C1 5139   3.047   3.876  16.623 -0.2492 -0.0042 -0.1391
  343TMC3    C2 5140   3.177   3.877  16.667 -0.1514  0.7164 -0.3054
  343TMC3    C3 5141   3.232   3.752  16.689 -0.3861  0.5772 -0.0736
  343TMC3    C4 5142   2.976   3.764  16.600  0.0093  0.2306  0.6038
  343TMC3    C5 5143   3.037   3.646  16.628 -0.0411  0.4365 -0.6487
  343TMC3    C6 5144   3.166   3.634  16.669  0.8937 -0.0383 -0.0563
  343TMC3     C 5145   2.977   4.003  16.608  0.7189 -0.3412  0.2212
  343TMC3     O 5146   2.918   4.023  16.503  0.3658  0.0819  0.3391
  343TMC3     H 5147   3.233   3.967  16.692 -0.8382  1.1396 -0.2768
  343TMC3    H1 5148   2.874   3.781  16.567 -0.0756 -1.2132  0.1128
  343TMC3    H2 5149   3.210   3.537  16.687  1.7617  0.2345 -0.7028
  343TMC3    C7 5150   2.949   3.542  16.668 -0.4199 -0.0948 -0.0480
  343TMC3    C8 5151   3.375   3.743  16.707  0.8328 -0.3415  0.4830
  343TMC3    O1 5152   2.835   3.537  16.620 -0.2077 -0.2415  0.6415
  343TMC3    O2 5153   3.433   3.821  16.779  0.1463 -0.0670 -0.1094
  344MPD2     C 5154   4.003   3.863  10.608 -0.1109  0.0939 -0.4573
  344MPD2    C1 5155   3.902   3.883  10.514  0.2420  0.0330 -0.4701
  344MPD2    C2 5156   3.919   3.968  10.406 -0.8586  0.3949 -0.5576
  344MPD2    C3 5157   4.048   4.018  10.384  0.2409 -0.4654 -0.2712
  344MPD2    C4 5158   4.156   3.984  10.461  0.5170  0.3116 -0.1046
  344MPD2    C5 5159   4.135   3.906  10.576 -0.0412  0.1353  0.4190
  344MPD2     H 5160   3.835   3.996  10.344 -0.4654  0.8945 -0.8647
  344MPD2    H1 5161   4.255   4.028  10.461 -0.3125  2.1870  0.4457
  344MPD2    H2 5162   3.987   3.798  10.693 -1.7202  0.4775 -0.4802
  344MPD2    H3 5163   4.212   3.874  10.645 -0.2250  1.1184  1.0705
  344MPD2     N 5164   4.079   4.105  10.283  0.4050  0.3885 -0.1766
  344MPD2    H5 5165   4.169   4.151  10.291  1.2691 -0.7600 -3.1792
  344MPD2    N1 5166   3.788   3.799  10.517  0.2298  0.4627 -0.2507
  344MPD2    H7 5167   3.739   3.778  10.430  2.3545 -1.9355 -0.8546
  345TMC3    C1 5168   4.044   4.263  10.101  0.4973 -0.7581 -0.0527
  345TMC3    C2 5169   4.100   4.368  10.170  0.8631  0.6903 -0.1335
  345TMC3    C3 5170   4.156   4.470  10.094  0.5498 -0.4773  0.3517
  345TMC3    C4 5171   4.033   4.263   9.961  0.0452 -0.3158 -0.5034
  345TMC3    C5 5172   4.088   4.370   9.891  0.2603 -0.1377 -0.1887
  345TMC3    C6 5173   4.151   4.470   9.960  0.8864 -0.1560  0.6810
  345TMC3     C 5174   3.992   4.152  10.181 -0.3797 -0.0061 -0.5984
  345TMC3     O 5175   3.885   4.112  10.133 -0.5512 -0.3589 -0.0215
  345TMC3     H 5176   4.109   4.379  10.277  0.4099 -0.6801  0.0397
  345TMC3    H1 5177   3.994   4.177   9.907 -0.7349  0.2293 -0.8013
  345TMC3    H2 5178   4.197   4.560   9.919  0.3795  0.0071  0.4718
  345TMC3    C7 5179   4.029   4.417   9.762 -0.2491 -0.4378 -0.8071
  345TMC3    C8 5180   4.268   4.541  10.161 -0.1263 -0.1293 -0.4199
  345TMC3    O1 5181   4.068   4.520   9.711 -0.0572 -0.2298 -0.1396
  345TMC3    O2 5182   4.262   4.556  10.281 -0.1883 -1.0347  0.0064
  346MPD2     C 5183   3.476   0.638  13.617  0.6831  0.3570 -0.8859
  346MPD2    C1 5184   3.617   0.626  13.607 -0.5812  0.3594 -0.0355
  346MPD2    C2 5185   3.702   0.652  13.711 -0.2698  0.0673 -0.2452
  346MPD2    C3 5186   3.648   0.683  13.833 -0.3189  0.5602  1.2420
  346MPD2    C4 5187   3.515   0.698  13.840 -0.3525 -0.4265 -0.6310
  346MPD2    C5 5188   3.424   0.667  13.738 -0.7681  0.5353 -0.3987
  346MPD2     H 5189   3.810   0.648  13.702 -0.2967  1.6273 -1.3342
  346MPD2    H1 5190   3.474   0.740  13.932  0.2041 -0.4103 -0.3900
  346MPD2    H2 5191   3.400   0.637  13.540  0.9066  0.1365 -1.1052
  346MPD2    H3 5192   3.317   0.682  13.746 -0.8878 -0.6033  0.2174
  346MPD2     N 5193   3.733   0.720  13.940 -0.4225 -0.9146 -0.2215
  346MPD2    H5 5194   3.832   0.727  13.920 -0.7649 -0.0924 -1.6956
  346MPD2    N1 5195   3.684   0.595  13.488  0.1459  1.2239  0.5018
  346MPD2    H7 5196   3.785   0.612  13.484  0.0459  1.9691  1.0443
  347TMC3    C1 5197   3.814   0.792  14.151 -0.6515 -0.2508 -0.4376
  347TMC3    C2 5198   3.933   0.731  14.123  0.0083  0.2772 -0.1189
  347TMC3    C3 5199   4.036   0.748  14.208 -1.1563 -0.3203 -0.0863
  347TMC3    C4 5200   3.795   0.851  14.273  0.6427  0.9501  0.2958
  347TMC3    C5 5201   3.907   0.872  14.354 -0.3508  0.3272 -0.6120
  347TMC3    C6 5202   4.031   0.820  14.325 -0.3570  0.3183 -0.3811
  347TMC3     C 5203   3.696   0.781  14.056  0.3109 -0.6641 -0.9931
  347TMC3     O 5204   3.590   0.822  14.097 -0.3945 -0.1259 -0.2242
  347TMC3     H 5205   3.948   0.674  14.032 -1.1134 -0.1256 -0.0601
  347TMC3    H1 5206   3.696   0.878  14.308 -0.5775 -0.6471 -1.9400
  347TMC3    H2 5207   4.121   0.857  14.372 -0.2912 -0.1940 -0.1000
  347TMC3    C7 5208   3.893   0.965  14.465  0.2400 -0.3719 -0.7711
  347TMC3    C8 5209   4.152   0.673  14.181  0.5178 -0.6061 -0.5301
  347TMC3    O1 5210   3.787   1.023  14.478  0.1882 -0.0675  0.2638
  347TMC3    O2 5211   4.168   0.652  14.061  0.0213 -0.3079  0.3714
  348MPD2     C 5212   2.907   0.379  11.736  0.6205 -0.3151 -0.0665
  348MPD2    C1 5213   2.968   0.295  11.644  0.1315 -0.2717 -0.1108
  348MPD2    C2 5214   2.958   0.326  11.514 -0.2656 -0.2533 -0.4490
  348MPD2    C3 5215   2.903   0.445  11.477 -0.7681  0.2741  0.3558
  348MPD2    C4 5216   2.850   0.529  11.564 -0.0470 -0.3562  0.2551
  348MPD2    C5 5217   2.847   0.492  11.691 -0.3270 -0.4720 -0.0957
  348MPD2     H 5218   3.016   0.276  11.437  1.2426 -1.2530  1.3473
  348MPD2    H1 5219   2.803   0.625  11.542  0.4549  0.1524  1.3750
  348MPD2    H2 5220   2.906   0.364  11.843  0.3519 -1.1538 -0.1917
  348MPD2    H3 5221   2.800   0.554  11.766  1.3236 -0.0459  0.5812
  348MPD2     N 5222   2.915   0.487  11.341  0.1159  0.0571 -0.1575
  348MPD2    H5 5223   2.961   0.423  11.277 -2.2404  0.5928 -2.3668
  348MPD2    N1 5224   3.046   0.180  11.680  0.1783  0.2520  0.4347
  348MPD2    H7 5225   3.096   0.142  11.600 -0.5443 -0.0583  0.1391
  349TMC3    C1 5226   3.151   0.014  11.797 -0.0254  0.3185 -0.9465
  349TMC3    C2 5227   3.098   4.623  11.848 -0.3084 -0.0136 -0.3147
  349TMC3    C3 5228   3.158   4.506  11.812 -0.5046 -0.5184  0.0032
  349TMC3    C4 5229   3.255   0.013  11.701 -0.3215 -0.0868 -0.1045
  349TMC3    C5 5230   3.302   4.615  11.671  0.3808 -0.1847  0.1813
  349TMC3    C6 5231   3.261   4.498  11.727 -0.1574  0.2919 -0.1792
  349TMC3     C 5232   3.064   0.128  11.803 -0.2405 -0.1332  0.1861
  349TMC3     O 5233   3.005   0.147  11.908  0.1701  0.4558 -0.0352
  349TMC3     H 5234   3.007   4.630  11.907 -0.9041 -1.0300 -1.1167
  349TMC3    H1 5235   3.290   0.108  11.661  0.5401 -0.8423 -1.1324
  349TMC3    H2 5236   3.298   4.403  11.689 -0.5452 -0.6950  1.8686
  349TMC3    C7 5237   3.415   4.609  11.582 -0.1116 -0.1658  0.4203
  349TMC3    C8 5238   3.115   4.383  11.872  0.4519 -0.1129 -0.0919
  349TMC3    O1 5239   3.485   4.511  11.601  0.3292 -0.1975 -0.0571
  349TMC3    O2 5240   3.197   4.296  11.898 -0.3096 -0.4245  0.4809
  350MPD2     C 5241   1.499   3.046   9.313 -0.6353  0.1757 -0.0896
  350MPD2    C1 5242   1.527   2.935   9.394 -0.0038 -0.2716  0.4050
  350MPD2    C2 5243   1.591   2.957   9.517 -0.2989 -0.5624 -0.5471
  350MPD2    C3 5244   1.647   3.081   9.549 -0.2127  0.1630 -0.2024
  350MPD2    C4 5245   1.608   3.187   9.473  0.6919  0.4876 -1.0659
  350MPD2    C5 5246   1.537   3.173   9.353 -0.2408  0.5297 -0.3340
  350MPD2     H 5247   1.621   2.877   9.583  0.4673 -0.8866 -1.2951
  350MPD2    H1 5248   1.642   3.289   9.488 -1.9546  0.8865  2.1670
  350MPD2    H2 5249   1.454   3.043   9.215 -2.1566  0.1065  0.6168
  350MPD2    H3 5250   1.531   3.261   9.288 -2.3103 -0.0494 -0.9421
  350MPD2     N 5251   1.703   3.097   9.678 -0.9623  0.3757 -0.6813
  350MPD2    H5 5252   1.730   3.014   9.731  1.7109  0.7281 -1.4644
  350MPD2    N1 5253   1.487   2.801   9.364  0.3715 -0.3008 -0.0988
  350MPD2    H7 5254   1.510   2.724   9.428  2.0775  0.1391 -0.1781
  351TMC3    C1 5255   1.375   2.628   9.257 -0.3594  0.0224 -0.7342
  351TMC3    C2 5256   1.487   2.543   9.256 -0.2556 -0.4619 -1.1863
  351TMC3    C3 5257   1.454   2.417   9.206 -0.8781  0.3161 -0.3273
  351TMC3    C4 5258   1.248   2.590   9.223  0.5328  0.3155 -0.6815
  351TMC3    C5 5259   1.224   2.464   9.185 -0.5090  0.5095  0.1013
  351TMC3    C6 5260   1.325   2.374   9.175  0.1290  0.4878  0.8565
  351TMC3     C 5261   1.396   2.768   9.272 -0.2048  0.0597 -0.2753
  351TMC3     O 5262   1.328   2.847   9.205 -0.1410 -0.3000 -0.2835
  351TMC3     H 5263   1.588   2.579   9.266 -0.7364  0.9039 -1.2916
  351TMC3    H1 5264   1.165   2.660   9.234  0.4739  0.1719 -0.1851
  351TMC3    H2 5265   1.316   2.276   9.129  2.9281 -0.5688  2.5448
  351TMC3    C7 5266   1.091   2.424   9.157 -0.0026  0.5105 -0.0788
  351TMC3    C8 5267   1.565   2.321   9.206 -0.1387  0.3723 -0.6014
  351TMC3    O1 5268   1.016   2.519   9.129  0.0026  0.1526 -0.1837
  351TMC3    O2 5269   1.558   2.222   9.131  0.3361 -0.2857 -0.1147
  352MPD2     C 5270   4.152   0.605   1.289  0.4329 -0.3607  0.2366
  352MPD2    C1 5271   4.122   0.491   1.228 -0.6212  0.1292  0.2998
  352MPD2    C2 5272   4.131   0.369   1.295 -0.4413  0.0745 -1.2661
  352MPD2    C3 5273   4.159   0.377   1.430  0.2179 -0.7091  0.3269
  352MPD2    C4 5274   4.197   0.495   1.491 -0.2717 -0.6040  0.2719
  352MPD2    C5 5275   4.201   0.609   1.419 -0.4488 -0.0114  0.0236
  352MPD2     H 5276   4.130   0.272   1.246 -0.9351 -1.8845  2.6174
  352MPD2    H1 5277   4.210   0.513   1.597 -2.9714  0.4928  0.4226
  352MPD2    H2 5278   4.150   0.699   1.234  1.5503 -1.4855 -1.7151
  352MPD2    H3 5279   4.222   0.704   1.468  2.2156 -1.4091  1.5900
  352MPD2     N 5280   4.162   0.265   1.513 -0.2423  0.2068  0.0211
  352MPD2    H5 5281   4.189   0.287   1.608  0.1290  1.7645 -0.4521
  352MPD2    N1 5282   4.104   0.499   1.086 -0.5671 -0.3266 -0.0401
  352MPD2    H7 5283   4.112   0.590   1.041 -1.0647 -1.0764 -1.6325
  353TMC3    C1 5284   4.178   0.034   1.569 -0.5724  0.5484 -0.2338
  353TMC3    C2 5285   4.284   0.062   1.651  0.3416 -0.1679  0.0599
  353TMC3    C3 5286   4.324   4.700   1.743  0.2995  0.4791  0.3094
  353TMC3    C4 5287   4.124   4.632   1.575 -0.0876 -0.0302  0.4041
  353TMC3    C5 5288   4.171   4.543   1.673 -0.2636 -0.3264 -0.1533
  353TMC3    C6 5289   4.279   4.574   1.752 -0.2520  0.1276  0.4385
  353TMC3     C 5290   4.128   0.131   1.482 -0.7295 -0.4167  0.0039
  353TMC3     O 5291   4.074   0.090   1.379 -0.6317 -0.3750 -0.5025
  353TMC3     H 5292   4.341   0.153   1.634  0.0760 -0.2242 -1.1067
  353TMC3    H1 5293   4.045   4.610   1.504 -0.4882  0.0672  0.8215
  353TMC3    H2 5294   4.305   4.506   1.832 -1.8740  1.3275  1.9897
  353TMC3    C7 5295   4.144   4.399   1.674  0.6354 -0.4759 -0.2695
  353TMC3    C8 5296   4.456   4.712   1.798 -0.1718 -0.1142  0.2081
  353TMC3    O1 5297   4.164   4.332   1.776 -0.0028 -0.2261 -0.2652
  353TMC3    O2 5298   4.485   0.107   1.824 -0.3478  0.3529  0.0896
  354TMC3    C1 5299   1.798   1.326  13.078 -1.0963  0.0299 -0.1904
  354TMC3    C2 5300   1.733   1.422  13.011 -0.0951  0.0688  0.2571
  354TMC3    C3 5301   1.795   1.480  12.900 -0.6653  0.2204  0.0527
  354TMC3    C4 5302   1.912   1.274  13.034 -0.0404  0.4289  0.5959
  354TMC3    C5 5303   1.962   1.311  12.913 -0.0632 -0.4103 -0.3631
  354TMC3    C6 5304   1.906   1.415  12.841  0.4348 -0.2405  0.1088
  354TMC3     C 5305   1.752   1.299  13.217 -0.0427  0.2729  0.0456
  354TMC3     O 5306   1.631   1.322  13.239  0.0521 -0.0398  0.4879
  354TMC3     H 5307   1.643   1.456  13.062  1.0123 -0.3996  2.5474
  354TMC3    H1 5308   1.966   1.193  13.082  0.7168  1.3578  1.2911
  354TMC3    H2 5309   1.932   1.433  12.738  3.3219  2.0772  1.2216
  354TMC3    C7 5310   2.090   1.254  12.873  0.3974 -0.5998  0.6232
  354TMC3    C8 5311   1.747   1.595  12.829 -0.9976  0.2467 -0.1168
  354TMC3    O1 5312   2.130   1.142  12.905  0.1199  0.4968  0.6061
  354TMC3    O2 5313   1.809   1.628  12.727 -0.4190 -0.5476  0.0245
  355MPD2     C 5314   1.545   2.466  11.278 -0.1259  0.1332 -0.2446
  355MPD2    C1 5315   1.613   2.512  11.170  0.5126  0.5418  0.1632
  355MPD2    C2 5316   1.739   2.476  11.159  0.2662 -0.1431  0.0802
  355MPD2    C3 5317   1.800   2.402  11.261 -0.0645 -0.6868 -0.2902
  355MPD2    C4 5318   1.722   2.351  11.358 -0.1860  0.6271 -0.1852
  355MPD2    C5 5319   1.585   2.380  11.367 -0.9003  0.1821 -0.8760
  355MPD2     H 5320   1.798   2.504  11.072 -1.3401  0.2920 -0.8622
  355MPD2    H1 5321   1.763   2.286  11.433 -0.8414  0.6088  0.1543
  355MPD2    H2 5322   1.440   2.491  11.284 -0.1357  0.1378 -0.4409
  355MPD2    H3 5323   1.527   2.331  11.444  0.0286  0.1021 -0.2251
  355MPD2     N 5324   1.941   2.379  11.273 -0.0900 -0.2689 -0.3829
  355MPD2    H5 5325   1.980   2.357  11.364  4.1566  0.0186 -2.1248
  355MPD2    N1 5326   1.544   2.608  11.090  0.8009  0.0689  0.1783
  355MPD2    H7 5327   1.444   2.613  11.105  1.2033  2.2553  2.2631
  356TMC3    C1 5328   2.171   2.445  11.203 -0.5343 -0.4233  0.8227
  356TMC3    C2 5329   2.253   2.483  11.098 -0.2528  0.5165  0.4541
  356TMC3    C3 5330   2.387   2.491  11.123  0.8109 -0.6746  0.5130
  356TMC3    C4 5331   2.221   2.411  11.330  0.5568  0.6505 -0.1763
  356TMC3    C5 5332   2.357   2.432  11.346  0.2571 -1.0023  0.4892
  356TMC3    C6 5333   2.442   2.475  11.245  0.1039 -0.5599  0.5001
  356TMC3     C 5334   2.031   2.415  11.173  0.4440 -0.0695 -0.6915
  356TMC3     O 5335   2.015   2.425  11.051  0.2594  0.2278  0.3292
  356TMC3     H 5336   2.214   2.515  11.002  0.2826 -1.6416 -0.4706
  356TMC3    H1 5337   2.164   2.365  11.410 -0.5741  0.0739 -1.3196
  356TMC3    H2 5338   2.547   2.456  11.267  0.6541  1.4411 -0.4021
  356TMC3    C7 5339   2.419   2.385  11.473 -0.1260 -0.3257  0.2749
  356TMC3    C8 5340   2.469   2.566  11.024 -0.1420  0.2625 -0.0475
  356TMC3    O1 5341   2.343   2.305  11.531 -0.2223 -0.2130 -0.2042
  356TMC3    O2 5342   2.428   2.561  10.908 -0.6252 -0.0457  0.6874
  357MPD2     C 5343   1.761   2.812   0.725 -0.0052 -0.4564 -0.3324
  357MPD2    C1 5344   1.724   2.701   0.804  0.2350  0.2013  1.0617
  357MPD2    C2 5345   1.598   2.693   0.863  0.7457  0.3560  0.1852
  357MPD2    C3 5346   1.509   2.797   0.840  0.1813 -0.3742  0.0438
  357MPD2    C4 5347   1.545   2.908   0.767  1.2228  0.2349  0.3388
  357MPD2    C5 5348   1.671   2.912   0.713 -0.5134 -0.2522 -0.4681
  357MPD2     H 5349   1.573   2.609   0.927 -0.3222  1.3221  1.0227
  357MPD2    H1 5350   1.490   3.001   0.766 -1.7297 -1.5339 -1.4590
  357MPD2    H2 5351   1.850   2.814   0.663  0.0981  1.9909 -0.1195
  357MPD2    H3 5352   1.693   3.004   0.660 -2.8450  0.7678  0.3312
  357MPD2     N 5353   1.372   2.804   0.886 -0.1538 -0.1482 -0.8529
  357MPD2    H5 5354   1.314   2.883   0.861 -0.5467 -0.4447 -0.8878
  357MPD2    N1 5355   1.813   2.594   0.809 -0.1630 -0.1466  0.2612
  357MPD2    H7 5356   1.889   2.592   0.741  0.7267  0.2349  1.2321
  358TMC3    C1 5357   1.880   2.378   0.848 -0.3090  0.5660  0.6895
  358TMC3    C2 5358   1.884   2.341   0.717  0.5249 -0.9096  0.4407
  358TMC3    C3 5359   1.952   2.227   0.689 -0.1601 -0.9382  0.3895
  358TMC3    C4 5360   1.933   2.301   0.947 -0.1919 -1.0086 -0.3647
  358TMC3    C5 5361   1.983   2.177   0.914 -0.1879  0.0723  0.3600
  358TMC3    C6 5362   2.004   2.147   0.781  0.1353  0.1756  0.5538
  358TMC3     C 5363   1.797   2.487   0.885 -0.0783  0.7559  0.3328
  358TMC3     O 5364   1.750   2.486   0.998 -0.3345  0.0804 -0.2389
  358TMC3     H 5365   1.848   2.411   0.643 -0.7006 -2.0708 -0.0699
  358TMC3    H1 5366   1.941   2.336   1.049  1.0512  0.4548 -0.9567
  358TMC3    H2 5367   2.032   2.046   0.753  0.7892  0.6713 -0.5838
  358TMC3    C7 5368   2.049   2.091   1.007  0.1032 -0.5238 -0.2137
  358TMC3    C8 5369   1.943   2.171   0.559  0.4211 -0.5539 -0.2610
  358TMC3    O1 5370   2.115   2.005   0.953  0.3522 -0.3181  0.6450
  358TMC3    O2 5371   2.033   2.102   0.517 -0.1828  0.1764 -1.0013
  359MPD2     C 5372   2.582   1.864  12.112 -0.1843 -0.0272 -0.1254
  359MPD2    C1 5373   2.566   1.726  12.127  0.0975 -0.5592 -0.3281
  359MPD2    C2 5374   2.448   1.675  12.162  0.1311 -0.4303  0.0703
  359MPD2    C3 5375   2.334   1.751  12.186  0.3449  0.4028 -0.0795
  359MPD2    C4 5376   2.343   1.887  12.171 -0.0956 -0.2816  0.3068
  359MPD2    C5 5377   2.468   1.935  12.136  0.0477  0.0048  0.0640
  359MPD2     H 5378   2.447   1.567  12.173 -0.5152 -0.1283  2.9355
  359MPD2    H1 5379   2.264   1.960  12.185  0.8463  0.7652  0.1802
  359MPD2    H2 5380   2.681   1.904  12.097 -0.1129 -0.6519 -1.2712
  359MPD2    H3 5381   2.471   2.043  12.127  0.6617  0.0531  0.7977
  359MPD2     N 5382   2.212   1.690  12.230  0.8233  0.7730 -0.0286
  359MPD2    H5 5383   2.131   1.750  12.244  0.6824  0.4742  0.4546
  359MPD2    N1 5384   2.674   1.638  12.100 -0.5752  0.3525  0.4493
  359MPD2    H7 5385   2.653   1.539  12.106  2.5731 -0.3201  0.3463
  360TMC3    C1 5386   2.878   1.552  12.005  0.7141  0.3002  0.1642
  360TMC3    C2 5387   3.010   1.545  12.000 -0.3680 -0.8463  0.4723
  360TMC3    C3 5388   3.068   1.466  11.909 -0.3601 -0.0614 -0.0373
  360TMC3    C4 5389   2.798   1.480  11.920  0.5882  0.7163 -0.1955
  360TMC3    C5 5390   2.865   1.402  11.827  0.1923 -0.0691 -0.1731
  360TMC3    C6 5391   2.998   1.387  11.820 -0.8205 -0.4471 -0.0511
  360TMC3     C 5392   2.807   1.659  12.070 -0.1073 -0.0887  0.0955
  360TMC3     O 5393   2.878   1.756  12.087  0.7121  0.4476 -0.1020
  360TMC3     H 5394   3.073   1.620  12.045  0.6708 -0.2130 -2.0329
  360TMC3    H1 5395   2.692   1.500  11.911  0.7060  0.6499 -1.7366
  360TMC3    H2 5396   3.051   1.342  11.737 -0.0706 -0.8378  0.6371
  360TMC3    C7 5397   2.786   1.334  11.726  0.1202  0.1787 -0.8594
  360TMC3    C8 5398   3.216   1.454  11.918  0.4042  0.5536  0.1285
  360TMC3    O1 5399   2.667   1.369  11.719 -0.0184 -0.7853 -0.1414
  360TMC3    O2 5400   3.272   1.544  11.973 -0.4083 -0.0921  0.0699
  361MPD2     C 5401   3.831   0.234  16.711  0.6681 -0.1760  0.5308
  361MPD2    C1 5402   3.742   0.145  16.766 -0.1946  0.2428  0.2256
  361MPD2    C2 5403   3.794   0.027  16.815 -0.3350  0.4454  0.5795
  361MPD2    C3 5404   3.918   4.715  16.785 -0.0137  0.0772 -0.0304
  361MPD2    C4 5405   4.007   0.076  16.729  0.4592  0.0842  0.5860
  361MPD2    C5 5406   3.964   0.205  16.701 -0.3058 -0.4519  0.2205
  361MPD2     H 5407   3.729   4.681  16.867 -1.6139  0.7843 -0.5774
  361MPD2    H1 5408   4.108   0.042  16.708  0.2197 -1.2687  1.6984
  361MPD2    H2 5409   3.793   0.331  16.681  1.3619  0.1442  0.6759
  361MPD2    H3 5410   4.035   0.275  16.659 -0.8286  0.4808  0.8826
  361MPD2     N 5411   3.966   4.586  16.815 -0.3050 -0.3661  0.1834
  361MPD2    H5 5412   4.059   4.565  16.781  1.3162  1.7224  3.2796
  361MPD2    N1 5413   3.605   0.153  16.757  0.7222  0.5651  0.5010
  361MPD2    H7 5414   3.549   0.090  16.814  0.4917 -0.7957 -1.2114
  362TMC3    C1 5415   3.395   0.233  16.693 -0.7434 -0.3401 -0.6126
  362TMC3    C2 5416   3.350   0.256  16.821  0.6947 -0.3063  0.0113
  362TMC3    C3 5417   3.225   0.316  16.831  0.4381 -0.1747 -0.1440
  362TMC3    C4 5418   3.318   0.270  16.585 -0.7271  0.7913  0.4230
  362TMC3    C5 5419   3.199   0.331  16.608 -0.0210 -0.5804  0.2198
  362TMC3    C6 5420   3.152   0.366  16.729  0.5136 -0.1298  0.4678
  362TMC3     C 5421   3.536   0.222  16.663  0.3145  0.1630  0.3440
  362TMC3     O 5422   3.572   0.264  16.554 -0.2504 -0.5485  0.4380
  362TMC3     H 5423   3.406   0.231  16.911 -0.1380 -0.5174  0.4744
  362TMC3    H1 5424   3.350   0.255  16.483 -3.4356 -0.6198 -0.2205
  362TMC3    H2 5425   3.054   0.412  16.737  0.1007 -0.7243 -1.2408
  362TMC3    C7 5426   3.136   0.384  16.490  0.5651  1.1209  0.0362
  362TMC3    C8 5427   3.192   0.358  16.966 -1.3668  0.2380  0.9837
  362TMC3    O1 5428   3.073   0.492  16.505 -0.0203 -0.1536  0.1481
  362TMC3    O2 5429   3.240   0.284  17.052 -0.3525  0.8452 -0.4089
  363TMC3    C1 5430   2.225   2.308   8.885 -0.1078 -0.0239 -0.3141
  363TMC3    C2 5431   2.286   2.276   8.995  0.1173 -0.2193 -0.2414
  363TMC3    C3 5432   2.315   2.368   9.086  1.0914 -0.4063 -0.0102
  363TMC3    C4 5433   2.200   2.438   8.853  0.6674  0.5416  0.1188
  363TMC3    C5 5434   2.237   2.535   8.944  0.9972 -0.2253 -0.7457
  363TMC3    C6 5435   2.299   2.501   9.061 -0.0638  0.1049  1.0033
  363TMC3     C 5436   2.192   2.201   8.792 -0.2208 -0.2189 -0.2386
  363TMC3     O 5437   2.263   2.103   8.804 -0.7012 -0.1785  0.2691
  363TMC3     H 5438   2.284   2.170   9.018  2.2462 -0.3295 -0.5819
  363TMC3    H1 5439   2.170   2.464   8.752  1.5990 -0.5654 -0.4390
  363TMC3    H2 5440   2.321   2.573   9.139 -1.6199  1.1756  0.4348
  363TMC3    C7 5441   2.213   2.674   8.916 -0.2126  0.1605 -0.3573
  363TMC3    C8 5442   2.387   2.328   9.208  0.2263  0.5206  0.4432
  363TMC3    O1 5443   2.280   2.760   8.972 -0.3367  0.4208 -0.4441
  363TMC3    O2 5444   2.373   2.397   9.311  0.5033 -0.3166  0.1432
  364MPD2     C 5445   1.302   1.698  10.314  0.4231 -0.0642  0.0133
  364MPD2    C1 5446   1.419   1.680  10.240 -0.1940 -1.0815 -0.1582
  364MPD2    C2 5447   1.493   1.569  10.270 -0.5950  0.0703 -0.3375
  364MPD2    C3 5448   1.462   1.483  10.374  0.2395 -0.5086 -0.1416
  364MPD2    C4 5449   1.347   1.499  10.442  0.4834 -0.4889 -0.2211
  364MPD2    C5 5450   1.261   1.600  10.409 -1.0434 -0.5291  0.0372
  364MPD2     H 5451   1.591   1.564  10.224 -0.7638 -0.1518 -0.6712
  364MPD2    H1 5452   1.316   1.434  10.523  1.7016 -1.4525 -0.5363
  364MPD2    H2 5453   1.230   1.773  10.284 -0.5827 -0.8568  0.4863
  364MPD2    H3 5454   1.164   1.616  10.456 -1.9449 -2.6919 -1.1033
  364MPD2     N 5455   1.534   1.362  10.405  0.7727  0.2247 -1.3150
  364MPD2    H5 5456   1.494   1.292  10.466  1.2842 -0.9513 -2.3199
  364MPD2    N1 5457   1.463   1.794  10.164 -0.2556 -0.6327  0.4010
  364MPD2    H7 5458   1.403   1.875  10.172 -0.4944 -0.6624 -1.1196
  365TMC3    C1 5459   1.586   1.909   9.993  0.2272  0.6132 -0.1080
  365TMC3    C2 5460   1.640   1.892   9.870  0.1342 -0.7292 -0.3475
  365TMC3    C3 5461   1.661   2.005   9.791 -0.2095  0.0290  0.2123
  365TMC3    C4 5462   1.540   2.026  10.042 -0.6277  0.2610  0.0805
  365TMC3    C5 5463   1.557   2.139   9.963  0.1303 -0.0397  0.3952
  365TMC3    C6 5464   1.610   2.127   9.834  0.5545  0.9395  0.1623
  365TMC3     C 5465   1.563   1.785  10.069  0.7339  0.1298  0.1025
  365TMC3     O 5466   1.632   1.690  10.038 -0.2556  0.2818 -0.1798
  365TMC3     H 5467   1.664   1.794   9.831  0.3787 -0.4648 -0.8562
  365TMC3    H1 5468   1.516   2.035  10.147  0.5004 -1.4428  0.4717
  365TMC3    H2 5469   1.634   2.219   9.781  1.6687  0.0522 -0.8516
  365TMC3    C7 5470   1.515   2.269  10.004 -0.4388  0.2635 -1.7451
  365TMC3    C8 5471   1.679   1.985   9.646  0.5050  0.2323 -0.5877
  365TMC3    O1 5472   1.590   2.361   9.968  0.1452 -0.0155  0.1365
  365TMC3    O2 5473   1.614   2.056   9.572 -0.2997 -0.1653  0.1136
  366MPD2     C 5474   4.099   3.134  15.153 -0.1382 -0.1011  0.4666
  366MPD2    C1 5475   4.088   3.226  15.056 -0.2199  1.2336 -0.1970
  366MPD2    C2 5476   4.074   3.187  14.923  0.1991 -0.4862 -0.3982
  366MPD2    C3 5477   4.091   3.050  14.887 -0.2295 -0.8399  0.9101
  366MPD2    C4 5478   4.105   2.964  14.988  0.1619  0.5127 -0.3646
  366MPD2    C5 5479   4.100   3.004  15.116 -0.8656 -0.1075  0.5336
  366MPD2     H 5480   4.071   3.261  14.844  1.3788  0.4885  0.4688
  366MPD2    H1 5481   4.123   2.858  14.982  3.1602  1.0378 -0.4203
  366MPD2    H2 5482   4.112   3.170  15.255 -2.0049 -0.7923  0.9440
  366MPD2    H3 5483   4.111   2.930  15.195  2.3963  0.2739  0.4362
  366MPD2     N 5484   4.111   3.020  14.753 -0.2476  0.1873  0.3872
  366MPD2    H5 5485   4.110   3.104  14.696 -1.1656  0.1312  0.3212
  366MPD2    N1 5486   4.083   3.369  15.079 -0.4323 -0.1606 -0.4037
  366MPD2    H7 5487   4.055   3.419  14.996  0.9728  0.0587 -0.7475
  367TMC3    C1 5488   4.082   3.576  15.203  1.0750 -0.2670 -0.1729
  367TMC3    C2 5489   4.161   3.642  15.294 -0.1205 -0.8111 -0.6557
  367TMC3    C3 5490   4.155   3.778  15.297  0.0027  0.0496 -0.0505
  367TMC3    C4 5491   4.011   3.639  15.100  0.3144 -0.8433 -0.0454
  367TMC3    C5 5492   4.009   3.775  15.112  0.0863 -0.4482 -0.5900
  367TMC3    C6 5493   4.079   3.845  15.211 -0.6705 -0.6830  0.3211
  367TMC3     C 5494   4.118   3.432  15.194  0.2379 -0.1348 -0.2623
  367TMC3     O 5495   4.186   3.383  15.285  0.0155  0.7266 -0.2517
  367TMC3     H 5496   4.223   3.587  15.364 -0.7551 -0.9725 -0.2173
  367TMC3    H1 5497   3.959   3.585  15.022 -2.1415  0.7167  0.5139
  367TMC3    H2 5498   4.065   3.952  15.224 -0.6415 -0.7554  0.9604
  367TMC3    C7 5499   3.910   3.856  15.047 -0.0754  0.2239  0.4247
  367TMC3    C8 5500   4.272   3.842  15.344 -0.8774 -0.1863  0.2658
  367TMC3    O1 5501   3.897   3.969  15.089 -0.2600  0.4196  0.0388
  367TMC3    O2 5502   4.325   3.778  15.435 -0.0320 -0.2627  0.7664
  368MPD2     C 5503   0.748   0.433  12.831  0.4498 -0.1757 -0.5028
  368MPD2    C1 5504   0.748   0.573  12.811 -0.4810 -0.4640  0.6344
  368MPD2    C2 5505   0.845   0.623  12.727  0.1047 -1.0933  0.4427
  368MPD2    C3 5506   0.950   0.549  12.682 -0.6147  0.3348 -0.1938
  368MPD2    C4 5507   0.951   0.415  12.718  0.2227  0.3778 -0.4648
  368MPD2    C5 5508   0.850   0.352  12.785 -0.2350 -0.0515  0.0346
  368MPD2     H 5509   0.838   0.727  12.698  1.6459 -1.0057  0.3840
  368MPD2    H1 5510   1.032   0.353  12.681  0.5181 -0.1007  0.9538
  368MPD2    H2 5511   0.672   0.383  12.891  0.8579  0.0292  0.1892
  368MPD2    H3 5512   0.844   0.244  12.788  1.7593 -0.1466  0.5400
  368MPD2     N 5513   1.060   0.604  12.600  0.3271 -0.4184 -0.6019
  368MPD2    H5 5514   1.140   0.546  12.578  0.7053 -0.0920 -0.0785
  368MPD2    N1 5515   0.632   0.647  12.837 -0.1733  0.3999 -0.5923
  368MPD2    H7 5516   0.551   0.593  12.865 -0.8562  0.5427 -2.2953
  369TMC3    C1 5517   0.498   0.809  12.737 -0.0840 -0.0165  0.0312
  369TMC3    C2 5518   0.529   0.878  12.620 -0.1359 -0.1760 -0.2325
  369TMC3    C3 5519   0.440   0.891  12.524 -0.1332 -0.6443  0.1109
  369TMC3    C4 5520   0.370   0.764  12.753  0.7625 -0.0701 -0.1541
  369TMC3    C5 5521   0.280   0.784  12.656  0.1955  0.9074 -0.5190
  369TMC3    C6 5522   0.314   0.846  12.539  0.2427 -0.2376  0.4511
  369TMC3     C 5523   0.617   0.781  12.815  0.2079  0.0714 -0.0786
  369TMC3     O 5524   0.708   0.866  12.816  0.6510 -0.2223  0.4905
  369TMC3     H 5525   0.621   0.935  12.614  0.0764 -0.4194  0.7768
  369TMC3    H1 5526   0.345   0.714  12.845  0.8046  1.7857  0.8637
  369TMC3    H2 5527   0.240   0.853  12.460  0.2072 -0.6916  0.4478
  369TMC3    C7 5528   0.149   0.728  12.681 -0.1155  0.0222 -0.0678
  369TMC3    C8 5529   0.466   0.947  12.391 -0.2007 -0.6012 -0.1832
  369TMC3    O1 5530   0.146   0.656  12.782 -0.1671  0.0919 -0.3602
  369TMC3    O2 5531   0.371   1.004  12.333  0.3531  0.6124 -0.4909
  370TMC3    C1 5532   4.719   0.797  16.292 -0.0658 -0.1169  0.4852
  370TMC3    C2 5533   4.629   0.741  16.372  0.3995 -0.0415 -0.2371
  370TMC3    C3 5534   4.589   0.611  16.341  0.0239 -0.2763 -0.3488
  370TMC3    C4 5535   0.043   0.742  16.173  0.5025 -0.8508 -0.4782
  370TMC3    C5 5536   4.715   0.614  16.140 -0.5983  0.1098  0.5710
  370TMC3    C6 5537   4.620   0.551  16.226  0.2461  0.4344 -0.4212
  370TMC3     C 5538   0.090   0.895  16.352  0.4427  0.3545 -0.5762
  370TMC3     O 5539   0.089   0.896  16.476  0.0341  0.4233 -0.3032
  370TMC3     H 5540   4.599   0.787  16.466  1.1685 -0.4739  0.2173
  370TMC3    H1 5541   0.118   0.787  16.109 -0.1692  0.9847  0.0385
  370TMC3    H2 5542   4.595   0.450  16.197  0.1179 -0.4814  2.8999
  370TMC3    C7 5543   0.060   0.541  16.037 -0.3488 -0.4810  0.1114
  370TMC3    C8 5544   4.589   0.519  16.451 -0.2103  0.5981 -0.3743
  370TMC3    O1 5545   0.163   0.593  15.994 -0.1395 -0.0706  0.1777
  370TMC3    O2 5546   4.598   0.402  16.422 -0.1277 -0.0310 -0.2480
  371TMC3    C1 5547   1.243   3.925  15.070  0.1809 -0.9083  0.0886
  371TMC3    C2 5548   1.108   3.932  15.108 -0.3859 -0.3577 -0.0080
  371TMC3    C3 5549   1.064   4.061  15.144 -0.4373  0.3835 -0.6974
  371TMC3    C4 5550   1.322   4.030  15.048  1.0277  0.6176  0.3130
  371TMC3    C5 5551   1.270   4.155  15.083  0.2261 -0.1653 -0.9001
  371TMC3    C6 5552   1.141   4.171  15.132  0.5150  0.0141  1.5050
  371TMC3     C 5553   1.310   3.795  15.054 -0.2003  0.0811  0.5871
  371TMC3     O 5554   1.421   3.794  15.006 -0.4748 -0.0478 -0.5157
  371TMC3     H 5555   1.044   3.845  15.123  0.7007 -1.2642 -0.6012
  371TMC3    H1 5556   1.423   4.023  15.009  1.4773  1.1284  1.3784
  371TMC3    H2 5557   1.100   4.270  15.148 -2.1608 -0.8500  0.1676
  371TMC3    C7 5558   1.352   4.278  15.065  0.3403  0.7426  0.0641
  371TMC3    C8 5559   0.933   4.056  15.214  0.0553  0.3558  0.6920
  371TMC3    O1 5560   1.313   4.372  15.130  0.6420 -0.9133  0.1648
  371TMC3    O2 5561   0.870   3.952  15.204 -0.4749 -0.6930  0.1216
  372MPD2     C 5562   1.431   0.511  12.906  0.6191  0.1588  0.0415
  372MPD2    C1 5563   1.483   0.447  13.019  0.5377  0.8150  0.4382
  372MPD2    C2 5564   1.423   0.334  13.071  1.1156  0.2164  0.5039
  372MPD2    C3 5565   1.319   0.276  13.001  0.4628 -0.2277 -0.5147
  372MPD2    C4 5566   1.258   0.343  12.895  1.3494  0.8921 -0.6884
  372MPD2    C5 5567   1.316   0.456  12.847  0.3291 -0.5805 -0.4289
  372MPD2     H 5568   1.461   0.290  13.163 -0.4809 -1.9646  0.1195
  372MPD2    H1 5569   1.192   0.290  12.827  0.5309  0.0415  0.7695
  372MPD2    H2 5570   1.486   0.591  12.857 -1.9584  1.6867 -0.3368
  372MPD2    H3 5571   1.274   0.504  12.759 -1.9702 -0.3899  0.7878
  372MPD2     N 5572   1.271   0.148  13.040  0.7239  0.0221 -0.1956
  372MPD2    H5 5573   1.318   0.088  13.107 -0.0858 -1.0253 -0.5815
  372MPD2    N1 5574   1.608   0.487  13.085 -0.1082 -0.2653  0.2680
  372MPD2    H7 5575   1.633   0.434  13.168 -0.6331 -1.2348 -0.1944
  373TMC3    C1 5576   1.108   4.714  13.076 -0.0357 -0.6230 -0.8280
  373TMC3    C2 5577   0.970   4.689  13.100  0.7902 -0.3085  0.0300
  373TMC3    C3 5578   0.926   4.561  13.096 -0.1407 -0.7591  0.1609
  373TMC3    C4 5579   1.188   4.613  13.032 -0.0526 -0.3141  0.0652
  373TMC3    C5 5580   1.141   4.487  13.050 -0.6514  0.1497  0.0690
  373TMC3    C6 5581   1.013   4.458  13.078  0.3223  0.5001  0.2570
  373TMC3     C 5582   1.134   0.127  13.030 -0.5400 -0.3042  0.3424
  373TMC3     O 5583   1.038   0.194  12.992 -0.2692  0.1632  0.0936
  373TMC3     H 5584   0.915   0.056  13.121  0.5779 -1.0659  2.6979
  373TMC3    H1 5585   1.288   4.631  12.995 -1.0253  0.5642 -2.1409
  373TMC3    H2 5586   0.978   4.361  13.111  1.5202  0.3952  1.2137
  373TMC3    C7 5587   1.241   4.383  13.070  0.3088 -0.4727  0.3354
  373TMC3    C8 5588   0.832   4.536  13.208 -0.0297  0.1530  0.6418
  373TMC3    O1 5589   1.202   4.271  13.029  0.2108 -0.4005  0.0264
  373TMC3    O2 5590   0.764   4.437  13.202 -0.4921  0.4582 -0.0075
  374TMC3    C1 5591   1.875   4.539   9.588 -0.5612 -0.0203  0.1544
  374TMC3    C2 5592   1.943   4.639   9.636 -0.0065  0.5112  0.0306
  374TMC3    C3 5593   1.953   0.026   9.555  0.9530 -0.4128 -0.0526
  374TMC3    C4 5594   1.822   4.536   9.460 -0.3416 -0.2132  0.1768
  374TMC3    C5 5595   1.834   4.648   9.385 -0.2496 -0.1751  0.2685
  374TMC3    C6 5596   1.894   0.034   9.434 -0.0964 -0.2297 -0.1767
  374TMC3     C 5597   1.884   4.409   9.652  0.3316  0.3714 -0.4600
  374TMC3     O 5598   1.948   4.398   9.757 -0.1744 -0.0300  0.1562
  374TMC3     H 5599   1.974   4.637   9.740  2.2672 -0.5668 -0.6886
  374TMC3    H1 5600   1.759   4.456   9.423 -0.8644  0.0830  0.4321
  374TMC3    H2 5601   1.899   0.126   9.377 -2.9481 -1.8403 -3.0051
  374TMC3    C7 5602   1.733   4.661   9.282  0.1467 -0.6802  0.0325
  374TMC3    C8 5603   1.968   0.157   9.615 -0.0390 -0.1843  0.4661
  374TMC3    O1 5604   1.645   4.577   9.293  0.0914  0.5793 -0.5624
  374TMC3    O2 5605   1.912   0.253   9.560 -0.3854 -0.6543 -0.5795
  375MPD2     C 5606   1.565   1.406  16.503 -0.0524  0.0275  0.1516
  375MPD2    C1 5607   1.475   1.336  16.434  0.6235  0.4061  0.0567
  375MPD2    C2 5608   1.511   1.227  16.354 -0.6573  0.7000  0.1823
  375MPD2    C3 5609   1.643   1.188  16.351  0.4301  0.3513  0.1729
  375MPD2    C4 5610   1.738   1.264  16.418  0.4875 -0.1219  0.0867
  375MPD2    C5 5611   1.694   1.376  16.489 -0.8355 -0.4580 -0.3076
  375MPD2     H 5612   1.442   1.174  16.290 -2.3678 -0.1855  2.7786
  375MPD2    H1 5613   1.844   1.243  16.415  0.5586  0.2675 -0.0485
  375MPD2    H2 5614   1.541   1.498  16.555 -0.9225  0.8001 -1.6512
  375MPD2    H3 5615   1.772   1.437  16.533 -0.8961 -0.2888 -0.4324
  375MPD2     N 5616   1.690   1.090  16.263  0.7509  0.4306  0.3287
  375MPD2    H5 5617   1.788   1.068  16.272  1.0281  0.4028 -2.9086
  375MPD2    N1 5618   1.339   1.368  16.423 -0.0872  0.1717 -0.4412
  375MPD2    H7 5619   1.272   1.303  16.384 -0.4034 -0.2072  0.7308
  376TMC3    C1 5620   1.687   0.925  16.095  0.2258  0.7995  0.0364
  376TMC3    C2 5621   1.798   0.869  16.155  0.0514  0.0349  0.4025
  376TMC3    C3 5622   1.883   0.797  16.073 -0.6023 -0.1954 -0.1997
  376TMC3    C4 5623   1.655   0.921  15.957  0.2352  0.1786  0.4003
  376TMC3    C5 5624   1.750   0.864  15.878  0.1914  0.5007 -0.2501
  376TMC3    C6 5625   1.855   0.788  15.940  0.3487  0.1808  0.2155
  376TMC3     C 5626   1.614   1.031  16.163  0.1057  0.2708  0.2409
  376TMC3     O 5627   1.519   1.074  16.105 -0.0678 -0.0373 -0.1569
  376TMC3     H 5628   1.816   0.885  16.261 -1.7453 -0.5744  0.7951
  376TMC3    H1 5629   1.569   0.975  15.918  0.5224 -0.2958 -0.8633
  376TMC3    H2 5630   1.931   0.741  15.879 -0.8432 -0.6826 -0.6137
  376TMC3    C7 5631   1.745   0.885  15.736 -0.3545  0.5494  0.5285
  376TMC3    C8 5632   2.023   0.816  16.090  0.1841  0.4826 -0.4859
  376TMC3    O1 5633   1.684   0.987  15.708 -0.2275  0.2753  0.3822
  376TMC3    O2 5634   2.093   0.860  15.998 -0.2760 -0.0601 -0.6560
  377MPD2     C 5635   4.353   0.978  12.008 -0.2843 -0.0444  0.2906
  377MPD2    C1 5636   4.393   0.869  12.077  0.7739  0.3543  0.5234
  377MPD2    C2 5637   4.303   0.786  12.133 -0.7956 -0.6687 -0.8713
  377MPD2    C3 5638   4.171   0.812  12.142  0.3369  0.2479  0.4620
  377MPD2    C4 5639   4.122   0.920  12.071 -0.2923  0.5663 -0.0473
  377MPD2    C5 5640   4.214   0.997  11.995 -0.8074 -0.1675  0.2018
  377MPD2     H 5641   4.337   0.701  12.191  1.0063 -0.4510 -1.5944
  377MPD2    H1 5642   4.016   0.942  12.067 -1.0822 -3.2787 -0.2638
  377MPD2    H2 5643   4.431   1.031  11.954  0.4327 -1.0178  0.3578
  377MPD2    H3 5644   4.179   1.069  11.922 -3.7314 -0.2733  1.5284
  377MPD2     N 5645   4.079   0.730  12.202 -0.3254  0.2034 -0.3461
  377MPD2    H5 5646   3.979   0.746  12.195 -0.3777 -0.0316 -0.1361
  377MPD2    N1 5647   4.528   0.830  12.073  0.1279  0.1327 -0.2192
  377MPD2    H7 5648   4.589   0.892  12.020  1.3109 -1.1882 -0.4080
  378TMC3    C1 5649   0.168   0.794  11.940  0.2484  0.4362  0.2668
  378TMC3    C2 5650   0.030   0.769  11.967 -0.2797 -0.7406  0.2197
  378TMC3    C3 5651   4.724   0.707  12.083  0.4812 -0.0315 -0.0218
  378TMC3    C4 5652   0.267   0.788  12.042 -0.2248 -0.1209 -0.3545
  378TMC3    C5 5653   0.226   0.724  12.152 -0.1520  0.1690  0.1163
  378TMC3    C6 5654   0.097   0.680  12.174  0.1933  0.5976  0.1159
  378TMC3     C 5655   0.207   0.834  11.802  0.4651  0.1210  0.4361
  378TMC3     O 5656   0.135   0.901  11.729 -0.3191  0.1525  0.0722
  378TMC3     H 5657   4.684   0.782  11.885  0.8808 -0.7716 -0.7752
  378TMC3    H1 5658   0.368   0.819  12.019 -0.2348 -0.3818 -0.7625
  378TMC3    H2 5659   0.070   0.634  12.268 -0.6386 -1.5290 -1.1659
  378TMC3    C7 5660   0.317   0.644  12.238  0.8634 -0.0235 -0.3226
  378TMC3    C8 5661   4.587   0.722  12.126  0.4758 -0.0321  0.1307
  378TMC3    O1 5662   0.273   0.616  12.348 -0.2424 -0.1009 -0.4291
  378TMC3    O2 5663   4.541   0.639  12.206  0.3083 -0.5577 -0.2675
  379MPD2     C 5664   0.869   3.704  15.522  0.3239  0.2161  0.3694
  379MPD2    C1 5665   0.758   3.622  15.536  0.5928  0.8488  0.6290
  379MPD2    C2 5666   0.752   3.518  15.625  1.0407 -0.0949 -0.4887
  379MPD2    C3 5667   0.867   3.500  15.699 -0.1671  1.0930  0.5037
  379MPD2    C4 5668   0.972   3.589  15.691  0.4899  0.1774 -0.2082
  379MPD2    C5 5669   0.977   3.693  15.609 -0.6111  0.6017 -0.0340
  379MPD2     H 5670   0.666   3.453  15.636  0.2727  0.9107 -0.5826
  379MPD2    H1 5671   1.051   3.575  15.764 -1.5144 -2.2214  1.5506
  379MPD2    H2 5672   0.863   3.780  15.445  3.1300  0.0586 -0.0071
  379MPD2    H3 5673   1.061   3.762  15.604 -0.4876  0.4514 -0.0036
  379MPD2     N 5674   0.885   3.401  15.798  0.3796  0.1132  0.5040
  379MPD2    H5 5675   0.976   3.409  15.841 -0.8764  1.5260  2.9010
  379MPD2    N1 5676   0.646   3.662  15.463 -0.4932  0.0326  0.2521
  379MPD2    H7 5677   0.658   3.706  15.373  1.4134 -2.6511 -0.8298
  380TMC3    C1 5678   0.421   3.678  15.425  0.5431  0.1066  0.3218
  380TMC3    C2 5679   0.425   3.627  15.299 -0.3717 -0.1880  0.5798
  380TMC3    C3 5680   0.319   3.657  15.222  0.3792 -0.1491  0.0136
  380TMC3    C4 5681   0.334   3.768  15.470  0.9569 -0.2038 -0.1349
  380TMC3    C5 5682   0.231   3.805  15.383 -0.1941  0.1825  0.7611
  380TMC3    C6 5683   0.233   3.754  15.260  0.6652  0.1572 -0.1760
  380TMC3     C 5684   0.524   3.654  15.518 -0.7957 -0.2342 -0.2234
  380TMC3     O 5685   0.492   3.649  15.635 -0.5271 -0.5860  0.1738
  380TMC3     H 5686   0.509   3.571  15.258 -1.4693 -2.7045  1.7727
  380TMC3    H1 5687   0.331   3.804  15.572 -0.8314 -1.4822  0.2719
  380TMC3    H2 5688   0.167   3.798  15.187 -0.3232  2.9451  2.4097
  380TMC3    C7 5689   0.154   3.923  15.408  0.0731  0.5568 -0.2431
  380TMC3    C8 5690   0.333   3.630  15.082  0.6697  0.2109 -0.2954
  380TMC3    O1 5691   0.197   4.019  15.469  0.4237 -0.3818 -0.2998
  380TMC3    O2 5692   0.450   3.612  15.044 -0.0974  0.2816  0.2146
  381TMC3    C1 5693   0.037   4.574  16.203 -0.5983  0.9142 -0.1757
  381TMC3    C2 5694   0.095   4.699  16.192 -0.0343 -0.4098 -0.4881
  381TMC3    C3 5695   0.084   0.060  16.295 -0.1714 -0.1889  0.1505
  381TMC3    C4 5696   4.688   4.540  16.319 -0.1950  0.0999 -0.8571
  381TMC3    C5 5697   4.681   4.639  16.413  0.4176 -0.2040 -0.1334
  381TMC3    C6 5698   0.015   0.041  16.409 -0.0772 -0.7696 -0.0701
  381TMC3     C 5699   0.042   4.484  16.086 -0.3800  0.0223 -0.3889
  381TMC3     O 5700   4.683   4.397  16.079  0.0722  0.2127  0.4676
  381TMC3     H 5701   0.170   4.717  16.116 -1.3660  0.3150 -1.6261
  381TMC3    H1 5702   4.641   4.443  16.329  0.4541 -0.1298 -0.0736
  381TMC3    H2 5703   0.006   0.117  16.486 -0.4287  0.2916 -1.1538
  381TMC3    C7 5704   4.628   4.599  16.545 -0.1251  0.6045  0.4510
  381TMC3    C8 5705   0.133   0.195  16.265 -0.1615 -0.3646 -0.3340
  381TMC3    O1 5706   4.654   4.486  16.582  0.1002 -0.1249 -0.0758
  381TMC3    O2 5707   0.139   0.217  16.146  0.8763  0.1094 -0.1479
  382MPD2     C 5708   4.070   2.331   0.131 -0.4414  0.9722  0.5418
  382MPD2    C1 5709   4.114   2.372   0.008 -0.1050  0.0999 -0.1424
  382MPD2    C2 5710   4.094   2.298  17.589  0.5349  0.0593  0.5846
  382MPD2    C3 5711   4.035   2.170  17.599 -0.5740 -0.1356 -0.2274
  382MPD2    C4 5712   3.997   2.136   0.025  0.0465  0.0502  0.1162
  382MPD2    C5 5713   4.011   2.215   0.140 -0.6307  0.6987  0.0101
  382MPD2     H 5714   4.119   2.336  17.491 -1.7881 -0.3523 -0.1676
  382MPD2    H1 5715   3.956   2.037   0.041 -2.0510  0.4889 -2.5527
  382MPD2    H2 5716   4.069   2.390   0.222 -2.8347 -1.2122  1.9354
  382MPD2    H3 5717   3.977   2.190   0.239 -2.1070  2.0388 -0.1600
  382MPD2     N 5718   4.005   2.084  17.492  0.0279  0.1624  0.1905
  382MPD2    H5 5719   3.949   2.002  17.514  1.3911 -1.2918 -1.7944
  382MPD2    N1 5720   4.197   2.482  17.693 -0.1639 -0.6452 -0.3229
  382MPD2    H7 5721   4.213   2.511  17.597 -0.7733  1.8888  0.3397
  383TMC3    C1 5722   4.004   2.001  17.285  0.2513  0.1059 -0.5657
  383TMC3    C2 5723   3.897   2.004  17.201 -0.3846 -0.6997 -0.1851
  383TMC3    C3 5724   3.828   1.891  17.182  0.3956  0.2464  0.2452
  383TMC3    C4 5725   4.036   1.890  17.353  0.4903 -0.9622  0.3181
  383TMC3    C5 5726   3.960   1.775  17.340  0.2565  0.7731  0.0590
  383TMC3    C6 5727   3.853   1.775  17.254 -0.1448 -0.0229  0.4366
  383TMC3     C 5728   4.042   2.113  17.361 -0.3511  0.1744 -0.5283
  383TMC3     O 5729   4.080   2.213  17.304  0.4032 -0.1329 -0.1787
  383TMC3     H 5730   3.867   2.101  17.163  1.7801 -0.5582 -1.5697
  383TMC3    H1 5731   4.127   1.886  17.412  1.0364 -0.5995 -0.5069
  383TMC3    H2 5732   3.804   1.682  17.227 -1.2667  1.0110 -1.1262
  383TMC3    C7 5733   3.947   1.690  17.452  1.1791 -0.5580 -0.2726
  383TMC3    C8 5734   3.704   1.905  17.123  0.2807 -0.2511 -0.0475
  383TMC3    O1 5735   4.010   1.734  17.548  0.3819  0.1872  0.2555
  383TMC3    O2 5736   3.702   1.979  17.026  0.1286  0.4376 -0.2143
  384MPD2     C 5737   1.089   3.366  11.749  0.4151 -0.5992 -0.6251
  384MPD2    C1 5738   1.105   3.269  11.841 -0.0444 -0.0789  0.7564
  384MPD2    C2 5739   1.165   3.151  11.803  0.2379  0.0705  0.4557
  384MPD2    C3 5740   1.213   3.131  11.675  0.8114  0.2834 -0.1090
  384MPD2    C4 5741   1.197   3.227  11.581  0.0858  0.3992 -0.1644
  384MPD2    C5 5742   1.135   3.347  11.618 -0.9036  0.5884  0.2274
  384MPD2     H 5743   1.185   3.074  11.878 -0.1265 -0.1412  0.3390
  384MPD2    H1 5744   1.227   3.216  11.477 -3.9550 -1.4756 -1.1165
  384MPD2    H2 5745   1.046   3.462  11.772  0.3415 -0.4849 -1.2366
  384MPD2    H3 5746   1.127   3.415  11.534  1.7271  2.1827  1.2348
  384MPD2     N 5747   1.272   3.014  11.624  0.2446  0.8277  0.7280
  384MPD2    H5 5748   1.292   3.007  11.524 -0.0917  1.6381  0.5985
  384MPD2    N1 5749   1.061   3.273  11.974  0.3057  0.5293  0.1576
  384MPD2    H7 5750   1.075   3.183  12.018 -0.3886  0.0707 -0.5670
  385TMC3    C1 5751   1.338   2.784  11.628  0.7049 -1.2068  0.1290
  385TMC3    C2 5752   1.271   2.752  11.518 -0.2379  0.1060  1.1730
  385TMC3    C3 5753   1.239   2.618  11.496  0.1471  0.3354 -0.2820
  385TMC3    C4 5754   1.378   2.686  11.719 -0.3914  0.4109 -0.3851
  385TMC3    C5 5755   1.332   2.561  11.709  0.1736 -0.0998 -0.5079
  385TMC3    C6 5756   1.257   2.522  11.598 -0.2873 -0.7028 -0.3469
  385TMC3     C 5757   1.297   2.904  11.700 -0.5358 -0.2023  0.3914
  385TMC3     O 5758   1.277   2.880  11.817  0.5577 -0.1196 -0.7646
  385TMC3     H 5759   1.230   2.833  11.459  1.9993 -0.1242 -0.7232
  385TMC3    H1 5760   1.429   2.716  11.810 -0.4141  0.9192 -0.5422
  385TMC3    H2 5761   1.201   2.431  11.580 -0.0320 -0.3963 -2.5919
  385TMC3    C7 5762   1.267   2.517  11.837  0.2744 -0.0870 -0.6534
  385TMC3    C8 5763   1.131   2.578  11.395 -0.2705  0.2368  0.4265
  385TMC3    O1 5764   1.255   2.395  11.849 -0.0339 -0.3469  0.0281
  385TMC3    O2 5765   1.125   2.456  11.363 -0.8254 -0.0111 -0.1894
  386TMC3    C1 5766   1.253   1.401  11.174  0.7096  0.4752 -0.2397
  386TMC3    C2 5767   1.340   1.311  11.117  0.4057  1.0883  0.4101
  386TMC3    C3 5768   1.300   1.252  11.004  0.4156  0.3237  0.7062
  386TMC3    C4 5769   1.130   1.421  11.125  0.7624 -0.7313  0.9900
  386TMC3    C5 5770   1.088   1.350  11.016  0.0900 -0.1204 -0.7998
  386TMC3    C6 5771   1.171   1.266  10.953  0.1996 -0.0499 -0.1250
  386TMC3     C 5772   1.296   1.473  11.291  0.5289 -0.1105 -0.8978
  386TMC3     O 5773   1.263   1.592  11.287  0.6871  0.5490 -0.1634
  386TMC3     H 5774   1.441   1.311  11.155  0.6072 -1.1069 -0.1091
  386TMC3    H1 5775   1.072   1.502  11.167 -0.0158 -0.9200  0.2711
  386TMC3    H2 5776   1.131   1.213  10.867 -3.8329  0.5994  1.3327
  386TMC3    C7 5777   0.949   1.357  10.977  1.0852 -0.0056 -0.0533
  386TMC3    C8 5778   1.378   1.150  10.947 -0.1093 -0.2559  0.5490
  386TMC3    O1 5779   0.922   1.358  10.855 -0.3479 -0.0870  0.2826
  386TMC3    O2 5780   1.344   1.116  10.836 -0.0740  0.2804 -0.6492
  387MPD2     C 5781   3.583   0.874   9.416 -0.3051  0.2960  0.4912
  387MPD2    C1 5782   3.694   0.808   9.468  0.5070  0.3544 -0.0607
  387MPD2    C2 5783   3.706   0.669   9.459  0.4047  0.0526 -0.2862
  387MPD2    C3 5784   3.605   0.600   9.388 -0.7812 -0.0074  0.0017
  387MPD2    C4 5785   3.492   0.666   9.339  0.0152 -0.2063  0.3252
  387MPD2    C5 5786   3.478   0.800   9.365  0.4061 -0.5046 -0.0694
  387MPD2     H 5787   3.799   0.618   9.482  0.1581 -0.9727 -1.5541
  387MPD2    H1 5788   3.421   0.611   9.279 -0.0881  0.4310 -0.1363
  387MPD2    H2 5789   3.569   0.981   9.425 -0.0242  0.5781 -2.3964
  387MPD2    H3 5790   3.390   0.860   9.345 -1.3236 -2.6497  1.1458
  387MPD2     N 5791   3.632   0.469   9.356 -0.2526  0.5494  0.1414
  387MPD2    H5 5792   3.700   0.421   9.414  0.3120 -0.5901 -1.4561
  387MPD2    N1 5793   3.807   0.865   9.524 -0.2309 -0.3115 -0.3170
  387MPD2    H7 5794   3.873   0.798   9.562 -0.7990 -1.3627 -1.1805
  388TMC3    C1 5795   3.992   1.018   9.551  0.5865 -0.3827 -0.3104
  388TMC3    C2 5796   4.037   1.105   9.644  0.6442  0.0109 -0.2271
  388TMC3    C3 5797   4.174   1.095   9.679 -0.0003  0.4205  0.1918
  388TMC3    C4 5798   4.070   0.912   9.510 -0.2507 -0.1624  0.3801
  388TMC3    C5 5799   4.202   0.900   9.548 -0.1338  0.1204  0.5304
  388TMC3    C6 5800   4.260   1.003   9.627 -0.6411  0.1793 -0.2470
  388TMC3     C 5801   3.846   0.995   9.535 -0.7062  0.0859 -0.3221
  388TMC3     O 5802   3.761   1.085   9.552 -0.0027  0.2603 -0.3524
  388TMC3     H 5803   3.973   1.183   9.684  0.0160 -1.0753  0.8531
  388TMC3    H1 5804   4.036   0.849   9.429 -0.1136 -0.2090  0.3599
  388TMC3    H2 5805   4.359   0.996   9.670 -0.5902  0.5106 -0.3074
  388TMC3    C7 5806   4.282   0.795   9.487  0.2849  0.4188 -0.2561
  388TMC3    C8 5807   4.218   1.154   9.802 -0.7158 -0.2625 -0.5098
  388TMC3    O1 5808   4.400   0.816   9.465 -0.3410 -0.3399  0.4675
  388TMC3    O2 5809   4.289   1.082   9.867  0.7255 -0.4497 -0.2525
  389MPD2     C 5810   3.225   3.660  11.349 -0.3274  0.1888 -0.9301
  389MPD2    C1 5811   3.101   3.636  11.291  0.6455  0.1188  0.4213
  389MPD2    C2 5812   3.016   3.540  11.342 -0.5217  0.5776 -0.0566
  389MPD2    C3 5813   3.043   3.477  11.459 -0.9522  0.9002  0.0999
  389MPD2    C4 5814   3.148   3.520  11.534  0.2346 -1.0412 -0.2436
  389MPD2    C5 5815   3.241   3.612  11.481 -0.4052  0.1055 -0.0119
  389MPD2     H 5816   2.916   3.524  11.304 -0.9667 -0.4653  1.5550
  389MPD2    H1 5817   3.173   3.474  11.629 -0.3008 -0.2593  0.2748
  389MPD2    H2 5818   3.293   3.726  11.299 -0.2137 -0.2473 -1.3533
  389MPD2    H3 5819   3.332   3.629  11.538  0.6479 -0.3000 -1.5718
  389MPD2     N 5820   2.949   3.377  11.517  0.1498  0.3574  0.6297
  389MPD2    H5 5821   2.958   3.344  11.613 -1.4610 -0.7153  0.4169
  389MPD2    N1 5822   3.069   3.714  11.179 -0.4772 -0.3308 -0.3348
  389MPD2    H7 5823   3.149   3.771  11.151  0.0094 -1.6580 -1.6984
  390TMC3    C1 5824   2.762   3.232  11.541 -0.0383 -0.5144  0.2229
  390TMC3    C2 5825   2.716   3.107  11.505 -0.0973  0.3431  0.1545
  390TMC3    C3 5826   2.632   3.048  11.598  0.0759  0.1165 -0.5896
  390TMC3    C4 5827   2.710   3.305  11.648 -0.3655  0.5167 -0.0454
  390TMC3    C5 5828   2.603   3.255  11.719 -0.9841 -0.6363  0.2128
  390TMC3    C6 5829   2.578   3.119  11.707 -0.1343 -0.7263  0.0400
  390TMC3     C 5830   2.855   3.306  11.453 -0.9521  0.5050 -0.7916
  390TMC3     O 5831   2.843   3.291  11.331 -0.3705  0.2242  0.1425
  390TMC3     H 5832   2.760   3.050  11.424  1.2766 -1.7557  2.3747
  390TMC3    H1 5833   2.736   3.410  11.655  1.3514  0.1437 -0.7669
  390TMC3    H2 5834   2.500   3.072  11.766 -1.1471  0.9386 -0.0021
  390TMC3    C7 5835   2.490   3.329  11.666  0.2133  0.0307 -0.5962
  390TMC3    C8 5836   2.545   2.961  11.534 -0.7968  0.1300 -0.4378
  390TMC3    O1 5837   2.513   3.429  11.595 -0.6154 -0.5115 -0.3287
  390TMC3    O2 5838   2.552   2.960  11.412  0.2089  0.0211 -0.4533
  391MPD2     C 5839   2.746   0.159  10.847  1.0006  1.1191  0.2539
  391MPD2    C1 5840   2.853   0.226  10.802 -0.0498 -0.1758  0.4404
  391MPD2    C2 5841   2.872   0.247  10.669  0.6018  0.3490 -0.0013
  391MPD2    C3 5842   2.781   0.201  10.575 -0.3067 -0.1178 -0.4242
  391MPD2    C4 5843   2.674   0.126  10.615  0.2052 -0.3032  0.6311
  391MPD2    C5 5844   2.657   0.107  10.753  0.2226 -0.4032 -0.4319
  391MPD2     H 5845   2.958   0.299  10.630  0.0185  1.2752 -0.0420
  391MPD2    H1 5846   2.596   0.089  10.550 -1.5558  0.9560  2.0200
  391MPD2    H2 5847   2.730   0.142  10.953 -1.9904  0.6057 -0.3025
  391MPD2    H3 5848   2.579   0.034  10.774 -1.1868  1.5152  1.0094
  391MPD2     N 5849   2.800   0.238  10.440 -0.3506 -0.5566  0.1686
  391MPD2    H5 5850   2.882   0.298  10.430 -0.6315 -0.3686 -0.9627
  391MPD2    N1 5851   2.928   0.285  10.903 -0.6790  0.3483  0.4958
  391MPD2    H7 5852   2.907   0.258  10.998 -0.6523  3.2291  1.3013
  392TMC3    C1 5853   2.749   0.303  10.217  0.1828 -0.1748  0.2535
  392TMC3    C2 5854   2.681   0.261  10.109  0.5176 -0.1850 -0.1748
  392TMC3    C3 5855   2.641   0.347  10.011  0.7629  0.4664  0.8377
  392TMC3    C4 5856   2.767   0.439  10.242 -0.2083 -0.0590  0.2880
  392TMC3    C5 5857   2.724   0.523  10.140  0.7652  0.0439 -0.3307
  392TMC3    C6 5858   2.661   0.476  10.021 -0.5132 -0.3588  0.8831
  392TMC3     C 5859   2.717   0.218  10.334  0.2816  0.0654  0.6850
  392TMC3     O 5860   2.614   0.154  10.326  0.3594  0.7344 -0.2972
  392TMC3     H 5861   2.674   0.153  10.103  0.9170 -0.1566 -1.3492
  392TMC3    H1 5862   2.812   0.475  10.334 -1.0960 -0.0730  0.7276
  392TMC3    H2 5863   2.630   0.543   9.940 -0.8196 -1.4520  0.0986
  392TMC3    C7 5864   2.798   0.650  10.132  0.2978  0.4117  0.4473
  392TMC3    C8 5865   2.512   0.311   9.949 -0.2153  0.0069 -0.0902
  392TMC3    O1 5866   2.894   0.651  10.204 -0.1421 -0.0982 -0.0588
  392TMC3    O2 5867   2.485   0.190   9.969 -0.2780  0.3876  1.1697
  393TMC3    C1 5868   0.878   2.842  10.169 -0.3075 -0.3724 -0.7057
  393TMC3    C2 5869   0.772   2.781  10.230 -0.2379 -0.4412  0.0530
  393TMC3    C3 5870   0.766   2.781  10.364  0.7368  1.0071  0.5592
  393TMC3    C4 5871   0.983   2.891  10.240  0.6258  0.9226  0.9630
  393TMC3    C5 5872   0.984   2.867  10.374 -0.3242  0.1971  0.0638
  393TMC3    C6 5873   0.874   2.823  10.445 -0.2612  0.4657 -0.0538
  393TMC3     C 5874   0.872   2.895  10.032  0.8224 -0.2817  0.6451
  393TMC3     O 5875   0.936   2.996  10.004  0.0645 -0.2149 -0.5411
  393TMC3     H 5876   0.688   2.751  10.169  0.3992 -0.4104 -0.8458
  393TMC3    H1 5877   1.070   2.934  10.190  0.9810  0.1837  0.9532
  393TMC3    H2 5878   0.874   2.828  10.553  0.2881 -1.1383  0.0335
  393TMC3    C7 5879   1.075   2.963  10.447 -0.1627 -0.2204 -0.3745
  393TMC3    C8 5880   0.634   2.788  10.425  0.3190  0.6718  0.2671
  393TMC3    O1 5881   1.033   3.022  10.546  0.1933  0.1972  0.5423
  393TMC3    O2 5882   0.553   2.700  10.397  0.3940  0.0449  0.3456
  394TMC3    C1 5883   2.964   3.782  10.977  0.1297 -0.2903  0.5763
  394TMC3    C2 5884   2.855   3.758  10.889 -0.2162  0.3937 -0.2321
  394TMC3    C3 5885   2.866   3.803  10.764  0.3883 -0.1860 -0.9407
  394TMC3    C4 5886   3.075   3.855  10.947  0.0094  0.8043  0.1080
  394TMC3    C5 5887   3.073   3.903  10.817 -0.2975  0.4621 -0.3772
  394TMC3    C6 5888   2.972   3.877  10.727  0.3963  0.6445  0.1670
  394TMC3     C 5889   2.954   3.703  11.101 -0.1088  0.3641  0.2484
  394TMC3     O 5890   2.852   3.636  11.121 -0.5358 -0.5205  0.1470
  394TMC3     H 5891   2.783   3.678  10.897  0.3337 -0.0385  0.3716
  394TMC3    H1 5892   3.156   3.885  11.012  0.2503 -1.3144  0.7755
  394TMC3    H2 5893   2.963   3.924  10.630  0.6661 -0.1271 -0.2320
  394TMC3    C7 5894   3.207   3.951  10.778 -0.0064 -0.2856 -0.2892
  394TMC3    C8 5895   2.742   3.801  10.685 -0.2674 -0.0063  0.0106
  394TMC3    O1 5896   3.279   4.006  10.860 -0.2626 -0.1430 -0.1049
  394TMC3    O2 5897   2.635   3.812  10.746  0.1648  0.0471  0.5550
  395TMC3    C1 5898   2.171   1.158  14.244  0.2493  0.1806 -0.1427
  395TMC3    C2 5899   2.043   1.153  14.271  0.0136  0.7241 -0.3674
  395TMC3    C3 5900   1.994   1.200  14.390  0.0909  0.3453 -0.1122
  395TMC3    C4 5901   2.257   1.242  14.313 -0.1548 -0.5768  0.2593
  395TMC3    C5 5902   2.194   1.308  14.420 -0.7394 -0.0826 -0.3946
  395TMC3    C6 5903   2.070   1.290  14.463 -1.1039 -0.4274 -0.2120
  395TMC3     C 5904   2.235   1.023  14.255  0.1490  0.1115 -0.1262
  395TMC3     O 5905   2.337   1.022  14.327  0.2697 -0.1470  0.0310
  395TMC3     H 5906   1.976   1.080  14.226  0.5665 -0.7456  1.2391
  395TMC3    H1 5907   2.363   1.241  14.295  0.1588  0.8203  2.0930
  395TMC3    H2 5908   2.026   1.355  14.538 -1.5864  0.4615 -1.2627
  395TMC3    C7 5909   2.287   1.365  14.518  0.1009 -0.5020 -0.2042
  395TMC3    C8 5910   1.962   1.078  14.471  0.6444  0.3876 -0.1161
  395TMC3    O1 5911   2.248   1.451  14.597 -0.0309 -0.3065 -0.0945
  395TMC3    O2 5912   1.900   0.987  14.418 -0.2518 -0.2139  0.1898
  396MPD2     C 5913   2.220   2.265  16.967  0.9271  0.1130 -1.0570
  396MPD2    C1 5914   2.352   2.314  16.952  0.3745 -0.4447  0.5340
  396MPD2    C2 5915   2.375   2.428  16.877 -0.1499 -0.4342  0.2686
  396MPD2    C3 5916   2.271   2.500  16.829 -0.7130 -0.4484 -0.7312
  396MPD2    C4 5917   2.139   2.460  16.855  0.0587  0.1007  0.3143
  396MPD2    C5 5918   2.118   2.349  16.929 -0.0235 -0.1432 -0.1055
  396MPD2     H 5919   2.473   2.466  16.851 -1.2057  2.2458  0.2123
  396MPD2    H1 5920   2.052   2.518  16.828  1.6047  2.1252 -0.3299
  396MPD2    H2 5921   2.202   2.170  17.015  0.3139 -0.0579 -1.6180
  396MPD2    H3 5922   2.016   2.324  16.953 -0.3957  0.7235 -0.7981
  396MPD2     N 5923   2.303   2.611  16.757 -0.0622  0.2469 -0.6194
  396MPD2    H5 5924   2.400   2.642  16.761  0.9366 -2.6342 -2.0340
  396MPD2    N1 5925   2.455   2.224  16.982 -0.2931 -0.1065 -0.0763
  396MPD2    H7 5926   2.424   2.144  17.037  1.1966 -1.2070 -0.8279
  397TMC3    C1 5927   2.652   2.126  16.905 -0.4302 -0.0453 -0.2365
  397TMC3    C2 5928   2.672   2.141  16.768 -0.1856 -0.4069 -0.3532
  397TMC3    C3 5929   2.608   2.061  16.682 -1.0708 -0.3692 -0.1432
  397TMC3    C4 5930   2.586   2.011  16.947 -0.1381 -0.2264 -0.6025
  397TMC3    C5 5931   2.525   1.932  16.846  0.5605 -0.1715  0.5930
  397TMC3    C6 5932   2.530   1.956  16.714 -0.1849  0.1688  0.4725
  397TMC3     C 5933   2.590   2.242  16.952  0.1008  0.4465  0.0992
  397TMC3     O 5934   2.646   2.350  16.926 -0.1186  0.3158  0.4793
  397TMC3     H 5935   2.713   2.236  16.733  0.5132 -0.0420  1.4439
  397TMC3    H1 5936   2.562   1.983  17.049 -2.4702 -1.3719 -1.4571
  397TMC3    H2 5937   2.477   1.891  16.645  0.9239  1.1148 -1.2647
  397TMC3    C7 5938   2.467   1.804  16.880  0.5988  0.3757 -0.0360
  397TMC3    C8 5939   2.587   2.109  16.544  0.5770  0.1037  0.3082
  397TMC3    O1 5940   2.381   1.765  16.800  0.3070 -0.3433 -0.3977
  397TMC3    O2 5941   2.498   2.052  16.485  0.0286 -0.3081 -0.1973
  398MPD2     C 5942   0.385   2.437  17.569  0.4284  0.2922  0.0437
  398MPD2    C1 5943   0.369   2.373  17.687  0.0051 -0.5277  0.1160
  398MPD2    C2 5944   0.442   2.414   0.098 -0.3834  0.0672 -0.7543
  398MPD2    C3 5945   0.530   2.518   0.089 -0.2496  1.1418 -0.3132
  398MPD2    C4 5946   0.545   2.586  17.663  0.5295  0.3195 -0.3371
  398MPD2    C5 5947   0.474   2.541  17.554 -0.5097  0.6126 -0.7102
  398MPD2     H 5948   0.433   2.359   0.192 -2.6946  0.6359 -0.6534
  398MPD2    H1 5949   0.616   2.666  17.649  0.1796  1.0521  2.0956
  398MPD2    H2 5950   0.337   2.409  17.475  1.0387  0.2056 -0.2378
  398MPD2    H3 5951   0.460   2.601  17.465 -1.9497 -0.1745 -1.0133
  398MPD2     N 5952   0.597   2.562   0.205 -0.4107 -0.5793 -0.1320
  398MPD2    H5 5953   0.578   2.512   0.292 -1.7936  1.0239  0.4854
  398MPD2    N1 5954   0.280   2.260   0.010 -0.0845  0.0405 -0.5272
  398MPD2    H7 5955   0.287   2.207   0.096  0.7367  0.1850 -0.5021
  399TMC3    C1 5956   0.179   2.069  17.652 -0.0199  0.2316  0.5672
  399TMC3    C2 5957   0.272   1.998   0.027 -0.2057 -0.2270  0.0178
  399TMC3    C3 5958   0.244   1.866   0.051 -0.0480 -0.2456  0.2221
  399TMC3    C4 5959   0.068   2.012  17.601 -0.0456  0.3811 -0.2704
  399TMC3    C5 5960   0.029   1.889  17.653  0.1963  0.3490 -0.4674
  399TMC3    C6 5961   0.117   1.817   0.033  0.5491  0.0659 -0.1845
  399TMC3     C 5962   0.207   2.203  17.616 -0.0660  0.6128  0.5217
  399TMC3     O 5963   0.176   2.246  17.504  0.0861 -0.2652  0.2195
  399TMC3     H 5964   0.372   2.034   0.051  0.6717 -1.9763 -0.9941
  399TMC3    H1 5965   4.720   2.063  17.538  0.1744  2.6430  1.3061
  399TMC3    H2 5966   0.085   1.721   0.071 -1.0357  0.2605 -1.0046
  399TMC3    C7 5967   4.642   1.818  17.597 -0.6221 -0.4404 -0.8181
  399TMC3    C8 5968   0.346   1.775   0.081  0.3301 -0.4941 -0.3814
  399TMC3    O1 5969   4.593   1.732  17.667 -0.5595 -0.2648  0.4010
  399TMC3    O2 5970   0.319   1.685   0.153 -0.5511 -0.1086 -0.5408
  400TMC3    C1 5971   3.601   1.746  16.759  0.5905  0.3021  0.3640
  400TMC3    C2 5972   3.480   1.676  16.752  0.4574 -0.2723  0.0411
  400TMC3    C3 5973   3.404   1.691  16.641  0.0768 -0.2149 -0.4125
  400TMC3    C4 5974   3.647   1.834  16.662 -0.4492  0.2344 -1.2368
  400TMC3    C5 5975   3.569   1.839  16.552 -0.3737 -0.4352 -0.4478
  400TMC3    C6 5976   3.452   1.769  16.532  1.0387  0.1131 -0.1121
  400TMC3     C 5977   3.703   1.674  16.832 -1.1011 -0.7828  0.4424
  400TMC3     O 5978   3.672   1.561  16.876 -0.2774 -0.3303  0.1171
  400TMC3     H 5979   3.447   1.603  16.825  1.5697 -0.8175  0.0009
  400TMC3    H1 5980   3.737   1.893  16.675  1.1402 -1.7642 -3.2246
  400TMC3    H2 5981   3.393   1.776  16.441 -0.2152 -1.6034  0.5739
  400TMC3    C7 5982   3.599   1.945  16.453  0.0988 -0.1894 -0.1714
  400TMC3    C8 5983   3.282   1.617  16.640 -0.2215  0.2633 -0.9601
  400TMC3    O1 5984   3.532   1.934  16.350 -0.2393 -0.2081  0.4721
  400TMC3    O2 5985   3.203   1.630  16.733 -0.0718  0.4726 -0.5791
  401MPD2     C 5986   2.056   4.359   1.050 -0.1601 -0.2880 -0.1283
  401MPD2    C1 5987   2.166   4.398   0.989 -0.0315  0.2320 -0.6091
  401MPD2    C2 5988   2.215   4.328   0.880  0.4578  1.0218  0.1187
  401MPD2    C3 5989   2.142   4.216   0.832  0.2419 -0.0602  0.5284
  401MPD2    C4 5990   2.021   4.190   0.889  0.5269  0.2241 -0.6362
  401MPD2    C5 5991   1.980   4.262   0.995  0.0832  0.3990  0.0233
  401MPD2     H 5992   2.296   4.378   0.830 -0.4937  2.2940 -0.1452
  401MPD2    H1 5993   1.954   4.108   0.863  0.9194 -0.3713  0.2515
  401MPD2    H2 5994   2.009   4.406   1.136 -2.1155  0.7297 -1.7453
  401MPD2    H3 5995   1.881   4.236   1.031  0.4727  1.0172  1.5226
  401MPD2     N 5996   2.196   4.143   0.720  0.1632 -0.0015 -0.4380
  401MPD2    H5 5997   2.281   4.170   0.673  1.4995 -2.5847  0.4654
  401MPD2    N1 5998   2.248   4.501   1.034 -0.5260 -0.0594 -0.1542
  401MPD2    H7 5999   2.343   4.512   0.999  0.5990  0.6570  3.1692
  402TMC3    C1 6000   2.254   3.950   0.593 -0.1020 -0.3897  0.3288
  402TMC3    C2 6001   2.318   3.848   0.660  0.6095 -0.2139 -0.2212
  402TMC3    C3 6002   2.442   3.821   0.622  0.4969  0.2268  0.4306
  402TMC3    C4 6003   2.314   4.026   0.498 -0.8775  0.1381  0.2515
  402TMC3    C5 6004   2.434   3.984   0.449  0.2432 -0.4108  0.1161
  402TMC3    C6 6005   2.500   3.882   0.512  0.1179  0.0557  0.3705
  402TMC3     C 6006   2.159   4.019   0.679 -0.4613  0.7968  0.2724
  402TMC3     O 6007   2.083   3.938   0.732  0.3743 -0.3864 -0.1127
  402TMC3     H 6008   2.270   3.819   0.753 -0.7977  1.3965 -0.4510
  402TMC3    H1 6009   2.271   4.113   0.450 -1.1472  0.2156  0.6341
  402TMC3    H2 6010   2.600   3.851   0.484  1.1049  1.5196  2.2036
  402TMC3    C7 6011   2.466   4.035   0.318 -0.0120 -0.0139  0.5087
  402TMC3    C8 6012   2.520   3.726   0.696 -0.6465 -0.4217 -0.1881
  402TMC3    O1 6013   2.369   4.050   0.245  0.2368  0.0570  0.0513
  402TMC3    O2 6014   2.628   3.699   0.653 -0.6294  0.0648  0.0821
  403MPD2     C 6015   0.385   3.516  13.333  0.4288  0.6912  0.8852
  403MPD2    C1 6016   0.443   3.399  13.381 -0.3187 -0.1689 -0.3342
  403MPD2    C2 6017   0.553   3.404  13.464 -0.1944 -0.1158  0.2886
  403MPD2    C3 6018   0.612   3.531  13.498 -0.4128  0.6165  0.7491
  403MPD2    C4 6019   0.560   3.642  13.437 -0.1884  0.3186 -0.1549
  403MPD2    C5 6020   0.447   3.633  13.359  0.2761 -0.4681  0.2256
  403MPD2     H 6021   0.596   3.310  13.496  0.1465 -0.4524 -1.1611
  403MPD2    H1 6022   0.608   3.737  13.457 -0.0184  0.2963 -0.4548
  403MPD2    H2 6023   0.295   3.511  13.273  2.0400  0.4353 -1.4890
  403MPD2    H3 6024   0.403   3.723  13.317  0.2648 -0.5254  0.1168
  403MPD2     N 6025   0.713   3.534  13.590  0.2237  0.2356  0.3880
  403MPD2    H5 6026   0.745   3.450  13.638 -2.5024 -1.0536 -0.0515
  403MPD2    N1 6027   0.375   3.276  13.340 -0.4076  0.2237 -0.5312
  403MPD2    H7 6028   0.286   3.276  13.292 -1.3919  1.3156  1.3129
  404TMC3    C1 6029   0.356   3.053  13.297  1.4836  0.0857  0.5998
  404TMC3    C2 6030   0.297   2.948  13.372  0.2919  0.3049 -0.1387
  404TMC3    C3 6031   0.262   2.837  13.302 -0.1616 -0.8687 -0.0917
  404TMC3    C4 6032   0.359   3.051  13.159  0.3551 -0.2014  0.0705
  404TMC3    C5 6033   0.314   2.939  13.096  0.6922  0.9290  0.1426
  404TMC3    C6 6034   0.270   2.829  13.165  0.2771  0.0007  0.7383
  404TMC3     C 6035   0.431   3.153  13.353 -0.5485 -0.3669  0.9991
  404TMC3     O 6036   0.519   3.109  13.429 -0.8736 -0.5932  0.4401
  404TMC3     H 6037   0.308   2.956  13.480 -3.8326  1.1194  0.1928
  404TMC3    H1 6038   0.375   3.145  13.107 -1.1388  0.0440  0.0632
  404TMC3    H2 6039   0.260   2.736  13.110  2.7801  0.5227 -0.5811
  404TMC3    C7 6040   0.330   2.941  12.951  0.2442 -0.2423 -0.2649
  404TMC3    C8 6041   0.260   2.707  13.365  0.0978 -0.5286  0.2656
  404TMC3    O1 6042   0.389   3.039  12.911 -0.3642  0.3010 -0.0453
  404TMC3    O2 6043   0.263   2.609  13.293  0.1676  0.1547  0.1947
  405MPD2     C 6044   0.922   3.774  14.146 -0.3938 -0.5413 -0.2856
  405MPD2    C1 6045   0.806   3.698  14.141  0.0077 -0.1105 -0.6576
  405MPD2    C2 6046   0.698   3.739  14.067 -0.3165 -0.5824 -0.0292
  405MPD2    C3 6047   0.700   3.860  14.001 -0.0460  0.6669  0.3752
  405MPD2    C4 6048   0.813   3.936  14.009 -0.8315 -0.1404  0.3536
  405MPD2    C5 6049   0.919   3.898  14.084  0.1850 -0.1120  0.1473
  405MPD2     H 6050   0.620   3.665  14.052 -1.1956  0.5194 -0.8443
  405MPD2    H1 6051   0.816   4.035  13.964  0.3571 -0.6923 -0.7995
  405MPD2    H2 6052   1.010   3.748  14.204  0.7420 -1.7705 -2.5195
  405MPD2    H3 6053   0.998   3.972  14.089  1.0630 -1.1122  0.9946
  405MPD2     N 6054   0.586   3.894  13.921 -0.5619 -0.1898 -0.6143
  405MPD2    H5 6055   0.505   3.834  13.926 -0.6738 -0.0619 -0.8783
  405MPD2    N1 6056   0.810   3.567  14.194  0.2241  0.4302 -0.4663
  405MPD2    H7 6057   0.898   3.522  14.219  0.6242 -0.3935 -3.4405
  406TMC3    C1 6058   0.258   4.077  13.678 -0.4017 -0.9720 -0.5449
  406TMC3    C2 6059   0.222   3.959  13.621  0.2674 -0.2200  0.1423
  406TMC3    C3 6060   0.308   3.855  13.630  0.0256  0.2731 -1.2354
  406TMC3    C4 6061   0.376   4.096  13.739  0.6941  0.3569  0.2715
  406TMC3    C5 6062   0.461   3.988  13.750 -0.5030  0.1297 -0.0014
  406TMC3    C6 6063   0.429   3.866  13.691  0.1804  0.0309  0.0365
  406TMC3     C 6064   0.139   4.159  13.711  0.3327 -0.4781  0.2021
  406TMC3     O 6065   0.084   4.229  13.625  0.1321  0.4143 -0.0110
  406TMC3     H 6066   0.127   3.941  13.572 -0.5398 -1.1066  2.0291
  406TMC3    H1 6067   0.398   4.193  13.783  0.0576  0.9860 -0.7926
  406TMC3    H2 6068   0.497   3.784  13.711 -1.1898 -1.3353 -0.8502
  406TMC3    C7 6069   0.578   4.000  13.833  0.0558  0.0580  0.6528
  406TMC3    C8 6070   0.238   3.735  13.660 -0.2415  0.1362  0.1893
  406TMC3    O1 6071   0.650   4.093  13.811 -0.3090 -0.2261  0.5281
  406TMC3    O2 6072   0.118   3.752  13.688  0.2077  0.0263 -0.1027
  407MPD2     C 6073   3.212   0.186   9.462 -0.3879  0.7687  0.2540
  407MPD2    C1 6074   3.234   0.308   9.385 -0.5929 -0.0910  0.2928
  407MPD2    C2 6075   3.270   0.422   9.457  0.6683  0.2672  0.0278
  407MPD2    C3 6076   3.288   0.427   9.593  0.0636 -0.2646 -0.1167
  407MPD2    C4 6077   3.261   0.309   9.662  0.6788 -1.0698  0.2469
  407MPD2    C5 6078   3.225   0.195   9.597  0.2957 -0.5071  0.6470
  407MPD2     H 6079   3.288   0.514   9.402  1.0292  0.2340  0.0859
  407MPD2    H1 6080   3.271   0.314   9.770  1.8168 -0.6770  0.1213
  407MPD2    H2 6081   3.197   0.088   9.420 -2.9562  1.7864 -1.2095
  407MPD2    H3 6082   3.214   0.108   9.661 -1.1616  0.1585  1.2834
  407MPD2     N 6083   3.337   0.542   9.660 -0.6778 -0.1545 -0.0210
  407MPD2    H5 6084   3.359   0.622   9.601  0.0880 -0.2414  0.1607
  407MPD2    N1 6085   3.236   0.316   9.245  0.2521  0.2509 -0.9635
  407MPD2    H7 6086   3.270   0.402   9.204  2.8176 -0.0716  0.4590
  408TMC3    C1 6087   3.247   0.264   9.026  0.0698  0.0494 -0.4193
  408TMC3    C2 6088   3.339   0.190   8.958  0.3235 -0.1749 -0.9799
  408TMC3    C3 6089   3.410   0.255   8.868 -0.5283  0.6918  0.2165
  408TMC3    C4 6090   3.231   0.401   9.019  0.7072  0.0904  0.5944
  408TMC3    C5 6091   3.316   0.456   8.929  0.4171  0.2299 -0.5021
  408TMC3    C6 6092   3.397   0.384   8.849 -0.9565 -0.2168  0.2294
  408TMC3     C 6093   3.212   0.212   9.157 -0.8483  0.2562 -0.2107
  408TMC3     O 6094   3.220   0.091   9.166  0.3405 -0.3572 -0.4518
  408TMC3     H 6095   3.372   0.092   8.991 -1.0971 -0.3767 -0.1042
  408TMC3    H1 6096   3.149   0.455   9.064 -0.1782 -0.0742 -0.8170
  408TMC3    H2 6097   3.450   0.431   8.768  0.1710 -0.1709  0.9843
  408TMC3    C7 6098   3.349   0.592   8.944 -0.0145 -0.1048  0.4359
  408TMC3    C8 6099   3.538   0.203   8.843 -0.0866 -0.3097 -0.0543
  408TMC3    O1 6100   3.449   0.633   8.886  0.1655  0.3004 -0.0051
  408TMC3    O2 6101   3.548   0.079   8.849  0.3958  0.2479  0.2681
  409MPD2     C 6102   2.563   1.427  16.739  0.2732 -0.4253  0.0238
  409MPD2    C1 6103   2.656   1.471  16.831 -0.2686  0.0996 -0.1432
  409MPD2    C2 6104   2.726   1.590  16.804 -0.8334 -0.2409  0.0968
  409MPD2    C3 6105   2.720   1.659  16.687 -0.5923 -0.2535  0.0607
  409MPD2    C4 6106   2.620   1.618  16.599  0.1454 -0.1445  0.3202
  409MPD2    C5 6107   2.554   1.499  16.619  0.0305  0.2677 -0.2876
  409MPD2     H 6108   2.803   1.615  16.876 -0.2525 -5.5657  1.3095
  409MPD2    H1 6109   2.587   1.678  16.514 -0.1016 -0.7578 -0.0147
  409MPD2    H2 6110   2.519   1.328  16.749 -2.8669  0.7946 -1.8439
  409MPD2    H3 6111   2.476   1.472  16.548  0.7042  0.9668 -1.3032
  409MPD2     N 6112   2.806   1.766  16.647  0.2245 -0.4946 -0.7329
  409MPD2    H5 6113   2.792   1.811  16.556 -0.0301 -1.3055 -1.0928
  409MPD2    N1 6114   2.687   1.400  16.947  0.3020 -0.2765  0.0940
  409MPD2    H7 6115   2.763   1.434  17.006 -1.4250 -1.6435  3.1306
  410TMC3    C1 6116   2.961   1.951  16.668 -0.1734 -0.0633  0.0204
  410TMC3    C2 6117   3.047   2.009  16.752 -0.1259 -1.1849 -0.3814
  410TMC3    C3 6118   3.167   2.052  16.710 -1.0290  0.4615  0.5077
  410TMC3    C4 6119   3.003   1.926  16.539  0.6196 -0.5644  0.1224
  410TMC3    C5 6120   3.123   1.969  16.499  0.8770  0.2899 -0.8930
  410TMC3    C6 6121   3.205   2.036  16.581 -0.4826 -0.4694 -0.8161
  410TMC3     C 6122   2.889   1.836  16.728 -0.1669 -0.5673  0.2889
  410TMC3     O 6123   2.922   1.808  16.844  0.1990  0.5141 -0.6796
  410TMC3     H 6124   3.021   2.018  16.857 -1.2622 -0.0127 -0.7697
  410TMC3    H1 6125   2.938   1.883  16.464  0.4707  0.2906 -0.2439
  410TMC3    H2 6126   3.305   2.057  16.543  0.3383 -3.4753 -0.2816
  410TMC3    C7 6127   3.126   1.999  16.362 -0.5091 -0.1053 -0.1505
  410TMC3    C8 6128   3.272   2.017  16.808 -0.0595 -0.0980 -0.2782
  410TMC3    O1 6129   3.092   1.912  16.287 -0.4880 -0.1390 -0.1445
  410TMC3    O2 6130   3.386   2.059  16.792  0.0998 -0.5381  0.3827
  411MPD2     C 6131   2.552   2.106  14.264  0.0343  0.1954  0.4139
  411MPD2    C1 6132   2.675   2.097  14.318 -0.6282 -0.0400  1.0886
  411MPD2    C2 6133   2.733   1.972  14.336  0.3199 -0.7294 -0.6252
  411MPD2    C3 6134   2.671   1.860  14.293  0.1022 -0.3795 -0.3579
  411MPD2    C4 6135   2.546   1.866  14.233  0.8578  0.9774 -0.4400
  411MPD2    C5 6136   2.490   1.991  14.229 -0.1758  0.5686 -0.2117
  411MPD2     H 6137   2.825   1.961  14.392  0.9290 -0.5000 -1.5869
  411MPD2    H1 6138   2.481   1.784  14.206 -1.1291  1.3749  3.1838
  411MPD2    H2 6139   2.505   2.203  14.250  2.0060  1.3460  1.6669
  411MPD2    H3 6140   2.384   1.993  14.206 -0.9298  0.4867  3.1790
  411MPD2     N 6141   2.729   1.725  14.307 -0.5294 -0.2884 -0.0490
  411MPD2    H5 6142   2.672   1.649  14.273 -2.1754  0.2812  1.4351
  411MPD2    N1 6143   2.740   2.217  14.346 -0.0637 -0.1414 -0.6704
  411MPD2    H7 6144   2.705   2.307  14.314  3.0018  1.3765  0.2251
  412TMC3    C1 6145   2.865   1.548  14.362 -0.3191 -0.0478  0.3145
  412TMC3    C2 6146   2.749   1.483  14.377  0.0065  0.8118  0.7384
  412TMC3    C3 6147   2.718   1.377  14.307  0.7481 -0.3791 -0.6778
  412TMC3    C4 6148   2.959   1.510  14.272 -0.1113 -0.8218  0.0927
  412TMC3    C5 6149   2.935   1.397  14.207 -0.6506  0.4311 -0.1127
  412TMC3    C6 6150   2.823   1.325  14.228 -0.2988  0.7928 -0.7129
  412TMC3     C 6151   2.851   1.690  14.360  0.6768 -0.4339 -0.4663
  412TMC3     O 6152   2.944   1.770  14.376  0.0435  0.0611  0.6342
  412TMC3     H 6153   2.672   1.524  14.441 -1.3329  2.0046 -1.6149
  412TMC3    H1 6154   3.034   1.582  14.240 -1.0481  0.9768  1.9128
  412TMC3    H2 6155   2.805   1.241  14.162  0.7208  0.0010  0.0066
  412TMC3    C7 6156   2.933   1.432  14.065  0.0616  0.8260  0.5089
  412TMC3    C8 6157   2.600   1.398  14.234 -0.1896  0.0060  0.3443
  412TMC3    O1 6158   2.828   1.411  14.000  0.2794 -0.0482  0.4134
  412TMC3    O2 6159   2.541   1.501  14.259  0.1093  0.1085  0.4445
  413MPD2     C 6160   4.658   0.106  15.304  0.5616  0.4326  0.1662
  413MPD2    C1 6161   4.588   0.032  15.214  0.3812  0.2224  0.5286
  413MPD2    C2 6162   4.642   4.634  15.190  0.4092  0.3566  1.0253
  413MPD2    C3 6163   0.030   4.591  15.262 -0.7441  0.5135  0.7443
  413MPD2    C4 6164   0.097   4.677  15.355 -0.6047  0.1313 -0.4956
  413MPD2    C5 6165   0.053   0.077  15.367  0.1121  0.2350 -0.2456
  413MPD2     H 6166   4.596   4.572  15.114 -2.2971  1.9641  1.3552
  413MPD2    H1 6167   0.195   4.649  15.392 -0.0688 -2.3092 -3.8024
  413MPD2    H2 6168   4.619   0.203  15.333 -0.9438 -0.4262  1.0447
  413MPD2    H3 6169   0.113   0.152  15.416  1.9184 -0.8648 -0.7753
  413MPD2     N 6170   0.087   4.470  15.217 -0.4340  0.0643 -0.8133
  413MPD2    H5 6171   0.040   4.424  15.140 -2.1244  0.4150  0.0121
  413MPD2    N1 6172   4.468   0.098  15.155 -0.3324  0.0063 -0.3335
  413MPD2    H7 6173   4.456   0.187  15.202 -5.0139 -1.6289  1.5368
  414TMC3    C1 6174   0.224   4.273  15.203  0.5297 -0.3364 -0.8024
  414TMC3    C2 6175   0.351   4.212  15.200 -0.0702 -0.1141 -0.5056
  414TMC3    C3 6176   0.371   4.095  15.129  0.1826 -0.6302  1.0463
  414TMC3    C4 6177   0.123   4.215  15.131  0.0001  0.7609  0.6653
  414TMC3    C5 6178   0.151   4.094  15.068 -0.0302  0.6618 -0.2163
  414TMC3    C6 6179   0.269   4.027  15.065  0.0115 -0.2590  0.5278
  414TMC3     C 6180   0.205   4.406  15.259  0.0534 -0.0686  0.1106
  414TMC3     O 6181   0.297   4.453  15.324  0.2169  0.5313  0.5693
  414TMC3     H 6182   0.428   4.250  15.265  0.5731  0.9475 -1.8953
  414TMC3    H1 6183   0.018   4.239  15.142  0.7735  4.7505 -0.5091
  414TMC3    H2 6184   0.296   3.947  14.997 -1.4918 -0.1738 -0.1751
  414TMC3    C7 6185   0.053   4.055  14.972 -0.2671 -0.4158 -0.4766
  414TMC3    C8 6186   0.509   4.071  15.085  0.2162 -0.2183  0.1517
  414TMC3    O1 6187   4.665   4.025  15.014  0.0409 -0.6311 -0.0805
  414TMC3    O2 6188   0.537   3.954  15.063 -0.4007  0.0690 -0.1375
  415TMC3    C1 6189   0.786   2.394   9.402  0.4608  0.0263 -0.0132
  415TMC3    C2 6190   0.797   2.516   9.346 -0.1494 -0.7429  0.0176
  415TMC3    C3 6191   0.681   2.561   9.295 -0.3157  0.1924 -0.3033
  415TMC3    C4 6192   0.671   2.326   9.430 -0.0766 -0.1638 -0.2012
  415TMC3    C5 6193   0.553   2.388   9.393  0.5851 -0.3481 -0.3109
  415TMC3    C6 6194   0.555   2.509   9.317 -0.0316 -0.2018 -0.5363
  415TMC3     C 6195   0.906   2.339   9.462  0.1717  0.7580 -0.1603
  415TMC3     O 6196   0.901   2.221   9.495  0.7971 -0.3723  0.1182
  415TMC3     H 6197   0.893   2.565   9.333  0.5048 -1.8002  0.8945
  415TMC3    H1 6198   0.670   2.238   9.493  1.6351  1.0884  1.5760
  415TMC3    H2 6199   0.464   2.535   9.264 -0.4352 -0.0680  0.2154
  415TMC3    C7 6200   0.452   2.293   9.354 -0.2634 -0.2915  0.2108
  415TMC3    C8 6201   0.682   2.676   9.207 -0.0281 -0.1221 -0.1625
  415TMC3    O1 6202   0.342   2.343   9.325 -0.5303  0.2865 -0.2957
  415TMC3    O2 6203   0.577   2.729   9.182 -0.0949  0.2606  0.3040
  416MPD2     C 6204   2.247   2.172  10.904 -0.3175 -0.4517 -0.3517
  416MPD2    C1 6205   2.193   2.083  10.995  1.2060  0.1889  0.5309
  416MPD2    C2 6206   2.244   1.960  11.011  0.0758  0.3001  0.6165
  416MPD2    C3 6207   2.355   1.926  10.936 -0.8178 -0.3881  0.7770
  416MPD2    C4 6208   2.423   2.017  10.864 -0.2193 -0.1325  0.7457
  416MPD2    C5 6209   2.361   2.139  10.835  0.2910  0.2528 -0.0299
  416MPD2     H 6210   2.189   1.885  11.067 -0.0498  0.4864  0.7447
  416MPD2    H1 6211   2.498   1.990  10.792  0.5495  3.7644  0.0815
  416MPD2    H2 6212   2.204   2.268  10.879 -0.0971 -0.2580  0.0078
  416MPD2    H3 6213   2.409   2.203  10.763 -1.7706  1.6860 -0.1174
  416MPD2     N 6214   2.401   1.794  10.929  0.9550 -0.5579  0.2741
  416MPD2    H5 6215   2.489   1.776  10.882  0.8305 -0.5835  0.0537
  416MPD2    N1 6216   2.061   2.109  11.048  0.5610 -0.0258 -0.4365
  416MPD2    H7 6217   2.018   2.191  11.008 -0.0145  0.8931  2.0719
  417TMC3    C1 6218   1.854   2.069  11.176 -0.1797  0.2807 -0.1260
  417TMC3    C2 6219   1.802   2.002  11.286  0.2375 -0.0475  0.3826
  417TMC3    C3 6220   1.663   2.007  11.294  0.3637 -0.1134 -0.9470
  417TMC3    C4 6221   1.781   2.130  11.078  0.2744 -0.0871  0.1505
  417TMC3    C5 6222   1.644   2.131  11.100 -0.0139 -0.3590  0.1369
  417TMC3    C6 6223   1.579   2.060  11.197 -0.9694  0.0316  0.0207
  417TMC3     C 6224   1.999   2.048  11.158  0.1359  0.1630  0.6419
  417TMC3     O 6225   2.053   1.974  11.237  0.0843  0.3084  0.5605
  417TMC3     H 6226   1.867   1.987  11.372 -1.0738  2.2226  1.7651
  417TMC3    H1 6227   1.825   2.184  10.996 -0.0895  0.7661  0.5118
  417TMC3    H2 6228   1.471   2.057  11.203 -0.8705  0.3825  2.0505
  417TMC3    C7 6229   1.575   2.134  10.978 -0.1874 -0.0869  0.0635
  417TMC3    C8 6230   1.619   1.921  11.399  0.6127  0.5252  0.2494
  417TMC3    O1 6231   1.591   2.243  10.919  0.3166  0.0588 -0.8653
  417TMC3    O2 6232   1.517   1.953  11.459 -0.4774  0.2330 -0.3084
  418TMC3    C1 6233   0.902   2.510   0.432 -0.0707  0.0813  0.1959
  418TMC3    C2 6234   0.875   2.619   0.354  0.1626 -0.1705  0.2976
  418TMC3    C3 6235   0.747   2.662   0.349  0.2838 -0.2976  0.6145
  418TMC3    C4 6236   0.805   2.463   0.522 -0.0310 -1.1255  0.2387
  418TMC3    C5 6237   0.686   2.533   0.517 -0.3352 -0.1308 -0.7526
  418TMC3    C6 6238   0.652   2.636   0.440 -0.3171 -0.0003 -0.1307
  418TMC3     C 6239   1.002   2.419   0.381  0.4744  0.5169  0.5652
  418TMC3     O 6240   1.100   2.466   0.325 -0.0911 -0.4140  0.1652
  418TMC3     H 6241   0.946   2.653   0.280  0.3041 -1.2466 -0.0574
  418TMC3    H1 6242   0.818   2.373   0.579 -3.2523 -1.0495  1.1075
  418TMC3    H2 6243   0.549   2.670   0.429 -0.0468  0.8419 -0.0900
  418TMC3    C7 6244   0.578   2.450   0.546  0.0948 -0.1644  0.2901
  418TMC3    C8 6245   0.698   2.658   0.213  0.0592  0.6607 -0.0167
  418TMC3    O1 6246   0.491   2.455   0.462  0.0207  0.6864 -0.0221
  418TMC3    O2 6247   0.769   2.707   0.123  0.3929 -0.5427  0.1172
  419MPD2     C 6248   4.529   1.502  12.546  0.0607  0.2012  0.1143
  419MPD2    C1 6249   4.427   1.594  12.569 -0.6197 -0.2185 -0.5763
  419MPD2    C2 6250   4.393   1.628  12.695 -0.5730 -0.0802 -0.7749
  419MPD2    C3 6251   4.458   1.586  12.807  0.5148  0.2107 -0.1947
  419MPD2    C4 6252   4.562   1.495  12.792 -0.4630  1.0025  0.1503
  419MPD2    C5 6253   4.595   1.463  12.661  0.2740  0.4290 -0.2392
  419MPD2     H 6254   4.321   1.709  12.697  0.0194  0.4291  0.1186
  419MPD2    H1 6255   4.611   1.451  12.878  2.0895  1.2050 -1.1932
  419MPD2    H2 6256   4.564   1.472  12.448  1.6315  2.4634 -0.0387
  419MPD2    H3 6257   4.684   1.402  12.667 -1.1089 -1.4898  0.5750
  419MPD2     N 6258   4.414   1.643  12.933 -0.1176 -0.6219  0.1442
  419MPD2    H5 6259   4.345   1.718  12.934 -0.2675 -0.7285 -1.8284
  419MPD2    N1 6260   4.359   1.655  12.465  0.0344 -0.2899  0.2643
  419MPD2    H7 6261   4.292   1.727  12.487 -0.7919 -0.3698 -2.1024
  420TMC3    C1 6262   4.386   1.667  13.174  0.9394  0.2521  0.1575
  420TMC3    C2 6263   4.303   1.773  13.163 -0.5895 -0.2249 -0.2763
  420TMC3    C3 6264   4.207   1.805  13.251  0.2228  0.2847 -0.0171
  420TMC3    C4 6265   4.375   1.586  13.283  0.1732 -0.6451 -0.5993
  420TMC3    C5 6266   4.285   1.625  13.376  0.0820  0.0547 -0.1146
  420TMC3    C6 6267   4.202   1.727  13.363 -0.2619 -0.2294  0.9549
  420TMC3     C 6268   4.460   1.606  13.059  0.6860  0.2347 -0.0961
  420TMC3     O 6269   4.545   1.523  13.073 -0.0375 -0.2189 -0.2579
  420TMC3     H 6270   4.310   1.835  13.074  1.7366  2.5474  1.8287
  420TMC3    H1 6271   4.431   1.495  13.300  2.7033  1.2742  1.2756
  420TMC3    H2 6272   4.119   1.738  13.433 -1.4979 -0.4632 -0.4733
  420TMC3    C7 6273   4.292   1.558  13.500  0.0498 -0.1921  0.0547
  420TMC3    C8 6274   4.118   1.916  13.219 -0.8151  0.2702  0.2633
  420TMC3    O1 6275   4.375   1.467  13.516  0.2695 -0.2522 -0.2500
  420TMC3    O2 6276   4.133   1.962  13.105 -0.2745  0.3268  0.3006
  421TMC3    C1 6277   0.889   3.602  13.719 -0.3656 -1.1944  0.3978
  421TMC3    C2 6278   0.958   3.703  13.778 -0.1416 -0.0101 -0.4620
  421TMC3    C3 6279   1.070   3.668  13.850 -0.6719 -0.2119  0.1324
  421TMC3    C4 6280   0.930   3.469  13.722 -0.3517 -0.1012 -0.1357
  421TMC3    C5 6281   1.040   3.446  13.805  0.1624  0.1810 -0.1453
  421TMC3    C6 6282   1.102   3.538  13.876 -0.1415 -0.5364  0.4017
  421TMC3     C 6283   0.782   3.643  13.636 -0.0404 -0.2712 -0.9605
  421TMC3     O 6284   0.772   3.759  13.610  0.7666 -0.3006  0.5234
  421TMC3     H 6285   0.927   3.806  13.759  1.8205  0.7434  0.4755
  421TMC3    H1 6286   0.881   3.386  13.673 -1.0491 -0.4085  1.0734
  421TMC3    H2 6287   1.190   3.511  13.932 -0.8301 -1.9580  0.7785
  421TMC3    C7 6288   1.086   3.309  13.819  0.6514 -0.1742  0.3684
  421TMC3    C8 6289   1.170   3.773  13.892 -0.8522 -0.5800  0.4487
  421TMC3    O1 6290   1.137   3.281  13.927 -0.4532  0.3259  0.0800
  421TMC3    O2 6291   1.230   3.740  13.993 -0.1815  0.1559  0.4230
  422TMC3    C1 6292   3.283   4.578  12.144 -0.0455 -0.3696  0.9080
  422TMC3    C2 6293   3.244   4.707  12.160  1.0555  0.4840 -0.4033
  422TMC3    C3 6294   3.135   0.003  12.235  0.7966  0.2290  0.0769
  422TMC3    C4 6295   3.210   4.472  12.189 -0.4283 -0.0664 -1.0885
  422TMC3    C5 6296   3.089   4.493  12.250 -0.4674  0.5156  0.0945
  422TMC3    C6 6297   3.060   4.625  12.287  0.1968  0.0138  0.0624
  422TMC3     C 6298   3.414   4.553  12.092  0.3322  0.3796 -0.3943
  422TMC3     O 6299   3.467   4.642  12.029 -0.1074 -0.3212 -0.2439
  422TMC3     H 6300   3.304   0.066  12.126  0.1801  0.7194 -1.3694
  422TMC3    H1 6301   3.227   4.372  12.150 -2.9077 -0.5562 -0.9096
  422TMC3    H2 6302   2.986   4.637  12.366  0.5976  2.4886  0.0801
  422TMC3    C7 6303   3.023   4.384  12.318  0.0067 -0.1518 -0.1186
  422TMC3    C8 6304   3.117   0.143  12.255  0.0978  0.6342  0.6318
  422TMC3    O1 6305   3.081   4.276  12.317  0.0522  0.1210 -0.7776
  422TMC3    O2 6306   3.207   0.208  12.301 -0.4380  0.4518  0.4941
  423MPD2     C 6307   4.478   0.745   0.474  0.1574 -0.3487 -0.2652
  423MPD2    C1 6308   4.403   0.628   0.453 -0.0584 -0.9502  0.3622
  423MPD2    C2 6309   4.437   0.540   0.351  0.1841  0.3255 -0.1423
  423MPD2    C3 6310   4.553   0.562   0.273  0.3051 -0.0517 -0.3504
  423MPD2    C4 6311   4.622   0.682   0.289  0.0358  0.5026 -0.1778
  423MPD2    C5 6312   4.593   0.767   0.395  0.1631 -0.4153  0.0187
  423MPD2     H 6313   4.378   0.451   0.329  1.0303 -0.3580  0.3727
  423MPD2    H1 6314   4.696   0.727   0.223 -0.4884  0.1972 -0.9661
  423MPD2    H2 6315   4.463   0.813   0.557  1.3584 -0.0109 -0.3282
  423MPD2    H3 6316   4.640   0.863   0.412 -0.0204 -0.3653  0.2371
  423MPD2     N 6317   4.589   0.480   0.162  0.1487 -0.4108  0.4073
  423MPD2    H5 6318   4.659   0.518   0.099 -0.2062 -2.3347 -1.1573
  423MPD2    N1 6319   4.287   0.603   0.527  0.5209 -0.3153  0.0694
  423MPD2    H7 6320   4.236   0.518   0.505  0.8445 -0.5610  0.2547
  424TMC3    C1 6321   4.136   0.605   0.694 -0.1816  0.1678 -0.6821
  424TMC3    C2 6322   4.146   0.557   0.822 -0.2483  0.0982  0.3234
  424TMC3    C3 6323   4.046   0.471   0.858 -0.4371 -0.4716 -0.0306
  424TMC3    C4 6324   4.043   0.571   0.600  0.1007 -0.1888  0.0071
  424TMC3    C5 6325   3.941   0.498   0.653 -1.0594 -0.0465  0.4816
  424TMC3    C6 6326   3.941   0.440   0.781  0.1755  0.1116 -0.0023
  424TMC3     C 6327   4.254   0.666   0.647 -0.1656 -0.6251 -0.4278
  424TMC3     O 6328   4.311   0.753   0.708  0.4444  0.0993  0.3963
  424TMC3     H 6329   4.229   0.592   0.883 -1.0381  1.0724  0.8483
  424TMC3    H1 6330   4.039   0.614   0.501 -1.2354 -1.0340 -0.3086
  424TMC3    H2 6331   3.862   0.372   0.809 -0.6539  1.1238  0.0981
  424TMC3    C7 6332   3.820   0.494   0.577  0.1818  0.1782  0.7228
  424TMC3    C8 6333   4.044   0.411   0.993  0.3877  0.5248  0.1312
  424TMC3    O1 6334   3.835   0.501   0.455 -0.4943 -0.7643 -0.1237
  424TMC3    O2 6335   3.987   0.305   1.021  0.0745 -0.1254  0.2723
  425MPD2     C 6336   3.691   4.286   0.020 -0.7368  0.2388  0.4438
  425MPD2    C1 6337   3.700   4.282  17.580  0.1865  0.4839 -0.1159
  425MPD2    C2 6338   3.599   4.346  17.510  0.1091 -0.2920  0.6200
  425MPD2    C3 6339   3.490   4.406  17.572 -0.1528  0.1331 -0.6963
  425MPD2    C4 6340   3.482   4.390   0.014 -0.1020  0.4360  0.2352
  425MPD2    C5 6341   3.584   4.338   0.086  0.1561  0.4108 -0.3732
  425MPD2     H 6342   3.600   4.354  17.402 -0.8230 -0.2856  0.6138
  425MPD2    H1 6343   3.393   4.425   0.067  0.2983  0.5298  0.8498
  425MPD2    H2 6344   3.774   4.250   0.080 -2.2823 -4.0715 -0.0030
  425MPD2    H3 6345   3.579   4.331   0.194 -0.0696 -1.4955 -0.5033
  425MPD2     N 6346   3.384   4.455  17.489 -0.0863  0.1083 -0.2873
  425MPD2    H5 6347   3.377   4.427  17.392  4.1808  0.4549 -0.6856
  425MPD2    N1 6348   3.808   4.215  17.517  0.7560  0.2008 -0.1508
  425MPD2    H7 6349   3.877   4.170  17.576 -0.8587 -0.1372  1.4647
  426TMC3    C1 6350   3.918   4.101  17.333 -0.1911  0.4557  0.1028
  426TMC3    C2 6351   3.921   4.079  17.196  0.5935  0.6917  0.2770
  426TMC3    C3 6352   3.965   3.958  17.148 -0.1602  0.5153  0.6647
  426TMC3    C4 6353   3.948   3.999  17.419 -0.1406  0.1589 -0.1551
  426TMC3    C5 6354   3.982   3.878  17.365  0.7460  0.4168  0.3410
  426TMC3    C6 6355   4.000   3.856  17.232 -0.3597 -0.0739  0.7927
  426TMC3     C 6356   3.840   4.212  17.383  0.0470 -0.1001  0.1612
  426TMC3     O 6357   3.792   4.269  17.288  0.3805 -0.0884 -0.4293
  426TMC3     H 6358   3.887   4.164  17.138 -0.7852 -1.0187 -1.4403
  426TMC3    H1 6359   3.923   4.019  17.523  0.4463  1.5869 -0.2808
  426TMC3    H2 6360   4.031   3.758  17.198  2.2620  0.2168  2.3900
  426TMC3    C7 6361   3.991   3.760  17.449  0.4083  0.2015 -0.0027
  426TMC3    C8 6362   3.927   3.923  17.021  0.3945 -0.6545  0.3935
  426TMC3    O1 6363   4.015   3.655  17.395 -0.3770  0.0571  0.4845
  426TMC3    O2 6364   3.976   3.823  16.976 -0.0814 -0.3484  0.5867
  427MPD2     C 6365   1.641   1.476  14.603  0.7545 -0.3178  0.2657
  427MPD2    C1 6366   1.738   1.577  14.577 -0.1036 -1.0828  0.1825
  427MPD2    C2 6367   1.699   1.687  14.508 -0.0423 -0.3454  0.9122
  427MPD2    C3 6368   1.567   1.697  14.458 -0.2736  0.3540 -0.4071
  427MPD2    C4 6369   1.480   1.598  14.467  0.3954 -0.2815 -0.0733
  427MPD2    C5 6370   1.521   1.481  14.533  0.1869 -0.2315  0.4040
  427MPD2     H 6371   1.767   1.770  14.494 -2.1446  0.9772 -1.5554
  427MPD2    H1 6372   1.383   1.594  14.419 -0.0640 -0.0186  0.8318
  427MPD2    H2 6373   1.656   1.382  14.654  1.4098 -0.5510 -0.3491
  427MPD2    H3 6374   1.448   1.401  14.544  1.6682 -1.7925 -1.1126
  427MPD2     N 6375   1.501   1.815  14.416 -0.1740  0.2250 -0.4379
  427MPD2    H5 6376   1.401   1.806  14.398 -0.2903  0.8065 -0.0646
  427MPD2    N1 6377   1.861   1.587  14.640 -0.5317  0.0849 -0.7506
  427MPD2    H7 6378   1.916   1.670  14.617 -2.4122  1.5543  0.0577
  428TMC3    C1 6379   2.028   1.534  14.792  0.2896  0.1589  0.4511
  428TMC3    C2 6380   2.090   1.434  14.863 -0.1271  0.2196 -0.1046
  428TMC3    C3 6381   2.211   1.449  14.909  0.0373 -0.3739 -0.3584
  428TMC3    C4 6382   2.091   1.652  14.780  0.3451 -0.4080  0.5435
  428TMC3    C5 6383   2.217   1.671  14.835  0.3471 -0.5012 -0.4983
  428TMC3    C6 6384   2.274   1.566  14.897 -0.0633 -0.5167 -0.1358
  428TMC3     C 6385   1.908   1.489  14.722 -0.6624  0.6231 -0.1994
  428TMC3     O 6386   1.869   1.375  14.739  0.1388  0.5156 -0.4955
  428TMC3     H 6387   2.039   1.340  14.877  3.8849 -1.8808  0.5176
  428TMC3    H1 6388   2.048   1.742  14.738  0.7987 -1.7151 -2.7591
  428TMC3    H2 6389   2.374   1.578  14.938 -0.2105  2.4916 -0.6644
  428TMC3    C7 6390   2.256   1.794  14.895 -0.0658  0.1300  0.4406
  428TMC3    C8 6391   2.269   1.347  14.990 -0.2045 -0.7887  0.0718
  428TMC3    O1 6392   2.360   1.798  14.957  1.0463 -0.6812 -0.0572
  428TMC3    O2 6393   2.394   1.329  14.995 -0.4238 -0.0158 -0.3004
  429MPD2     C 6394   3.734   2.359  17.284 -0.3972  0.3710 -0.1154
  429MPD2    C1 6395   3.676   2.353  17.156 -0.6964  0.0422 -0.7413
  429MPD2    C2 6396   3.727   2.418  17.046  0.9858  0.4446 -0.5803
  429MPD2    C3 6397   3.833   2.502  17.057  0.4472 -0.3092 -0.5884
  429MPD2    C4 6398   3.895   2.506  17.177 -0.0506  0.5473  0.1904
  429MPD2    C5 6399   3.844   2.439  17.287  0.3893  0.7170  0.2165
  429MPD2     H 6400   3.672   2.423  16.953 -2.1735  0.2600  1.2781
  429MPD2    H1 6401   3.989   2.558  17.191 -0.6719  0.8182  3.2519
  429MPD2    H2 6402   3.694   2.306  17.370 -0.4681  3.2251  1.6171
  429MPD2    H3 6403   3.892   2.450  17.383  0.2007 -0.2162  0.4105
  429MPD2     N 6404   3.876   2.571  16.945 -0.1779  0.2811 -0.3576
  429MPD2    H5 6405   3.833   2.545  16.857 -2.1321  0.0773  0.6574
  429MPD2    N1 6406   3.560   2.271  17.133 -0.2340  0.1786  0.1723
  429MPD2    H7 6407   3.523   2.280  17.039  1.5143  0.2396 -0.5103
  430TMC3    C1 6408   4.017   2.687  16.804 -0.6262  0.0450  0.2656
  430TMC3    C2 6409   3.952   2.790  16.743  0.1513  0.4569  0.0137
  430TMC3    C3 6410   3.929   2.776  16.606  0.0200 -0.5478  0.1737
  430TMC3    C4 6411   4.046   2.572  16.747  0.1344  0.3328  0.3641
  430TMC3    C5 6412   4.024   2.562  16.610 -0.3262  0.3217  0.7232
  430TMC3    C6 6413   3.968   2.663  16.533  0.0011 -0.7939 -0.1295
  430TMC3     C 6414   3.971   2.668  16.939  0.2704 -0.2738  0.1058
  430TMC3     O 6415   4.004   2.751  17.026  0.1134  0.0518  1.0051
  430TMC3     H 6416   3.917   2.862  16.816  0.0048  1.2795 -0.8610
  430TMC3    H1 6417   4.096   2.493  16.802 -0.5272 -0.5580 -0.3080
  430TMC3    H2 6418   3.952   2.651  16.427 -2.0343 -0.5299  0.1405
  430TMC3    C7 6419   4.009   2.429  16.563  0.2173 -0.2493  0.3835
  430TMC3    C8 6420   3.828   2.847  16.537 -0.3485  0.2945  0.5744
  430TMC3    O1 6421   4.032   2.344  16.651  0.1796  0.2804  0.1877
  430TMC3    O2 6422   3.786   2.805  16.434  0.6740 -0.5206 -0.6223
  431MPD2     C 6423   4.044   2.169  12.658 -1.1564  0.4179 -0.1637
  431MPD2    C1 6424   4.084   2.181  12.523  1.1191  0.4501 -0.1115
  431MPD2    C2 6425   4.031   2.087  12.433 -0.2830  0.1866  0.0522
  431MPD2    C3 6426   3.960   1.973  12.472  0.1376  0.7380  0.2062
  431MPD2    C4 6427   3.940   1.950  12.605  0.1808 -0.7560 -0.3384
  431MPD2    C5 6428   3.969   2.056  12.691  0.9873  0.7521  0.7389
  431MPD2     H 6429   4.065   2.097  12.331 -0.5536 -4.1804 -0.4733
  431MPD2    H1 6430   3.899   1.855  12.638  0.2066 -0.9378 -0.8357
  431MPD2    H2 6431   4.068   2.240  12.736 -0.0592  0.6593 -0.7231
  431MPD2    H3 6432   3.953   2.038  12.797  3.1281  1.9500  1.2482
  431MPD2     N 6433   3.932   1.875  12.378  0.2873 -0.0738  0.7135
  431MPD2    H5 6434   3.929   1.782  12.419  0.6659 -0.5118 -0.2452
  431MPD2    N1 6435   4.167   2.284  12.469  0.3783 -0.3941  0.2920
  431MPD2    H7 6436   4.174   2.287  12.368  0.0761 -1.9067  0.2331
  432TMC3    C1 6437   4.095   1.816  12.203 -0.6085  0.4228 -0.4867
  432TMC3    C2 6438   4.116   1.821  12.064  0.6576 -0.3823 -0.4425
  432TMC3    C3 6439   4.234   1.759  12.027 -0.3167  0.0024 -0.4283
  432TMC3    C4 6440   4.181   1.765  12.296 -0.1988  0.3840  0.7686
  432TMC3    C5 6441   4.287   1.701  12.249  0.2844  0.4052 -0.2554
  432TMC3    C6 6442   4.319   1.695  12.116  0.0132 -0.7600  0.6785
  432TMC3     C 6443   3.968   1.885  12.240  0.1116  0.1434  0.2573
  432TMC3     O 6444   3.920   1.961  12.156 -0.2531 -0.6777  0.2530
  432TMC3     H 6445   4.045   1.856  11.990 -0.7032  1.6704  1.8437
  432TMC3    H1 6446   4.154   1.764  12.401 -0.0241  1.2449  0.8212
  432TMC3    H2 6447   4.407   1.639  12.088 -0.3355 -0.6939 -0.5728
  432TMC3    C7 6448   4.369   1.614  12.340  0.6034 -0.5780  0.0624
  432TMC3    C8 6449   4.263   1.745  11.886  0.1519  0.4723  0.1956
  432TMC3    O1 6450   4.450   1.538  12.286  0.4936 -0.2960  0.1926
  432TMC3    O2 6451   4.168   1.776  11.820 -0.7563  0.2318 -0.1751
  433MPD2     C 6452   3.394   0.821  10.528 -0.7123  0.3237 -0.5017
  433MPD2    C1 6453   3.403   0.704  10.611  0.2775  0.3631  0.0616
  433MPD2    C2 6454   3.436   0.729  10.747 -1.2896 -0.2091  0.3152
  433MPD2    C3 6455   3.461   0.856  10.802  0.8399  0.0198  0.3081
  433MPD2    C4 6456   3.426   0.968  10.723 -0.2225  0.1567 -0.5029
  433MPD2    C5 6457   3.399   0.947  10.588  0.0720 -0.0439  0.2168
  433MPD2     H 6458   3.451   0.645  10.814  1.0579 -0.4156 -0.4618
  433MPD2    H1 6459   3.429   1.069  10.762 -2.1682  0.1522 -0.3574
  433MPD2    H2 6460   3.385   0.824  10.420  1.1443 -0.0154 -0.6647
  433MPD2    H3 6461   3.378   1.033  10.525 -1.4253 -0.2608  0.4226
  433MPD2     N 6462   3.511   0.869  10.933  0.1239 -0.0808 -0.0966
  433MPD2    H5 6463   3.530   0.785  10.988 -0.7751 -0.6506 -0.6701
  433MPD2    N1 6464   3.396   0.576  10.549 -0.2896 -0.1434 -0.4633
  433MPD2    H7 6465   3.372   0.575  10.450 -1.9615  0.8497 -0.0568
  434TMC3    C1 6466   3.440   0.348  10.519  0.1869 -1.3271  0.4421
  434TMC3    C2 6467   3.522   0.246  10.574  0.6087 -0.3266 -0.4865
  434TMC3    C3 6468   3.612   0.186  10.492 -0.7428 -0.1211 -0.6725
  434TMC3    C4 6469   3.456   0.378  10.388 -0.3496  0.3198 -0.1349
  434TMC3    C5 6470   3.550   0.313  10.315  0.3829 -0.3551 -0.8167
  434TMC3    C6 6471   3.639   0.226  10.368  0.2964 -0.3188  0.4714
  434TMC3     C 6472   3.415   0.457  10.614  0.1459 -0.8083 -0.5050
  434TMC3     O 6473   3.433   0.431  10.735 -0.3686 -0.1281 -0.5572
  434TMC3     H 6474   3.535   0.230  10.680 -1.2452 -0.9025 -0.3504
  434TMC3    H1 6475   3.399   0.457  10.341  0.2384  1.4587  1.0538
  434TMC3    H2 6476   3.704   0.188  10.290  2.0722 -0.3737  1.9703
  434TMC3    C7 6477   3.530   0.301  10.169 -0.0614  0.2784 -0.3671
  434TMC3    C8 6478   3.719   0.123  10.574 -0.3480 -0.1102 -0.4099
  434TMC3    O1 6479   3.628   0.313  10.096  0.3166  0.3773 -0.3061
  434TMC3    O2 6480   3.683   0.031  10.652  0.0949  0.0109 -0.0543
  435MPD2     C 6481   4.593   0.743  15.539  0.5776 -0.4078  0.5454
  435MPD2    C1 6482   4.612   0.657  15.652  0.0247  0.7522  0.0285
  435MPD2    C2 6483   0.008   0.655  15.714 -0.4293  0.1453  0.4109
  435MPD2    C3 6484   0.113   0.733  15.656 -0.6365  1.0039  0.1340
  435MPD2    C4 6485   0.092   0.820  15.550  0.2589  0.3074 -0.2203
  435MPD2    C5 6486   4.695   0.814  15.487 -0.6204  0.1922 -0.0017
  435MPD2     H 6487   0.026   0.583  15.792  0.5904  0.0513  0.0945
  435MPD2    H1 6488   0.171   0.879  15.506  1.3716  2.5667  4.8006
  435MPD2    H2 6489   4.493   0.757  15.500  0.4064  0.7173  1.3833
  435MPD2    H3 6490   4.675   0.878  15.402 -0.5962  2.3066  1.5847
  435MPD2     N 6491   0.236   0.723  15.724  0.7851 -0.4442  0.6142
  435MPD2    H5 6492   0.233   0.659  15.802  0.3564 -0.5708  0.4965
  435MPD2    N1 6493   4.504   0.575  15.708  0.3345  0.0773 -0.3890
  435MPD2    H7 6494   4.517   0.501  15.776  0.6504  0.4688 -0.0248
  436TMC3    C1 6495   4.089   0.395  15.728  0.2656  0.2685 -0.7227
  436TMC3    C2 6496   4.164   0.505  15.723  0.0834 -0.5145  0.4238
  436TMC3    C3 6497   4.296   0.480  15.695  0.5882  0.3399  0.2308
  436TMC3    C4 6498   4.131   0.265  15.697  0.4117 -0.3485  0.3600
  436TMC3    C5 6499   4.261   0.254  15.655  0.8279  0.1964 -0.1514
  436TMC3    C6 6500   4.346   0.364  15.643  0.7729 -0.5254  0.2141
  436TMC3     C 6501   3.947   0.406  15.783 -0.4895 -0.1217  0.0168
  436TMC3     O 6502   3.883   0.300  15.785  0.2682 -1.0236  0.2346
  436TMC3     H 6503   4.125   0.606  15.731  0.6775 -0.3145  0.7741
  436TMC3    H1 6504   4.062   0.183  15.684 -1.4058  1.2707 -0.3199
  436TMC3    H2 6505   4.443   0.358  15.595  0.8506  3.9400 -0.2477
  436TMC3    C7 6506   4.308   0.144  15.564  0.4559  0.5927 -0.9599
  436TMC3    C8 6507   4.377   0.595  15.671 -0.9904  0.4953  0.0629
  436TMC3    O1 6508   4.396   0.182  15.484  0.0728 -0.4616 -0.1566
  436TMC3    O2 6509   4.316   0.688  15.622  1.0570  0.5269 -0.0313
  437TMC3    C1 6510   3.669   2.845  12.577  0.6456 -0.9259  0.1022
  437TMC3    C2 6511   3.541   2.894  12.553  0.4593  0.0382 -0.3329
  437TMC3    C3 6512   3.517   2.976  12.448 -0.7965  0.7395 -0.0782
  437TMC3    C4 6513   3.768   2.886  12.500  0.7633 -0.4186 -0.6686
  437TMC3    C5 6514   3.740   2.961  12.392  0.5241 -0.2043 -0.2088
  437TMC3    C6 6515   3.610   3.004  12.360 -0.7509 -0.1467 -0.1130
  437TMC3     C 6516   3.700   2.783  12.704 -0.0874  0.4534  0.9137
  437TMC3     O 6517   3.818   2.790  12.737  0.1994 -0.9931 -0.0126
  437TMC3     H 6518   3.469   2.892  12.635 -0.8303  2.3642 -1.3877
  437TMC3    H1 6519   3.866   2.841  12.511  1.4080  0.2952 -3.5662
  437TMC3    H2 6520   3.600   3.065  12.271  2.7395 -1.9010 -1.7214
  437TMC3    C7 6521   3.843   3.001  12.303  0.0675 -0.4094 -0.2807
  437TMC3    C8 6522   3.405   3.069  12.460 -0.1485  0.5356 -0.2832
  437TMC3    O1 6523   3.807   3.031  12.188 -0.9934  0.0035  0.1733
  437TMC3    O2 6524   3.339   3.070  12.562  0.1550  0.4376 -0.0492
  438MPD2     C 6525   1.010   3.508  16.576  0.4054 -0.9102 -0.5127
  438MPD2    C1 6526   1.137   3.465  16.602 -0.1758  0.0515 -0.2211
  438MPD2    C2 6527   1.156   3.351  16.678 -0.2263 -0.7421  0.2260
  438MPD2    C3 6528   1.049   3.270  16.720  0.1364  0.5858 -0.2679
  438MPD2    C4 6529   0.918   3.328  16.701  0.4847 -1.1408 -0.5715
  438MPD2    C5 6530   0.906   3.437  16.622  0.2534  0.3802 -0.3888
  438MPD2     H 6531   1.253   3.304  16.689  0.0509  0.0170  1.0530
  438MPD2    H1 6532   0.831   3.284  16.748 -0.7751  0.8440 -1.0178
  438MPD2    H2 6533   0.983   3.595  16.519  0.0534 -1.4177 -1.1166
  438MPD2    H3 6534   0.803   3.467  16.608 -0.6823 -2.0690  1.1120
  438MPD2     N 6535   1.062   3.154  16.796 -0.4138  0.4559 -0.0555
  438MPD2    H5 6536   0.979   3.108  16.833 -1.3672  1.8758 -0.4279
  438MPD2    N1 6537   1.245   3.531  16.538  0.0454 -0.6880  0.0704
  438MPD2    H7 6538   1.328   3.474  16.553  1.2893  0.9327 -0.6068
  439TMC3    C1 6539   1.386   3.681  16.425 -0.2943  0.5234  0.3364
  439TMC3    C2 6540   1.405   3.712  16.298  0.2752  0.1590  0.0315
  439TMC3    C3 6541   1.537   3.714  16.254  0.0522 -0.1706  0.3333
  439TMC3    C4 6542   1.483   3.660  16.516 -0.1203 -0.2913 -0.2060
  439TMC3    C5 6543   1.615   3.655  16.471 -0.1746 -0.0808  0.6875
  439TMC3    C6 6544   1.643   3.673  16.337 -0.1259 -0.3425  0.7235
  439TMC3     C 6545   1.254   3.632  16.446 -0.0679 -0.3892  0.0477
  439TMC3     O 6546   1.169   3.686  16.381  0.5757  0.7301 -0.4661
  439TMC3     H 6547   1.326   3.722  16.224 -1.0418  1.1709  1.5576
  439TMC3    H1 6548   1.452   3.644  16.619  1.8488  0.7998  0.5469
  439TMC3    H2 6549   1.742   3.654  16.297 -0.8210 -0.6899 -0.8533
  439TMC3    C7 6550   1.718   3.591  16.550 -0.1413  0.1382  0.2012
  439TMC3    C8 6551   1.559   3.656  16.114 -0.9479 -0.4706  0.0862
  439TMC3    O1 6552   1.808   3.536  16.487  0.1002  0.4033  0.1625
  439TMC3    O2 6553   1.652   3.577  16.107 -0.7402  0.6810  0.0508
  440MPD2     C 6554   0.356   4.438  13.918  0.1316 -0.1248 -0.1944
  440MPD2    C1 6555   0.276   4.361  14.004  0.1803 -0.5824  0.3354
  440MPD2    C2 6556   0.339   4.262  14.075 -0.0586 -0.9847 -0.4213
  440MPD2    C3 6557   0.478   4.250  14.077  0.3472  0.2644  0.0959
  440MPD2    C4 6558   0.558   4.343  14.006  0.1375 -1.0704  0.8869
  440MPD2    C5 6559   0.494   4.435  13.927 -0.5029 -0.2543  0.4585
  440MPD2     H 6560   0.273   4.205  14.140  0.4436 -0.8492  0.2021
  440MPD2    H1 6561   0.665   4.331  13.993  0.3168  0.1099  1.2307
  440MPD2    H2 6562   0.317   4.520  13.859 -0.8645 -0.4573  0.0104
  440MPD2    H3 6563   0.560   4.493  13.864 -2.9127  1.5019 -0.4308
  440MPD2     N 6564   0.542   4.146  14.152 -0.1306  0.1613  0.1266
  440MPD2    H5 6565   0.643   4.137  14.145 -0.2366 -0.2912 -0.7701
  440MPD2    N1 6566   0.137   4.380  14.034  0.0416  0.3217  0.0330
  440MPD2    H7 6567   0.080   4.311  14.083 -2.9237  1.6514 -1.5230
  441TMC3    C1 6568   0.562   3.972  14.308  0.2212  0.4307  0.1253
  441TMC3    C2 6569   0.695   4.011  14.334 -0.6959 -0.2845 -0.3817
  441TMC3    C3 6570   0.776   3.942  14.416  0.7891  0.2412  0.0848
  441TMC3    C4 6571   0.501   3.871  14.380  0.0178  0.1270  0.0348
  441TMC3    C5 6572   0.581   3.814  14.469  0.1174  0.4492 -0.1341
  441TMC3    C6 6573   0.717   3.841  14.490 -0.1027  0.2068 -0.4009
  441TMC3     C 6574   0.477   4.046  14.215  0.2561  0.0853  0.5885
  441TMC3     O 6575   0.355   4.022  14.224 -0.7518 -0.3639 -0.3484
  441TMC3     H 6576   0.734   4.104  14.295 -2.9737  0.8684  0.1013
  441TMC3    H1 6577   0.400   3.839  14.360 -0.1535  2.4233 -2.6826
  441TMC3    H2 6578   0.767   3.785  14.568  0.6022 -0.1391 -1.1079
  441TMC3    C7 6579   0.516   3.770  14.593  0.0096  0.1905 -0.2228
  441TMC3    C8 6580   0.832   4.037  14.508 -0.0132 -0.4082 -0.1951
  441TMC3    O1 6581   0.559   3.815  14.696 -0.2134 -0.2831 -0.6427
  441TMC3    O2 6582   0.917   4.117  14.473  0.0605 -0.5156 -0.3060
  442MPD2     C 6583   3.235   4.468  16.766 -0.1608 -0.1919  0.1245
  442MPD2    C1 6584   3.166   4.504  16.647 -0.1160 -0.1167  0.0123
  442MPD2    C2 6585   3.173   4.416  16.543  0.4986 -1.0899  0.1617
  442MPD2    C3 6586   3.247   4.296  16.562  0.1053 -0.7906  0.0868
  442MPD2    C4 6587   3.303   4.261  16.680  0.0692 -0.1554 -0.1004
  442MPD2    C5 6588   3.309   4.353  16.780 -0.0967 -0.1812  0.5123
  442MPD2     H 6589   3.139   4.450  16.446  0.6054 -3.2368 -0.6263
  442MPD2    H1 6590   3.344   4.161  16.687 -0.0074 -0.1024  1.1704
  442MPD2    H2 6591   3.227   4.536  16.850 -0.6590 -1.6967  1.3053
  442MPD2    H3 6592   3.356   4.329  16.875  0.7415 -2.9755 -0.6270
  442MPD2     N 6593   3.267   4.206  16.457 -0.0369  0.0045 -0.1381
  442MPD2    H5 6594   3.316   4.120  16.479 -0.5781 -0.1624  0.4214
  442MPD2    N1 6595   3.079   4.614  16.634  0.0930  0.4142 -0.0419
  442MPD2    H7 6596   3.033   4.627  16.545 -1.7853  0.2325  0.8983
  443TMC3    C1 6597   2.966   0.089  16.676 -0.1177 -0.5010  0.5620
  443TMC3    C2 6598   2.933   0.100  16.545  0.1584 -0.3871  0.3957
  443TMC3    C3 6599   2.816   0.166  16.518 -0.0380  0.5962  0.6731
  443TMC3    C4 6600   2.880   0.143  16.766 -0.4658  0.1601  0.6039
  443TMC3    C5 6601   2.757   0.198  16.743 -0.9310  0.2248  0.6667
  443TMC3    C6 6602   2.723   0.207  16.609  0.7246 -0.4148 -0.0846
  443TMC3     C 6603   3.060   4.716  16.727  0.4815  0.1857  0.2073
  443TMC3     O 6604   3.086   4.721  16.846  0.6866 -0.5270  0.6211
  443TMC3     H 6605   3.005   0.063  16.473  1.5428 -2.3076  2.7672
  443TMC3    H1 6606   2.915   0.148  16.869 -0.5823 -0.0204  0.6516
  443TMC3    H2 6607   2.635   0.257  16.571 -0.1033 -0.3770  1.8947
  443TMC3    C7 6608   2.655   0.121  16.816 -0.2611  0.3070  0.6775
  443TMC3    C8 6609   2.770   0.096  16.397  0.3389 -0.3990  0.1424
  443TMC3    O1 6610   2.693   0.081  16.926 -0.0632  0.3237 -0.4420
  443TMC3    O2 6611   2.816   4.711  16.377 -0.0168  0.5372  0.4335
  444MPD2     C 6612   3.667   3.679  16.675 -0.6376  0.6915 -0.0158
  444MPD2    C1 6613   3.561   3.619  16.604  0.5391 -0.1468 -0.2352
  444MPD2    C2 6614   3.594   3.529  16.507 -0.1341 -0.2529  0.2724
  444MPD2    C3 6615   3.723   3.475  16.493 -0.2748 -0.6742  1.1275
  444MPD2    C4 6616   3.828   3.521  16.576  0.1960 -0.6390 -0.0305
  444MPD2    C5 6617   3.794   3.622  16.667  0.4020  0.1015 -0.7239
  444MPD2     H 6618   3.510   3.482  16.457  1.5565 -1.9271 -0.9644
  444MPD2    H1 6619   3.921   3.466  16.571 -0.4677 -1.6697 -0.9218
  444MPD2    H2 6620   3.656   3.761  16.745 -1.2011 -0.2547  1.0024
  444MPD2    H3 6621   3.872   3.665  16.728  0.7762 -0.1775 -1.0073
  444MPD2     N 6622   3.743   3.372  16.397  0.0568  0.1237  0.6599
  444MPD2    H5 6623   3.659   3.353  16.343  0.8959  2.4034 -1.4410
  444MPD2    N1 6624   3.423   3.648  16.627  0.2427  0.2838 -0.0302
  444MPD2    H7 6625   3.347   3.608  16.573  1.0006 -2.4777  0.9375
  445TMC3    C1 6626   3.821   3.173  16.307  0.0265 -0.3094  0.7644
  445TMC3    C2 6627   3.697   3.153  16.240 -0.1920 -0.4817  0.5189
  445TMC3    C3 6628   3.686   3.051  16.150 -0.0526 -0.2488  0.3288
  445TMC3    C4 6629   3.932   3.101  16.276  0.0337  0.2727  0.0598
  445TMC3    C5 6630   3.919   2.992  16.190  0.8849 -0.1701 -0.1055
  445TMC3    C6 6631   3.798   2.973  16.132  0.1324 -0.1819 -0.5130
  445TMC3     C 6632   3.850   3.284  16.392 -0.2202  0.1351  0.1497
  445TMC3     O 6633   3.956   3.289  16.447 -0.6272 -0.6139 -0.7447
  445TMC3     H 6634   3.620   3.228  16.255 -0.0703 -0.2482 -0.0148
  445TMC3    H1 6635   4.028   3.128  16.318  0.5541  0.5105 -1.2907
  445TMC3    H2 6636   3.794   2.896  16.056  1.4512 -2.3979  1.6537
  445TMC3    C7 6637   4.025   2.908  16.145  0.0538  0.0554 -0.1247
  445TMC3    C8 6638   3.558   3.020  16.079 -0.0720  0.1802  0.1746
  445TMC3    O1 6639   4.000   2.810  16.081  0.3775 -0.2740  0.4024
  445TMC3    O2 6640   3.487   3.117  16.058 -0.1663 -0.0335 -0.3261
  446MPD2     C 6641   3.397   4.655  11.007  0.3345  0.2722  0.3864
  446MPD2    C1 6642   3.333   0.024  10.926 -0.0421  0.2993  0.1208
  446MPD2    C2 6643   3.407   0.130  10.892 -0.2311 -0.6805 -0.2795
  446MPD2    C3 6644   3.528   0.159  10.946 -0.4612  0.0740 -0.1226
  446MPD2    C4 6645   3.585   0.073  11.031 -0.0091 -0.6066  0.2812
  446MPD2    C5 6646   3.520   4.681  11.060 -0.5634 -0.1718 -0.6240
  446MPD2     H 6647   3.364   0.192  10.814 -0.7876 -1.1385 -0.3404
  446MPD2    H1 6648   3.674   0.090  11.090 -0.5741  1.6416  0.4934
  446MPD2    H2 6649   3.352   4.562  11.041 -1.1246 -0.0250 -2.3513
  446MPD2    H3 6650   3.558   4.606  11.129  2.9114 -0.2702 -2.6353
  446MPD2     N 6651   3.589   0.279  10.905 -0.3179 -0.3069  0.2421
  446MPD2    H5 6652   3.537   0.344  10.847  1.7705  0.9852 -0.1586
  446MPD2    N1 6653   3.204   0.011  10.874  0.0090  0.3511  0.5232
  446MPD2    H7 6654   3.177   0.063  10.791 -0.4474 -1.6159 -0.5568
  447TMC3    C1 6655   3.753   0.447  10.899  0.3070 -0.9185  0.1305
  447TMC3    C2 6656   3.743   0.471  10.761  0.4751  0.1677  0.0051
  447TMC3    C3 6657   3.831   0.554  10.709  0.1906  0.0928 -0.2813
  447TMC3    C4 6658   3.849   0.513  10.972 -0.1219  0.0237  0.1782
  447TMC3    C5 6659   3.934   0.602  10.918  0.6329 -0.7031 -0.2659
  447TMC3    C6 6660   3.921   0.628  10.786  0.0736 -0.3863  0.0936
  447TMC3     C 6661   3.716   0.319  10.948 -1.0000  0.2332  0.5023
  447TMC3     O 6662   3.799   0.255  11.015  0.0126 -0.0179  0.0980
  447TMC3     H 6663   3.674   0.409  10.705  0.1335  1.1703 -0.6826
  447TMC3    H1 6664   3.864   0.455  11.062  0.7424  1.2584  0.8184
  447TMC3    H2 6665   3.989   0.701  10.745 -0.0743  0.5812  1.5669
  447TMC3    C7 6666   4.067   0.608  10.978  0.2448 -0.4669  0.9379
  447TMC3    C8 6667   3.818   0.580  10.566  0.0215 -0.0073 -0.8013
  447TMC3    O1 6668   4.155   0.589  10.896  0.3157  0.3372 -0.0134
  447TMC3    O2 6669   3.704   0.584  10.523 -0.1537 -0.0008 -0.0938
  448TMC3    C1 6670   1.911   0.390  17.104 -0.3619  0.3085 -0.4729
  448TMC3    C2 6671   1.833   0.298  17.037  0.3971 -0.2047 -0.5081
  448TMC3    C3 6672   1.809   0.180  17.102  0.0549 -0.2650  0.1636
  448TMC3    C4 6673   1.958   0.365  17.228  0.1851 -0.2806  0.6331
  448TMC3    C5 6674   1.932   0.244  17.290 -0.3332 -0.6080 -0.2496
  448TMC3    C6 6675   1.857   0.149  17.227  0.1010 -0.4226  0.3169
  448TMC3     C 6676   1.942   0.518  17.046  1.1439  0.7666  0.2743
  448TMC3     O 6677   2.031   0.583  17.094  0.2545  0.8617 -0.6720
  448TMC3     H 6678   1.801   0.309  16.935 -0.6934  0.1738 -0.1229
  448TMC3    H1 6679   2.011   0.440  17.285  2.2575 -2.0369  1.0230
  448TMC3    H2 6680   1.815   0.058  17.271 -2.2957  0.8164  0.5961
  448TMC3    C7 6681   2.046   0.200  17.370  0.3875  0.1578 -0.4309
  448TMC3    C8 6682   1.744   0.062  17.039 -0.3500 -0.2112  0.4369
  448TMC3    O1 6683   2.136   0.282  17.384 -0.3113  0.7639 -0.0260
  448TMC3    O2 6684   1.775   4.678  17.085  0.1481 -0.1265  0.1211
  449MPD2     C 6685   2.385   3.334  13.385  0.6080 -0.4217  0.3455
  449MPD2    C1 6686   2.362   3.204  13.355 -0.3010  0.6606 -0.0494
  449MPD2    C2 6687   2.344   3.115  13.458 -0.1440 -0.0484  0.3928
  449MPD2    C3 6688   2.326   3.160  13.584 -0.2414 -0.4464 -0.3583
  449MPD2    C4 6689   2.327   3.291  13.619 -0.0651 -0.2345 -0.2340
  449MPD2    C5 6690   2.367   3.377  13.519 -0.5983  0.4809  0.0035
  449MPD2     H 6691   2.325   3.013  13.428  0.2870 -0.6626  2.2400
  449MPD2    H1 6692   2.319   3.324  13.722  0.6438  2.4958 -1.0458
  449MPD2    H2 6693   2.404   3.407  13.306  0.5730 -0.9743 -0.1730
  449MPD2    H3 6694   2.385   3.482  13.539  0.4395 -0.0233  1.6898
  449MPD2     N 6695   2.313   3.063  13.684  0.0168  0.0384  0.2074
  449MPD2    H5 6696   2.313   2.970  13.644  0.0389  0.0842  0.1011
  449MPD2    N1 6697   2.358   3.151  13.229  0.5159  0.0488 -0.0711
  449MPD2    H7 6698   2.317   3.060  13.215 -1.5046  1.2456 -1.9770
  450TMC3    C1 6699   2.367   3.116  13.006  0.1165  0.1089 -0.5224
  450TMC3    C2 6700   2.484   3.060  12.959  0.1033 -0.8709  0.2614
  450TMC3    C3 6701   2.480   2.922  12.934 -0.2333 -0.1885  0.1065
  450TMC3    C4 6702   2.251   3.047  13.025  0.0520  0.2853  0.7099
  450TMC3    C5 6703   2.255   2.910  12.997  0.1634 -0.7431  0.0535
  450TMC3    C6 6704   2.365   2.852  12.937  0.0901 -0.3224 -0.1504
  450TMC3     C 6705   2.395   3.208  13.114  0.7242  0.5894 -0.5514
  450TMC3     O 6706   2.483   3.297  13.109  0.0220  0.1571 -0.3133
  450TMC3     H 6707   2.576   3.117  12.953  0.6560 -1.7993 -0.0907
  450TMC3    H1 6708   2.163   3.090  13.072 -0.4825  0.7426 -0.7184
  450TMC3    H2 6709   2.361   2.746  12.918  0.2003 -0.4336  0.4448
  450TMC3    C7 6710   2.216   2.840  13.116  1.1582  0.2336  0.7706
  450TMC3    C8 6711   2.588   2.864  12.848 -0.6864 -0.2620 -0.2686
  450TMC3    O1 6712   2.183   2.908  13.209  0.4224 -0.0524 -0.5347
  450TMC3    O2 6713   2.556   2.794  12.753 -0.0029 -0.5057  0.1673
  451MPD2     C 6714   4.043   2.070   0.753 -0.2979  0.1548 -0.2813
  451MPD2    C1 6715   4.003   2.023   0.874 -0.1393 -0.3777  0.3365
  451MPD2    C2 6716   3.960   1.890   0.882 -0.1711 -0.7928 -0.4781
  451MPD2    C3 6717   3.966   1.804   0.771 -0.5791  0.2464  0.3507
  451MPD2    C4 6718   4.001   1.858   0.648  0.7109  0.1647 -0.8007
  451MPD2    C5 6719   4.035   1.993   0.640 -0.1999 -0.0550 -0.9326
  451MPD2     H 6720   3.907   1.864   0.973  0.1007 -1.1292 -0.4198
  451MPD2    H1 6721   3.996   1.792   0.562 -0.1358  0.4371 -0.9600
  451MPD2    H2 6722   4.071   2.174   0.742 -1.1148  0.4886  0.8725
  451MPD2    H3 6723   4.084   2.039   0.554 -1.4569  0.8253 -1.1721
  451MPD2     N 6724   3.918   1.667   0.771  0.1690 -0.4468  0.0678
  451MPD2    H5 6725   3.963   1.610   0.700 -0.4201 -0.4290 -0.3265
  451MPD2    N1 6726   4.013   2.109   0.990 -0.1887 -0.1212  0.4135
  451MPD2    H7 6727   4.061   2.198   0.985  1.0907 -0.9792 -2.4548
  452TMC3    C1 6728   3.825   1.469   0.842 -0.3141 -0.2178  0.0937
  452TMC3    C2 6729   3.794   1.381   0.941  0.3109  0.0605 -0.0018
  452TMC3    C3 6730   3.778   1.251   0.904  0.1694 -0.6568 -0.3251
  452TMC3    C4 6731   3.822   1.433   0.713 -0.4930  0.3243 -0.0017
  452TMC3    C5 6732   3.803   1.305   0.685 -0.1183 -0.6499  0.2554
  452TMC3    C6 6733   3.781   1.210   0.775 -0.4400  0.7083  0.5204
  452TMC3     C 6734   3.840   1.610   0.867 -0.2170 -0.7209 -0.1000
  452TMC3     O 6735   3.803   1.654   0.974 -0.0939 -0.0210 -0.2496
  452TMC3     H 6736   3.795   1.414   1.044 -0.8977 -1.0332  0.3634
  452TMC3    H1 6737   3.842   1.494   0.626 -2.0060 -0.2187 -0.7302
  452TMC3    H2 6738   3.768   1.105   0.751  0.8406  0.4778  0.8472
  452TMC3    C7 6739   3.829   1.272   0.547  0.0418  0.2746  0.7210
  452TMC3    C8 6740   3.717   1.162   0.998 -0.6842 -0.9410  0.2844
  452TMC3    O1 6741   3.901   1.339   0.475  0.2013  0.6682  0.3883
  452TMC3    O2 6742   3.754   1.186   1.114  0.4571 -0.0014  0.3342
  453TMC3    C1 6743   1.178   4.518  11.530  0.5661  0.3396  0.3582
  453TMC3    C2 6744   1.075   4.456  11.588  0.4640  1.1675  0.2565
  453TMC3    C3 6745   1.013   4.356  11.519  0.4188 -0.2884 -0.7892
  453TMC3    C4 6746   1.233   4.475  11.411 -0.2014 -0.7059 -0.2374
  453TMC3    C5 6747   1.177   4.363  11.347  0.7814 -0.2216  0.8965
  453TMC3    C6 6748   1.059   4.307  11.403 -0.4859 -0.1322 -0.0298
  453TMC3     C 6749   1.276   4.556  11.630  0.2747  0.8556  0.0785
  453TMC3     O 6750   1.283   4.493  11.732  0.1228  0.1943 -0.0438
  453TMC3     H 6751   1.039   4.488  11.685  1.4769  1.2456  0.6083
  453TMC3    H1 6752   1.320   4.526  11.372  0.8553 -1.2144  1.4163
  453TMC3    H2 6753   1.008   4.231  11.345  2.7562 -0.8155 -2.0449
  453TMC3    C7 6754   1.251   4.282  11.255 -0.1604  0.2615 -0.4527
  453TMC3    C8 6755   0.906   4.286  11.591  0.4834 -0.5331 -0.6080
  453TMC3    O1 6756   1.226   4.160  11.252  0.2802 -0.6190 -0.2135
  453TMC3    O2 6757   0.853   4.352  11.679 -0.3461 -0.3339 -0.8720
  454MPD2     C 6758   4.368   3.297  16.033 -0.2079 -0.1647 -0.1878
  454MPD2    C1 6759   4.297   3.426  16.030 -0.2468  0.6408  0.1881
  454MPD2    C2 6760   4.285   3.499  16.145  0.5892  0.3282 -0.2655
  454MPD2    C3 6761   4.292   3.431  16.264  0.3262  0.0291  0.6210
  454MPD2    C4 6762   4.348   3.304  16.270 -0.3689  0.0486 -0.3336
  454MPD2    C5 6763   4.399   3.244  16.152 -0.2416 -0.2689  0.0179
  454MPD2     H 6764   4.256   3.603  16.133 -0.2580  0.2724  1.3385
  454MPD2    H1 6765   4.359   3.245  16.361  2.0087  0.0781 -0.6083
  454MPD2    H2 6766   4.391   3.232  15.949  1.1698  0.8097 -0.5633
  454MPD2    H3 6767   4.444   3.145  16.147 -0.7144 -0.6019  2.1829
  454MPD2     N 6768   4.253   3.485  16.386 -0.4299  0.4721 -0.4560
  454MPD2    H5 6769   4.276   3.431  16.468  1.7040  0.3225 -1.1720
  454MPD2    N1 6770   4.263   3.487  15.906 -0.7759 -0.3413  0.6448
  454MPD2    H7 6771   4.224   3.580  15.901  0.2229 -0.0596 -2.4479
  455TMC3    C1 6772   4.076   3.643  16.313  0.0898 -0.6858  0.0574
  455TMC3    C2 6773   4.033   3.766  16.341  0.2198  0.0782 -0.0153
  455TMC3    C3 6774   3.915   3.804  16.283 -0.7166 -0.0784  0.2313
  455TMC3    C4 6775   4.005   3.554  16.237  0.0382 -0.1205 -0.5699
  455TMC3    C5 6776   3.890   3.594  16.183  0.1997  0.0851  0.3630
  455TMC3    C6 6777   3.836   3.720  16.214  0.0576  0.6636  0.9058
  455TMC3     C 6778   4.162   3.587  16.414 -0.0914  0.1322  0.2040
  455TMC3     O 6779   4.127   3.616  16.529  0.3301 -0.7109 -0.1101
  455TMC3     H 6780   4.094   3.838  16.394 -3.3408  1.3482  2.4139
  455TMC3    H1 6781   4.041   3.452  16.226  0.0114 -0.4070  1.8563
  455TMC3    H2 6782   3.738   3.746  16.176  0.1228  0.8389  0.8604
  455TMC3    C7 6783   3.836   3.510  16.080  0.3143  0.3929  0.5322
  455TMC3    C8 6784   3.833   3.889  16.365 -0.1382  0.3936  1.0059
  455TMC3    O1 6785   3.716   3.524  16.052 -0.2080  0.1607  0.4584
  455TMC3    O2 6786   3.716   3.918  16.330 -0.2187 -0.6741  0.2541
  456MPD2     C 6787   1.843   3.908  16.035 -0.3505 -0.2222 -0.2202
  456MPD2    C1 6788   1.945   3.878  16.117 -0.2783 -0.0596 -0.6422
  456MPD2    C2 6789   1.929   3.897  16.251 -0.4930 -0.6414 -0.4521
  456MPD2    C3 6790   1.814   3.947  16.305  0.5867 -0.5382 -0.1469
  456MPD2    C4 6791   1.713   3.989  16.220 -0.1788  0.9004 -0.2499
  456MPD2    C5 6792   1.724   3.969  16.088  0.8996  0.0159 -0.2491
  456MPD2     H 6793   2.003   3.878  16.328  1.3975  2.0181 -1.6376
  456MPD2    H1 6794   1.625   4.040  16.257 -0.7756 -1.5728  1.8230
  456MPD2    H2 6795   1.858   3.892  15.928 -0.9739  1.9903 -0.6457
  456MPD2    H3 6796   1.642   3.978  16.018  3.0604  0.3109 -2.7195
  456MPD2     N 6797   1.801   3.953  16.448  0.6893 -0.0493  0.2696
  456MPD2    H5 6798   1.890   3.937  16.494  0.8454 -1.0705 -0.3649
  456MPD2    N1 6799   2.055   3.818  16.060 -0.1686 -0.4695 -0.1477
  456MPD2    H7 6800   2.054   3.797  15.960  2.0462 -0.2242 -0.2418
  457TMC3    C1 6801   1.723   4.026  16.658 -0.1720  0.3029  0.1173
  457TMC3    C2 6802   1.650   4.124  16.715  0.5871 -0.3481 -0.5865
  457TMC3    C3 6803   1.673   4.161  16.842 -0.5095  0.5228 -0.6737
  457TMC3    C4 6804   1.825   3.967  16.721  0.7470 -0.5488  0.3785
  457TMC3    C5 6805   1.842   3.999  16.856  0.1358  0.5304 -0.2136
  457TMC3    C6 6806   1.773   4.100  16.921 -1.0324 -0.1395 -0.1029
  457TMC3     C 6807   1.692   4.001  16.520  0.6201 -0.1055 -0.0414
  457TMC3     O 6808   1.581   4.031  16.482 -0.1257  0.6616  0.4794
  457TMC3     H 6809   1.580   4.173  16.648  0.6470  1.1289  0.4321
  457TMC3    H1 6810   1.873   3.876  16.686  0.4218 -0.8137  0.6153
  457TMC3    H2 6811   1.775   4.119  17.028 -0.0237 -0.8165 -0.0037
  457TMC3    C7 6812   1.980   3.974  16.905 -0.0353  0.1744  0.2682
  457TMC3    C8 6813   1.656   4.301  16.872 -0.1407  0.9739 -0.0307
  457TMC3    O1 6814   2.033   3.880  16.851 -0.1066  0.0570 -0.0230
  457TMC3    O2 6815   1.728   4.347  16.954 -0.2067  0.0599 -0.0363
  458MPD2     C 6816   4.333   3.126  12.205 -0.1029  0.0178 -0.0760
  458MPD2    C1 6817   4.328   3.051  12.319 -0.0596  0.7867  0.3086
  458MPD2    C2 6818   4.209   3.016  12.370  0.2944 -0.1555 -0.0391
  458MPD2    C3 6819   4.090   3.033  12.296 -0.4050 -0.1195  0.8674
  458MPD2    C4 6820   4.095   3.102  12.178 -0.1571 -0.1310  0.1953
  458MPD2    C5 6821   4.219   3.136  12.130  0.0065  0.8007  0.0459
  458MPD2     H 6822   4.205   2.968  12.467 -0.1635 -1.8366 -0.8934
  458MPD2    H1 6823   4.008   3.128  12.118  0.2630  0.3404 -0.2039
  458MPD2    H2 6824   4.427   3.167  12.171 -0.9622  1.7724 -0.3277
  458MPD2    H3 6825   4.220   3.189  12.036 -0.4323  1.2778  0.3104
  458MPD2     N 6826   3.965   3.005  12.361 -0.0005  0.3786 -0.2309
  458MPD2    H5 6827   3.972   2.991  12.461  0.4749  0.4289 -0.2567
  458MPD2    N1 6828   4.449   3.024  12.381 -0.3759  0.8351 -0.6183
  458MPD2    H7 6829   4.530   3.079  12.353 -0.1011  0.5686 -0.3640
  459TMC3    C1 6830   4.585   2.962  12.567 -0.4147  0.1390  0.3034
  459TMC3    C2 6831   4.672   3.060  12.534 -0.1334  0.7928  0.2430
  459TMC3    C3 6832   0.046   3.092  12.626  0.1111 -0.5608 -0.5836
  459TMC3    C4 6833   4.584   2.903  12.693  0.0818 -0.3316  0.5906
  459TMC3    C5 6834   4.672   2.950  12.788 -0.0131  0.1314 -0.5630
  459TMC3    C6 6835   0.053   3.041  12.755  0.6826  0.0627 -0.3037
  459TMC3     C 6836   4.467   2.942  12.490 -0.3274 -0.5409 -0.4034
  459TMC3     O 6837   4.389   2.865  12.545  0.1657 -0.7946  0.1132
  459TMC3     H 6838   4.670   3.098  12.432  1.3894 -2.1662 -0.8905
  459TMC3    H1 6839   4.516   2.824  12.724 -1.2352  0.2056 -0.9528
  459TMC3    H2 6840   0.123   3.089  12.824 -0.6126 -0.2216  1.2145
  459TMC3    C7 6841   4.668   2.887  12.920 -0.1935 -0.2612 -0.0316
  459TMC3    C8 6842   0.151   3.184  12.592 -0.3820  0.0645 -0.4818
  459TMC3    O1 6843   4.644   2.769  12.932 -0.4828 -0.5107  0.1646
  459TMC3    O2 6844   0.263   3.181  12.640 -0.1513 -0.1809  0.8940
  460MPD2     C 6845   4.087   0.646  10.321 -0.0901 -0.0779 -0.0194
  460MPD2    C1 6846   3.957   0.627  10.366  0.3247  0.6463 -0.6820
  460MPD2    C2 6847   3.855   0.640  10.269 -0.1372  0.3071 -0.3022
  460MPD2    C3 6848   3.879   0.699  10.148  0.2684  0.0543  0.3990
  460MPD2    C4 6849   4.006   0.718  10.108 -0.1986  0.1936 -0.1998
  460MPD2    C5 6850   4.107   0.692  10.198 -0.4765  0.3952  0.6493
  460MPD2     H 6851   3.753   0.619  10.298 -0.1293  0.7563  0.0546
  460MPD2    H1 6852   4.044   0.748  10.011 -1.5460  1.0619 -0.4609
  460MPD2    H2 6853   4.167   0.614  10.387  0.4003  0.1274 -0.5117
  460MPD2    H3 6854   4.210   0.697  10.162 -0.6823  0.1400  0.0235
  460MPD2     N 6855   3.764   0.719  10.069  0.5105 -0.0036  0.5572
  460MPD2    H5 6856   3.674   0.688  10.104 -0.6931  0.9336 -1.7198
  460MPD2    N1 6857   3.936   0.586  10.502 -0.7516 -0.6047  0.3113
  460MPD2    H7 6858   4.018   0.582  10.561 -0.7749  1.5685  0.5078
  461TMC3    C1 6859   3.627   0.799   9.903 -0.6096 -0.4175 -0.8550
  461TMC3    C2 6860   3.557   0.678   9.893  0.0724 -0.8577 -0.7210
  461TMC3    C3 6861   3.449   0.672   9.808  0.1310  0.3283 -0.5382
  461TMC3    C4 6862   3.586   0.904   9.833  0.4363 -0.0341 -0.3269
  461TMC3    C5 6863   3.472   0.895   9.756 -0.7341  0.2316  0.0935
  461TMC3    C6 6864   3.407   0.778   9.737 -0.1294  0.3725 -0.3965
  461TMC3     C 6865   3.761   0.795   9.956  0.4505  0.8503  0.0253
  461TMC3     O 6866   3.854   0.826   9.879  0.2256  0.5478 -0.1664
  461TMC3     H 6867   3.607   0.586   9.923  0.2809 -0.0325  1.4574
  461TMC3    H1 6868   3.651   0.988   9.813  0.8363 -0.4671 -0.8230
  461TMC3    H2 6869   3.318   0.784   9.675 -1.4350  0.0318  1.4329
  461TMC3    C7 6870   3.417   1.015   9.693 -0.0995 -0.0444 -0.3371
  461TMC3    C8 6871   3.391   0.543   9.790  0.5019 -0.4974 -0.4526
  461TMC3    O1 6872   3.298   1.015   9.669  0.2808 -0.0750 -0.2100
  461TMC3    O2 6873   3.416   0.449   9.868  0.0886 -0.6316 -0.3917
  462TMC3    C1 6874   3.321   0.885  17.190  0.1320  1.0807 -0.1140
  462TMC3    C2 6875   3.321   0.800  17.075  0.5485  0.4712 -1.2722
  462TMC3    C3 6876   3.411   0.700  17.078  0.4621 -0.7925 -0.6480
  462TMC3    C4 6877   3.385   0.855  17.306  0.8411  0.5037 -0.1703
  462TMC3    C5 6878   3.455   0.735  17.307  0.5244  0.4087 -0.1400
  462TMC3    C6 6879   3.478   0.663  17.189 -0.5329  0.9498 -0.5252
  462TMC3     C 6880   3.254   1.011  17.183 -0.3318  0.0319 -0.6746
  462TMC3     O 6881   3.263   1.092  17.272 -0.4156 -0.5685 -0.0144
  462TMC3     H 6882   3.292   0.836  16.977  2.2850  1.4165 -1.4446
  462TMC3    H1 6883   3.377   0.914  17.396  0.2310  1.4680 -0.8579
  462TMC3    H2 6884   3.513   0.560  17.189 -2.5896  0.2299  2.1778
  462TMC3    C7 6885   3.478   0.672  17.435 -0.2645 -0.2149 -0.0171
  462TMC3    C8 6886   3.462   0.649  16.950  0.4423 -0.1764  0.1949
  462TMC3    O1 6887   3.433   0.737  17.528 -0.4167  0.1048  0.1215
  462TMC3    O2 6888   3.385   0.623  16.860  0.0262 -0.1682 -0.1880
  463MPD2     C 6889   3.970   0.120   1.902  0.1691  0.1753  0.1506
  463MPD2    C1 6890   3.903   0.110   1.786  0.3657 -0.2905  0.0791
  463MPD2    C2 6891   3.888   0.222   1.702  0.2366  0.2485 -0.4005
  463MPD2    C3 6892   3.941   0.346   1.735 -0.1329 -0.0122 -0.0804
  463MPD2    C4 6893   4.006   0.353   1.858  1.0283 -0.0027 -0.1974
  463MPD2    C5 6894   4.027   0.241   1.936  0.3990 -0.1184  0.2476
  463MPD2     H 6895   3.828   0.201   1.614  1.4064 -2.9864 -0.4306
  463MPD2    H1 6896   4.044   0.446   1.899 -2.9852  1.5068  0.0915
  463MPD2    H2 6897   3.988   0.033   1.964 -0.5187  0.1035  0.2462
  463MPD2    H3 6898   4.091   0.257   2.022 -1.2249  1.1064  1.2200
  463MPD2     N 6899   3.925   0.463   1.665  0.3607  0.1991 -0.0228
  463MPD2    H5 6900   3.959   0.550   1.704  0.2427 -1.4574  3.7609
  463MPD2    N1 6901   3.842   4.711   1.742 -0.5361  0.3177  0.1674
  463MPD2    H7 6902   3.791   4.719   1.654 -1.9266  1.2550  1.0750
  464TMC3    C1 6903   3.793   4.488   1.723  0.6151  0.4790 -0.0638
  464TMC3    C2 6904   3.695   4.516   1.636  0.0893  0.3802  0.7834
  464TMC3    C3 6905   3.654   4.412   1.557 -0.1280  0.6728  0.5684
  464TMC3    C4 6906   3.825   4.361   1.754 -0.1348  0.5715  0.0437
  464TMC3    C5 6907   3.766   4.265   1.673 -0.3271  0.0386  0.2818
  464TMC3    C6 6908   3.698   4.279   1.565  1.2063 -0.2994  0.2688
  464TMC3     C 6909   3.850   4.584   1.806 -0.7083  0.4825  0.1159
  464TMC3     O 6910   3.899   4.557   1.914 -0.4432  0.0682  0.0785
  464TMC3     H 6911   3.661   4.615   1.608 -1.9625 -0.5638  0.0044
  464TMC3    H1 6912   3.892   4.330   1.833  1.4228 -0.9606 -1.8935
  464TMC3    H2 6913   3.663   4.203   1.497 -0.1929 -0.4154  1.1058
  464TMC3    C7 6914   3.756   4.135   1.734  0.3878 -0.1548 -0.0604
  464TMC3    C8 6915   3.533   4.433   1.476 -0.8088 -0.3312 -0.5055
  464TMC3    O1 6916   3.747   4.146   1.856  0.2301  0.1078 -0.0169
  464TMC3    O2 6917   3.513   4.362   1.382  0.2959  0.0244  0.0555
  465MPD2     C 6918   1.078   3.661  16.075 -0.7503  0.4251  0.0816
  465MPD2    C1 6919   0.952   3.617  16.060 -0.0065 -0.0649  0.9061
  465MPD2    C2 6920   0.854   3.691  15.992  0.2703 -0.7897 -1.0992
  465MPD2    C3 6921   0.889   3.806  15.930  0.6928 -0.4574 -0.7793
  465MPD2    C4 6922   1.018   3.849  15.937  0.6987 -0.7703  0.3846
  465MPD2    C5 6923   1.109   3.776  16.008  0.3302 -0.8653  0.7655
  465MPD2     H 6924   0.751   3.659  15.994 -0.5265  1.7688 -1.6550
  465MPD2    H1 6925   1.061   3.944  15.908  1.8612 -0.5556  2.7737
  465MPD2    H2 6926   1.146   3.605  16.138 -2.9278 -2.6317 -0.2512
  465MPD2    H3 6927   1.205   3.819  16.037 -0.3211  0.2536  1.2433
  465MPD2     N 6928   0.780   3.876  15.868 -0.3514 -0.1198  0.4011
  465MPD2    H5 6929   0.686   3.839  15.884 -0.4786  1.6846  3.9094
  465MPD2    N1 6930   0.905   3.502  16.137  0.0503 -0.1929 -0.3768
  465MPD2    H7 6931   0.805   3.484  16.132 -0.3561  1.6291  1.0788
  466TMC3    C1 6932   0.460   4.041  15.815  0.0772 -0.2935  0.3064
  466TMC3    C2 6933   0.467   4.172  15.868 -0.3695 -0.2934  0.2299
  466TMC3    C3 6934   0.574   4.244  15.865  0.6764  0.4916 -0.3476
  466TMC3    C4 6935   0.571   3.984  15.767 -0.0177  0.2777  0.4384
  466TMC3    C5 6936   0.683   4.067  15.772 -0.0441 -0.4248  0.4265
  466TMC3    C6 6937   0.690   4.205  15.801  0.0009 -0.2261  0.3435
  466TMC3     C 6938   0.383   3.945  15.886  1.1535 -0.1417 -0.3773
  466TMC3     O 6939   0.444   3.844  15.908  0.6619 -0.4485 -0.5374
  466TMC3     H 6940   0.386   4.217  15.924 -0.5988  0.0334 -0.3655
  466TMC3    H1 6941   0.568   3.882  15.732 -0.6138  0.0785  1.0634
  466TMC3    H2 6942   0.784   4.257  15.817  0.7802 -0.5732 -3.0987
  466TMC3    C7 6943   0.801   3.991  15.803  0.0229  0.3740  0.2202
  466TMC3    C8 6944   0.557   4.381  15.905  0.6211  0.3648 -0.2148
  466TMC3    O1 6945   0.908   4.059  15.799 -0.1629 -0.3736  0.0313
  466TMC3    O2 6946   0.606   4.465  15.833  0.5658 -0.3722  0.1749
  467TMC3    C1 6947   1.535   1.735  13.582  0.4789 -0.0237  0.2610
  467TMC3    C2 6948   1.544   1.776  13.452 -0.6002  0.3197  0.0034
  467TMC3    C3 6949   1.463   1.877  13.404  0.0549 -0.0117 -0.3561
  467TMC3    C4 6950   1.429   1.779  13.656 -0.5062  0.6239 -0.0355
  467TMC3    C5 6951   1.342   1.864  13.603  0.2363 -0.3961  0.3457
  467TMC3    C6 6952   1.354   1.918  13.481 -0.0599 -1.0439 -0.3715
  467TMC3     C 6953   1.663   1.748  13.644  0.6400  0.6161 -0.4041
  467TMC3     O 6954   1.740   1.829  13.592  0.4722 -0.2366 -0.2207
  467TMC3     H 6955   1.638   1.755  13.402  0.2689 -0.2530  1.8658
  467TMC3    H1 6956   1.425   1.753  13.762 -1.5649  1.2953  0.0930
  467TMC3    H2 6957   1.296   2.007  13.458 -0.2811 -1.3090 -0.8350
  467TMC3    C7 6958   1.214   1.882  13.680 -0.2497  0.3168 -0.1147
  467TMC3    C8 6959   1.508   1.961  13.296  0.5628  0.2339 -0.4652
  467TMC3    O1 6960   1.208   1.858  13.801 -0.5610 -1.1174  0.3128
  467TMC3    O2 6961   1.441   2.056  13.273 -0.3440 -0.0765  0.5096
  468MPD2     C 6962   1.100   0.323  10.675  0.2220 -0.4040  0.2243
  468MPD2    C1 6963   1.226   0.278  10.637 -0.2065 -0.5478 -0.1923
  468MPD2    C2 6964   1.263   0.142  10.656 -0.5792 -0.4787  0.9508
  468MPD2    C3 6965   1.169   0.060  10.711 -0.1400  0.7453 -0.0055
  468MPD2    C4 6966   1.052   0.104  10.759 -0.3150 -0.0313  0.1760
  468MPD2    C5 6967   1.014   0.235  10.733  0.5057 -0.3908 -0.0761
  468MPD2     H 6968   1.363   0.109  10.631 -1.2402 -0.2730 -2.0662
  468MPD2    H1 6969   1.002   0.040  10.830  1.0324  0.7340  1.8143
  468MPD2    H2 6970   1.062   0.424  10.664  1.9752 -0.0057 -2.2064
  468MPD2    H3 6971   0.921   0.267  10.777  0.2103 -3.0381  1.2201
  468MPD2     N 6972   1.190   4.645  10.742 -0.0655  0.2509  0.1925
  468MPD2    H5 6973   1.110   4.592  10.774 -0.6686  0.6583 -0.6403
  468MPD2    N1 6974   1.323   0.361  10.583  0.0397  0.8210 -0.4984
  468MPD2    H7 6975   1.407   0.310  10.556  0.4041  2.8968 -3.2798
  469TMC3    C1 6976   1.434   0.542  10.489 -0.3068 -0.2294 -0.6110
  469TMC3    C2 6977   1.531   0.530  10.582 -0.1145  0.3052 -0.7108
  469TMC3    C3 6978   1.654   0.599  10.561 -0.0141 -0.4845  0.3520
  469TMC3    C4 6979   1.451   0.635  10.388  0.4608  0.7278 -0.4619
  469TMC3    C5 6980   1.571   0.695  10.379  0.2682 -0.6735 -0.1960
  469TMC3    C6 6981   1.669   0.688  10.468 -0.0060  0.0814 -0.3450
  469TMC3     C 6982   1.304   0.488  10.529 -0.9671  0.1116 -0.4018
  469TMC3     O 6983   1.203   0.552  10.504 -0.5379  0.8544  0.1038
  469TMC3     H 6984   1.527   0.478  10.677 -1.0061  0.7252 -0.5201
  469TMC3    H1 6985   1.373   0.640  10.313  1.0064 -0.6883 -1.1337
  469TMC3    H2 6986   1.756   0.753  10.468 -0.5019  0.7425 -0.7752
  469TMC3    C7 6987   1.591   0.795  10.271 -0.9803  0.4232 -0.3984
  469TMC3    C8 6988   1.719   0.642  10.688 -0.1923  0.7964  0.4355
  469TMC3    O1 6989   1.701   0.791  10.220 -0.0257 -0.6747 -0.0415
  469TMC3    O2 6990   1.771   0.560  10.756 -0.0851 -0.2265  0.3756
  470TMC3    C1 6991   2.836   1.400   0.351 -0.2750  0.5976  0.2567
  470TMC3    C2 6992   2.902   1.498   0.423  0.2058  0.4563  0.2857
  470TMC3    C3 6993   2.832   1.551   0.535 -0.5560 -0.5847  0.1503
  470TMC3    C4 6994   2.717   1.343   0.396  0.6117 -0.0634 -0.4920
  470TMC3    C5 6995   2.656   1.400   0.504  0.4354 -0.5636 -0.1622
  470TMC3    C6 6996   2.711   1.507   0.577  0.3822  0.0931  0.5279
  470TMC3     C 6997   2.905   1.328   0.243 -0.0532  0.3451  0.2110
  470TMC3     O 6998   2.841   1.276   0.151  0.0889  0.2596  0.0560
  470TMC3     H 6999   2.987   1.547   0.377  0.7904 -1.0449 -0.2003
  470TMC3    H1 7000   2.680   1.256   0.343 -1.6856  0.4968  0.1730
  470TMC3    H2 7001   2.672   1.548   0.670 -0.2824  0.3973  0.1204
  470TMC3    C7 7002   2.536   1.336   0.559  0.2977 -0.6240  0.3099
  470TMC3    C8 7003   2.909   1.648   0.613 -0.9520  0.1958 -0.4622
  470TMC3    O1 7004   2.494   1.241   0.497  0.1294  0.4323 -0.9363
  470TMC3    O2 7005   2.843   1.707   0.699 -0.0358 -0.3845  0.0363
  471MPD2     C 7006   3.450   3.185  16.547 -0.6571 -1.1556 -0.5228
  471MPD2    C1 7007   3.456   3.061  16.486  0.3178 -0.2665  0.0409
  471MPD2    C2 7008   3.569   2.983  16.513  0.4182  0.1182  0.1430
  471MPD2    C3 7009   3.671   3.025  16.591  0.9203 -0.2304 -0.1687
  471MPD2    C4 7010   3.653   3.147  16.653  0.5806 -0.5981 -1.1576
  471MPD2    C5 7011   3.542   3.225  16.630  0.0524 -0.0177 -0.2595
  471MPD2     H 7012   3.579   2.884  16.470 -1.2036 -1.1642  2.7030
  471MPD2    H1 7013   3.734   3.196  16.707 -1.0146 -0.3475  1.0175
  471MPD2    H2 7014   3.370   3.257  16.533 -2.5725 -3.3148 -0.6329
  471MPD2    H3 7015   3.547   3.322  16.678  1.8456  0.3856 -1.2340
  471MPD2     N 7016   3.792   2.958  16.608 -0.2441  0.5254  0.4913
  471MPD2    H5 7017   3.840   2.979  16.695 -0.1112  0.2863  0.4769
  471MPD2    N1 7018   3.373   3.015  16.382 -0.3642 -0.0551 -0.8258
  471MPD2    H7 7019   3.378   2.914  16.375 -1.5495 -0.2122  0.6125
  472TMC3    C1 7020   3.192   2.986  16.234 -0.5295 -0.5137 -0.5387
  472TMC3    C2 7021   3.078   3.028  16.167  0.4611  0.1642 -0.0401
  472TMC3    C3 7022   3.006   2.931  16.098 -0.0408  0.0591 -0.0967
  472TMC3    C4 7023   3.232   2.851  16.225  0.0566 -0.0001 -0.7913
  472TMC3    C5 7024   3.154   2.765  16.158  1.1154  0.4077  0.7334
  472TMC3    C6 7025   3.038   2.799  16.096  0.7912 -0.4505 -0.5173
  472TMC3     C 7026   3.273   3.084  16.316  0.2394  0.3456 -0.0757
  472TMC3     O 7027   3.252   3.205  16.314 -0.3159 -0.0694  0.0303
  472TMC3     H 7028   3.063   3.135  16.169 -1.0466 -0.0678  0.6719
  472TMC3    H1 7029   3.328   2.819  16.265 -1.1520  0.0857  2.2085
  472TMC3    H2 7030   2.973   2.723  16.055 -0.6990  0.3186  0.4070
  472TMC3    C7 7031   3.192   2.623  16.170  0.1185  0.1709 -0.5734
  472TMC3    C8 7032   2.884   2.983  16.045  0.0314 -0.0319  0.2474
  472TMC3    O1 7033   3.248   2.592  16.274 -0.1922  0.2681 -0.3104
  472TMC3    O2 7034   2.877   3.104  16.043 -0.4235 -0.1731  0.1375
  473MPD2     C 7035   3.261   0.023  13.656  0.3377  0.3290  0.4873
  473MPD2    C1 7036   3.348   0.127  13.637 -0.5474  0.6580 -0.7849
  473MPD2    C2 7037   3.398   0.201  13.743 -0.3868  0.4670 -0.0467
  473MPD2    C3 7038   3.342   0.176  13.873  0.2081 -0.4346 -0.4280
  473MPD2    C4 7039   3.244   0.076  13.886  0.1563  0.0099 -0.3620
  473MPD2    C5 7040   3.207   0.004  13.780  0.2282 -0.0368 -0.3789
  473MPD2     H 7041   3.468   0.283  13.736  0.7158 -0.6517 -2.0557
  473MPD2    H1 7042   3.208   0.064  13.988  1.6650  3.4213  0.5475
  473MPD2    H2 7043   3.216   4.689  13.577  1.4854 -0.9973  0.8178
  473MPD2    H3 7044   3.130   4.653  13.792 -1.1004  1.0304 -2.2503
  473MPD2     N 7045   3.380   0.250  13.988 -0.1081  0.5145  0.2238
  473MPD2    H5 7046   3.318   0.261  14.068  0.9799  2.3970  0.8123
  473MPD2    N1 7047   3.385   0.166  13.500 -0.0329 -0.2370  0.8193
  473MPD2    H7 7048   3.449   0.244  13.489 -0.2385 -0.0516  0.9567
  474TMC3    C1 7049   3.520   0.397  14.113  0.3548 -0.3033 -0.1612
  474TMC3    C2 7050   3.402   0.452  14.156  0.3497 -0.4929 -0.0948
  474TMC3    C3 7051   3.422   0.541  14.260 -0.1976  0.0356 -0.1355
  474TMC3    C4 7052   3.646   0.399  14.169 -0.1042 -0.2692  0.4344
  474TMC3    C5 7053   3.654   0.475  14.278 -0.2639  0.0394  0.2235
  474TMC3    C6 7054   3.546   0.547  14.322 -1.2601  0.1769 -0.3460
  474TMC3     C 7055   3.504   0.307  14.002  0.1972 -0.5852 -0.0697
  474TMC3     O 7056   3.610   0.267  13.953  0.1391  0.0010 -0.1830
  474TMC3     H 7057   3.306   0.442  14.108  0.0340 -1.5172  0.7740
  474TMC3    H1 7058   3.734   0.350  14.130 -1.0239 -1.9317  0.4565
  474TMC3    H2 7059   3.544   0.598  14.417  0.3350  1.3464 -0.9308
  474TMC3    C7 7060   3.782   0.468  14.347  0.2637 -0.4888  0.4406
  474TMC3    C8 7061   3.331   0.642  14.280 -0.0363 -0.4003 -0.1387
  474TMC3    O1 7062   3.880   0.407  14.302  0.2703  0.2772 -0.0390
  474TMC3    O2 7063   3.218   0.603  14.257  0.2594 -0.1816 -0.8303
  475MPD2     C 7064   1.519   3.206  10.466 -0.3379 -0.9035 -0.2417
  475MPD2    C1 7065   1.527   3.116  10.363 -0.6168 -0.1440 -0.3095
  475MPD2    C2 7066   1.435   3.019  10.350  0.2494  0.4489 -0.1988
  475MPD2    C3 7067   1.318   3.026  10.428 -0.0388 -0.4424  0.0790
  475MPD2    C4 7068   1.315   3.117  10.532  0.3063 -0.2053 -0.0062
  475MPD2    C5 7069   1.416   3.209  10.552 -0.0339 -0.2488 -0.1838
  475MPD2     H 7070   1.437   2.941  10.274 -2.1705  0.4833 -0.2957
  475MPD2    H1 7071   1.229   3.132  10.596  0.6256  4.2679 -0.6100
  475MPD2    H2 7072   1.595   3.282  10.481 -0.3365 -1.0903  0.6800
  475MPD2    H3 7073   1.407   3.287  10.627  3.3963  0.1030 -0.1337
  475MPD2     N 7074   1.205   2.951  10.391  0.0553 -0.2429 -0.0765
  475MPD2    H5 7075   1.218   2.874  10.325 -1.0124  0.5585 -1.2240
  475MPD2    N1 7076   1.645   3.128  10.282  0.3126 -0.5009 -0.5622
  475MPD2    H7 7077   1.697   3.214  10.291 -1.9423  0.7309  0.6259
  476TMC3    C1 7078   1.760   3.109  10.083  0.5472  0.1956  0.0935
  476TMC3    C2 7079   1.734   3.100   9.953 -0.2654 -0.4665  0.1438
  476TMC3    C3 7080   1.797   3.199   9.874 -0.1868  0.4004 -0.3900
  476TMC3    C4 7081   1.848   3.203  10.133  0.0290 -0.3154 -0.4998
  476TMC3    C5 7082   1.905   3.299  10.055 -0.7528  0.2407  0.0545
  476TMC3    C6 7083   1.879   3.298   9.922 -0.3000  0.9684  0.5523
  476TMC3     C 7084   1.675   3.043  10.179 -0.3645 -0.3725  0.1768
  476TMC3     O 7085   1.611   2.955  10.126 -0.0014  0.0061 -0.1676
  476TMC3     H 7086   1.678   3.014   9.916  2.6447 -1.2123 -2.5058
  476TMC3    H1 7087   1.882   3.189  10.235  0.5622  1.0494 -0.4949
  476TMC3    H2 7088   1.920   3.372   9.854  0.4535  0.6115  0.6190
  476TMC3    C7 7089   2.035   3.351  10.096  0.1011 -0.0731 -0.0994
  476TMC3    C8 7090   1.746   3.213   9.737  0.4627 -0.1583  0.5290
  476TMC3    O1 7091   2.109   3.385  10.003  0.3303 -0.7341  0.5091
  476TMC3    O2 7092   1.752   3.326   9.689  0.2464 -0.1957 -0.2316
  477MPD2     C 7093   4.538   4.570  11.597 -0.0368 -0.0130  0.1892
  477MPD2    C1 7094   4.414   4.516  11.604 -0.1397  0.4955  0.8989
  477MPD2    C2 7095   4.400   4.406  11.687  0.2517 -0.5192  0.0676
  477MPD2    C3 7096   4.513   4.347  11.747 -0.0805 -0.1584  0.0904
  477MPD2    C4 7097   4.631   4.412  11.741 -0.2046 -0.2043  0.0192
  477MPD2    C5 7098   4.642   4.525  11.666  0.2091  0.2720  0.2415
  477MPD2     H 7099   4.301   4.362  11.696  0.5543 -1.3808 -0.8391
  477MPD2    H1 7100   4.718   4.376  11.795 -0.7241  0.3020  1.1879
  477MPD2    H2 7101   4.540   4.665  11.544  2.2917 -0.0655  0.2015
  477MPD2    H3 7102   0.012   4.576  11.651  0.0614  0.3512 -0.4375
  477MPD2     N 7103   4.482   4.235  11.823 -0.3083 -0.2373  0.1832
  477MPD2    H5 7104   4.386   4.205  11.835 -0.3049  0.1465  1.2707
  477MPD2    N1 7105   4.318   4.570  11.518  0.1105 -0.3753 -0.5156
  477MPD2    H7 7106   4.335   4.653  11.462 -2.7925 -0.0899 -0.9676
  478TMC3    C1 7107   4.110   4.574  11.407  0.7121 -0.2535 -0.2115
  478TMC3    C2 7108   3.983   4.601  11.440  0.1454  0.1804 -0.0380
  478TMC3    C3 7109   3.911   4.683  11.358 -0.2241  0.3741  0.5300
  478TMC3    C4 7110   4.161   4.612  11.293  0.2262  0.2903 -1.1550
  478TMC3    C5 7111   4.075   4.683  11.202 -0.5279  0.0761  0.0213
  478TMC3    C6 7112   3.946   4.722  11.232 -0.1132 -0.0213  0.7830
  478TMC3     C 7113   4.188   4.522  11.524  0.4334 -0.0992 -0.4551
  478TMC3     O 7114   4.126   4.437  11.588  0.3136 -0.8916 -0.7874
  478TMC3     H 7115   3.947   4.584  11.541 -1.0972  0.8188 -0.3710
  478TMC3    H1 7116   4.264   4.588  11.269  0.9547  0.2875  1.9962
  478TMC3    H2 7117   3.887   0.062  11.167  1.6788  1.1146  0.2733
  478TMC3    C7 7118   4.137   0.020  11.082 -0.1219  0.1051 -0.1293
  478TMC3    C8 7119   3.785   0.021  11.408  0.2711 -0.2653 -0.0152
  478TMC3    O1 7120   4.253   4.708  11.070 -0.0189  0.1598 -0.0387
  478TMC3    O2 7121   3.710   4.690  11.489 -0.0954 -0.8278  0.4213
  479MPD2     C 7122   2.070   2.113  14.905 -0.0501  0.0882 -0.1351
  479MPD2    C1 7123   2.162   2.016  14.949  0.4463 -0.3751 -0.2191
  479MPD2    C2 7124   2.228   2.040  15.061 -0.2694 -0.0786 -0.0876
  479MPD2    C3 7125   2.213   2.156  15.135  0.3854  0.6489 -0.3578
  479MPD2    C4 7126   2.133   2.255  15.082  0.1264 -0.4678  0.3160
  479MPD2    C5 7127   2.066   2.235  14.962 -0.3180  0.4679  0.1438
  479MPD2     H 7128   2.281   1.953  15.096  0.5694 -0.4674 -2.3021
  479MPD2    H1 7129   2.145   2.358  15.112  1.4779 -0.1636 -1.2412
  479MPD2    H2 7130   1.995   2.101  14.828 -1.3372 -2.7551  1.5312
  479MPD2    H3 7131   2.021   2.320  14.912  1.9405  0.8525 -1.2171
  479MPD2     N 7132   2.287   2.166  15.250 -0.0259  0.3473 -0.4217
  479MPD2    H5 7133   2.356   2.095  15.272 -0.7383 -1.0040 -2.5148
  479MPD2    N1 7134   2.165   1.896  14.880  0.5823 -0.2869  0.3798
  479MPD2    H7 7135   2.098   1.888  14.804  0.1092  2.2313  0.5116
  480TMC3    C1 7136   2.544   2.140  15.561  0.3825 -0.2285  0.2513
  480TMC3    C2 7137   2.655   2.213  15.515 -0.3755  0.0447  0.5157
  480TMC3    C3 7138   2.646   2.298  15.415 -0.2978  0.5183 -0.3536
  480TMC3    C4 7139   2.422   2.159  15.499  0.0797  0.6546  0.2660
  480TMC3    C5 7140   2.415   2.261  15.403 -0.1171 -0.1091 -0.6647
  480TMC3    C6 7141   2.523   2.326  15.357 -0.3545  0.0821  0.3445
  480TMC3     C 7142   2.553   2.048  15.672  0.2781  0.6763  0.2302
  480TMC3     O 7143   2.458   1.973  15.690  0.9954 -0.3553  0.3260
  480TMC3     H 7144   2.755   2.186  15.548  0.0034 -0.8032 -1.3484
  480TMC3    H1 7145   2.329   2.121  15.538 -0.1096  1.1614  0.3091
  480TMC3    H2 7146   2.520   2.392  15.271 -0.6386  0.8487  0.9408
  480TMC3    C7 7147   2.292   2.273  15.324  0.2516  0.1452  0.2958
  480TMC3    C8 7148   2.767   2.376  15.383 -0.9630 -0.0264  0.3043
  480TMC3    O1 7149   2.230   2.381  15.313  0.3904 -0.3964  0.1952
  480TMC3    O2 7150   2.840   2.413  15.474 -0.2922 -0.1694 -0.3425
  481MPD2     C 7151   0.100   0.578  14.161  0.4763 -0.9679  0.1574
  481MPD2    C1 7152   0.008   0.653  14.226  0.1652 -0.0206 -0.0122
  481MPD2    C2 7153   0.004   0.658  14.365 -0.2507 -0.2651  0.4067
  481MPD2    C3 7154   0.094   0.581  14.438  0.1431 -0.1248 -0.1826
  481MPD2    C4 7155   0.193   0.506  14.373  0.6807 -0.5565  1.3180
  481MPD2    C5 7156   0.188   0.499  14.235  0.4684 -0.1936  0.4403
  481MPD2     H 7157   4.645   0.712  14.410 -0.9545 -1.1692  0.2039
  481MPD2    H1 7158   0.268   0.450  14.429  1.9554  1.1962  1.3492
  481MPD2    H2 7159   0.104   0.573  14.053  1.3944  0.9346  0.0919
  481MPD2    H3 7160   0.263   0.436  14.189 -1.0658  0.5822 -3.0821
  481MPD2     N 7161   0.096   0.581  14.581  0.0822  0.1626 -0.1956
  481MPD2    H5 7162   0.168   0.525  14.626 -1.1555 -0.8696  0.5053
  481MPD2    N1 7163   4.647   0.731  14.145  0.0605  0.5869  0.1497
  481MPD2    H7 7164   4.662   0.720  14.045  0.0016  1.3228  0.0557
  482TMC3    C1 7165   4.484   0.886  14.074 -0.4144 -0.1480 -0.2156
  482TMC3    C2 7166   4.454   0.806  13.970  0.1135  0.4950  0.0612
  482TMC3    C3 7167   4.385   0.869  13.867 -0.2268 -0.1107 -0.0715
  482TMC3    C4 7168   4.441   1.016  14.091 -0.3409 -0.2571 -0.8461
  482TMC3    C5 7169   4.351   1.063  13.999 -0.2394  0.3845  0.2818
  482TMC3    C6 7170   4.334   0.995  13.883 -0.0532  0.4453  0.8009
  482TMC3     C 7171   4.547   0.816  14.182 -0.2891  0.2555 -0.2838
  482TMC3     O 7172   4.524   0.866  14.294  0.5865 -0.3966 -0.2580
  482TMC3     H 7173   4.487   0.704  13.957 -0.1917  0.6600 -2.0313
  482TMC3    H1 7174   4.481   1.065  14.179 -0.5488  1.4149 -1.6758
  482TMC3    H2 7175   4.267   1.032  13.807  0.5255 -2.4712 -1.1532
  482TMC3    C7 7176   4.292   1.193  14.020  0.0603  0.6726 -0.4097
  482TMC3    C8 7177   4.338   0.792  13.755 -0.7311  0.1775 -0.2331
  482TMC3    O1 7178   4.293   1.240  14.133 -0.3264  0.1534 -0.5269
  482TMC3    O2 7179   4.239   0.840  13.700  0.3320 -0.1603 -0.0309
  483TMC3    C1 7180   2.359   4.621   1.203 -0.7658  0.9046 -0.4060
  483TMC3    C2 7181   2.457   4.636   1.109 -0.4127  0.7814 -0.3490
  483TMC3    C3 7182   2.582   4.661   1.154  0.5158 -0.6237  0.5007
  483TMC3    C4 7183   2.388   4.642   1.338  0.7600  0.2529  0.2718
  483TMC3    C5 7184   2.522   4.644   1.374  0.4695 -0.7775 -0.1853
  483TMC3    C6 7185   2.624   4.666   1.283 -0.6827 -0.2104  0.8394
  483TMC3     C 7186   2.233   4.563   1.156  0.7506  0.9933  1.1672
  483TMC3     O 7187   2.142   4.559   1.236  0.4293 -0.3510 -0.2653
  483TMC3     H 7188   2.445   4.634   1.001  0.7048  1.4000 -0.4923
  483TMC3    H1 7189   2.307   4.618   1.407 -0.3982  0.3456 -1.0430
  483TMC3    H2 7190   2.728   4.661   1.311 -0.3799 -1.3776 -0.4745
  483TMC3    C7 7191   2.561   4.599   1.504  0.3485  0.0561  0.9112
  483TMC3    C8 7192   2.676   4.717   1.056  0.3009 -0.4950  0.2745
  483TMC3    O1 7193   2.472   4.591   1.588  0.0300  0.5030 -0.5506
  483TMC3    O2 7194   2.655   4.699   0.934  0.1406 -0.4142  0.2535
  484MPD2     C 7195   0.144   3.438  12.333  0.8247 -0.8215 -0.3188
  484MPD2    C1 7196   0.197   3.341  12.406  0.6313 -0.4293 -0.3308
  484MPD2    C2 7197   0.323   3.289  12.376  0.2084  0.1432 -0.0328
  484MPD2    C3 7198   0.397   3.336  12.264  0.2420  0.0083  0.3036
  484MPD2    C4 7199   0.346   3.439  12.196 -0.8403 -0.3644 -0.3941
  484MPD2    C5 7200   0.225   3.490  12.236  0.3938  0.0354  0.5118
  484MPD2     H 7201   0.348   3.203  12.437  0.2999 -1.4424 -2.3029
  484MPD2    H1 7202   0.391   3.482  12.107 -1.8270  1.6567  0.0889
  484MPD2    H2 7203   0.054   3.492  12.361  2.0257  0.9793  0.0247
  484MPD2    H3 7204   0.193   3.571  12.172 -2.0218 -1.8498 -0.6849
  484MPD2     N 7205   0.519   3.287  12.225 -0.0549 -0.2685  0.4089
  484MPD2    H5 7206   0.558   3.326  12.140  0.9030 -1.3778  0.3185
  484MPD2    N1 7207   0.112   3.272  12.495  0.8098 -0.2369 -0.8254
  484MPD2    H7 7208   0.015   3.300  12.486  0.4238 -1.9272 -1.8592
  485TMC3    C1 7209   0.727   3.173  12.219  0.1998  0.1121 -0.3023
  485TMC3    C2 7210   0.811   3.078  12.277  0.1668  0.3815 -0.3061
  485TMC3    C3 7211   0.941   3.096  12.268  0.8837 -0.1084  0.2967
  485TMC3    C4 7212   0.772   3.276  12.149 -0.4329  0.1689 -0.7744
  485TMC3    C5 7213   0.910   3.288  12.143  0.9536 -0.0124 -0.1204
  485TMC3    C6 7214   0.992   3.203  12.208 -0.1520 -0.2327 -0.0882
  485TMC3     C 7215   0.597   3.183  12.274 -0.0434  0.4161 -0.5407
  485TMC3     O 7216   0.573   3.109  12.370  0.2219  0.2878  0.2969
  485TMC3     H 7217   0.775   2.986  12.322  2.8606 -0.4479  0.1145
  485TMC3    H1 7218   0.707   3.335  12.087  0.5082  1.5001 -0.4960
  485TMC3    H2 7219   1.099   3.221  12.212 -0.1755  0.6661 -3.0549
  485TMC3    C7 7220   0.965   3.357  12.028 -0.4792 -0.6515 -0.5853
  485TMC3    C8 7221   1.010   2.988  12.194 -0.0747 -0.3002 -0.4577
  485TMC3    O1 7222   0.901   3.446  11.967  0.6803  0.2719  0.4171
  485TMC3    O2 7223   1.080   3.020  12.098 -0.1258 -0.0811  0.0870
  486MPD2     C 7224   2.540   2.181  12.922 -0.5644  0.2211  0.6381
  486MPD2    C1 7225   2.516   2.155  12.788  0.2986  0.2666 -0.2988
  486MPD2    C2 7226   2.419   2.238  12.715 -0.2441 -0.3343 -0.0561
  486MPD2    C3 7227   2.348   2.340  12.785 -0.2081  0.4851  0.3924
  486MPD2    C4 7228   2.387   2.375  12.910 -0.0347 -0.5433 -0.1195
  486MPD2    C5 7229   2.483   2.295  12.980 -0.0810  0.1412 -0.1600
  486MPD2     H 7230   2.395   2.211  12.613 -2.0925  1.4946 -0.0914
  486MPD2    H1 7231   2.344   2.456  12.968 -0.3361 -1.8589  1.4827
  486MPD2    H2 7232   2.615   2.124  12.976  1.2951 -0.8276 -3.0785
  486MPD2    H3 7233   2.530   2.333  13.070 -1.3062  0.1249  0.4908
  486MPD2     N 7234   2.246   2.406  12.714  0.1793  0.9806 -0.6139
  486MPD2    H5 7235   2.240   2.388  12.614 -0.5833 -3.6471  0.2824
  486MPD2    N1 7236   2.589   2.052  12.725  0.5133  0.4748 -1.0972
  486MPD2    H7 7237   2.658   1.997  12.776 -0.8276  0.6398  0.8973
  487TMC3    C1 7238   2.658   1.899  12.561 -0.5065 -0.2551 -0.3331
  487TMC3    C2 7239   2.617   1.791  12.497  0.1205  0.2849 -0.0915
  487TMC3    C3 7240   2.696   1.677  12.484  0.1197 -0.1583  0.3262
  487TMC3    C4 7241   2.787   1.897  12.625  0.8369  0.2668 -0.1615
  487TMC3    C5 7242   2.856   1.775  12.628  0.3501  0.7640 -0.6360
  487TMC3    C6 7243   2.818   1.666  12.545  0.5959  0.0349  0.2406
  487TMC3     C 7244   2.568   2.006  12.600 -0.8456 -0.5099 -0.4307
  487TMC3     O 7245   2.480   2.028  12.519 -0.4631 -0.0290 -0.0103
  487TMC3     H 7246   2.520   1.801  12.448  0.6626 -0.4072 -1.3239
  487TMC3    H1 7247   2.823   1.985  12.678  1.2742 -0.1290  0.2095
  487TMC3    H2 7248   2.871   1.572  12.538  0.7015  0.0576  0.7161
  487TMC3    C7 7249   2.830   1.741  12.769 -0.2604  0.2660  0.4019
  487TMC3    C8 7250   2.638   1.544  12.477 -0.1088  0.2829 -0.2041
  487TMC3    O1 7251   2.829   1.828  12.850 -0.6097 -0.0103  0.3440
  487TMC3    O2 7252   2.707   1.452  12.453 -0.0683 -0.1036  0.4871
  488MPD2     C 7253   2.602   3.801  16.369 -0.3287  0.6134  0.7551
  488MPD2    C1 7254   2.599   3.937  16.372 -0.4673 -0.0664 -0.6174
  488MPD2    C2 7255   2.594   4.012  16.491  0.2498  0.3293 -0.5316
  488MPD2    C3 7256   2.597   3.935  16.608 -0.0872  0.6582 -0.4131
  488MPD2    C4 7257   2.597   3.796  16.605 -0.4015 -0.0495 -0.2234
  488MPD2    C5 7258   2.599   3.728  16.485  0.3698  0.5974  0.2890
  488MPD2     H 7259   2.612   4.119  16.497 -2.8626  0.8278 -0.3439
  488MPD2    H1 7260   2.598   3.734  16.694 -2.2199 -2.9534 -2.2156
  488MPD2    H2 7261   2.602   3.748  16.274 -0.3511  0.8371  0.6306
  488MPD2    H3 7262   2.591   3.620  16.484 -2.6987  0.8545 -1.5174
  488MPD2     N 7263   2.594   3.999  16.731 -0.0649 -0.2980 -0.7683
  488MPD2    H5 7264   2.582   4.100  16.727 -0.4389 -0.2902  0.7736
  488MPD2    N1 7265   2.596   4.019  16.254 -0.1310 -0.5026 -0.4461
  488MPD2    H7 7266   2.613   4.118  16.267  2.5960 -1.0975  0.4342
  489TMC3    C1 7267   2.649   4.048  16.959 -0.1888  0.1658  0.2951
  489TMC3    C2 7268   2.560   4.151  16.968 -0.2123 -0.6092  0.5607
  489TMC3    C3 7269   2.589   4.247  17.057  0.1223 -0.9658 -0.7000
  489TMC3    C4 7270   2.755   4.032  17.044  0.2342  0.9418 -0.5834
  489TMC3    C5 7271   2.776   4.128  17.137  0.1829 -0.2701  1.4696
  489TMC3    C6 7272   2.698   4.239  17.137 -0.0721 -0.2199 -0.6091
  489TMC3     C 7273   2.637   3.951  16.854  0.0992  0.2954 -0.4508
  489TMC3     O 7274   2.664   3.837  16.892  0.4768  0.1061 -0.4129
  489TMC3     H 7275   2.475   4.142  16.901 -0.9963 -1.4372  1.6605
  489TMC3    H1 7276   2.824   3.949  17.031 -0.2767  0.2869  0.8594
  489TMC3    H2 7277   2.721   4.325  17.200  1.2957 -0.8142 -0.2899
  489TMC3    C7 7278   2.894   4.124  17.219  0.6953 -0.0128 -0.1524
  489TMC3    C8 7279   2.545   4.382  17.030 -0.0339 -0.3769 -0.0641
  489TMC3    O1 7280   2.990   4.061  17.184 -0.0676  0.5788  0.2471
  489TMC3    O2 7281   2.607   4.474  17.085 -0.1915  0.0866 -0.0284
  490MPD2     C 7282   3.493   3.278  16.971  0.0925  0.6558 -0.5628
  490MPD2    C1 7283   3.570   3.161  16.971  0.0985  0.0103 -0.0054
  490MPD2    C2 7284   3.708   3.160  16.969 -0.1960  0.1048  0.0563
  490MPD2    C3 7285   3.769   3.287  16.971  0.2736 -0.1318  0.2553
  490MPD2    C4 7286   3.696   3.397  16.993  1.0401 -0.8144  1.0224
  490MPD2    C5 7287   3.559   3.399  16.983  0.3078  0.1798  0.7739
  490MPD2     H 7288   3.770   3.072  16.982 -0.5198 -0.0968  0.2527
  490MPD2    H1 7289   3.745   3.493  16.995 -3.9011  1.7508 -1.5694
  490MPD2    H2 7290   3.385   3.276  16.964  0.1712  0.4363 -1.6633
  490MPD2    H3 7291   3.509   3.496  16.983 -1.1261 -0.5548  0.8082
  490MPD2     N 7292   3.913   3.294  16.948  0.0000  1.0545  0.3650
  490MPD2    H5 7293   3.968   3.379  16.956  0.7848  0.6595 -0.8111
  490MPD2    N1 7294   3.510   3.040  16.936  0.9318 -0.8065 -1.4937
  490MPD2    H7 7295   3.410   3.043  16.920  0.5646 -2.4713  0.4810
  491TMC3    C1 7296   3.458   2.817  16.932  0.3857  0.4778 -0.2855
  491TMC3    C2 7297   3.434   2.728  17.036 -0.2630  0.4152  0.6521
  491TMC3    C3 7298   3.324   2.650  17.035  0.6466  0.1246  0.5745
  491TMC3    C4 7299   3.361   2.843  16.839 -0.4030 -0.4131  0.0297
  491TMC3    C5 7300   3.250   2.757  16.836  0.4103  0.1071 -0.3846
  491TMC3    C6 7301   3.233   2.663  16.934 -0.1216  0.4260 -0.2098
  491TMC3     C 7302   3.561   2.915  16.959  0.0092  0.1170 -0.1127
  491TMC3     O 7303   3.654   2.882  17.034  0.7435 -0.1863 -1.1734
  491TMC3     H 7304   3.508   2.721  17.115 -0.6584  2.3374  1.1755
  491TMC3    H1 7305   3.390   2.904  16.754 -2.1168 -0.8250 -0.8459
  491TMC3    H2 7306   3.141   2.606  16.931  0.5563 -0.6450 -0.6923
  491TMC3    C7 7307   3.128   2.806  16.761  0.0528  0.1625  0.0908
  491TMC3    C8 7308   3.279   2.575  17.152  0.1946 -0.2579  0.4729
  491TMC3    O1 7309   3.028   2.737  16.764  0.5053  0.0815  0.7032
  491TMC3    O2 7310   3.157   2.559  17.155 -0.3060 -0.5705 -0.3604
  492MPD2     C 7311   3.750   3.205  10.962 -0.3706  0.0100  0.1463
  492MPD2    C1 7312   3.619   3.217  10.919 -0.2475 -0.1585 -0.3572
  492MPD2    C2 7313   3.521   3.127  10.965  0.3374 -0.6432  0.2731
  492MPD2    C3 7314   3.550   3.038  11.062 -0.1889 -0.0290  0.4495
  492MPD2    C4 7315   3.672   3.041  11.125  0.3561 -0.4606 -0.5019
  492MPD2    C5 7316   3.763   3.115  11.056 -0.0174 -0.2450  0.2557
  492MPD2     H 7317   3.422   3.124  10.920 -0.5854 -0.6770  2.2948
  492MPD2    H1 7318   3.706   2.976  11.205  0.6252  0.3042 -0.0056
  492MPD2    H2 7319   3.828   3.262  10.912 -0.2228 -1.7294 -1.5982
  492MPD2    H3 7320   3.865   3.096  11.088  0.7226  1.5588 -1.0435
  492MPD2     N 7321   3.453   2.941  11.117 -0.1093 -0.0402  0.3843
  492MPD2    H5 7322   3.479   2.887  11.199 -0.8474 -1.1840 -0.1414
  492MPD2    N1 7323   3.594   3.318  10.817  0.2404  0.1993 -0.3933
  492MPD2    H7 7324   3.667   3.384  10.795 -0.5911  1.0176 -0.6987
  493TMC3    C1 7325   3.488   3.469  10.680 -0.6647 -0.2892 -0.1441
  493TMC3    C2 7326   3.590   3.552  10.693  0.2779 -0.1069 -0.7349
  493TMC3    C3 7327   3.614   3.654  10.604  1.4093 -0.9831  0.4773
  493TMC3    C4 7328   3.387   3.478  10.584  0.0723  0.2936 -0.7911
  493TMC3    C5 7329   3.419   3.577  10.494  0.4080 -0.0535  0.0819
  493TMC3    C6 7330   3.535   3.659  10.497  0.4253  0.2610  1.0312
  493TMC3     C 7331   3.470   3.349  10.763  0.1891  0.1876 -0.0212
  493TMC3     O 7332   3.360   3.308  10.781  0.3037  0.0296  0.1023
  493TMC3     H 7333   3.662   3.556  10.774 -2.0404  1.4310  1.2588
  493TMC3    H1 7334   3.309   3.403  10.573  0.6830 -0.2420 -1.4691
  493TMC3    H2 7335   3.544   3.733  10.418  1.1872 -2.5715 -1.5624
  493TMC3    C7 7336   3.349   3.565  10.368 -0.3135 -0.0575 -0.4277
  493TMC3    C8 7337   3.733   3.736  10.631 -0.4111  0.1897  0.0028
  493TMC3    O1 7338   3.232   3.538  10.366 -0.1200 -0.6695  0.2100
  493TMC3    O2 7339   3.751   3.779  10.744  0.7910  0.1525 -0.5959
  494TMC3    C1 7340   3.520   4.634   0.283  0.4444 -0.1094 -0.3274
  494TMC3    C2 7341   3.628   4.580   0.352  0.3101 -0.5535 -0.1199
  494TMC3    C3 7342   3.753   4.577   0.289  0.8085 -0.0692 -1.4045
  494TMC3    C4 7343   3.527   4.678   0.155 -0.2168 -0.1203 -0.2452
  494TMC3    C5 7344   3.653   4.675   0.098 -0.1168 -1.2124  0.3478
  494TMC3    C6 7345   3.764   4.630   0.165 -0.3432  0.6170  0.6926
  494TMC3     C 7346   3.401   4.652   0.350 -0.0230  0.5257  0.2449
  494TMC3     O 7347   3.399   4.639   0.470  0.2157 -0.1600  0.4134
  494TMC3     H 7348   3.614   4.527   0.446 -1.1110 -0.1737 -0.1169
  494TMC3    H1 7349   3.441   4.697   0.092  0.5936  0.9135 -1.0350
  494TMC3    H2 7350   3.865   4.648   0.129 -0.5580 -0.9219 -0.7074
  494TMC3    C7 7351   3.670   0.003  17.663  0.1216  1.1061  0.6687
  494TMC3    C8 7352   3.861   4.502   0.354  0.2109  0.5734  0.6173
  494TMC3    O1 7353   3.784   4.715  17.617  0.1197 -0.2720 -0.3150
  494TMC3    O2 7354   3.837   4.465   0.469  0.0741 -0.0046  0.2507
  495TMC3    C1 7355   2.882   2.374  14.454  0.6071  0.2407  0.3001
  495TMC3    C2 7356   2.836   2.456  14.357 -0.4568  0.0747 -0.0621
  495TMC3    C3 7357   2.778   2.574  14.386  0.3450 -0.1719 -0.1454
  495TMC3    C4 7358   2.893   2.422  14.582 -0.9625 -0.7029  0.1650
  495TMC3    C5 7359   2.832   2.548  14.611 -0.3560 -0.0224  0.3408
  495TMC3    C6 7360   2.776   2.627  14.519 -0.2312  0.2423  0.7398
  495TMC3     C 7361   2.846   2.233  14.440 -0.0307 -0.2603  0.0387
  495TMC3     O 7362   2.900   2.149  14.513  0.0871 -0.5111 -0.2058
  495TMC3     H 7363   2.831   2.428  14.253 -2.4227  2.0892 -0.5145
  495TMC3    H1 7364   2.927   2.358  14.662  0.1968 -0.2961  0.0031
  495TMC3    H2 7365   2.710   2.704  14.557 -0.8885 -0.1635  0.4208
  495TMC3    C7 7366   2.797   2.550  14.757  0.0298 -0.8805  0.2658
  495TMC3    C8 7367   2.644   2.568  14.329 -0.4974 -0.0941 -0.3629
  495TMC3    O1 7368   2.682   2.524  14.783  0.9261  0.0693 -0.6132
  495TMC3    O2 7369   2.598   2.456  14.303  0.2558  0.3037  0.6553
  496MPD2     C 7370   0.343   2.113  15.341 -0.1993  0.3284 -0.0322
  496MPD2    C1 7371   0.255   2.012  15.380 -0.2289 -0.0908 -0.3187
  496MPD2    C2 7372   0.179   2.028  15.489  0.8396 -0.3666  0.4107
  496MPD2    C3 7373   0.190   2.141  15.570  0.1301  0.1144  0.2201
  496MPD2    C4 7374   0.266   2.248  15.519  0.0691  0.2128  0.2924
  496MPD2    C5 7375   0.343   2.226  15.413 -1.0448 -0.0988  0.3652
  496MPD2     H 7376   0.109   1.952  15.522  0.7910 -0.2853  0.4944
  496MPD2    H1 7377   0.258   2.345  15.566 -1.1682  0.4304 -0.3546
  496MPD2    H2 7378   0.423   2.105  15.268 -1.1891  0.6141 -1.1338
  496MPD2    H3 7379   0.394   2.310  15.367  0.4621  0.0026  2.2338
  496MPD2     N 7380   0.100   2.148  15.677  0.4710 -0.1763  1.0184
  496MPD2    H5 7381   0.043   2.068  15.703 -0.9631 -0.0125 -1.7110
  496MPD2    N1 7382   0.268   1.882  15.317  0.0813 -0.6098  0.1306
  496MPD2    H7 7383   0.348   1.875  15.256 -0.5577 -0.6956 -0.6938
  497TMC3    C1 7384   4.710   2.219  15.840 -0.1808  1.2659  0.3143
  497TMC3    C2 7385   4.584   2.207  15.782 -0.1741  0.8548  1.0251
  497TMC3    C3 7386   4.483   2.187  15.868 -0.4040 -0.3577 -1.0589
  497TMC3    C4 7387   0.003   2.219  15.977  0.1594 -0.1091  0.2985
  497TMC3    C5 7388   4.624   2.187  16.052 -0.3569 -0.3324  0.1043
  497TMC3    C6 7389   4.499   2.162  16.000 -0.1469  0.0488 -0.1952
  497TMC3     C 7390   0.094   2.255  15.758 -0.0277  0.0469 -0.6677
  497TMC3     O 7391   0.179   2.337  15.788 -0.2269 -0.3523 -0.1046
  497TMC3     H 7392   4.571   2.212  15.675 -1.0228 -0.6037  1.0698
  497TMC3    H1 7393   0.106   2.220  16.011  0.0350  2.7904  0.5197
  497TMC3    H2 7394   4.411   2.139  16.060  1.2229 -0.0340  1.7743
  497TMC3    C7 7395   4.626   2.180  16.192 -0.0816 -0.0733 -0.4555
  497TMC3    C8 7396   4.352   2.157  15.815  0.5688 -0.6056  0.6342
  497TMC3    O1 7397   4.533   2.124  16.246 -0.7512  0.2673 -0.7234
  497TMC3    O2 7398   4.277   2.092  15.887 -0.3822 -0.4835  0.3273
  498MPD2     C 7399   0.947   3.080   8.984  0.3185  0.2689  0.5373
  498MPD2    C1 7400   1.035   2.983   9.039 -0.2562  0.4151 -0.4571
  498MPD2    C2 7401   0.979   2.872   9.107 -0.2397  0.0555  0.2249
  498MPD2    C3 7402   0.844   2.847   9.118  0.5439  0.1043 -0.7004
  498MPD2    C4 7403   0.762   2.936   9.055 -0.1566 -0.2414 -0.5239
  498MPD2    C5 7404   0.815   3.048   8.989 -0.2697  0.2135  0.4118
  498MPD2     H 7405   1.052   2.801   9.145  1.5734  2.3933  1.1580
  498MPD2    H1 7406   0.654   2.923   9.051 -0.3786  0.4427  3.2205
  498MPD2    H2 7407   0.978   3.169   8.930 -1.6267 -0.9753 -2.6573
  498MPD2    H3 7408   0.745   3.122   8.955 -0.0895 -0.3584 -1.2286
  498MPD2     N 7409   0.808   2.723   9.181  0.2867 -0.0259  0.0292
  498MPD2    H5 7410   0.884   2.661   9.209 -1.5411 -1.2641  2.1924
  498MPD2    N1 7411   1.179   2.993   9.036  0.2179 -0.3492  0.1601
  498MPD2    H7 7412   1.235   2.934   9.097  1.5216 -0.9806 -1.6401
  499TMC3    C1 7413   1.389   3.074   8.965 -1.1888  0.3013  0.4208
  499TMC3    C2 7414   1.428   2.945   8.966 -0.1950  0.8236 -0.3838
  499TMC3    C3 7415   1.559   2.920   8.978 -1.0575  0.8294  0.6160
  499TMC3    C4 7416   1.480   3.178   8.951  0.3053  0.1387  0.0852
  499TMC3    C5 7417   1.613   3.141   8.954 -0.0072 -0.2536  0.1756
  499TMC3    C6 7418   1.657   3.018   8.984 -0.1145 -0.1267 -0.1472
  499TMC3     C 7419   1.247   3.098   8.974 -0.0469 -0.9365 -0.5392
  499TMC3     O 7420   1.204   3.189   8.899  0.0153 -0.0356  0.2053
  499TMC3     H 7421   1.355   2.866   8.952  1.6257 -0.8274 -0.4780
  499TMC3    H1 7422   1.440   3.279   8.948  0.6252  0.1911 -2.8145
  499TMC3    H2 7423   1.762   2.997   8.967 -0.3745 -2.2678  0.8515
  499TMC3    C7 7424   1.701   3.254   8.989  0.3124 -0.2890 -0.6481
  499TMC3    C8 7425   1.592   2.783   8.976  0.0887  0.2719  0.4888
  499TMC3    O1 7426   1.678   3.357   8.928 -0.7898  0.2449 -0.1293
  499TMC3    O2 7427   1.527   2.700   8.922 -1.0314  0.0123 -0.4144
  500MPD2     C 7428   2.825   4.181  10.693  0.6897 -1.4264 -0.6471
  500MPD2    C1 7429   2.895   4.209  10.579 -0.4191 -1.3854  0.0056
  500MPD2    C2 7430   2.839   4.186  10.450  0.5852 -0.1667 -0.5135
  500MPD2    C3 7431   2.711   4.141  10.439  0.9299  0.2018  0.3059
  500MPD2    C4 7432   2.639   4.127  10.558  0.1231  0.6060  0.0714
  500MPD2    C5 7433   2.697   4.139  10.681  0.3254  0.0910  0.7371
  500MPD2     H 7434   2.895   4.199  10.358 -1.9400  1.4628 -1.8081
  500MPD2    H1 7435   2.537   4.090  10.554  0.2401  0.1875  0.8199
  500MPD2    H2 7436   2.870   4.179  10.791  2.4297  1.1937 -1.3889
  500MPD2    H3 7437   2.647   4.106  10.771 -0.0582  0.0440  0.5040
  500MPD2     N 7438   2.645   4.125  10.317 -0.0388  0.1181 -0.1692
  500MPD2    H5 7439   2.544   4.120  10.327  0.2407 -1.9640  1.7734
  500MPD2    N1 7440   3.031   4.243  10.582  0.3083  0.1109 -0.4340
  500MPD2    H7 7441   3.071   4.264  10.490  2.4818  1.0117  0.7194
  501TMC3    C1 7442   3.215   4.355  10.662 -0.2961  0.0045 -0.2136
  501TMC3    C2 7443   3.243   4.423  10.541 -0.0488 -0.1768 -0.0427
  501TMC3    C3 7444   3.354   4.504  10.527 -0.2281  0.4257  0.0723
  501TMC3    C4 7445   3.309   4.357  10.758 -1.0225  0.0296 -0.1002
  501TMC3    C5 7446   3.418   4.439  10.739 -0.1672  0.7217  0.1031
  501TMC3    C6 7447   3.442   4.518  10.624 -0.0677  0.2959  0.1466
  501TMC3     C 7448   3.096   4.279  10.698 -0.1134 -0.0814 -0.0552
  501TMC3     O 7449   3.069   4.272  10.817 -0.2104  0.0411 -0.2406
  501TMC3     H 7450   3.187   4.405  10.450  1.3532 -0.8653 -0.7690
  501TMC3    H1 7451   3.283   4.297  10.845 -2.1080  1.8586  0.8309
  501TMC3    H2 7452   3.528   4.580  10.604  0.4036 -0.5966 -0.5569
  501TMC3    C7 7453   3.523   4.407  10.835 -0.7533  0.3920  0.3178
  501TMC3    C8 7454   3.358   4.609  10.425  0.4734 -0.2848 -0.1484
  501TMC3    O1 7455   3.501   4.307  10.903 -0.7920  0.4349 -1.0364
  501TMC3    O2 7456   3.471   4.655  10.391  0.0845  0.1037  0.0054
  502TMC3    C1 7457   1.668   2.537  14.790 -0.1024 -0.5435  0.1904
  502TMC3    C2 7458   1.707   2.620  14.686 -0.2004 -0.3014 -0.1803
  502TMC3    C3 7459   1.643   2.745  14.675 -0.4656  0.7044  0.0955
  502TMC3    C4 7460   1.555   2.577  14.854  0.0266 -0.0787  0.7354
  502TMC3    C5 7461   1.476   2.687  14.831 -0.2450  0.0834  0.0230
  502TMC3    C6 7462   1.520   2.779  14.741  1.1085  0.1745  0.1206
  502TMC3     C 7463   1.791   2.521  14.881 -0.3345  1.1217  0.7771
  502TMC3     O 7464   1.902   2.532  14.829 -0.0566 -0.2710  0.3436
  502TMC3     H 7465   1.790   2.588  14.625  0.0857 -0.7518  0.4413
  502TMC3    H1 7466   1.517   2.510  14.930  1.2018 -0.3858  1.0604
  502TMC3    H2 7467   1.485   2.882  14.743  0.5475 -0.0429  1.3199
  502TMC3    C7 7468   1.432   2.743  14.951 -0.6179 -0.3710  0.4118
  502TMC3    C8 7469   1.733   2.860  14.679  0.5974  0.5556 -0.7138
  502TMC3    O1 7470   1.497   2.723  15.050 -0.5509 -0.0270  0.1478
  502TMC3    O2 7471   1.694   2.976  14.650  0.0173  0.3980  0.4397
  503MPD2     C 7472   4.238   4.034  16.428  0.3761  1.0755  0.8262
  503MPD2    C1 7473   4.263   4.000  16.559  0.0511  0.0704  0.4303
  503MPD2    C2 7474   4.341   3.891  16.582 -0.0836 -0.5639 -0.5246
  503MPD2    C3 7475   4.409   3.831  16.480 -1.4684  0.2157  0.0410
  503MPD2    C4 7476   4.393   3.871  16.350  0.1820  0.4107  0.2575
  503MPD2    C5 7477   4.308   3.970  16.327 -0.0423  0.1057  0.2901
  503MPD2     H 7478   4.367   3.859  16.682  0.0572 -1.5947 -0.8900
  503MPD2    H1 7479   4.440   3.830  16.262 -1.0212  1.8060 -1.0338
  503MPD2    H2 7480   4.164   4.107  16.395  1.8529  1.8691 -0.7233
  503MPD2    H3 7481   4.285   3.987  16.223 -1.3539 -2.1116  0.2192
  503MPD2     N 7482   4.521   3.746  16.518 -0.1998 -0.2825 -0.4243
  503MPD2    H5 7483   4.536   3.734  16.617 -1.3309 -0.3637 -0.2679
  503MPD2    N1 7484   4.195   4.056  16.668 -0.7715  0.1725  0.6192
  503MPD2    H7 7485   4.221   4.014  16.757  0.5482 -1.3396 -0.4696
  504TMC3    C1 7486   4.674   3.566  16.494  0.5893 -1.0103 -0.2938
  504TMC3    C2 7487   4.661   3.555  16.633 -0.1557  0.0526 -0.3077
  504TMC3    C3 7488   0.016   3.458  16.692  0.9812  0.2875 -0.4509
  504TMC3    C4 7489   0.031   3.479  16.424  0.4722  0.3913  0.2985
  504TMC3    C5 7490   0.112   3.396  16.491  0.3655 -0.3476 -0.2257
  504TMC3    C6 7491   0.102   3.384  16.625  0.3873  0.6416 -0.0085
  504TMC3     C 7492   4.590   3.668  16.425 -0.5509  0.3608 -1.2960
  504TMC3     O 7493   4.592   3.657  16.302  0.1707 -0.0079 -0.0200
  504TMC3     H 7494   4.588   3.603  16.697  0.2878  0.7128 -0.2935
  504TMC3    H1 7495   0.033   3.487  16.316 -1.8641 -0.2014  0.2311
  504TMC3    H2 7496   0.169   3.318  16.679  1.7687  3.0701  1.2296
  504TMC3    C7 7497   0.195   3.312  16.410 -0.3871  0.1809 -1.2214
  504TMC3    C8 7498   0.051   3.487  16.831  0.4254 -0.3920  0.9971
  504TMC3    O1 7499   0.221   3.355  16.297 -0.4096  0.6747  0.3868
  504TMC3    O2 7500   0.058   3.603  16.861 -0.1135  0.0294  0.1072
  505MPD2     C 7501   0.916   1.396   9.535 -0.4435 -0.0756  0.0005
  505MPD2    C1 7502   0.937   1.412   9.405  0.6350  1.2038 -0.5210
  505MPD2    C2 7503   1.050   1.480   9.369 -0.0498  0.4127  0.8101
  505MPD2    C3 7504   1.145   1.512   9.462 -0.0478 -0.1174 -0.7298
  505MPD2    C4 7505   1.119   1.498   9.599 -0.6641  0.1031  0.4281
  505MPD2    C5 7506   1.001   1.435   9.630 -0.2366 -0.3605 -0.9970
  505MPD2     H 7507   1.065   1.507   9.265  0.9610  0.7284  1.0365
  505MPD2    H1 7508   1.190   1.522   9.677 -0.3476  1.3305 -0.2327
  505MPD2    H2 7509   0.821   1.354   9.566 -0.6755  0.2502 -0.2688
  505MPD2    H3 7510   0.984   1.420   9.736  1.2767 -0.4054 -0.7609
  505MPD2     N 7511   1.253   1.588   9.403  0.2403  0.2302  0.5050
  505MPD2    H5 7512   1.252   1.597   9.302 -0.9624  0.9700  0.5991
  505MPD2    N1 7513   0.834   1.384   9.306 -0.7095  0.0518  0.1881
  505MPD2    H7 7514   0.740   1.366   9.338 -0.8468 -0.8306 -0.7152
  506TMC3    C1 7515   0.743   1.384   9.085  0.9065  0.7737  0.6526
  506TMC3    C2 7516   0.636   1.467   9.120  0.5166 -0.3721 -0.1238
  506TMC3    C3 7517   0.554   1.511   9.021 -0.4262  0.1172  0.4121
  506TMC3    C4 7518   0.767   1.355   8.952 -0.6690  0.1631 -0.9166
  506TMC3    C5 7519   0.689   1.412   8.852 -0.3407  0.0963  0.2215
  506TMC3    C6 7520   0.581   1.487   8.889 -0.5661  0.2010 -0.4330
  506TMC3     C 7521   0.856   1.381   9.168  0.4682 -0.2869 -0.2863
  506TMC3     O 7522   0.965   1.386   9.111 -0.4655  0.1580  0.1541
  506TMC3     H 7523   0.622   1.509   9.218 -2.6140 -1.6790 -0.0078
  506TMC3    H1 7524   0.850   1.293   8.922 -1.0042  0.4915 -2.5226
  506TMC3    H2 7525   0.521   1.538   8.815 -0.8162  2.5993  1.4251
  506TMC3    C7 7526   0.780   1.472   8.760  0.3805 -0.7061 -0.4363
  506TMC3    C8 7527   0.461   1.617   9.064 -0.3477  0.2469  0.5953
  506TMC3    O1 7528   0.738   1.518   8.652  0.4942  0.1560 -0.1135
  506TMC3    O2 7529   0.369   1.627   8.986  0.2349  0.5925  0.0268
  507TMC3    C1 7530   0.600   3.138  14.216 -0.5126  0.1630 -0.3070
  507TMC3    C2 7531   0.616   3.118  14.076  0.1151  0.1627  0.8672
  507TMC3    C3 7532   0.690   3.208  14.004  0.9431 -0.1054 -0.6184
  507TMC3    C4 7533   0.652   3.253  14.273  0.3193 -0.4863 -0.0664
  507TMC3    C5 7534   0.735   3.340  14.192 -0.0432  0.0040 -0.6854
  507TMC3    C6 7535   0.758   3.311  14.062 -0.5754  0.1757 -0.3602
  507TMC3     C 7536   0.469   3.117  14.239 -0.1030  0.1609 -0.5026
  507TMC3     O 7537   0.404   3.079  14.145 -0.1986 -0.4408 -0.1938
  507TMC3     H 7538   0.575   3.036  14.017 -1.0924  1.3032  0.1281
  507TMC3    H1 7539   0.617   3.289  14.369 -0.1860  2.6212 -1.4066
  507TMC3    H2 7540   0.807   3.389  14.006  2.1501 -0.4266  1.1637
  507TMC3    C7 7541   0.702   3.482  14.208  0.5008  0.5978  0.0666
  507TMC3    C8 7542   0.616   3.253  13.893  0.0294  0.1678 -0.0720
  507TMC3    O1 7543   0.581   3.499  14.219  0.0029  0.1761  0.0673
  507TMC3    O2 7544   0.678   3.324  13.815  0.5009 -0.4642 -0.1857
  508MPD2     C 7545   1.845   0.679  15.445  0.1239 -0.1990  0.0106
  508MPD2    C1 7546   1.825   0.792  15.517 -0.5837  0.4023 -0.2477
  508MPD2    C2 7547   1.792   0.910  15.451 -0.3727  0.0290 -0.4406
  508MPD2    C3 7548   1.768   0.904  15.319 -0.6380 -0.4614  0.1822
  508MPD2    C4 7549   1.787   0.787  15.243  0.7621  0.2177  0.4046
  508MPD2    C5 7550   1.815   0.674  15.311 -0.1645 -0.5629 -0.0621
  508MPD2     H 7551   1.767   1.006  15.495  0.5254  0.1083 -0.1052
  508MPD2    H1 7552   1.771   0.772  15.137 -0.1100  2.4523  0.2179
  508MPD2    H2 7553   1.871   0.588  15.497 -0.7295 -0.4049  0.0840
  508MPD2    H3 7554   1.824   0.585  15.251  0.7262 -0.6876  0.2630
  508MPD2     N 7555   1.715   1.020  15.258  0.2266  0.3532 -0.2085
  508MPD2    H5 7556   1.739   1.106  15.305 -0.2271  0.7349 -0.6694
  508MPD2    N1 7557   1.823   0.796  15.659  0.9630 -1.0138 -0.1700
  508MPD2    H7 7558   1.865   0.715  15.705  0.1910 -1.4684 -0.2644
  509TMC3    C1 7559   1.486   1.312  14.982  0.8528  0.1740 -0.2020
  509TMC3    C2 7560   1.581   1.409  15.006  0.3456 -0.1090 -0.0198
  509TMC3    C3 7561   1.702   1.381  15.067  0.4841 -0.1408  0.4097
  509TMC3    C4 7562   1.512   1.186  15.028  0.1612 -0.1757 -0.0490
  509TMC3    C5 7563   1.629   1.160  15.088  0.0852  0.1636 -0.3002
  509TMC3    C6 7564   1.725   1.256  15.122 -0.6851 -0.6727 -0.1018
  509TMC3     C 7565   1.365   1.339  14.907 -0.6163 -0.2897 -0.2540
  509TMC3     O 7566   1.283   1.249  14.897 -0.2181 -0.1900  0.0443
  509TMC3     H 7567   1.569   1.508  14.964 -0.6756 -0.8007 -1.3609
  509TMC3    H1 7568   1.445   1.106  14.999 -0.6544  0.7463 -0.7290
  509TMC3    H2 7569   1.823   1.221  15.153 -1.3710 -1.6008  1.0033
  509TMC3    C7 7570   1.654   1.026  15.138  0.5263 -0.7482 -0.4944
  509TMC3    C8 7571   1.810   1.470  15.094 -0.5934 -0.9579  1.1561
  509TMC3    O1 7572   1.592   0.936  15.087  0.0315 -0.4831  0.0852
  509TMC3    O2 7573   1.922   1.419  15.112 -0.2792  0.1361 -0.1236
  510MPD2     C 7574   4.030   2.600  14.407  0.3927  0.0982  0.0076
  510MPD2    C1 7575   4.072   2.483  14.464 -0.7993 -1.6437  0.0677
  510MPD2    C2 7576   4.194   2.426  14.431  0.8068 -0.7610  0.2120
  510MPD2    C3 7577   4.279   2.498  14.339 -0.3823  0.6397  0.7652
  510MPD2    C4 7578   4.230   2.616  14.283 -0.4939  0.6544  0.0124
  510MPD2    C5 7579   4.105   2.662  14.315 -0.6326  0.0454  0.3631
  510MPD2     H 7580   4.229   2.330  14.468  0.7588 -1.4064 -1.4179
  510MPD2    H1 7581   4.277   2.671  14.202  2.3163 -1.1820  0.4131
  510MPD2    H2 7582   3.939   2.650  14.439  0.6272  0.3997  0.2108
  510MPD2    H3 7583   4.071   2.756  14.271 -1.7674 -0.6156 -0.1557
  510MPD2     N 7584   4.407   2.443  14.310 -0.1199  0.2721  0.0130
  510MPD2    H5 7585   4.430   2.359  14.362  1.7903 -0.1213 -1.4501
  510MPD2    N1 7586   3.983   2.436  14.561 -0.0610 -0.1888  0.4499
  510MPD2    H7 7587   3.896   2.488  14.568 -0.6995 -1.1573 -0.3483
  511TMC3    C1 7588   3.890   2.272  14.699 -0.1762  0.3015 -0.0360
  511TMC3    C2 7589   3.810   2.362  14.765  0.3038  0.2582 -0.2698
  511TMC3    C3 7590   3.722   2.319  14.857 -0.3107  0.2397  0.2079
  511TMC3    C4 7591   3.878   2.137  14.713 -0.1983  0.0511 -0.3027
  511TMC3    C5 7592   3.779   2.093  14.805  0.5355 -0.9538 -0.6433
  511TMC3    C6 7593   3.696   2.187  14.867 -0.3508  0.8046  0.1673
  511TMC3     C 7594   4.005   2.321  14.635  0.1149 -0.4395 -0.2348
  511TMC3     O 7595   4.105   2.247  14.647  0.0856 -0.0377  0.4213
  511TMC3     H 7596   3.830   2.469  14.758 -1.7141  0.5146 -2.0856
  511TMC3    H1 7597   3.937   2.071  14.650  2.7627  2.1505  0.2501
  511TMC3    H2 7598   3.608   2.152  14.921  0.6774  0.3654  1.5527
  511TMC3    C7 7599   3.768   1.949  14.840  0.0258 -0.6119 -0.6482
  511TMC3    C8 7600   3.653   2.415  14.941  0.4592  0.0286 -0.0224
  511TMC3    O1 7601   3.676   1.907  14.914 -0.0182 -0.3456 -0.4291
  511TMC3    O2 7602   3.662   2.530  14.903 -0.2473  0.1248 -0.3568
  512TMC3    C1 7603   3.045   2.075  12.916 -0.2801 -0.0508  0.1412
  512TMC3    C2 7604   3.122   2.034  13.017  0.2190 -0.3357 -0.0780
  512TMC3    C3 7605   3.217   1.937  12.998  0.2243  0.1899  0.4068
  512TMC3    C4 7606   3.069   2.039  12.787 -0.5977  0.5241  0.9755
  512TMC3    C5 7607   3.154   1.934  12.772  0.5177  0.3571  0.0284
  512TMC3    C6 7608   3.231   1.880  12.875  0.3864  0.0421  0.3817
  512TMC3     C 7609   2.944   2.174  12.929  0.2912 -0.6405  0.6131
  512TMC3     O 7610   2.869   2.202  12.835  0.8282 -0.2002  0.3749
  512TMC3     H 7611   3.091   2.061  13.118 -0.6397 -0.4225 -0.3196
  512TMC3    H1 7612   3.019   2.086  12.704  0.4892 -0.2034 -0.0891
  512TMC3    H2 7613   3.308   1.807  12.853  0.8929  0.5410  0.4887
  512TMC3    C7 7614   3.179   1.892  12.637 -0.5539  0.5554  0.6347
  512TMC3    C8 7615   3.288   1.871  13.105 -0.2230  0.6362 -0.8258
  512TMC3    O1 7616   3.149   1.971  12.548  0.1017  0.3969  0.1458
  512TMC3    O2 7617   3.335   1.762  13.078  0.2737  0.9971 -0.5876
  513MPD2     C 7618   0.064   2.427  12.974  0.5666  0.5447 -0.2419
  513MPD2    C1 7619   0.083   2.307  12.904  0.3616  0.9526 -1.1346
  513MPD2    C2 7620   0.129   2.197  12.973  0.3680 -0.5786 -0.0166
  513MPD2    C3 7621   0.173   2.211  13.105 -0.0952  0.4896  0.7838
  513MPD2    C4 7622   0.151   2.333  13.172  0.6013  0.0251  0.3851
  513MPD2    C5 7623   0.093   2.435  13.105  0.1046  0.1266 -0.2715
  513MPD2     H 7624   0.155   2.107  12.918 -0.1409  0.0721 -1.3014
  513MPD2    H1 7625   0.167   2.344  13.278 -0.8606 -2.7937  0.8904
  513MPD2    H2 7626   0.012   2.504  12.920  0.3283  0.5293 -0.0370
  513MPD2    H3 7627   0.085   2.535  13.146 -1.2556 -0.4993  1.0135
  513MPD2     N 7628   0.224   2.098  13.164  0.0139  0.1516 -0.4994
  513MPD2    H5 7629   0.219   2.016  13.105 -1.0208  0.0734 -0.3161
  513MPD2    N1 7630   0.046   2.306  12.763  0.2098  0.2803 -0.7615
  513MPD2    H7 7631   0.003   2.387  12.721 -0.6501  1.6701  2.8392
  514TMC3    C1 7632   4.675   2.185  12.572 -0.0231  0.2090 -0.7104
  514TMC3    C2 7633   4.723   2.253  12.469  0.9287  0.1125 -0.3260
  514TMC3    C3 7634   0.007   2.190  12.347  0.0668  0.3285 -0.2055
  514TMC3    C4 7635   4.628   2.059  12.556 -0.3550 -0.0981 -0.2656
  514TMC3    C5 7636   4.654   1.991  12.436 -0.1733 -0.2230 -0.5221
  514TMC3    C6 7637   4.703   2.059  12.326  0.7035 -0.3086  0.2467
  514TMC3     C 7638   0.038   2.185  12.693  0.3109 -0.2368 -0.6674
  514TMC3     O 7639   0.090   2.075  12.714 -0.2042  0.2317 -0.0830
  514TMC3     H 7640   0.034   2.354  12.481  1.1545  0.0082 -0.1011
  514TMC3    H1 7641   4.601   2.006  12.647  0.0706  0.2458  0.0603
  514TMC3    H2 7642   0.002   2.002  12.237 -1.0803 -1.1999  0.3542
  514TMC3    C7 7643   4.705   1.854  12.450 -0.3952 -0.8298 -0.2492
  514TMC3    C8 7644   0.069   2.268  12.245 -0.1732 -0.1717 -0.1940
  514TMC3    O1 7645   0.000   1.788  12.349 -0.2871 -0.2254 -0.8014
  514TMC3    O2 7646   0.079   2.387  12.268  0.0481 -0.2671 -0.0678
  515MPD2     C 7647   2.607   4.146  14.825 -0.0426  0.0666  0.0098
  515MPD2    C1 7648   2.715   4.057  14.788 -0.2676  0.6399  0.5113
  515MPD2    C2 7649   2.847   4.090  14.817 -0.4334 -0.5170 -0.3856
  515MPD2    C3 7650   2.876   4.204  14.891  0.3237 -0.2211  0.8704
  515MPD2    C4 7651   2.765   4.284  14.933 -0.6785 -0.0188  0.2834
  515MPD2    C5 7652   2.635   4.258  14.899  0.0850  0.8187  0.4935
  515MPD2     H 7653   2.926   4.023  14.785 -0.4011  0.7478 -2.9323
  515MPD2    H1 7654   2.791   4.374  14.987  1.2891  0.2069 -1.0581
  515MPD2    H2 7655   2.505   4.140  14.789 -0.4076 -1.8002  1.4206
  515MPD2    H3 7656   2.554   4.327  14.918 -1.2040  0.0713 -2.2962
  515MPD2     N 7657   3.003   4.242  14.933 -0.5239  0.5804  0.2575
  515MPD2    H5 7658   3.012   4.329  14.984 -2.4685 -0.3029  2.0643
  515MPD2    N1 7659   2.693   3.948  14.713 -0.0751  0.6067 -0.6440
  515MPD2    H7 7660   2.770   3.884  14.698 -0.4873  0.2944 -1.4191
  516TMC3    C1 7661   2.600   3.803  14.561 -1.0063 -0.6507 -0.1941
  516TMC3    C2 7662   2.564   3.804  14.429 -0.5421  0.4186  0.0043
  516TMC3    C3 7663   2.573   3.685  14.358  0.1159  0.7363  0.1718
  516TMC3    C4 7664   2.639   3.689  14.619  0.2199 -0.0443  0.2480
  516TMC3    C5 7665   2.644   3.570  14.550  0.3091  0.4402  0.6795
  516TMC3    C6 7666   2.613   3.566  14.415  0.3945 -0.2551 -0.8492
  516TMC3     C 7667   2.580   3.911  14.646  0.6808  0.2949  0.5072
  516TMC3     O 7668   2.480   3.977  14.614 -0.1806  0.4035  0.8111
  516TMC3     H 7669   2.531   3.897  14.384 -2.5539 -0.2837  0.0230
  516TMC3    H1 7670   2.652   3.685  14.727  2.4110  3.0718  0.0989
  516TMC3    H2 7671   2.625   3.479  14.353  2.9995 -0.7287  0.3134
  516TMC3    C7 7672   2.633   3.444  14.621  0.0776  0.0364  0.0967
  516TMC3    C8 7673   2.519   3.675  14.223  0.2117  0.1049 -0.8163
  516TMC3    O1 7674   2.667   3.441  14.733  0.1444 -0.3944 -0.1802
  516TMC3    O2 7675   2.488   3.563  14.188  0.5368  0.3031 -0.0118
  517MPD2     C 7676   2.675   4.708   0.032 -0.1381  0.3091 -0.1340
  517MPD2    C1 7677   2.790   0.045  17.691  0.4965  0.3621  0.6765
  517MPD2    C2 7678   2.854   0.126   0.084  0.3097  0.4116  0.5172
  517MPD2    C3 7679   2.803   0.138   0.212  0.3915  0.1498 -0.1296
  517MPD2    C4 7680   2.701   0.059   0.252 -0.2183 -0.1716 -0.1691
  517MPD2    C5 7681   2.624   4.719   0.155  0.4015  0.0818  0.2144
  517MPD2     H 7682   2.949   0.168   0.056  0.4326 -1.0341 -1.2574
  517MPD2    H1 7683   2.661   0.063   0.352 -0.7299 -1.0187 -0.3384
  517MPD2    H2 7684   2.614   4.660  17.654 -0.1589  1.4847 -0.8663
  517MPD2    H3 7685   2.541   4.657   0.188  0.5017 -1.0346 -1.6194
  517MPD2     N 7686   2.875   0.216   0.306  0.4120  0.3554  0.4861
  517MPD2    H5 7687   2.870   0.193   0.405  1.6130  0.5886  0.6030
  517MPD2    N1 7688   2.862   0.026  17.578 -0.0869 -0.6040  0.1150
  517MPD2    H7 7689   2.951   0.073  17.566 -0.0036  0.2834  4.1216
  518TMC3    C1 7690   2.959   4.624  17.411  0.5717  0.6807  0.2527
  518TMC3    C2 7691   2.945   4.552  17.295 -0.0723 -0.5926 -0.1377
  518TMC3    C3 7692   3.056   4.502  17.237 -0.8563  0.0399 -0.4875
  518TMC3    C4 7693   3.081   4.646  17.476  0.1466 -0.1906 -0.0907
  518TMC3    C5 7694   3.184   4.564  17.430  0.0256 -0.5390 -0.3987
  518TMC3    C6 7695   3.180   4.510  17.297  0.0161  0.0450  0.1010
  518TMC3     C 7696   2.835   4.659  17.480 -0.3539  0.2339 -0.2695
  518TMC3     O 7697   2.735   4.588  17.463  0.3614  0.2031  0.1527
  518TMC3     H 7698   2.846   4.543  17.250  0.0570 -1.2032 -0.3045
  518TMC3    H1 7699   3.096   4.703  17.567  1.5619 -2.0259  0.8361
  518TMC3    H2 7700   3.263   4.452  17.259 -1.2270 -1.8741  0.2776
  518TMC3    C7 7701   3.284   4.537  17.532 -0.4021 -0.4405  0.0079
  518TMC3    C8 7702   3.038   4.415  17.116 -0.6918 -0.1201  0.7818
  518TMC3    O1 7703   3.268   4.573  17.647  0.6433  0.0170 -0.1494
  518TMC3    O2 7704   3.123   4.328  17.102 -0.4494  0.5980 -0.0736
  519MPD2     C 7705   4.345   3.885  13.709  0.2736  0.0644  0.3782
  519MPD2    C1 7706   4.236   3.837  13.788 -0.5371  0.5354  0.2629
  519MPD2    C2 7707   4.254   3.711  13.825  0.1450 -1.2220  0.6647
  519MPD2    C3 7708   4.364   3.628  13.796 -1.0107 -0.2504 -0.4245
  519MPD2    C4 7709   4.470   3.681  13.729 -0.5192 -0.1259  0.7341
  519MPD2    C5 7710   4.460   3.811  13.682  0.9021 -0.2456  0.0936
  519MPD2     H 7711   4.179   3.660  13.885 -0.7935  0.8123  1.2010
  519MPD2    H1 7712   4.557   3.621  13.704 -1.0372  0.3156 -2.1149
  519MPD2    H2 7713   4.354   3.990  13.685  2.8173 -0.2151  0.1063
  519MPD2    H3 7714   4.548   3.858  13.639 -0.0204  0.7879 -0.6480
  519MPD2     N 7715   4.365   3.491  13.834  0.6108 -0.3556  0.2740
  519MPD2    H5 7716   4.456   3.446  13.826  0.3116 -1.0309  0.6080
  519MPD2    N1 7717   4.118   3.919  13.805  0.6930  0.2478 -0.4148
  519MPD2    H7 7718   4.112   4.005  13.751  0.0904  0.4622 -0.0213
  520TMC3    C1 7719   4.291   3.291  13.933 -0.4349  0.0709 -0.1549
  520TMC3    C2 7720   4.184   3.222  13.990  0.3155  0.4005  0.2614
  520TMC3    C3 7721   4.215   3.101  14.036 -0.2231  1.1434 -0.4029
  520TMC3    C4 7722   4.420   3.250  13.951 -0.5569  0.4180  0.9125
  520TMC3    C5 7723   4.445   3.127  14.006  0.1514 -0.5185  0.1643
  520TMC3    C6 7724   4.340   3.046  14.052  0.3910  0.0457 -0.3979
  520TMC3     C 7725   4.256   3.418  13.869  0.5732 -0.0982 -0.4280
  520TMC3     O 7726   4.139   3.442  13.850  0.1638 -1.7563  0.0690
  520TMC3     H 7727   4.083   3.259  13.995  0.4615  0.8151  0.1491
  520TMC3    H1 7728   4.505   3.304  13.911 -0.8553  0.6100  0.5502
  520TMC3    H2 7729   4.356   2.946  14.091  0.4324  0.0413 -0.4264
  520TMC3    C7 7730   4.572   3.063  13.978  1.2369 -0.3491 -0.1572
  520TMC3    C8 7731   4.113   3.002  14.046  0.0758  0.6299  0.7193
  520TMC3    O1 7732   4.592   2.955  14.041 -0.1683 -0.4050  0.4508
  520TMC3    O2 7733   4.147   2.898  14.096  0.4855  0.2734  0.1356
  521MPD2     C 7734   0.555   1.106  16.906 -0.2316  1.0315  0.1745
  521MPD2    C1 7735   0.490   1.208  16.837  0.1894 -0.1475  0.0325
  521MPD2    C2 7736   0.546   1.274  16.727  0.1536 -0.3471  0.1944
  521MPD2    C3 7737   0.676   1.227  16.693  0.2440 -0.0328  0.5481
  521MPD2    C4 7738   0.742   1.139  16.766 -0.0455 -0.0384 -0.4556
  521MPD2    C5 7739   0.678   1.074  16.869  0.1723 -0.0790 -0.3178
  521MPD2     H 7740   0.498   1.357  16.678  2.5277  0.6523 -0.4540
  521MPD2    H1 7741   0.848   1.115  16.761  0.0063  0.2546 -0.7848
  521MPD2    H2 7742   0.509   1.052  16.988  0.7385  2.9087  1.9561
  521MPD2    H3 7743   0.727   1.004  16.935  0.8243  0.4345 -0.2518
  521MPD2     N 7744   0.731   1.299  16.582  0.1381  0.1821 -0.3476
  521MPD2    H5 7745   0.690   1.383  16.543 -1.0299 -0.7960 -1.1857
  521MPD2    N1 7746   0.354   1.230  16.871  0.2057 -0.3574 -0.5387
  521MPD2    H7 7747   0.325   1.188  16.959  0.4656  1.0779  0.2300
  522TMC3    C1 7748   0.934   1.390  16.471 -0.8971 -0.9253 -0.4098
  522TMC3    C2 7749   1.066   1.403  16.502 -0.5332 -0.4246 -0.6975
  522TMC3    C3 7750   1.141   1.499  16.449  0.0206  0.2240  0.5360
  522TMC3    C4 7751   0.878   1.475  16.380  0.0538 -0.2266 -0.1072
  522TMC3    C5 7752   0.963   1.558  16.310 -0.3028 -0.0285  0.2339
  522TMC3    C6 7753   1.095   1.572  16.350  0.4916  0.3055 -0.3964
  522TMC3     C 7754   0.860   1.278  16.532 -0.0248 -0.3720  0.0629
  522TMC3     O 7755   0.927   1.176  16.546  0.8208  0.9194  0.4487
  522TMC3     H 7756   1.114   1.336  16.573 -0.7906 -0.9420 -1.0122
  522TMC3    H1 7757   0.778   1.464  16.339 -0.3603  0.0258  0.8338
  522TMC3    H2 7758   1.173   1.638  16.315  1.9811 -1.4582 -0.3835
  522TMC3    C7 7759   0.917   1.669  16.229  0.5629  0.5772  0.0378
  522TMC3    C8 7760   1.288   1.490  16.464  0.1057  0.0900 -0.2730
  522TMC3    O1 7761   1.000   1.759  16.202 -0.2250 -0.4597  0.0224
  522TMC3    O2 7762   1.343   1.598  16.479 -0.1192  0.1018  0.2046
  523MPD2     C 7763   3.564   1.346   9.634 -0.3146 -0.4473  0.4802
  523MPD2    C1 7764   3.461   1.250   9.638  0.2542  0.7025 -0.0210
  523MPD2    C2 7765   3.336   1.288   9.581  0.5234 -0.7142  0.3232
  523MPD2    C3 7766   3.312   1.414   9.540 -0.2376 -0.8415 -0.2706
  523MPD2    C4 7767   3.409   1.511   9.565  1.1747  0.2403 -0.5151
  523MPD2    C5 7768   3.533   1.475   9.607 -0.6195  0.3303 -0.5853
  523MPD2     H 7769   3.255   1.218   9.562 -1.2232  1.1875  0.7545
  523MPD2    H1 7770   3.405   1.615   9.536 -3.8953  0.4825  1.0445
  523MPD2    H2 7771   3.666   1.330   9.670 -0.1091  1.0797  0.5490
  523MPD2    H3 7772   3.606   1.552   9.630 -2.2054  1.8766 -0.7365
  523MPD2     N 7773   3.196   1.454   9.467  0.1405  0.4404  0.4438
  523MPD2    H5 7774   3.195   1.552   9.438  0.0873 -0.2999 -2.0857
  523MPD2    N1 7775   3.503   1.120   9.684 -0.1745  0.0417  0.2331
  523MPD2    H7 7776   3.604   1.104   9.688  0.2773  2.7292 -1.0246
  524TMC3    C1 7777   2.988   1.454   9.362 -0.5611  0.4171  0.9783
  524TMC3    C2 7778   2.913   1.388   9.268  0.3916  0.8516 -0.9524
  524TMC3    C3 7779   2.799   1.449   9.222  0.2825  0.0908 -0.7544
  524TMC3    C4 7780   2.950   1.574   9.414 -0.6951  0.6358 -0.6500
  524TMC3    C5 7781   2.832   1.628   9.365 -0.9120  0.3323  0.4759
  524TMC3    C6 7782   2.757   1.574   9.265 -0.0472 -0.6981 -0.9214
  524TMC3     C 7783   3.107   1.380   9.402  0.1495 -0.7829  0.3787
  524TMC3     O 7784   3.099   1.256   9.400  0.1642 -0.4846 -0.3657
  524TMC3     H 7785   2.924   1.282   9.252  1.7649  0.9678 -0.8019
  524TMC3    H1 7786   3.010   1.633   9.483  0.1665  0.4006 -1.1990
  524TMC3    H2 7787   2.660   1.604   9.228  0.3507 -0.7641 -2.0414
  524TMC3    C7 7788   2.790   1.755   9.419 -0.2230  0.0378  0.0027
  524TMC3    C8 7789   2.712   1.359   9.141  0.1053  0.3358 -0.1463
  524TMC3    O1 7790   2.835   1.797   9.525  0.5284 -0.2366  0.3249
  524TMC3    O2 7791   2.741   1.242   9.117 -0.4200 -0.0481  0.3154
  525MPD2     C 7792   0.945   2.696  14.226  0.5977  0.2830  0.4169
  525MPD2    C1 7793   1.032   2.739  14.321  0.7451  0.3031 -0.6293
  525MPD2    C2 7794   1.106   2.852  14.309 -0.5471  0.0702 -0.0449
  525MPD2    C3 7795   1.084   2.933  14.197 -0.0417 -0.3338  0.2532
  525MPD2    C4 7796   0.997   2.887  14.099  0.0366 -0.2874 -0.3557
  525MPD2    C5 7797   0.938   2.766  14.107 -0.5697 -0.2241  0.0945
  525MPD2     H 7798   1.181   2.862  14.386  2.3436  1.3004 -3.0173
  525MPD2    H1 7799   0.986   2.952  14.013  1.3999  0.4649  0.0373
  525MPD2    H2 7800   0.889   2.604  14.239  2.1557 -1.0077 -2.0001
  525MPD2    H3 7801   0.879   2.737  14.021 -0.8751  0.7133 -0.0197
  525MPD2     N 7802   1.159   3.049  14.172 -0.2174  0.0526  0.1026
  525MPD2    H5 7803   1.134   3.109  14.094 -0.1387 -0.8275 -0.5912
  525MPD2    N1 7804   1.049   2.681  14.446  0.3321  0.7500  0.0723
  525MPD2    H7 7805   1.122   2.719  14.505 -0.4380  2.0133  0.2240
  526TMC3    C1 7806   1.005   2.556  14.635  0.3907 -0.5492  0.0902
  526TMC3    C2 7807   0.932   2.604  14.735 -0.7752 -0.0055  0.1037
  526TMC3    C3 7808   0.965   2.569  14.863 -0.5206  0.1384 -0.1588
  526TMC3    C4 7809   1.104   2.471  14.656 -0.0071  0.3975 -0.2290
  526TMC3    C5 7810   1.144   2.440  14.782  0.3603  0.1165 -0.1015
  526TMC3    C6 7811   1.085   2.502  14.886  0.4631  0.0489  0.0638
  526TMC3     C 7812   0.958   2.596  14.503 -0.1887 -0.6313  0.5848
  526TMC3     O 7813   0.838   2.579  14.476  0.0661 -0.1988  0.0330
  526TMC3     H 7814   0.846   2.667  14.712 -0.3697  0.3091 -0.5344
  526TMC3    H1 7815   1.154   2.428  14.570 -0.7569  1.2227 -1.0767
  526TMC3    H2 7816   1.111   2.469  14.986  1.0743  0.8798  0.1805
  526TMC3    C7 7817   1.272   2.375  14.816  0.0785  0.0499 -1.0594
  526TMC3    C8 7818   0.903   2.633  14.983 -0.2689 -0.2039  0.0159
  526TMC3    O1 7819   1.296   2.347  14.931  0.4988  0.6557  0.0372
  526TMC3    O2 7820   0.973   2.628  15.083  0.3422  0.5401 -0.2672
  527MPD2     C 7821   3.319   0.595   0.530  0.0975 -0.1563  0.2961
  527MPD2    C1 7822   3.335   0.537   0.650 -0.2202  0.0847 -0.0831
  527MPD2    C2 7823   3.466   0.507   0.693 -0.4513 -0.8206 -0.7323
  527MPD2    C3 7824   3.577   0.528   0.610  0.5654  1.4333 -0.4525
  527MPD2    C4 7825   3.556   0.573   0.481 -0.4867 -0.4763  0.1449
  527MPD2    C5 7826   3.429   0.616   0.449  0.8669 -0.2759 -0.2535
  527MPD2     H 7827   3.489   0.474   0.794  1.0969 -1.6677 -1.3572
  527MPD2    H1 7828   3.639   0.600   0.416  2.0177 -1.6515  2.8316
  527MPD2    H2 7829   3.226   0.633   0.491 -0.6027 -2.7169 -0.5504
  527MPD2    H3 7830   3.415   0.661   0.352  2.0056 -0.2286 -0.3959
  527MPD2     N 7831   3.706   0.489   0.654 -0.4086  0.0523  0.9127
  527MPD2    H5 7832   3.726   0.480   0.754 -1.4470  0.6673  1.1740
  527MPD2    N1 7833   3.226   0.501   0.733  0.6295  0.0309  0.6283
  527MPD2    H7 7834   3.250   0.464   0.824  3.2942  1.5634  0.5364
  528TMC3    C1 7835   3.009   0.476   0.823  0.4237 -0.1440 -0.6223
  528TMC3    C2 7836   3.035   0.519   0.947 -0.1360 -0.0126  0.1977
  528TMC3    C3 7837   2.946   0.479   1.044 -0.2622  0.2994 -0.1227
  528TMC3    C4 7838   2.897   0.411   0.782 -0.0406  0.0208 -0.1406
  528TMC3    C5 7839   2.801   0.377   0.876 -0.3902  0.6921 -0.0534
  528TMC3    C6 7840   2.829   0.410   1.010 -0.4113  0.7365 -0.8431
  528TMC3     C 7841   3.095   0.507   0.709  0.1056  0.3231  0.2910
  528TMC3     O 7842   3.044   0.539   0.598  0.2996 -0.1765 -0.0973
  528TMC3     H 7843   3.117   0.587   0.969  0.2239 -0.6445  0.8197
  528TMC3    H1 7844   2.875   0.382   0.680 -0.5324  1.3333 -0.4121
  528TMC3    H2 7845   2.752   0.387   1.082  0.0639  3.3579  0.5323
  528TMC3    C7 7846   2.661   0.359   0.839 -0.0040 -0.3539  0.3514
  528TMC3    C8 7847   2.985   0.478   1.180  0.4368 -0.3256 -0.0571
  528TMC3    O1 7848   2.595   0.309   0.929  0.3607 -0.1402  0.1949
  528TMC3    O2 7849   3.105   0.512   1.193 -0.3172 -0.1291 -1.1973
  529MPD2     C 7850   2.386   3.555   0.376 -0.6007 -0.1562  0.5590
  529MPD2    C1 7851   2.264   3.618   0.381 -0.4503 -0.0712  0.4307
  529MPD2    C2 7852   2.224   3.693   0.271  0.4667 -1.0228  0.5508
  529MPD2    C3 7853   2.308   3.715   0.166 -0.0521 -0.2747  0.3211
  529MPD2    C4 7854   2.436   3.661   0.166 -0.4735 -0.1212  0.1441
  529MPD2    C5 7855   2.474   3.580   0.269 -0.0353 -0.8192  0.3827
  529MPD2     H 7856   2.127   3.742   0.274  1.7544  1.7019 -2.5131
  529MPD2    H1 7857   2.508   3.683   0.087 -0.9071  1.3034  0.1402
  529MPD2    H2 7858   2.425   3.491   0.455 -2.7294 -2.6671 -0.4481
  529MPD2    H3 7859   2.573   3.538   0.278 -0.0813 -1.1118 -0.4638
  529MPD2     N 7860   2.265   3.803   0.061  0.0416 -0.3309  1.3002
  529MPD2    H5 7861   2.334   3.820  17.687 -1.6835 -0.9042 -0.4827
  529MPD2    N1 7862   2.176   3.612   0.486 -0.9533 -0.4732 -0.2507
  529MPD2    H7 7863   2.087   3.656   0.470 -0.6567 -0.2537 -1.2805
  530TMC3    C1 7864   2.086   3.578   0.696  0.0229 -0.3602 -0.3326
  530TMC3    C2 7865   2.104   3.530   0.828  0.8692 -0.0458 -0.2716
  530TMC3    C3 7866   2.020   3.571   0.926  0.2329 -0.6260 -0.4437
  530TMC3    C4 7867   1.983   3.666   0.668 -0.0465 -0.6852 -0.3667
  530TMC3    C5 7868   1.912   3.713   0.772 -0.0812  0.2007 -0.9444
  530TMC3    C6 7869   1.930   3.668   0.904  0.0675 -0.6929  0.8589
  530TMC3     C 7870   2.191   3.545   0.599  0.4494  0.0907  0.8302
  530TMC3     O 7871   2.288   3.487   0.644  0.0982  0.4655  0.1976
  530TMC3     H 7872   2.185   3.459   0.840  0.5085 -0.4733 -0.3583
  530TMC3    H1 7873   1.972   3.714   0.571 -1.4172  0.1413  0.1957
  530TMC3    H2 7874   1.863   3.705   0.980  0.3968  1.7092 -0.0338
  530TMC3    C7 7875   1.789   3.785   0.740  0.5039  0.4112  0.4881
  530TMC3    C8 7876   2.072   3.549   1.065  0.6044  0.8588  0.5092
  530TMC3    O1 7877   1.735   3.769   0.632 -0.0506 -0.4567 -0.6253
  530TMC3    O2 7878   2.025   3.621   1.155 -0.0187  0.2384  0.1938
  531MPD2     C 7879   0.242   1.532  12.745 -0.0736 -0.9792  0.6214
  531MPD2    C1 7880   0.220   1.649  12.817 -0.3944  0.0269  0.4040
  531MPD2    C2 7881   0.144   1.745  12.759 -0.4056 -0.3128 -1.1207
  531MPD2    C3 7882   0.098   1.730  12.628  0.4232  0.0488 -0.2018
  531MPD2    C4 7883   0.131   1.623  12.551  0.3855 -0.2514  0.5840
  531MPD2    C5 7884   0.198   1.521  12.618  0.4511 -0.6057  0.4808
  531MPD2     H 7885   0.128   1.842  12.804  1.6845 -0.5181  0.0793
  531MPD2    H1 7886   0.100   1.617  12.447  1.7867  0.4296  0.1310
  531MPD2    H2 7887   0.296   1.447  12.786  1.6586 -0.5114 -0.6852
  531MPD2    H3 7888   0.230   1.437  12.559  1.7192  0.6384 -0.6089
  531MPD2     N 7889   0.032   1.843  12.574  0.0841 -0.6547  0.1928
  531MPD2    H5 7890   0.037   1.929  12.628 -0.1643 -0.2187 -0.4808
  531MPD2    N1 7891   0.274   1.658  12.952 -0.2204 -0.1211 -0.1959
  531MPD2    H7 7892   0.299   1.567  12.989  0.0926  0.2250  0.4368
  532TMC3    C1 7893   0.315   1.767  13.170 -0.4387 -0.2365  0.0446
  532TMC3    C2 7894   0.261   1.867  13.250 -0.4703 -0.6454  1.0219
  532TMC3    C3 7895   0.334   1.960  13.315 -0.0466 -1.1387  0.1669
  532TMC3    C4 7896   0.450   1.754  13.177  0.4829 -0.0335  0.3913
  532TMC3    C5 7897   0.527   1.850  13.242 -0.4265 -0.5753  0.2266
  532TMC3    C6 7898   0.470   1.961  13.309  0.7850 -0.1179 -0.4426
  532TMC3     C 7899   0.253   1.763  13.035 -0.1366 -0.8781 -0.6889
  532TMC3     O 7900   0.215   1.877  13.006  0.2234  0.5673 -0.2219
  532TMC3     H 7901   0.154   1.884  13.255 -0.4293 -0.3685  0.9742
  532TMC3    H1 7902   0.498   1.681  13.113 -0.3370 -0.4741  0.2670
  532TMC3    H2 7903   0.533   2.031  13.363  0.0356 -0.2869  0.6458
  532TMC3    C7 7904   0.671   1.841  13.229 -0.0218 -0.2243  0.2064
  532TMC3    C8 7905   0.281   2.092  13.289  0.0105  0.5023  0.4943
  532TMC3    O1 7906   0.729   1.950  13.213 -0.1404  0.0265  0.2673
  532TMC3    O2 7907   0.290   2.174  13.380  0.2438 -0.5393  0.0402
  533TMC3    C1 7908   1.318   3.224  14.226 -0.5376 -0.7669  0.0045
  533TMC3    C2 7909   1.451   3.250  14.239 -0.4440  0.5189 -0.3587
  533TMC3    C3 7910   1.482   3.381  14.251  0.4352 -0.4106 -0.0927
  533TMC3    C4 7911   1.221   3.321  14.220  0.2954  0.5650  0.1088
  533TMC3    C5 7912   1.262   3.446  14.257 -0.1183  0.1717 -0.0236
  533TMC3    C6 7913   1.392   3.481  14.265 -0.0043  0.0916 -0.3208
  533TMC3     C 7914   1.273   3.082  14.237 -1.1258 -0.5056 -0.1659
  533TMC3     O 7915   1.347   3.016  14.309 -0.1586 -0.4300 -0.0783
  533TMC3     H 7916   1.517   3.167  14.262 -1.7433 -0.8173 -1.3955
  533TMC3    H1 7917   1.113   3.310  14.215  0.2923  1.0095 -0.7715
  533TMC3    H2 7918   1.432   3.581  14.279  1.2394 -0.7580  2.1617
  533TMC3    C7 7919   1.154   3.523  14.322 -0.4947  0.0528  0.1061
  533TMC3    C8 7920   1.622   3.411  14.281  0.5375  0.6864  0.3211
  533TMC3    O1 7921   1.036   3.479  14.324 -0.3825  0.0249 -0.0146
  533TMC3    O2 7922   1.676   3.338  14.367  0.2008  0.6677 -0.4552
  534MPD2     C 7923   3.734   3.850   1.814 -0.6506  0.1362 -1.0085
  534MPD2    C1 7924   3.753   3.892   1.683  0.1105  0.0371 -1.1572
  534MPD2    C2 7925   3.770   3.808   1.584 -0.2458  0.0000 -0.1823
  534MPD2    C3 7926   3.783   3.673   1.609  0.3550  0.4065 -0.2657
  534MPD2    C4 7927   3.758   3.626   1.740 -0.6888  0.2145 -0.4825
  534MPD2    C5 7928   3.725   3.713   1.840  0.3041  0.2589  0.5121
  534MPD2     H 7929   3.766   3.849   1.484  0.5907  2.5490  0.7952
  534MPD2    H1 7930   3.758   3.519   1.758 -2.7393  0.9355  3.8806
  534MPD2    H2 7931   3.712   3.918   1.895  2.1634 -0.1960  0.0444
  534MPD2    H3 7932   3.688   3.676   1.935 -0.5225  0.4902  0.2765
  534MPD2     N 7933   3.813   3.578   1.505 -0.0603 -0.1438  0.5602
  534MPD2    H5 7934   3.804   3.483   1.539  0.0973 -0.0678  0.8085
  534MPD2    N1 7935   3.765   4.028   1.647 -0.0965 -0.6503 -0.6043
  534MPD2    H7 7936   3.785   4.043   1.549  1.0684  2.6322  0.1399
  535TMC3    C1 7937   3.885   3.496   1.289 -0.0304 -0.0121 -0.0600
  535TMC3    C2 7938   3.849   3.374   1.324 -0.0685 -0.8191  0.3413
  535TMC3    C3 7939   3.872   3.278   1.233  0.1262  0.0278 -0.3794
  535TMC3    C4 7940   3.945   3.532   1.170  0.1616  0.1166 -0.9250
  535TMC3    C5 7941   3.983   3.429   1.095  0.7221 -0.3158  0.6980
  535TMC3    C6 7942   3.945   3.300   1.116  0.1586  0.0868 -0.0729
  535TMC3     C 7943   3.833   3.603   1.366 -0.0548  0.9931  0.5072
  535TMC3     O 7944   3.842   3.719   1.318 -0.0778 -0.1024  0.7121
  535TMC3     H 7945   3.771   3.356   1.396 -0.4605 -1.4808 -0.2485
  535TMC3    H1 7946   3.975   3.634   1.150  1.4296  0.7363  3.9460
  535TMC3    H2 7947   3.960   3.227   1.038 -1.6029 -0.8243  0.4397
  535TMC3    C7 7948   4.025   3.456   0.963  0.2137 -0.3338  1.0785
  535TMC3    C8 7949   3.781   3.163   1.235  0.7312  0.8333 -0.2436
  535TMC3    O1 7950   4.082   3.366   0.904 -0.2815 -0.1291 -0.0340
  535TMC3    O2 7951   3.685   3.183   1.309 -0.7983 -0.4971  0.3185
  536MPD2     C 7952   2.108   3.318  16.224 -0.0856 -0.1324  1.0489
  536MPD2    C1 7953   2.107   3.182  16.207 -0.0465 -0.8164 -0.6667
  536MPD2    C2 7954   2.041   3.121  16.096 -0.5270 -0.4383 -0.1037
  536MPD2    C3 7955   1.959   3.199  16.018  0.0484 -0.3342 -0.2357
  536MPD2    C4 7956   1.943   3.329  16.051  0.8856 -0.2664 -0.3972
  536MPD2    C5 7957   2.011   3.384  16.155  0.0538  0.3173  1.0003
  536MPD2     H 7958   2.047   3.014  16.079 -1.0830 -0.7528  1.7036
  536MPD2    H1 7959   1.865   3.391  16.008 -0.3256 -1.6449 -0.1786
  536MPD2    H2 7960   2.164   3.370  16.301  1.2940  0.4203 -0.3309
  536MPD2    H3 7961   1.993   3.489  16.178 -0.8527 -0.2489  2.9341
  536MPD2     N 7962   1.885   3.147  15.903 -0.2767 -0.7087  0.2421
  536MPD2    H5 7963   1.825   3.215  15.857  0.5027 -0.7652 -0.8467
  536MPD2    N1 7964   2.187   3.116  16.300 -0.1421 -0.2500 -0.0049
  536MPD2    H7 7965   2.251   3.169  16.359  0.1210 -1.9664  1.2462
  537TMC3    C1 7966   2.271   2.931  16.422  0.4430  0.1288  0.4483
  537TMC3    C2 7967   2.402   2.971  16.450 -0.6138  0.0556 -0.2437
  537TMC3    C3 7968   2.474   2.907  16.552 -0.2521 -0.2952  0.1223
  537TMC3    C4 7969   2.200   2.847  16.504 -0.0694 -0.4598 -0.4130
  537TMC3    C5 7970   2.273   2.806  16.618  0.3138  0.5864 -0.0042
  537TMC3    C6 7971   2.407   2.831  16.642 -0.3767  0.4453 -0.3913
  537TMC3     C 7972   2.194   2.980  16.309 -0.2828  0.1151 -0.3235
  537TMC3     O 7973   2.126   2.892  16.257 -0.0084 -0.4286  0.0847
  537TMC3     H 7974   2.458   3.039  16.386  0.0686 -0.9485 -0.7188
  537TMC3    H1 7975   2.097   2.818  16.485 -0.0769 -1.0348  0.4855
  537TMC3    H2 7976   2.457   2.789  16.729 -0.8852  1.6500  0.4870
  537TMC3    C7 7977   2.213   2.694  16.684  0.0757  0.7984 -0.2794
  537TMC3    C8 7978   2.626   2.909  16.570  0.0464 -0.2753 -0.4993
  537TMC3    O1 7979   2.090   2.699  16.668  0.5828  0.7416  0.4485
  537TMC3    O2 7980   2.669   2.831  16.656  0.1780 -0.0253 -0.0146
  538TMC3    C1 7981   4.138   0.874  10.610  0.2382  0.2944  0.0061
  538TMC3    C2 7982   4.264   0.868  10.554 -0.9260  0.1315  0.4942
  538TMC3    C3 7983   4.293   0.944  10.440  0.5373  0.2654 -0.3725
  538TMC3    C4 7984   4.040   0.942  10.542  0.2462 -0.1969 -0.1307
  538TMC3    C5 7985   4.074   1.010  10.426 -0.1130 -0.0083  0.8790
  538TMC3    C6 7986   4.199   1.015  10.377 -0.1978 -0.2276 -0.5125
  538TMC3     C 7987   4.151   0.904  10.752  0.6980  0.0557 -0.5147
  538TMC3     O 7988   4.052   0.944  10.808  0.1480 -0.3053 -0.8152
  538TMC3     H 7989   4.332   0.788  10.581  1.3498  1.3161 -1.7748
  538TMC3    H1 7990   3.947   0.945  10.597 -2.4656  0.4616 -4.7808
  538TMC3    H2 7991   4.225   1.083  10.296  2.6213 -0.0199  0.5704
  538TMC3    C7 7992   3.960   1.065  10.354 -1.0417  0.3656  0.0916
  538TMC3    C8 7993   4.434   0.975  10.430  0.5235  0.5417  0.0084
  538TMC3    O1 7994   3.858   1.041  10.416 -0.4475 -0.4021 -0.0807
  538TMC3    O2 7995   4.504   0.941  10.525 -0.4165  0.0996  0.8194
  539MPD2     C 7996   3.638   0.243  11.557  0.1004 -0.3463  0.1082
  539MPD2    C1 7997   3.719   0.261  11.449 -0.1842  1.2939  0.6564
  539MPD2    C2 7998   3.726   0.389  11.395 -0.2220 -0.0237  0.4814
  539MPD2    C3 7999   3.646   0.496  11.444 -0.2837 -0.5066  0.1522
  539MPD2    C4 8000   3.568   0.472  11.556  0.6352 -0.4169  0.8128
  539MPD2    C5 8001   3.570   0.347  11.609 -0.7774 -0.0597  0.8891
  539MPD2     H 8002   3.795   0.397  11.312 -1.0039 -3.2145 -0.4935
  539MPD2    H1 8003   3.503   0.547  11.600 -0.7270  0.6557 -3.0196
  539MPD2    H2 8004   3.639   0.150  11.611  0.2236 -0.5959 -0.3273
  539MPD2    H3 8005   3.524   0.334  11.707 -1.2150  2.8673  1.0706
  539MPD2     N 8006   3.650   0.633  11.403 -0.1219 -0.0816  0.2301
  539MPD2    H5 8007   3.587   0.696  11.453 -1.0416 -1.9182  1.3962
  539MPD2    N1 8008   3.794   0.160  11.379 -0.0794 -0.0314  0.1288
  539MPD2    H7 8009   3.861   0.195  11.312  0.5703  0.1612  0.8783
  540TMC3    C1 8010   3.705   0.834  11.286  0.6953 -0.1819 -0.3928
  540TMC3    C2 8011   3.680   0.865  11.157 -0.2337 -0.3221  0.4985
  540TMC3    C3 8012   3.579   0.955  11.138 -0.6612  0.4555  0.2634
  540TMC3    C4 8013   3.656   0.900  11.387  0.2053 -0.3831 -0.8657
  540TMC3    C5 8014   3.569   1.001  11.364 -0.7421  0.9978  0.1610
  540TMC3    C6 8015   3.523   1.029  11.241 -0.4471 -0.4102 -0.2952
  540TMC3     C 8016   3.736   0.691  11.318  0.4804  0.2594 -0.3257
  540TMC3     O 8017   3.826   0.645  11.245 -0.1385  0.1444  1.0223
  540TMC3     H 8018   3.731   0.806  11.082 -2.6554 -1.5829 -0.1494
  540TMC3    H1 8019   3.678   0.871  11.489 -0.4003 -1.1993 -0.9665
  540TMC3    H2 8020   3.441   1.100  11.236  0.6819  0.9350  0.3611
  540TMC3    C7 8021   3.497   1.057  11.486  0.2680  0.1198  0.6617
  540TMC3    C8 8022   3.531   0.983  11.005 -0.0985 -0.2256  0.2508
  540TMC3    O1 8023   3.374   1.076  11.484 -0.0215 -0.4452  0.0338
  540TMC3    O2 8024   3.494   1.094  10.981 -0.0598  0.2508  0.4198
  541MPD2     C 8025   1.498   1.845  12.917  0.9210  0.1654  0.4622
  541MPD2    C1 8026   1.580   1.772  12.837 -0.1555  0.2715  0.6309
  541MPD2    C2 8027   1.588   1.815  12.705  0.2046  0.6562 -1.2207
  541MPD2    C3 8028   1.522   1.926  12.664 -0.3520 -0.5064 -0.1266
  541MPD2    C4 8029   1.450   2.000  12.751  0.1453  0.0204 -0.3023
  541MPD2    C5 8030   1.430   1.962  12.874 -0.0431 -0.9251  0.6356
  541MPD2     H 8031   1.646   1.756  12.635 -2.4837 -2.9567 -0.3713
  541MPD2    H1 8032   1.411   2.094  12.713  0.9314  0.7498  0.6576
  541MPD2    H2 8033   1.481   1.814  13.019 -0.7136 -0.5755 -0.0357
  541MPD2    H3 8034   1.359   2.007  12.943 -0.7428  0.2341 -0.8565
  541MPD2     N 8035   1.507   1.966  12.527 -0.0981  0.2296  0.2704
  541MPD2    H5 8036   1.447   2.047  12.509  0.9302  0.7372 -0.8881
  541MPD2    N1 8037   1.642   1.656  12.893  0.2211  0.2906  0.4907
  541MPD2    H7 8038   1.612   1.621  12.983  2.2814 -0.2331  0.9552
  542TMC3    C1 8039   1.511   1.948  12.297  0.7328  0.2157  0.7964
  542TMC3    C2 8040   1.582   1.922  12.179  0.0409  0.0130 -0.0360
  542TMC3    C3 8041   1.512   1.947  12.064  0.2254  0.1339  0.5702
  542TMC3    C4 8042   1.388   2.007  12.301 -0.8037  0.1428 -0.5590
  542TMC3    C5 8043   1.330   2.037  12.180 -0.3359  0.3457 -0.0268
  542TMC3    C6 8044   1.389   2.003  12.065 -0.2280  0.4645  0.1246
  542TMC3     C 8045   1.572   1.908  12.422 -0.7904 -0.1642 -0.1320
  542TMC3     O 8046   1.655   1.820  12.417 -0.2346  0.5075 -0.0393
  542TMC3     H 8047   1.684   1.884  12.180 -0.0301 -0.1949 -0.9187
  542TMC3    H1 8048   1.329   2.006  12.391 -0.5197 -0.1948 -0.3748
  542TMC3    H2 8049   1.333   2.034  11.978 -3.2404  2.1394  2.6827
  542TMC3    C7 8050   1.213   2.111  12.169  0.1238  0.2651 -0.0610
  542TMC3    C8 8051   1.558   1.908  11.926 -0.1829 -0.0876  0.3585
  542TMC3    O1 8052   1.153   2.106  12.062 -0.1327 -0.2184  0.0916
  542TMC3    O2 8053   1.473   1.927  11.841  0.0430 -0.6155 -0.0564
  543TMC3    C1 8054   1.171   2.985  16.920  1.0738  0.3269  0.2054
  543TMC3    C2 8055   1.272   2.892  16.909 -0.0083  0.2248  0.1992
  543TMC3    C3 8056   1.258   2.781  16.997 -0.3772 -0.1955 -0.0720
  543TMC3    C4 8057   1.071   2.977  17.011  0.7340 -0.4952 -0.4476
  543TMC3    C5 8058   1.063   2.861  17.087  0.6364  0.4508  0.4265
  543TMC3    C6 8059   1.142   2.752  17.069 -0.0335 -0.4891  0.2079
  543TMC3     C 8060   1.180   3.092  16.825 -0.1837  0.1524 -0.3756
  543TMC3     O 8061   1.292   3.109  16.775 -0.1010  0.1515 -0.2932
  543TMC3     H 8062   1.344   2.896  16.828 -1.2583  0.4657 -0.8945
  543TMC3    H1 8063   1.002   3.059  17.019 -1.4061 -2.3690  0.3348
  543TMC3    H2 8064   1.144   2.670  17.141 -2.9021 -0.7799 -0.0460
  543TMC3    C7 8065   0.956   2.845  17.184 -0.4543 -0.7024  0.1878
  543TMC3    C8 8066   1.333   2.667  16.970 -0.5102 -0.4930  0.2363
  543TMC3    O1 8067   0.916   2.733  17.208 -0.2308 -0.0886 -0.5842
  543TMC3    O2 8068   1.284   2.560  17.002 -0.0751  0.3810  0.4855
  544MPD2     C 8069   1.683   2.402  16.711  0.2353  0.3763 -0.8471
  544MPD2    C1 8070   1.557   2.365  16.753  0.2248  0.6195 -0.4696
  544MPD2    C2 8071   1.481   2.467  16.813 -0.3041 -0.0243  0.2635
  544MPD2    C3 8072   1.537   2.587  16.847 -0.2692 -0.0921  0.0250
  544MPD2    C4 8073   1.667   2.613  16.810  0.2190  0.6830 -0.1246
  544MPD2    C5 8074   1.738   2.520  16.742  0.2915 -0.6870  0.2685
  544MPD2     H 8075   1.384   2.444  16.856 -0.9536  2.0170 -0.1231
  544MPD2    H1 8076   1.713   2.711  16.822  0.1846  0.8237 -1.1345
  544MPD2    H2 8077   1.748   2.328  16.667 -0.6546 -1.4272  0.8688
  544MPD2    H3 8078   1.842   2.542  16.719  0.8048 -1.7743  1.5399
  544MPD2     N 8079   1.457   2.691  16.914 -0.2488  0.2826  0.2446
  544MPD2    H5 8080   1.501   2.782  16.904 -1.1369  0.5715 -1.0142
  544MPD2    N1 8081   1.506   2.235  16.736  0.0379 -0.0448 -1.4114
  544MPD2    H7 8082   1.566   2.167  16.692  0.6933  0.0599 -0.6708
  545TMC3    C1 8083   1.338   2.065  16.748 -0.3280 -0.0326  0.2380
  545TMC3    C2 8084   1.210   2.027  16.721  0.9136  0.8827 -0.6566
  545TMC3    C3 8085   1.185   1.894  16.714 -0.2208 -0.3172 -0.5430
  545TMC3    C4 8086   1.433   1.974  16.795 -0.2726  0.2096  0.1416
  545TMC3    C5 8087   1.402   1.845  16.782 -0.1704  0.1868  0.1230
  545TMC3    C6 8088   1.282   1.801  16.741  0.3766 -0.6640  0.1509
  545TMC3     C 8089   1.370   2.203  16.749  0.4353 -0.5522 -0.7151
  545TMC3     O 8090   1.271   2.273  16.762 -0.6132  0.1323 -0.3937
  545TMC3     H 8091   1.129   2.094  16.696 -1.2579 -1.4879  0.0488
  545TMC3    H1 8092   1.532   2.004  16.828 -0.3542 -0.0143  0.5820
  545TMC3    H2 8093   1.267   1.697  16.718  0.4517 -0.1460 -2.3482
  545TMC3    C7 8094   1.501   1.742  16.824 -0.2724 -0.4322 -0.3252
  545TMC3    C8 8095   1.048   1.854  16.678 -0.3464  0.8995 -0.2577
  545TMC3    O1 8096   1.482   1.623  16.798 -0.1661  1.0439  0.5202
  545TMC3    O2 8097   0.980   1.930  16.616  0.0824  0.2440  0.0034
  546MPD2     C 8098   2.832   3.216  17.069 -0.0276  0.1162 -0.4240
  546MPD2    C1 8099   2.757   3.249  16.957 -0.5334  0.2101  0.1604
  546MPD2    C2 8100   2.806   3.355  16.871  0.0466  0.4383 -0.8379
  546MPD2    C3 8101   2.939   3.393  16.875  0.6181 -0.0521 -0.6214
  546MPD2    C4 8102   3.024   3.355  16.981  0.6022  0.5902  0.2561
  546MPD2    C5 8103   2.964   3.269  17.068  0.2439  0.4700 -0.0092
  546MPD2     H 8104   2.733   3.388  16.798 -1.3101 -1.5847 -0.3988
  546MPD2    H1 8105   3.130   3.376  16.984  0.4486  1.5119 -0.8259
  546MPD2    H2 8106   2.802   3.143  17.144  2.8830 -1.6754 -0.9989
  546MPD2    H3 8107   3.032   3.237  17.146  1.5143  1.0902 -0.8664
  546MPD2     N 8108   2.995   3.490  16.783  0.9748  0.2967 -0.6454
  546MPD2    H5 8109   3.081   3.533  16.815  0.6795  0.5067 -0.1483
  546MPD2    N1 8110   2.635   3.187  16.953 -0.5724  0.1198 -0.6190
  546MPD2    H7 8111   2.615   3.119  17.025 -0.6207  1.2635  0.4404
  547TMC3    C1 8112   2.414   3.148  16.869  0.3142  0.2746 -0.1188
  547TMC3    C2 8113   2.315   3.216  16.801 -0.2842 -0.5552  0.2185
  547TMC3    C3 8114   2.191   3.168  16.813 -0.3639 -0.4519 -0.5752
  547TMC3    C4 8115   2.376   3.047  16.958  0.0391 -0.3504 -0.5500
  547TMC3    C5 8116   2.240   3.004  16.962  0.7924  0.4060 -0.4203
  547TMC3    C6 8117   2.144   3.058  16.876 -0.5242  0.0282 -1.2148
  547TMC3     C 8118   2.553   3.195  16.847  0.1208 -0.4114  0.5383
  547TMC3     O 8119   2.567   3.253  16.741 -0.5220 -0.0748 -0.5347
  547TMC3     H 8120   2.337   3.302  16.739 -1.1815 -1.0755 -0.8288
  547TMC3    H1 8121   2.450   3.008  17.026 -0.3849 -0.1617  0.0187
  547TMC3    H2 8122   2.036   3.049  16.882 -0.4515 -0.5138 -0.6188
  547TMC3    C7 8123   2.201   2.912  17.069 -0.5302  0.2980  0.0058
  547TMC3    C8 8124   2.096   3.266  16.769  0.1166  0.4850 -0.3917
  547TMC3    O1 8125   2.279   2.877  17.159 -0.1322 -0.6492  0.1430
  547TMC3    O2 8126   1.996   3.230  16.711 -0.5553  0.3130 -0.5924
  548MPD2     C 8127   2.794   3.678  12.004  0.8398  0.0983 -0.3776
  548MPD2    C1 8128   2.774   3.583  12.110 -0.0499 -0.2623 -0.7487
  548MPD2    C2 8129   2.847   3.465  12.101 -0.0850  0.2105  0.0308
  548MPD2    C3 8130   2.911   3.432  11.985  0.3289 -0.2105  0.2853
  548MPD2    C4 8131   2.923   3.517  11.882 -0.3476 -0.1869  0.7352
  548MPD2    C5 8132   2.861   3.637  11.890  0.4212 -0.0285  0.0205
  548MPD2     H 8133   2.837   3.384  12.172  0.6693 -0.2150 -0.3437
  548MPD2    H1 8134   2.990   3.505  11.797 -0.5031 -1.5633  0.8152
  548MPD2    H2 8135   2.752   3.778  12.010  0.6076 -0.1706  2.2851
  548MPD2    H3 8136   2.867   3.707  11.807 -1.0493  1.6169  1.3036
  548MPD2     N 8137   2.956   3.292  11.978  0.2295 -0.4361  0.2514
  548MPD2    H5 8138   2.940   3.237  12.062 -0.6875 -2.6740 -1.3868
  548MPD2    N1 8139   2.699   3.632  12.226  0.3025 -0.2190 -0.0833
  548MPD2    H7 8140   2.646   3.715  12.203  0.2393  0.9168  4.1084
  549TMC3    C1 8141   2.565   3.626  12.416 -1.1019 -0.6198 -0.9306
  549TMC3    C2 8142   2.558   3.764  12.424 -0.0263  0.4119 -0.1546
  549TMC3    C3 8143   2.444   3.823  12.480  0.5625  0.8681  0.0821
  549TMC3    C4 8144   2.462   3.545  12.449 -0.3574 -0.2795 -0.2782
  549TMC3    C5 8145   2.358   3.604  12.514  0.8707  0.5562 -0.3712
  549TMC3    C6 8146   2.348   3.745  12.525 -0.2634 -0.2500  0.2565
  549TMC3     C 8147   2.667   3.562  12.339  0.3599  0.1721  0.9134
  549TMC3     O 8148   2.709   3.454  12.376 -0.1036 -0.2998 -0.7110
  549TMC3     H 8149   2.643   3.826  12.395  1.7349 -1.8247  0.2079
  549TMC3    H1 8150   2.474   3.440  12.425 -1.1266  0.0028 -1.9139
  549TMC3    H2 8151   2.256   3.795  12.554 -0.4614 -1.5033  1.7914
  549TMC3    C7 8152   2.229   3.545  12.482  0.3003 -0.0259 -0.1859
  549TMC3    C8 8153   2.409   3.960  12.451  0.4880  0.3890 -0.0519
  549TMC3    O1 8154   2.144   3.623  12.452 -0.4323  0.4784 -0.5760
  549TMC3    O2 8155   2.307   3.991  12.512  0.0705 -0.4864  0.2109
  550TMC3    C1 8156   0.672   1.583  12.444  0.0861 -0.1157  0.1616
  550TMC3    C2 8157   0.616   1.687  12.510  0.9766  0.8539  0.0315
  550TMC3    C3 8158   0.490   1.734  12.477 -0.4874 -0.6295  0.0131
  550TMC3    C4 8159   0.597   1.527  12.345  0.3057  0.0627  0.3931
  550TMC3    C5 8160   0.479   1.578  12.300 -0.9099  0.3612 -0.0958
  550TMC3    C6 8161   0.428   1.693  12.362 -0.0372  0.4198 -0.2188
  550TMC3     C 8162   0.815   1.600  12.428  0.2256  0.1121  0.6675
  550TMC3     O 8163   0.869   1.682  12.499 -0.1177  0.1801 -0.8831
  550TMC3     H 8164   0.678   1.735  12.586  2.3858 -2.7705  1.1600
  550TMC3    H1 8165   0.630   1.426  12.323 -0.2499 -0.2838  1.1492
  550TMC3    H2 8166   0.337   1.740  12.328 -0.7674  1.3290  3.0545
  550TMC3    C7 8167   0.453   1.577  12.161 -0.3328 -0.5696 -1.0271
  550TMC3    C8 8168   0.450   1.866  12.525  0.2819 -0.2284  0.3332
  550TMC3    O1 8169   0.392   1.669  12.108 -0.0682 -0.2023 -0.0178
  550TMC3    O2 8170   0.421   1.938  12.431  0.1663  0.0183 -0.3073
  551TMC3    C1 8171   3.632   4.379  13.001 -0.5192  0.5130 -0.5568
  551TMC3    C2 8172   3.748   4.411  12.929  0.6042 -0.4449 -0.2698
  551TMC3    C3 8173   3.852   4.464  13.000  0.2413 -0.1380  0.2321
  551TMC3    C4 8174   3.617   4.400  13.137  0.1201  0.0576  0.0625
  551TMC3    C5 8175   3.732   4.448  13.197  0.5544 -0.7904  0.7206
  551TMC3    C6 8176   3.845   4.488  13.137 -0.0516  0.2322 -0.1700
  551TMC3     C 8177   3.538   4.290  12.941 -0.3845 -0.3203 -0.1042
  551TMC3     O 8178   3.572   4.236  12.837  0.3302 -0.1381  0.0304
  551TMC3     H 8179   3.751   4.385  12.824  1.1262 -2.8066  0.3314
  551TMC3    H1 8180   3.535   4.366  13.200 -0.5057  1.4726  0.0118
  551TMC3    H2 8181   3.933   4.522  13.191 -0.5093 -1.9251  1.9621
  551TMC3    C7 8182   3.714   4.501  13.332  0.7091  0.1841 -0.0163
  551TMC3    C8 8183   3.969   4.493  12.922  0.6894 -0.5743 -0.1029
  551TMC3    O1 8184   3.656   4.432  13.410  0.7019 -0.6098  0.2088
  551TMC3    O2 8185   4.081   4.488  12.971 -0.1672  0.2846  0.3291
  552MPD2     C 8186   0.739   1.627  13.621  0.3746 -0.2047 -0.5620
  552MPD2    C1 8187   0.711   1.544  13.726  0.9482  1.0906  1.0069
  552MPD2    C2 8188   0.809   1.515  13.816 -0.1245 -0.8667 -0.2224
  552MPD2    C3 8189   0.935   1.568  13.795 -0.3010 -0.8003 -0.2580
  552MPD2    C4 8190   0.958   1.635  13.684  0.7847 -1.1228  0.0076
  552MPD2    C5 8191   0.862   1.664  13.587 -0.7023 -0.1894 -0.4581
  552MPD2     H 8192   0.777   1.454  13.900 -0.9966  3.0544  2.2877
  552MPD2    H1 8193   1.058   1.667  13.656 -0.7637  2.6366 -1.2981
  552MPD2    H2 8194   0.661   1.650  13.549 -0.4637  0.9929  0.7289
  552MPD2    H3 8195   0.888   1.717  13.497  0.4270  0.7864  0.4405
  552MPD2     N 8196   1.046   1.548  13.881 -0.4410 -0.4057 -0.7267
  552MPD2    H5 8197   1.132   1.596  13.857 -0.8157  0.9753  0.6908
  552MPD2    N1 8198   0.581   1.482  13.744  0.2614 -0.2751  0.2396
  552MPD2    H7 8199   0.573   1.414  13.819 -2.0885 -1.3165 -0.9587
  553TMC3    C1 8200   0.370   1.404  13.677 -0.6948 -0.3215 -0.0189
  553TMC3    C2 8201   0.307   1.387  13.555 -0.7608 -0.1767  0.7988
  553TMC3    C3 8202   0.262   1.256  13.516 -0.2724  0.0055 -0.0020
  553TMC3    C4 8203   0.382   1.295  13.764  0.1849 -0.4538 -0.0308
  553TMC3    C5 8204   0.334   1.179  13.720  1.3984  0.3304  0.1809
  553TMC3    C6 8205   0.268   1.159  13.608  0.0944  0.1360  0.0016
  553TMC3     C 8206   0.470   1.510  13.670  0.0769  0.7577 -0.2082
  553TMC3     O 8207   0.453   1.591  13.582 -0.0124 -0.2674 -0.3387
  553TMC3     H 8208   0.292   1.468  13.483  1.1725 -0.9101 -0.4262
  553TMC3    H1 8209   0.450   1.308  13.847 -1.1139 -0.1000  0.9781
  553TMC3    H2 8210   0.235   1.057  13.593 -0.9226  0.6656 -1.3933
  553TMC3    C7 8211   0.374   1.061  13.804 -0.1108  0.4004  0.6157
  553TMC3    C8 8212   0.311   1.215  13.388 -0.2226  0.3042 -0.5751
  553TMC3    O1 8213   0.286   0.997  13.860  0.2872 -0.0273 -0.3427
  553TMC3    O2 8214   0.369   1.294  13.318 -0.4497  0.2317  0.1870
  554TMC3    C1 8215   2.953   0.612  11.161  0.1946  0.4501  0.1045
  554TMC3    C2 8216   2.957   0.490  11.098 -0.8921  0.2328  0.3563
  554TMC3    C3 8217   3.052   0.471  10.999  0.0383  0.0090  0.1284
  554TMC3    C4 8218   3.031   0.721  11.139  0.3374  0.1842 -0.6976
  554TMC3    C5 8219   3.128   0.696  11.044  0.4470 -0.0425  0.6080
  554TMC3    C6 8220   3.133   0.579  10.973 -0.8026 -0.0369 -0.3072
  554TMC3     C 8221   2.905   0.613  11.297  0.2450 -0.2637 -0.2395
  554TMC3     O 8222   2.884   0.717  11.356 -0.5253 -1.1858 -0.5978
  554TMC3     H 8223   2.867   0.430  11.098 -1.5281  1.1939 -0.7805
  554TMC3    H1 8224   3.016   0.812  11.195 -0.2337 -0.1378 -0.3199
  554TMC3    H2 8225   3.201   0.571  10.888 -1.1611  1.2831 -0.7120
  554TMC3    C7 8226   3.159   0.814  10.969  0.7602  0.1788  0.7017
  554TMC3    C8 8227   3.033   0.376  10.885  0.8169  0.7764 -0.0365
  554TMC3    O1 8228   3.156   0.805  10.846  0.0729 -0.0687  0.0781
  554TMC3    O2 8229   3.097   0.401  10.787  0.3213 -0.3861  0.2399
  555TMC3    C1 8230   1.610   0.418  14.977 -0.7116 -0.0470 -0.0184
  555TMC3    C2 8231   1.587   0.474  15.095 -0.3029  0.4602  0.1645
  555TMC3    C3 8232   1.556   0.399  15.201 -0.0607 -0.0572 -0.7595
  555TMC3    C4 8233   1.601   0.285  14.953  0.5173 -0.1913 -0.2199
  555TMC3    C5 8234   1.570   0.208  15.066  0.1341 -0.1892 -0.5524
  555TMC3    C6 8235   1.550   0.259  15.190 -0.6366  0.1565 -0.0770
  555TMC3     C 8236   1.600   0.511  14.864 -0.2984 -0.6432 -0.3617
  555TMC3     O 8237   1.626   0.626  14.893 -0.1588  0.1760  0.1730
  555TMC3     H 8238   1.581   0.581  15.112 -2.5593  0.1651  1.2526
  555TMC3    H1 8239   1.614   0.250  14.852  1.6919  1.0156 -0.4935
  555TMC3    H2 8240   1.532   0.205  15.282  0.0118  0.6882  0.3653
  555TMC3    C7 8241   1.551   0.065  15.053 -0.6772 -0.4411  0.5531
  555TMC3    C8 8242   1.506   0.464  15.320  0.0346  0.0541 -0.0882
  555TMC3    O1 8243   1.498   0.028  15.153  0.7965  0.3479 -0.3391
  555TMC3    O2 8244   1.447   0.573  15.302  0.4299  0.0434 -0.3681
  556MPD2     C 8245   4.522   2.015  10.363  0.0817  0.0728 -0.3054
  556MPD2    C1 8246   4.532   1.886  10.401 -0.0296 -0.0245  0.7859
  556MPD2    C2 8247   4.546   1.791  10.299 -0.4483 -0.9216 -0.0755
  556MPD2    C3 8248   4.518   1.830  10.166 -0.6217  0.1707 -0.4290
  556MPD2    C4 8249   4.490   1.960  10.136 -0.1186 -0.1433  0.1863
  556MPD2    C5 8250   4.491   2.051  10.230 -0.4851 -0.3135  0.2867
  556MPD2     H 8251   4.564   1.689  10.330  2.3649 -0.7558 -1.1561
  556MPD2    H1 8252   4.480   1.994  10.033 -3.3107  0.2840  0.6268
  556MPD2    H2 8253   4.538   2.098  10.431 -1.2585  1.3100 -1.5011
  556MPD2    H3 8254   4.485   2.153  10.194 -0.1076  0.1023  1.4146
  556MPD2     N 8255   4.525   1.734  10.065 -0.0382 -0.4091  0.0804
  556MPD2    H5 8256   4.572   1.645  10.081  0.7137  0.0571  0.5030
  556MPD2    N1 8257   4.546   1.849  10.539 -0.3183  0.0154 -0.6838
  556MPD2    H7 8258   4.577   1.753  10.557 -0.3406  0.4404  1.6214
  557TMC3    C1 8259   4.526   1.633   9.853  0.2574  0.8566  0.1912
  557TMC3    C2 8260   4.435   1.614   9.750  0.4857  0.1532 -0.0907
  557TMC3    C3 8261   4.439   1.493   9.685 -0.1882  0.2061 -0.1419
  557TMC3    C4 8262   4.613   1.536   9.898 -0.3038 -0.4506  0.6016
  557TMC3    C5 8263   4.602   1.416   9.836  0.0035  0.1577 -0.2936
  557TMC3    C6 8264   4.517   1.392   9.732 -0.1208 -0.9866  0.4215
  557TMC3     C 8265   4.497   1.756   9.930  0.0477 -0.0790 -0.5797
  557TMC3     O 8266   4.441   1.852   9.874 -0.1627  0.3309 -0.0798
  557TMC3     H 8267   4.355   1.685   9.735 -0.1553 -0.7232 -0.8236
  557TMC3    H1 8268   4.671   1.543   9.989 -0.3094 -1.6786  0.7024
  557TMC3    H2 8269   4.510   1.298   9.678 -0.5161  0.3333 -1.8261
  557TMC3    C7 8270   4.635   1.297   9.915  0.5167 -0.6738  0.0796
  557TMC3    C8 8271   4.351   1.477   9.577  0.5480 -0.1068  0.4788
  557TMC3    O1 8272   4.586   1.193   9.872 -0.5066 -0.6539 -0.3511
  557TMC3    O2 8273   4.258   1.554   9.563  0.4239  0.4863 -0.0047
  558TMC3    C1 8274   2.602   4.128  10.084 -0.4259 -0.0616  0.2615
  558TMC3    C2 8275   2.480   4.067  10.103  0.2441  0.5689  0.6394
  558TMC3    C3 8276   2.386   4.093  10.011  0.7393  0.4599  0.1916
  558TMC3    C4 8277   2.639   4.180   9.960 -0.4410 -1.1677  0.4176
  558TMC3    C5 8278   2.549   4.175   9.863  0.4518 -0.0810  0.3402
  558TMC3    C6 8279   2.421   4.133   9.885  0.6785 -0.2583  0.4357
  558TMC3     C 8280   2.697   4.132  10.189  0.6885  0.5906 -0.4388
  558TMC3     O 8281   2.818   4.139  10.157  0.1400  0.0578 -0.8792
  558TMC3     H 8282   2.457   4.006  10.190 -0.3739 -0.2162 -0.0803
  558TMC3    H1 8283   2.739   4.216   9.939 -1.5405  1.2578 -0.7024
  558TMC3    H2 8284   2.342   4.130   9.810  0.8682  3.7492  0.0671
  558TMC3    C7 8285   2.592   4.214   9.733 -0.0297  0.1967  0.3106
  558TMC3    C8 8286   2.259   4.026  10.028  0.6156  0.1596 -0.5313
  558TMC3    O1 8287   2.690   4.289   9.731 -0.4085  0.2116  0.1167
  558TMC3    O2 8288   2.204   3.983   9.930  0.9279 -0.2878 -0.4707
  559MPD2     C 8289   2.648   4.505  10.073 -0.3519  0.5131  0.8310
  559MPD2    C1 8290   2.550   4.485  10.166 -0.0209 -0.4795  0.1819
  559MPD2    C2 8291   2.590   4.488  10.298 -0.2040 -0.4182  0.3579
  559MPD2    C3 8292   2.717   4.518  10.334  0.8886 -0.3838 -0.1977
  559MPD2    C4 8293   2.817   4.518  10.241  0.1950  0.6466 -0.1642
  559MPD2    C5 8294   2.778   4.517  10.111 -0.0230  0.1681 -0.3945
  559MPD2     H 8295   2.517   4.461  10.373 -1.4329  1.2815 -0.2340
  559MPD2    H1 8296   2.924   4.525  10.258  0.4889  2.9205 -3.0038
  559MPD2    H2 8297   2.635   4.480   9.968  0.2090  0.5611  0.7540
  559MPD2    H3 8298   2.851   4.515  10.031  0.5404 -1.3761  0.1567
  559MPD2     N 8299   2.749   4.528  10.471  0.5059  0.1117  0.1891
  559MPD2    H5 8300   2.671   4.547  10.533  0.2394  0.0614 -0.1327
  559MPD2    N1 8301   2.414   4.476  10.139 -0.4832  0.1034  0.1889
  559MPD2    H7 8302   2.348   4.454  10.212  0.0424  0.4835  0.7814
  560TMC3    C1 8303   2.867   4.572  10.661  0.3770  0.2464 -1.0120
  560TMC3    C2 8304   2.756   4.533  10.729 -0.4006  0.2456  0.0877
  560TMC3    C3 8305   2.780   4.529  10.864  0.1057 -0.0401  0.5034
  560TMC3    C4 8306   2.979   4.618  10.724 -0.0721 -0.3781  0.7404
  560TMC3    C5 8307   2.989   4.618  10.857 -0.1164 -0.0488 -0.3970
  560TMC3    C6 8308   2.884   4.584  10.935  0.3185 -0.1983 -0.1941
  560TMC3     C 8309   2.876   4.547  10.521 -0.5962  0.0559 -0.0959
  560TMC3     O 8310   2.986   4.558  10.466 -0.6595 -0.7024 -0.3045
  560TMC3     H 8311   2.687   4.465  10.680 -0.2319  0.1555 -0.0263
  560TMC3    H1 8312   3.072   4.615  10.668 -0.6146  3.5905 -0.4082
  560TMC3    H2 8313   2.882   4.588  11.044  0.0637  1.4972 -0.2578
  560TMC3    C7 8314   3.117   4.638  10.926  0.3235 -0.0329 -0.4276
  560TMC3    C8 8315   2.692   4.432  10.930  0.0100  0.4617  0.2146
  560TMC3    O1 8316   3.123   4.577  11.034  0.0365  0.3623  0.5608
  560TMC3    O2 8317   2.579   4.419  10.884 -0.5247  0.6637 -0.4714
  561TMC3    C1 8318   0.588   3.556  11.104  0.2540 -0.5860 -0.7140
  561TMC3    C2 8319   0.511   3.486  11.193  0.8414  0.3517 -0.5957
  561TMC3    C3 8320   0.470   3.553  11.307  0.2390 -0.3539  1.1607
  561TMC3    C4 8321   0.618   3.690  11.133  0.0501 -0.3418 -0.3650
  561TMC3    C5 8322   0.581   3.749  11.252 -0.1288  0.4316  0.1875
  561TMC3    C6 8323   0.495   3.686  11.341  0.1680 -0.2904  0.3698
  561TMC3     C 8324   0.590   3.506  10.962 -0.5120 -0.2766 -0.1896
  561TMC3     O 8325   0.533   3.400  10.940 -0.2047 -0.4605  0.0962
  561TMC3     H 8326   0.489   3.381  11.178 -0.0402  0.3626  0.5942
  561TMC3    H1 8327   0.681   3.740  11.060 -0.4520 -1.7621 -1.7662
  561TMC3    H2 8328   0.467   3.731  11.435  3.4459 -0.0046  1.1844
  561TMC3    C7 8329   0.593   3.892  11.271 -0.1439 -0.4443 -1.1169
  561TMC3    C8 8330   0.423   3.462  11.409 -0.0740  0.0813  0.2749
  561TMC3    O1 8331   0.505   3.944  11.341  0.1853 -0.7681  0.2684
  561TMC3    O2 8332   0.484   3.356  11.432  0.4433  0.0684  0.4211
  562TMC3    C1 8333   1.225   0.652  16.008  0.0435  0.0274  0.5254
  562TMC3    C2 8334   1.142   0.719  15.920 -0.4238  0.0744 -0.5344
  562TMC3    C3 8335   1.121   0.658  15.803  0.3795  0.1746 -0.0840
  562TMC3    C4 8336   1.289   0.541  15.982  0.4771  0.1083 -0.0367
  562TMC3    C5 8337   1.261   0.484  15.865  0.7345  0.3637 -0.6411
  562TMC3    C6 8338   1.180   0.542  15.769  0.3703 -0.4939 -0.2665
  562TMC3     C 8339   1.264   0.734  16.133  0.4414  0.2870 -0.0466
  562TMC3     O 8340   1.212   0.847  16.144 -0.1370  0.0897 -0.3807
  562TMC3     H 8341   1.086   0.811  15.934  1.4465  1.1630 -0.2901
  562TMC3    H1 8342   1.367   0.493  16.040 -0.8692 -1.7339  0.2626
  562TMC3    H2 8343   1.145   0.489  15.680 -0.6647 -1.2411  0.5842
  562TMC3    C7 8344   1.311   0.352  15.832 -0.7505 -0.1402 -0.0146
  562TMC3    C8 8345   0.992   0.690  15.738 -0.5850 -1.0801  0.2284
  562TMC3    O1 8346   1.287   0.308  15.716  0.1836  0.7155  0.0458
  562TMC3    O2 8347   0.905   0.728  15.809  0.4618 -0.3633  0.1641
  563MPD2     C 8348   3.110   1.667  15.141  0.3862  0.3491 -0.6545
  563MPD2    C1 8349   3.149   1.774  15.216 -0.1447  0.6315  0.5692
  563MPD2    C2 8350   3.287   1.788  15.240  0.3830  0.0462  0.3436
  563MPD2    C3 8351   3.381   1.698  15.193  1.0153  0.5420  0.0520
  563MPD2    C4 8352   3.345   1.605  15.104 -0.2349 -0.1287 -0.1882
  563MPD2    C5 8353   3.209   1.592  15.080  0.0219 -0.5292 -0.3443
  563MPD2     H 8354   3.323   1.870  15.301 -0.3839  0.5490  0.1256
  563MPD2    H1 8355   3.415   1.529  15.071  0.9904  0.4153  1.1512
  563MPD2    H2 8356   3.006   1.644  15.119  1.0216 -1.0560 -2.2214
  563MPD2    H3 8357   3.189   1.519  15.002 -1.3192 -0.4254 -0.0944
  563MPD2     N 8358   3.508   1.718  15.235  0.2272  0.5605 -0.1535
  563MPD2    H5 8359   3.525   1.777  15.316  2.6501 -1.4535  0.8070
  563MPD2    N1 8360   3.073   1.866  15.288  0.0363 -0.6807 -0.2137
  563MPD2    H7 8361   3.121   1.942  15.336 -0.5902 -0.2924 -0.1964
  564TMC3    C1 8362   2.905   1.892  15.451  0.6116 -0.4686 -0.5471
  564TMC3    C2 8363   2.784   1.838  15.490 -0.2249  0.2276  0.2038
  564TMC3    C3 8364   2.767   1.780  15.616 -0.3752  0.2118  0.4432
  564TMC3    C4 8365   3.008   1.896  15.538  0.3122  0.3361  0.5965
  564TMC3    C5 8366   2.993   1.833  15.657  0.2429 -0.1700  0.4716
  564TMC3    C6 8367   2.874   1.777  15.692 -0.4313  0.5973  0.3948
  564TMC3     C 8368   2.940   1.841  15.325 -0.2577 -0.4147  0.5900
  564TMC3     O 8369   2.869   1.750  15.294 -0.0357 -0.0426  0.2630
  564TMC3     H 8370   2.696   1.856  15.429 -0.1125 -2.3897 -0.7524
  564TMC3    H1 8371   3.103   1.941  15.512 -0.1655  0.6782 -0.5184
  564TMC3    H2 8372   2.869   1.735  15.792 -0.5667  1.2608  0.6646
  564TMC3    C7 8373   3.107   1.750  15.693  0.1934  0.4017 -0.5983
  564TMC3    C8 8374   2.714   1.645  15.610 -0.4673 -0.4516  0.5091
  564TMC3    O1 8375   3.126   1.728  15.813 -0.0391 -0.9103  0.0166
  564TMC3    O2 8376   2.694   1.598  15.720  0.1743 -0.3164  0.3561
  565TMC3    C1 8377   4.212   3.362  10.217  0.7205  0.0311  0.5789
  565TMC3    C2 8378   4.264   3.277  10.310 -0.1175  0.5346  0.2341
  565TMC3    C3 8379   4.185   3.170  10.342  0.9129  0.1647 -0.5275
  565TMC3    C4 8380   4.083   3.347  10.168  0.8580 -0.1174  0.9184
  565TMC3    C5 8381   4.004   3.247  10.215  1.0671  0.2067 -0.5596
  565TMC3    C6 8382   4.056   3.147  10.297  0.5342 -0.5770  0.4670
  565TMC3     C 8383   4.292   3.427  10.117 -0.8641 -0.1525 -0.7936
  565TMC3     O 8384   4.236   3.477  10.018  0.1921  0.1979  0.2254
  565TMC3     H 8385   4.359   3.282  10.362  1.3416 -0.8826 -2.2905
  565TMC3    H1 8386   4.040   3.405  10.087  0.4414  0.7584  1.7724
  565TMC3    H2 8387   3.993   3.066  10.332  1.8544 -0.7822  2.3884
  565TMC3    C7 8388   3.879   3.224  10.147  0.2638  0.2446  0.6199
  565TMC3    C8 8389   4.233   3.080  10.447  0.2525  0.3156  0.8297
  565TMC3    O1 8390   3.839   3.328  10.092 -0.0481 -0.6642 -0.2304
  565TMC3    O2 8391   4.321   3.126  10.523 -0.1699  0.2362 -0.4516
  566MPD2     C 8392   0.842   4.502  13.716 -0.1706 -0.6347  0.1924
  566MPD2    C1 8393   0.945   4.590  13.677  0.8785  0.2981  0.5396
  566MPD2    C2 8394   0.949   4.628  13.549  0.3376  0.2386 -0.1539
  566MPD2    C3 8395   0.860   4.575  13.457 -0.1511  0.3702 -0.1773
  566MPD2    C4 8396   0.750   4.499  13.496  0.2647 -0.1252 -0.5245
  566MPD2    C5 8397   0.745   4.458  13.625 -0.0536 -0.5785 -0.3085
  566MPD2     H 8398   1.034   4.681  13.509  1.2305 -0.0012  1.4191
  566MPD2    H1 8399   0.677   4.460  13.426  0.3643 -2.9114  0.9284
  566MPD2    H2 8400   0.839   4.469  13.819 -1.9056  0.0066  0.3458
  566MPD2    H3 8401   0.673   4.384  13.658 -1.5972  0.2314 -1.8467
  566MPD2     N 8402   0.880   4.606  13.316 -0.4949 -1.0129 -0.4236
  566MPD2    H5 8403   0.956   4.670  13.296 -0.7811 -0.1619  1.2552
  566MPD2    N1 8404   1.042   4.631  13.773 -0.1206 -0.3913  0.2016
  566MPD2    H7 8405   1.037   4.587  13.865  1.1077 -0.3928  0.2771
  567TMC3    C1 8406   1.212   0.033  13.880  1.2247 -0.2641 -0.1767
  567TMC3    C2 8407   1.330   0.104  13.870  0.4166  0.0426  0.0041
  567TMC3    C3 8408   1.397   0.136  13.980  0.4343  0.1975  0.0534
  567TMC3    C4 8409   1.155   0.002  14.002  0.2101 -0.0083  0.7557
  567TMC3    C5 8410   1.226   0.038  14.109  0.6763 -0.0644 -0.9068
  567TMC3    C6 8411   1.350   0.099  14.104  0.1330  0.0410  0.1592
  567TMC3     C 8412   1.140   0.002  13.755 -0.5961  0.1163 -0.0839
  567TMC3     O 8413   1.144   0.085  13.665 -0.0909 -0.1781 -0.3583
  567TMC3     H 8414   1.356   0.137  13.771 -1.9150  1.6319 -0.0755
  567TMC3    H1 8415   1.053   4.694  14.018  0.1755 -0.4277 -0.3127
  567TMC3    H2 8416   1.395   0.142  14.194 -4.4173  1.1308  1.8875
  567TMC3    C7 8417   1.160   0.014  14.237 -0.7915 -0.0951  0.0488
  567TMC3    C8 8418   1.518   0.224  13.981  0.3901 -0.3001 -1.0384
  567TMC3    O1 8419   1.040   0.024  14.247 -0.3881 -0.4998  0.3726
  567TMC3    O2 8420   1.545   0.285  14.085 -0.6045  0.2694 -0.2931
  568MPD2     C 8421   3.163   0.277  16.136 -0.1470 -0.5671  0.5640
  568MPD2    C1 8422   3.162   0.365  16.245  0.6366  0.4437  0.0233
  568MPD2    C2 8423   3.158   0.500  16.223 -0.3034 -0.2201 -0.0420
  568MPD2    C3 8424   3.157   0.549  16.102  0.5732 -0.5640 -0.8185
  568MPD2    C4 8425   3.164   0.466  15.995  0.0712 -0.5092 -0.0910
  568MPD2    C5 8426   3.162   0.331  16.012  0.7041  0.5622 -0.5103
  568MPD2     H 8427   3.150   0.567  16.308 -0.2819  1.3314 -1.2873
  568MPD2    H1 8428   3.165   0.497  15.891  2.8619 -0.0289  0.0873
  568MPD2    H2 8429   3.164   0.168  16.141  2.5288 -0.5737 -0.3738
  568MPD2    H3 8430   3.164   0.268  15.923  0.3647 -0.8527  0.4809
  568MPD2     N 8431   3.160   0.694  16.094 -0.0791 -0.1294 -0.3774
  568MPD2    H5 8432   3.160   0.744  16.182  0.4652  1.6073 -1.3486
  568MPD2    N1 8433   3.161   0.311  16.375  0.0999 -0.3281 -0.1323
  568MPD2    H7 8434   3.208   0.222  16.383 -1.0394 -1.0010 -1.0474
  569TMC3    C1 8435   3.145   0.907  15.988  0.0060 -0.4690 -0.9483
  569TMC3    C2 8436   3.072   0.959  16.084  0.1008  0.2527 -0.3107
  569TMC3    C3 8437   3.034   1.084  16.073  0.1025 -0.2032 -0.2282
  569TMC3    C4 8438   3.184   0.967  15.875 -1.1585  0.5130  0.3120
  569TMC3    C5 8439   3.145   1.096  15.866  0.1602 -0.6456 -0.0136
  569TMC3    C6 8440   3.079   1.162  15.974  0.2177 -0.5760 -1.2708
  569TMC3     C 8441   3.153   0.763  15.975  0.2574 -0.3933 -0.1469
  569TMC3     O 8442   3.141   0.712  15.866  0.4245 -0.0164 -0.3940
  569TMC3     H 8443   3.044   0.904  16.173  1.5891  0.3029  0.1829
  569TMC3    H1 8444   3.230   0.912  15.794 -0.2996  0.6068  0.7364
  569TMC3    H2 8445   3.048   1.266  15.967  0.2697 -0.4322  0.6215
  569TMC3    C7 8446   3.151   1.162  15.737 -0.3530 -0.3288 -0.3110
  569TMC3    C8 8447   2.976   1.148  16.188  0.1533 -0.7365  0.3289
  569TMC3    O1 8448   3.204   1.094  15.651 -0.1242  0.6560 -0.8036
  569TMC3    O2 8449   2.883   1.100  16.249  0.8457  0.4571  0.1075
  570TMC3    C1 8450   2.599   4.087  16.036  0.5662 -0.2239  0.4053
  570TMC3    C2 8451   2.686   4.071  15.929 -0.5178 -0.1529 -0.4499
  570TMC3    C3 8452   2.723   4.192  15.870  0.2735 -0.0021  0.1491
  570TMC3    C4 8453   2.557   4.207  16.080  0.0768 -0.2177  0.0065
  570TMC3    C5 8454   2.588   4.318  16.017 -0.0625  0.3335 -0.7177
  570TMC3    C6 8455   2.665   4.313  15.901  0.0655 -0.5902 -0.4443
  570TMC3     C 8456   2.594   3.978  16.125  0.1902  0.1849  0.0986
  570TMC3     O 8457   2.592   3.863  16.087  0.5590  0.0556  0.8562
  570TMC3     H 8458   2.722   3.973  15.901 -0.3317 -0.0423 -0.5985
  570TMC3    H1 8459   2.492   4.219  16.166  0.4875  2.1223  0.0127
  570TMC3    H2 8460   2.706   4.403  15.856  1.2364 -2.2544 -2.7539
  570TMC3    C7 8461   2.571   4.445  16.081 -0.0278 -0.3999 -0.5123
  570TMC3    C8 8462   2.837   4.197  15.780 -0.3102  0.2760  0.0347
  570TMC3    O1 8463   2.544   4.434  16.203 -0.2291  0.0630  0.5643
  570TMC3    O2 8464   2.851   4.302  15.719  0.0994 -0.4011  0.3539
  571MPD2     C 8465   0.577   0.262  17.465 -0.6024 -0.3279  0.0856
  571MPD2    C1 8466   0.590   0.315  17.340 -0.5909  0.0039 -0.4704
  571MPD2    C2 8467   0.547   0.441  17.312  0.3318  0.5011 -0.0324
  571MPD2    C3 8468   0.493   0.520  17.418 -0.7465 -0.4312  0.0623
  571MPD2    C4 8469   0.479   0.472  17.545  0.6248 -0.3807  0.1195
  571MPD2    C5 8470   0.524   0.344  17.565  0.0851  0.0352 -0.0749
  571MPD2     H 8471   0.563   0.488  17.215  0.5138 -1.3337 -0.8845
  571MPD2    H1 8472   0.442   0.530  17.629 -1.8313 -0.6161 -0.8088
  571MPD2    H2 8473   0.609   0.163  17.497  1.6672  0.7058  0.9623
  571MPD2    H3 8474   0.525   0.313  17.669 -1.8041  0.0322 -0.0693
  571MPD2     N 8475   0.443   0.647  17.389  0.0790  0.2778  0.2534
  571MPD2    H5 8476   0.383   0.684  17.462  1.9159  2.2507  0.7508
  571MPD2    N1 8477   0.670   0.241  17.250  0.3341  0.1041 -0.0832
  571MPD2    H7 8478   0.686   0.145  17.278  1.4418  0.1287 -0.6508
  572TMC3    C1 8479   0.381   0.849  17.292 -0.7369  0.1108 -0.1920
  572TMC3    C2 8480   0.264   0.852  17.357 -0.1340 -0.4473  0.5550
  572TMC3    C3 8481   0.202   0.966  17.369 -0.4692  0.6530  0.3113
  572TMC3    C4 8482   0.433   0.961  17.242 -0.3256  0.1800  0.0381
  572TMC3    C5 8483   0.364   1.079  17.252 -0.2938 -0.9632  0.3513
  572TMC3    C6 8484   0.246   1.084  17.326  0.6460 -0.1427 -0.4487
  572TMC3     C 8485   0.455   0.722  17.282  0.1531  0.1679 -0.2591
  572TMC3     O 8486   0.544   0.715  17.198  0.8549  0.0621 -0.3230
  572TMC3     H 8487   0.217   0.759  17.386  0.9454 -0.5426  2.0375
  572TMC3    H1 8488   0.525   0.955  17.185 -1.0116  2.2738 -1.2766
  572TMC3    H2 8489   0.181   1.169  17.342  0.8870 -0.2916  1.2542
  572TMC3    C7 8490   0.421   1.199  17.211  0.4628 -0.2030  0.1471
  572TMC3    C8 8491   0.058   0.957  17.367  0.6709 -0.3716 -0.2819
  572TMC3    O1 8492   0.346   1.292  17.192  0.2284 -0.1767  0.0827
  572TMC3    O2 8493   0.004   0.919  17.265 -0.1797 -0.1627  0.3611
  573MPD2     C 8494   1.667   2.229   0.328 -0.8013  0.0322 -0.0522
  573MPD2    C1 8495   1.786   2.182   0.370  0.3994  0.0303  0.5484
  573MPD2    C2 8496   1.865   2.114   0.281  0.2584  0.0814 -0.4833
  573MPD2    C3 8497   1.822   2.088   0.151  0.3160  0.2827 -0.3787
  573MPD2    C4 8498   1.698   2.141   0.106 -0.6826 -0.2737  0.2055
  573MPD2    C5 8499   1.631   2.215   0.193  0.2081  0.7160 -0.8028
  573MPD2     H 8500   1.963   2.072   0.303 -0.6601 -0.7331  2.0684
  573MPD2    H1 8501   1.676   2.129   0.001 -0.3424  0.5874  0.0347
  573MPD2    H2 8502   1.598   2.279   0.395 -1.8524 -1.8121  0.2204
  573MPD2    H3 8503   1.539   2.263   0.163 -0.6621 -0.7988 -0.5636
  573MPD2     N 8504   1.887   2.009   0.051  0.0240 -0.6514  0.3597
  573MPD2    H5 8505   1.837   2.005  17.661  2.8306 -0.7958 -1.2585
  573MPD2    N1 8506   1.820   2.195   0.504 -0.1270  0.4016  0.1381
  573MPD2    H7 8507   1.744   2.222   0.566  0.1169  1.6843 -0.1093
  574TMC3    C1 8508   2.052   1.883  17.637 -0.3943  0.3889 -0.0460
  574TMC3    C2 8509   1.958   1.838  17.551 -0.0822  0.2782  0.6478
  574TMC3    C3 8510   2.012   1.787  17.436 -0.0648  0.6510 -0.4842
  574TMC3    C4 8511   2.187   1.875  17.621  0.6826 -0.2342  0.5345
  574TMC3    C5 8512   2.234   1.812  17.510 -0.2557 -0.2026 -0.4726
  574TMC3    C6 8513   2.146   1.776  17.406 -0.6255  0.7090 -0.1767
  574TMC3     C 8514   2.008   1.948   0.067 -0.1478 -0.0215  0.3142
  574TMC3     O 8515   2.085   1.950   0.162  0.4257 -0.3384  0.4006
  574TMC3     H 8516   1.853   1.839  17.576 -0.3582 -1.4704 -0.4297
  574TMC3    H1 8517   2.250   1.911   0.005 -1.2643  0.7167  1.6191
  574TMC3    H2 8518   2.179   1.736  17.311 -0.3609 -0.0718  0.2488
  574TMC3    C7 8519   2.365   1.854  17.464  0.3230 -0.4554  0.5583
  574TMC3    C8 8520   1.925   1.779  17.320  0.6497 -0.4550  0.0214
  574TMC3    O1 8521   2.386   1.856  17.343  0.1613 -0.1194  0.0189
  574TMC3    O2 8522   1.817   1.838  17.339  0.4955  0.5317  0.0614
  575TMC3    C1 8523   4.630   2.743  11.211 -0.4031 -0.4962  0.5247
  575TMC3    C2 8524   4.537   2.673  11.284  0.1513  0.1153  0.1949
  575TMC3    C3 8525   4.416   2.638  11.226 -0.1732 -0.0608 -0.1745
  575TMC3    C4 8526   4.589   2.794  11.087 -0.7755 -0.3070 -0.1946
  575TMC3    C5 8527   4.468   2.757  11.038  0.4955  0.5767  0.2540
  575TMC3    C6 8528   4.377   2.669  11.094 -0.4333 -1.3521  0.7120
  575TMC3     C 8529   0.018   2.791  11.286  0.0739  0.0893  0.2660
  575TMC3     O 8530   0.025   2.776  11.408  0.2970 -0.2910 -0.1124
  575TMC3     H 8531   4.562   2.638  11.383  1.2799  0.8499  0.1725
  575TMC3    H1 8532   4.653   2.858  11.027 -0.7325 -0.5360 -0.3923
  575TMC3    H2 8533   4.280   2.667  11.048 -0.6631 -1.6297  1.2061
  575TMC3    C7 8534   4.440   2.810  10.908 -0.0034 -0.0948 -0.2867
  575TMC3    C8 8535   4.303   2.580  11.303  0.3110 -0.2828  0.1398
  575TMC3    O1 8536   4.418   2.928  10.914 -0.9460  0.8705 -0.1387
  575TMC3    O2 8537   4.230   2.496  11.252 -0.3794  0.4820  0.4219
  576MPD2     C 8538   4.222   4.065  12.422 -0.2558  0.3875  0.4224
  576MPD2    C1 8539   4.193   4.102  12.291 -0.2326  0.1560 -0.4499
  576MPD2    C2 8540   4.115   4.214  12.277  0.1467  0.6225 -0.2712
  576MPD2    C3 8541   4.050   4.275  12.385 -0.0227  0.6145 -0.0193
  576MPD2    C4 8542   4.071   4.222  12.511  0.7068 -0.2487 -0.3327
  576MPD2    C5 8543   4.152   4.114  12.529  0.3412  0.3599 -0.7790
  576MPD2     H 8544   4.091   4.244  12.176 -2.3996 -1.7959 -0.3887
  576MPD2    H1 8545   4.028   4.265  12.601 -0.1116 -0.2389 -0.7309
  576MPD2    H2 8546   4.295   3.990  12.453  0.0454  0.2165 -0.7149
  576MPD2    H3 8547   4.166   4.077  12.630 -1.3592 -1.7904 -1.3185
  576MPD2     N 8548   3.955   4.377  12.362 -0.1022 -0.3646 -0.2359
  576MPD2    H5 8549   3.958   4.425  12.272 -2.5266  0.6585  0.2354
  576MPD2    N1 8550   4.255   4.035  12.180 -0.2945  0.4065  0.1311
  576MPD2    H7 8551   4.267   4.088  12.094 -2.1115 -0.0388 -0.4064
  577TMC3    C1 8552   4.394   3.892  12.058  0.3113 -0.1330 -0.0873
  577TMC3    C2 8553   4.464   3.776  12.041  0.4858  0.7716  0.0624
  577TMC3    C3 8554   4.576   3.779  11.959 -0.0459 -0.1767 -0.3982
  577TMC3    C4 8555   4.435   4.004  11.993  0.0472  0.4021  0.1487
  577TMC3    C5 8556   4.539   4.007  11.913  0.1278 -0.3010 -0.9340
  577TMC3    C6 8557   4.623   3.902  11.898  0.3854 -0.0786 -0.2774
  577TMC3     C 8558   4.328   3.919  12.185 -0.1058  0.4482  0.1757
  577TMC3     O 8559   4.329   3.827  12.260 -0.2116 -0.1462  0.0062
  577TMC3     H 8560   4.432   3.692  12.101  1.7105  0.3768  0.1515
  577TMC3    H1 8561   4.374   4.094  11.996  0.3523  0.6235 -0.2688
  577TMC3    H2 8562   4.715   3.899  11.839 -0.4850 -0.0789 -1.6420
  577TMC3    C7 8563   4.579   4.134  11.843  0.3779 -0.2582 -0.3922
  577TMC3    C8 8564   4.650   3.645  11.933 -0.2530 -0.5442 -0.3640
  577TMC3    O1 8565   4.692   4.136  11.808 -0.5763  0.4197  0.6450
  577TMC3    O2 8566   4.618   3.540  11.992 -0.3457  0.7005  1.3792
  578MPD2     C 8567   2.444   3.601   1.030 -0.3544 -0.2848 -0.3385
  578MPD2    C1 8568   2.519   3.605   0.911  0.0282  0.1591 -0.9284
  578MPD2    C2 8569   2.630   3.534   0.905 -0.5297 -0.2985 -0.4629
  578MPD2    C3 8570   2.677   3.464   1.011 -0.0642 -0.6816  0.4730
  578MPD2    C4 8571   2.601   3.455   1.126  0.5953 -0.6505 -0.1432
  578MPD2    C5 8572   2.484   3.527   1.142 -0.1668  0.0759  0.1685
  578MPD2     H 8573   2.695   3.521   0.819 -3.2172 -2.4586 -2.1705
  578MPD2    H1 8574   2.627   3.396   1.213  0.3032 -0.5210  0.0300
  578MPD2    H2 8575   2.348   3.651   1.041 -0.6781 -0.6940 -1.2707
  578MPD2    H3 8576   2.424   3.524   1.232  0.0832 -0.7570  0.3082
  578MPD2     N 8577   2.796   3.389   0.985 -0.2824  0.4410 -0.1011
  578MPD2    H5 8578   2.821   3.379   0.887 -2.4087 -0.3569 -0.5740
  578MPD2    N1 8579   2.458   3.687   0.811 -0.6425  0.3714  0.8510
  578MPD2    H7 8580   2.365   3.720   0.832 -0.3177  0.6564  1.8505
  579TMC3    C1 8581   2.943   3.222   1.015  0.0454  0.3601 -0.1691
  579TMC3    C2 8582   3.050   3.166   1.082  0.0155  0.6937 -0.4447
  579TMC3    C3 8583   3.128   3.072   1.020 -0.2981 -0.3005  0.1071
  579TMC3    C4 8584   2.913   3.177   0.889 -0.3799 -0.1282 -0.3246
  579TMC3    C5 8585   2.984   3.076   0.834  0.1957 -0.0380  0.1530
  579TMC3    C6 8586   3.093   3.030   0.896 -0.1370 -0.2465  0.0097
  579TMC3     C 8587   2.864   3.323   1.082  0.1044  0.7227  0.6803
  579TMC3     O 8588   2.846   3.320   1.208  0.4704  0.4280  0.7927
  579TMC3     H 8589   3.092   3.213   1.170  1.4616  0.3991 -0.9779
  579TMC3    H1 8590   2.823   3.218   0.843  1.6642  2.1636 -2.2447
  579TMC3    H2 8591   3.139   2.939   0.857 -0.8705 -1.0845  1.1061
  579TMC3    C7 8592   2.968   3.036   0.697  0.3106  0.3704  0.1225
  579TMC3    C8 8593   3.256   3.046   1.084  0.0001  0.1085  0.4669
  579TMC3    O1 8594   3.046   2.949   0.650 -0.9223  0.1088 -0.6183
  579TMC3    O2 8595   3.291   3.104   1.187  0.5451  0.2056 -0.1872
  580TMC3    C1 8596   1.594   3.131  11.673 -0.7166 -0.3680 -0.5790
  580TMC3    C2 8597   1.640   3.106  11.540 -0.0715 -0.1666  0.4289
  580TMC3    C3 8598   1.734   3.004  11.519 -0.4433  0.2240 -0.2586
  580TMC3    C4 8599   1.624   3.038  11.769  0.8080 -0.0173  0.1146
  580TMC3    C5 8600   1.701   2.930  11.735  0.0059 -0.7670 -0.5666
  580TMC3    C6 8601   1.773   2.915  11.617 -0.6018 -0.0715 -0.1949
  580TMC3     C 8602   1.616   3.266  11.702  0.5467 -0.2275 -0.4126
  580TMC3     O 8603   1.601   3.349  11.613 -0.2120  0.0295 -0.2071
  580TMC3     H 8604   1.623   3.159  11.447  0.0182  0.8518  0.9889
  580TMC3    H1 8605   1.577   3.037  11.867 -2.1374  1.0328 -1.3111
  580TMC3    H2 8606   1.836   2.831  11.593 -1.2456 -0.0426 -2.0069
  580TMC3    C7 8607   1.721   2.829  11.836  0.5698 -0.4617 -0.2879
  580TMC3    C8 8608   1.846   3.057  11.440  0.3592 -0.8235  0.6512
  580TMC3    O1 8609   1.687   2.862  11.951  0.0450  0.0360  0.7368
  580TMC3    O2 8610   1.817   3.140  11.357 -0.1140 -0.3830 -0.6772
  581MPD2     C 8611   4.257   3.519  14.201  0.2017 -0.1460 -0.9992
  581MPD2    C1 8612   4.172   3.445  14.282 -0.0394 -0.1344  0.5750
  581MPD2    C2 8613   4.047   3.501  14.315 -0.3365 -0.4690 -0.4980
  581MPD2    C3 8614   4.018   3.627  14.275  0.5031  1.0796  0.5558
  581MPD2    C4 8615   4.102   3.690  14.184  0.6980 -0.9997  0.2119
  581MPD2    C5 8616   4.226   3.639  14.150 -0.6475 -0.9882  0.3064
  581MPD2     H 8617   3.986   3.461  14.395 -1.1253 -0.1583 -0.9447
  581MPD2    H1 8618   4.082   3.788  14.143 -1.2384 -1.1448  0.8160
  581MPD2    H2 8619   4.347   3.469  14.167  0.9237 -1.5412  2.8883
  581MPD2    H3 8620   4.299   3.691  14.088 -1.9874  0.2497 -0.2337
  581MPD2     N 8621   3.886   3.685  14.296  0.8783 -0.1250 -0.0566
  581MPD2    H5 8622   3.824   3.640  14.362 -2.1505  2.6296 -1.0169
  581MPD2    N1 8623   4.211   3.312  14.320  0.5149 -0.1691  0.6750
  581MPD2    H7 8624   4.305   3.285  14.291  0.7276 -0.1188  1.3267
  582TMC3    C1 8625   4.207   3.119  14.455  0.3182  0.2744 -0.3338
  582TMC3    C2 8626   4.347   3.109  14.476  0.0548  0.1718  0.2722
  582TMC3    C3 8627   4.398   2.999  14.543  0.3102  0.1304 -0.4825
  582TMC3    C4 8628   4.127   3.019  14.499 -0.4011  0.3181  0.5086
  582TMC3    C5 8629   4.183   2.907  14.554  0.1923 -0.1491  0.6869
  582TMC3    C6 8630   4.317   2.890  14.565  0.3642 -0.4285 -0.1082
  582TMC3     C 8631   4.136   3.234  14.402  0.0218 -1.2244  0.7186
  582TMC3     O 8632   4.016   3.232  14.416  0.2389 -0.2515  0.3590
  582TMC3     H 8633   4.409   3.198  14.476  0.4708 -0.1287 -2.6022
  582TMC3    H1 8634   4.019   3.026  14.488 -0.3179 -0.6553 -0.8790
  582TMC3    H2 8635   4.349   2.799  14.614  1.7063 -0.4870 -1.0985
  582TMC3    C7 8636   4.134   2.899  14.693 -0.4363  0.2472 -0.0254
  582TMC3    C8 8637   4.481   3.039  14.661  0.8691 -1.0819  0.0666
  582TMC3    O1 8638   4.155   2.787  14.743  0.0396 -0.1670  0.5007
  582TMC3    O2 8639   4.442   3.144  14.715  0.1241 -0.0038  0.1093
  583MPD2     C 8640   4.557   4.614  16.832 -0.7074 -0.3288  0.5067
  583MPD2    C1 8641   4.524   4.709  16.741 -0.0255  0.4015  0.8138
  583MPD2    C2 8642   4.431   0.083  16.784  0.5267  0.0629 -0.0825
  583MPD2    C3 8643   4.384   0.093  16.907 -0.5408 -0.6666 -0.2776
  583MPD2    C4 8644   4.443   0.013  17.002  0.1225  0.1953 -0.1028
  583MPD2    C5 8645   4.540   4.646  16.962  0.1546  0.3182 -0.2190
  583MPD2     H 8646   4.402   0.163  16.717  1.3865  1.1130  0.8064
  583MPD2    H1 8647   4.423   0.024  17.108  0.7559  3.0994 -0.2942
  583MPD2    H2 8648   4.631   4.536  16.812  1.4807  2.4232 -2.1055
  583MPD2    H3 8649   4.589   4.591  17.041 -0.5102 -2.3242 -1.6594
  583MPD2     N 8650   4.287   0.189  16.937  0.1932  0.1567  0.2904
  583MPD2    H5 8651   4.253   0.254  16.867 -0.7208 -2.4044 -1.6323
  583MPD2    N1 8652   4.560   4.706  16.605  0.0296  0.1508 -0.3247
  583MPD2    H7 8653   4.539   0.066  16.552  0.7695 -0.4148 -1.5115
  584TMC3    C1 8654   4.109   0.288  17.059 -0.0243  0.9178 -0.1038
  584TMC3    C2 8655   4.137   0.401  16.994  0.1481  0.6507 -0.5116
  584TMC3    C3 8656   4.034   0.484  16.954 -0.4054 -0.4644 -0.3564
  584TMC3    C4 8657   3.979   0.258  17.090  0.0942  0.0369  0.8998
  584TMC3    C5 8658   3.878   0.342  17.046  0.0205 -0.5727  0.5939
  584TMC3    C6 8659   3.903   0.449  16.972 -0.1473 -0.1680  0.2786
  584TMC3     C 8660   4.211   0.188  17.050  0.2178  0.2425  0.3440
  584TMC3     O 8661   4.204   0.102  17.142 -0.2784  0.0956 -0.6704
  584TMC3     H 8662   4.237   0.422  16.959 -0.2454  1.1926 -1.3115
  584TMC3    H1 8663   3.952   0.159  17.126 -0.5199  0.0881  0.5688
  584TMC3    H2 8664   3.824   0.507  16.927 -0.2578 -1.3296 -1.0329
  584TMC3    C7 8665   3.738   0.321  17.095 -0.7959  0.2894  0.6191
  584TMC3    C8 8666   4.068   0.555  16.836 -0.4752  0.6822  0.3187
  584TMC3    O1 8667   3.641   0.378  17.044  0.4318 -0.0564  0.0992
  584TMC3    O2 8668   4.033   0.509  16.729 -0.8669 -0.4672 -0.0015
  585MPD2     C 8669   4.214   3.087   0.008  0.2263 -0.0156 -0.5458
  585MPD2    C1 8670   4.309   3.181  17.671 -0.5541 -0.6788 -0.3350
  585MPD2    C2 8671   4.316   3.211  17.535 -0.5242  0.4124 -0.5828
  585MPD2    C3 8672   4.234   3.156  17.439 -0.0503 -0.2180 -0.3283
  585MPD2    C4 8673   4.145   3.056  17.485 -0.0600 -0.3630 -0.3687
  585MPD2    C5 8674   4.131   3.021  17.612 -0.1691 -0.0584 -0.3106
  585MPD2     H 8675   4.377   3.298  17.511 -0.3059  0.5696  0.5490
  585MPD2    H1 8676   4.080   3.006  17.414 -0.1522  0.7776 -1.0835
  585MPD2    H2 8677   4.203   3.055   0.111  0.0644 -0.5219 -0.7202
  585MPD2    H3 8678   4.071   2.940  17.652 -1.4558  1.5795  1.0833
  585MPD2     N 8679   4.232   3.203  17.302  0.4492 -0.3723 -0.0668
  585MPD2    H5 8680   4.168   3.160  17.237 -1.2026  0.3480  1.0866
  585MPD2    N1 8681   4.363   3.261   0.071  0.0708  0.2831  0.1465
  585MPD2    H7 8682   4.327   3.241   0.163 -0.3602  1.5109  0.2439
  586TMC3    C1 8683   4.296   3.308  17.109  0.0755  0.1808 -0.3836
  586TMC3    C2 8684   4.398   3.273  17.022 -0.5054 -0.3188  0.0164
  586TMC3    C3 8685   4.367   3.178  16.924 -0.9187  0.1609 -0.9007
  586TMC3    C4 8686   4.166   3.292  17.068 -0.5153  0.6643 -0.1418
  586TMC3    C5 8687   4.139   3.204  16.961  0.5396  0.0663  0.0245
  586TMC3    C6 8688   4.241   3.138  16.892 -0.1610  0.2082 -0.5926
  586TMC3     C 8689   4.323   3.286  17.245  0.4155  0.0294 -0.5839
  586TMC3     O 8690   4.433   3.324  17.281  0.4557  0.3187  0.6611
  586TMC3     H 8691   4.498   3.311  17.033 -0.3449 -0.3749 -1.2689
  586TMC3    H1 8692   4.082   3.327  17.128  0.1762  1.7421  0.1877
  586TMC3    H2 8693   4.224   3.067  16.812  0.2018  0.0852 -0.5646
  586TMC3    C7 8694   3.992   3.185  16.908 -0.4952 -0.2707  0.4924
  586TMC3    C8 8695   4.477   3.121  16.847  0.5094 -0.2660 -0.1236
  586TMC3    O1 8696   3.955   3.078  16.860 -0.7041  0.3005 -0.0671
  586TMC3    O2 8697   4.548   3.202  16.794  0.1344 -0.2740 -0.1414
  587TMC3    C1 8698   1.653   2.483  16.314  0.3852  0.2474 -0.4668
  587TMC3    C2 8699   1.628   2.616  16.280 -0.6928 -0.5458  0.0210
  587TMC3    C3 8700   1.741   2.696  16.249 -0.2001  0.1581  0.2765
  587TMC3    C4 8701   1.785   2.433  16.321 -0.3638  0.3041  0.8484
  587TMC3    C5 8702   1.885   2.517  16.295 -0.7751 -0.6547 -0.3772
  587TMC3    C6 8703   1.871   2.646  16.255 -0.1533 -0.3669 -0.3047
  587TMC3     C 8704   1.548   2.384  16.338  0.0944  0.6417  0.8774
  587TMC3     O 8705   1.591   2.270  16.340  0.3751  0.4364 -0.0417
  587TMC3     H 8706   1.527   2.654  16.290 -1.4263 -1.7832 -2.6747
  587TMC3    H1 8707   1.814   2.332  16.349  2.0466  0.1515 -2.1158
  587TMC3    H2 8708   1.945   2.725  16.252 -0.1232 -0.3980 -0.3914
  587TMC3    C7 8709   2.024   2.468  16.337 -0.2267  0.2552  0.4757
  587TMC3    C8 8710   1.721   2.826  16.190  0.6132  0.2405 -0.1834
  587TMC3    O1 8711   2.032   2.370  16.413  0.0224 -0.3887 -0.2183
  587TMC3    O2 8712   1.810   2.909  16.188 -0.4166  0.5182 -0.2171
  588TMC3    C1 8713   3.648   0.269   9.242  0.2332  0.1629 -0.2422
  588TMC3    C2 8714   3.590   0.148   9.223 -0.0148  0.5606 -0.5488
  588TMC3    C3 8715   3.690   0.047   9.209  0.7384  0.4400  0.1554
  588TMC3    C4 8716   3.779   0.296   9.218  0.7632 -0.0690 -0.2959
  588TMC3    C5 8717   3.858   0.191   9.171  0.5468  0.8919 -0.3717
  588TMC3    C6 8718   3.818   0.060   9.169  0.2049 -0.0663 -0.5861
  588TMC3     C 8719   3.574   0.392   9.260  0.4108  0.0180 -0.3626
  588TMC3     O 8720   3.496   0.423   9.169 -0.0257  0.3626  0.1573
  588TMC3     H 8721   3.491   0.123   9.257 -0.3228 -1.3334 -2.9010
  588TMC3    H1 8722   3.798   0.403   9.220 -0.3920  0.1433 -0.4671
  588TMC3    H2 8723   3.887   4.701   9.164 -0.9595 -1.0186 -1.0915
  588TMC3    C7 8724   3.993   0.213   9.201 -0.2917 -0.2370 -0.4241
  588TMC3    C8 8725   3.657   4.649   9.276  0.3095 -0.7080 -0.5382
  588TMC3    O1 8726   4.068   0.134   9.151 -0.0799 -0.4487 -0.4232
  588TMC3    O2 8727   3.538   4.617   9.276 -0.0847  0.1851  0.0888
  589TMC3    C1 8728   2.857   2.403   0.957 -0.7086  0.3161  0.3440
  589TMC3    C2 8729   2.911   2.426   1.086 -0.2291  0.4143  0.2208
  589TMC3    C3 8730   3.019   2.340   1.118  0.7043  0.6102 -0.1337
  589TMC3    C4 8731   2.907   2.305   0.875 -0.5284 -0.4937  0.3741
  589TMC3    C5 8732   3.016   2.234   0.915 -0.2560 -0.2866  0.4581
  589TMC3    C6 8733   3.079   2.253   1.030  0.6542  0.4285  0.1309
  589TMC3     C 8734   2.740   2.478   0.902  1.0724  0.2647  0.1174
  589TMC3     O 8735   2.721   2.473   0.779  0.2161  0.9546 -0.2632
  589TMC3     H 8736   2.864   2.490   1.159  0.8268  2.5306 -0.9692
  589TMC3    H1 8737   2.869   2.287   0.775  0.5860 -0.1294 -0.1214
  589TMC3    H2 8738   3.132   2.167   1.072 -0.6735  0.7261  2.3897
  589TMC3    C7 8739   3.037   2.111   0.841  0.1935  0.1438  0.2165
  589TMC3    C8 8740   3.071   2.358   1.253  0.1910 -0.0810  0.0583
  589TMC3    O1 8741   2.934   2.073   0.784 -0.0337  0.5940  0.6516
  589TMC3    O2 8742   3.005   2.440   1.312 -0.3092 -0.3698 -0.5523
  590MPD2     C 8743   2.190   0.817  16.424  0.5571  0.0347 -0.2253
  590MPD2    C1 8744   2.179   0.829  16.290 -0.0349 -0.5046  0.5790
  590MPD2    C2 8745   2.281   0.902  16.223  0.7591 -0.2947 -0.4647
  590MPD2    C3 8746   2.380   0.962  16.298 -1.1020 -0.4310  0.0075
  590MPD2    C4 8747   2.400   0.940  16.438  0.4766 -0.0878  0.1500
  590MPD2    C5 8748   2.297   0.867  16.498 -0.0061  0.3970 -0.4841
  590MPD2     H 8749   2.278   0.918  16.116  0.0890  1.8017 -0.1308
  590MPD2    H1 8750   2.475   0.984  16.503  0.3679  1.2559 -0.6265
  590MPD2    H2 8751   2.124   0.748  16.476  0.0919  0.9189  0.3612
  590MPD2    H3 8752   2.303   0.859  16.606 -1.1387  0.1097 -0.4487
  590MPD2     N 8753   2.468   1.046  16.227  0.0400  0.5325  0.0027
  590MPD2    H5 8754   2.459   1.038  16.126  1.6988 -2.5142  0.1036
  590MPD2    N1 8755   2.055   0.790  16.222  1.2801 -0.0397 -0.0663
  590MPD2    H7 8756   1.988   0.732  16.272 -2.2491  4.3601  0.3873
  591TMC3    C1 8757   2.601   1.227  16.173  0.0906  0.3778  0.1271
  591TMC3    C2 8758   2.615   1.174  16.050 -0.4322 -0.7510 -0.0331
  591TMC3    C3 8759   2.648   1.256  15.953 -0.2726 -0.1995 -0.1220
  591TMC3    C4 8760   2.618   1.358  16.208  0.3667  0.3094  0.3283
  591TMC3    C5 8761   2.652   1.440  16.096  0.3158  0.8229 -0.4552
  591TMC3    C6 8762   2.661   1.395  15.962 -0.0773  0.5728 -0.2946
  591TMC3     C 8763   2.539   1.145  16.278 -0.6428  0.6898 -0.4779
  591TMC3     O 8764   2.562   1.167  16.394  0.2312  0.0928  0.3410
  591TMC3     H 8765   2.602   1.070  16.023 -2.8472 -0.5189  0.2491
  591TMC3    H1 8766   2.622   1.390  16.311  0.9012  2.0595 -0.2443
  591TMC3    H2 8767   2.701   1.442  15.874  1.1028  0.1343  0.0096
  591TMC3    C7 8768   2.681   1.576  16.119 -0.3996  0.0100  0.0341
  591TMC3    C8 8769   2.698   1.183  15.841  0.0224 -0.4964  0.0149
  591TMC3    O1 8770   2.722   1.610  16.229 -0.2677 -0.0900  0.3919
  591TMC3    O2 8771   2.781   1.096  15.867  0.6904  0.0528  0.2111
  592MPD2     C 8772   2.861   2.884  10.889 -0.1602  0.1781  0.4155
  592MPD2    C1 8773   2.840   2.879  11.026  0.7769 -0.3625 -0.5303
  592MPD2    C2 8774   2.735   2.810  11.082  0.0001 -0.5247 -0.6718
  592MPD2    C3 8775   2.654   2.728  11.002  0.1078  0.4969 -0.1548
  592MPD2    C4 8776   2.669   2.730  10.863  1.1481 -0.6955  0.3664
  592MPD2    C5 8777   2.774   2.805  10.805 -0.2698 -0.0648 -0.4932
  592MPD2     H 8778   2.719   2.797  11.188  1.6036 -0.5508 -0.4256
  592MPD2    H1 8779   2.607   2.661  10.808  1.3598 -0.9891  0.4950
  592MPD2    H2 8780   2.940   2.937  10.837 -0.6560 -0.8542 -1.4021
  592MPD2    H3 8781   2.788   2.799  10.698 -2.5734 -1.9972 -0.6673
  592MPD2     N 8782   2.566   2.646  11.078 -0.0884  0.2636 -0.4257
  592MPD2    H5 8783   2.561   2.662  11.179 -2.8502 -1.8995 -0.2199
  592MPD2    N1 8784   2.929   2.961  11.108 -0.6483  0.4056 -0.3659
  592MPD2    H7 8785   3.000   3.013  11.058 -1.5748  1.0495 -1.0205
  593TMC3    C1 8786   3.049   3.014  11.306  0.1530 -0.4263 -0.7666
  593TMC3    C2 8787   3.075   2.975  11.434  0.1352  0.3332  0.3985
  593TMC3    C3 8788   3.181   3.038  11.488 -0.6173 -0.2852  0.8230
  593TMC3    C4 8789   3.119   3.114  11.240 -0.1811  0.7110 -0.3528
  593TMC3    C5 8790   3.222   3.178  11.309  1.1525  0.5799  0.3421
  593TMC3    C6 8791   3.260   3.140  11.435 -0.7229 -0.5686 -1.0778
  593TMC3     C 8792   2.930   2.956  11.248 -0.0160  0.0490 -1.1798
  593TMC3     O 8793   2.867   2.886  11.320 -0.4700 -0.0279  0.1592
  593TMC3     H 8794   3.012   2.911  11.495 -0.7198  0.0078 -0.7984
  593TMC3    H1 8795   3.080   3.153  11.147 -1.4154  1.9686  0.6954
  593TMC3    H2 8796   3.355   3.173  11.475 -1.3442 -1.3740  1.0869
  593TMC3    C7 8797   3.285   3.298  11.263  0.0150 -0.2775  0.1384
  593TMC3    C8 8798   3.239   2.967  11.598 -0.0690 -0.1715  0.0512
  593TMC3    O1 8799   3.386   3.337  11.317  0.2337  0.3036  0.2643
  593TMC3    O2 8800   3.218   2.848  11.605  0.0536 -0.0851  0.4058
  594MPD2     C 8801   1.822   1.514  14.230 -0.6163 -0.6899 -0.1710
  594MPD2    C1 8802   1.731   1.596  14.169  0.0063  0.8502  0.1714
  594MPD2    C2 8803   1.751   1.725  14.141  0.9966 -0.3584  0.2500
  594MPD2    C3 8804   1.874   1.777  14.180  0.0810 -0.3792 -0.1177
  594MPD2    C4 8805   1.970   1.705  14.245 -0.2220  0.6634 -0.3233
  594MPD2    C5 8806   1.941   1.565  14.264 -0.3597  0.9043 -0.5145
  594MPD2     H 8807   1.682   1.778  14.077  2.3165  2.1624  0.9334
  594MPD2    H1 8808   2.065   1.738  14.285  0.6428 -0.3419 -1.5587
  594MPD2    H2 8809   1.797   1.410  14.245 -0.4525 -0.5835  0.8450
  594MPD2    H3 8810   2.012   1.495  14.307 -1.9085 -1.2899 -1.5117
  594MPD2     N 8811   1.886   1.914  14.161 -0.0509 -0.0104 -1.1634
  594MPD2    H5 8812   1.806   1.962  14.122 -1.8790 -0.0650  2.4302
  594MPD2    N1 8813   1.601   1.535  14.141 -0.2313 -0.2908  0.5931
  594MPD2    H7 8814   1.595   1.437  14.169 -0.9564 -1.1478 -2.5734
  595TMC3    C1 8815   2.049   2.351  14.139  0.8090  0.1913  0.1669
  595TMC3    C2 8816   2.068   2.215  14.131  0.4809  0.0297 -0.3944
  595TMC3    C3 8817   1.961   2.132  14.175  0.3001 -0.4021  0.8122
  595TMC3    C4 8818   1.930   2.400  14.196 -0.3256  0.0489 -0.0067
  595TMC3    C5 8819   1.831   2.314  14.237 -0.2122 -0.3771  0.0899
  595TMC3    C6 8820   1.846   2.180  14.230  0.6270  0.4296  0.2636
  595TMC3     C 8821   2.172   2.419  14.169 -0.1291 -0.2153  0.3855
  595TMC3     O 8822   2.272   2.355  14.210  0.0912 -0.8482 -0.1062
  595TMC3     H 8823   2.166   2.186  14.096  1.0736  0.0221  1.2475
  595TMC3    H1 8824   1.926   2.502  14.233 -0.8668 -0.8025  2.2377
  595TMC3    H2 8825   1.777   2.104  14.266  0.3396 -0.2627 -1.7949
  595TMC3    C7 8826   1.754   2.357  14.354 -0.8116  0.6957  0.6626
  595TMC3    C8 8827   1.997   1.992  14.172 -0.8027 -0.3813 -0.4228
  595TMC3    O1 8828   1.695   2.464  14.351 -0.2421  0.4552  0.0579
  595TMC3    O2 8829   2.114   1.969  14.206  0.5138 -0.1271 -0.1744
  596MPD2     C 8830   0.736   4.557  16.394 -0.0791 -0.3886 -0.2730
  596MPD2    C1 8831   0.761   4.684  16.375 -0.2093  0.2953 -0.0180
  596MPD2    C2 8832   0.805   4.721  16.251 -0.7564  0.5901  0.1578
  596MPD2    C3 8833   0.804   4.647  16.134 -0.1810  0.6795 -0.6822
  596MPD2    C4 8834   0.779   4.514  16.163 -0.8602  0.3417 -0.3611
  596MPD2    C5 8835   0.756   4.474  16.286  0.6195  0.4308  0.4869
  596MPD2     H 8836   0.825   0.103  16.239  2.4366 -0.0702 -0.1900
  596MPD2    H1 8837   0.785   4.435  16.090  0.8827 -1.5516  1.8485
  596MPD2    H2 8838   0.708   4.516  16.490  2.0632  0.4801  0.7098
  596MPD2    H3 8839   0.749   4.367  16.297 -0.9353  0.5753  0.8582
  596MPD2     N 8840   0.813   4.697  16.003  0.0995  0.0505 -0.0793
  596MPD2    H5 8841   0.820   4.630  15.928 -1.5638  0.7922 -0.8936
  596MPD2    N1 8842   0.728   0.064  16.463  0.2417 -0.0421  0.1433
  596MPD2    H7 8843   0.731   0.150  16.410 -1.8357 -0.8490 -1.2959
  597TMC3    C1 8844   0.647   0.193  16.652 -0.5119  0.4935 -0.0260
  597TMC3    C2 8845   0.674   0.308  16.579  0.0967  0.1354  0.0880
  597TMC3    C3 8846   0.643   0.426  16.631 -0.0201 -0.5505 -0.2230
  597TMC3    C4 8847   0.556   0.202  16.755 -0.0031  0.1808  0.3703
  597TMC3    C5 8848   0.523   0.323  16.805  0.2067  0.5184 -0.5924
  597TMC3    C6 8849   0.564   0.443  16.744  0.0094 -0.3270  0.5728
  597TMC3     C 8850   0.676   0.062  16.595 -0.1254  0.0882  1.0728
  597TMC3     O 8851   0.655   4.694  16.668  0.1497  0.2618 -0.1078
  597TMC3     H 8852   0.759   0.300  16.513  0.8856 -1.6684  1.3276
  597TMC3    H1 8853   0.527   0.116  16.814  2.2727  0.0146  1.2377
  597TMC3    H2 8854   0.543   0.544  16.779 -0.7729 -0.1122 -0.5446
  597TMC3    C7 8855   0.435   0.324  16.920 -0.8164  0.2367  0.4750
  597TMC3    C8 8856   0.679   0.548  16.559  0.2585 -0.1100 -0.1888
  597TMC3    O1 8857   0.420   0.227  16.993 -0.3344 -0.0353 -0.5796
  597TMC3    O2 8858   0.674   0.658  16.611 -0.3316  0.3247  0.2476
  598TMC3    C1 8859   4.592   1.818  15.052  0.1758  0.6478  0.2379
  598TMC3    C2 8860   4.654   1.702  15.096  0.2552 -0.2721  0.3113
  598TMC3    C3 8861   4.618   1.585  15.037  0.5931 -0.0442 -0.1852
  598TMC3    C4 8862   4.501   1.824  14.951  0.0857 -0.2715  0.0136
  598TMC3    C5 8863   4.480   1.705  14.887  0.3233  0.8683  0.0187
  598TMC3    C6 8864   4.537   1.582  14.927 -1.7040  0.1417  0.3309
  598TMC3     C 8865   4.633   1.942  15.099 -0.0235 -0.0178 -0.4400
  598TMC3     O 8866   0.023   1.960  15.140 -0.0484  0.3310 -0.1140
  598TMC3     H 8867   4.707   1.698  15.191  1.0587  0.3958 -0.1110
  598TMC3    H1 8868   4.455   1.913  14.909 -0.9012 -1.6899 -1.9467
  598TMC3    H2 8869   4.495   1.494  14.880  0.7472 -1.3078  0.8724
  598TMC3    C7 8870   4.351   1.702  14.824 -0.0537 -0.1262 -0.1136
  598TMC3    C8 8871   4.654   1.458  15.088 -0.5581  0.0777  0.3573
  598TMC3    O1 8872   4.338   1.787  14.740  0.0721  0.0106 -0.2673
  598TMC3    O2 8873   4.648   1.358  15.018 -0.3477  0.1105  0.4927
  599MPD2     C 8874   4.068   3.995  16.017  0.1413 -0.2694  0.1333
  599MPD2    C1 8875   3.979   3.932  15.934  0.6802  0.2879 -0.2791
  599MPD2    C2 8876   3.848   3.971  15.945 -0.3317  0.8205  0.6988
  599MPD2    C3 8877   3.805   4.049  16.052  0.0448 -0.6211 -0.0799
  599MPD2    C4 8878   3.892   4.124  16.125 -0.6368 -0.6361  0.0897
  599MPD2    C5 8879   4.026   4.100  16.100  0.6380  0.4007  0.1444
  599MPD2     H 8880   3.772   3.923  15.884 -0.2915  1.0959  0.4320
  599MPD2    H1 8881   3.859   4.202  16.192 -0.0118 -1.0094  0.8433
  599MPD2    H2 8882   4.171   3.968  16.001  0.0181 -0.6676 -0.0071
  599MPD2    H3 8883   4.097   4.162  16.154  0.7323  1.8589 -1.6504
  599MPD2     N 8884   3.668   4.050  16.095  1.4176 -0.9173 -0.3923
  599MPD2    H5 8885   3.654   4.090  16.187  0.2721 -2.4356  0.0995
  599MPD2    N1 8886   4.028   3.818  15.860 -0.2785  0.3362 -0.3758
  599MPD2    H7 8887   4.129   3.815  15.850 -0.3527 -0.8462 -0.7583
  600TMC3    C1 8888   3.437   3.995  16.109  0.1954  0.1506 -0.1807
  600TMC3    C2 8889   3.372   3.877  16.131  0.6208  0.6224  0.5486
  600TMC3    C3 8890   3.258   3.883  16.202  0.5463  1.0802 -0.8089
  600TMC3    C4 8891   3.401   4.110  16.175  0.2668 -0.7652  1.0574
  600TMC3    C5 8892   3.281   4.110  16.244  0.1282 -0.1444  0.1886
  600TMC3    C6 8893   3.211   3.997  16.265 -0.2565  0.1780  0.8004
  600TMC3     C 8894   3.566   3.974  16.045 -0.6700 -0.7672  0.5546
  600TMC3     O 8895   3.571   3.887  15.959  0.1892 -0.0347 -0.2186
  600TMC3     H 8896   3.397   3.781  16.086 -1.4723 -0.0429  0.7857
  600TMC3    H1 8897   3.457   4.202  16.161 -3.4551  1.3260  0.0176
  600TMC3    H2 8898   3.126   4.012  16.329 -1.5341  0.8345 -1.0631
  600TMC3    C7 8899   3.237   4.225  16.322 -1.2629 -0.4965  0.4347
  600TMC3    C8 8900   3.189   3.759  16.217  0.7912 -0.2672 -0.1638
  600TMC3    O1 8901   3.208   4.330  16.263 -0.8194  0.2463  0.0916
  600TMC3    O2 8902   3.259   3.666  16.221  0.2487  0.3372 -0.0042
  601MPD2     C 8903   0.780   1.560  17.260 -0.5217  1.3222 -0.3103
  601MPD2    C1 8904   0.640   1.567  17.244  0.2045 -0.2587 -0.3174
  601MPD2    C2 8905   0.570   1.457  17.231 -0.5389 -0.3966  0.4001
  601MPD2    C3 8906   0.628   1.334  17.229 -0.6438 -1.0066 -0.6102
  601MPD2    C4 8907   0.769   1.327  17.225 -0.3078 -0.0007  0.1513
  601MPD2    C5 8908   0.840   1.440  17.235 -0.2157 -0.3217 -0.9432
  601MPD2     H 8909   0.462   1.469  17.230 -0.5659 -0.5890  0.8503
  601MPD2    H1 8910   0.814   1.229  17.218 -1.6086 -0.6051  0.3343
  601MPD2    H2 8911   0.849   1.643  17.264 -0.4832  1.1743  1.7876
  601MPD2    H3 8912   0.946   1.429  17.254 -0.6322 -1.0277  0.9216
  601MPD2     N 8913   0.563   1.210  17.222  0.5822 -0.2301  0.4767
  601MPD2    H5 8914   0.623   1.132  17.246  0.1387 -0.4878  0.7393
  601MPD2    N1 8915   0.566   1.684  17.274  0.2844 -0.4059  0.4200
  601MPD2    H7 8916   0.465   1.673  17.272  0.2639  0.1828 -2.0920
  602TMC3    C1 8917   0.530   1.912  17.310  0.6648  0.1503  0.0471
  602TMC3    C2 8918   0.585   2.043  17.312  0.0999 -0.8265  0.4752
  602TMC3    C3 8919   0.491   2.145  17.307 -0.2263  0.7454  0.4661
  602TMC3    C4 8920   0.394   1.885  17.306 -0.0971 -0.4391 -0.0404
  602TMC3    C5 8921   0.314   1.994  17.302  0.0922  0.0067  0.0442
  602TMC3    C6 8922   0.358   2.125  17.292  0.3800  0.8825 -0.2393
  602TMC3     C 8923   0.619   1.804  17.291  0.2780  0.2802 -0.2007
  602TMC3     O 8924   0.737   1.843  17.282  1.0559 -0.0533  0.5239
  602TMC3     H 8925   0.692   2.060  17.317  0.4027 -2.4764 -0.1880
  602TMC3    H1 8926   0.354   1.786  17.286 -1.3880 -0.1301  1.0185
  602TMC3    H2 8927   0.287   2.207  17.305 -2.0805 -0.6913 -3.5793
  602TMC3    C7 8928   0.190   1.967  17.234  0.0155  0.0313 -0.6169
  602TMC3    C8 8929   0.547   2.278  17.279 -0.4181  0.6942 -0.3621
  602TMC3    O1 8930   0.123   1.876  17.279  0.3605 -0.1668  0.2245
  602TMC3    O2 8931   0.669   2.293  17.276 -0.4151 -0.4710 -0.7247
  603TMC3    C1 8932   4.098   2.293  10.729 -0.3211 -0.2316  0.5766
  603TMC3    C2 8933   4.081   2.235  10.854 -0.1499 -0.2295  0.5649
  603TMC3    C3 8934   4.055   2.319  10.961  0.0868 -0.3917 -0.2202
  603TMC3    C4 8935   4.088   2.429  10.710  0.0530  0.7748  0.9532
  603TMC3    C5 8936   4.082   2.500  10.829 -0.0430 -0.0721  0.1764
  603TMC3    C6 8937   4.074   2.453  10.951  0.3879  0.2734  0.4385
  603TMC3     C 8938   4.129   2.216  10.613  0.0975  0.0666  1.1607
  603TMC3     O 8939   4.107   2.268  10.503  0.8629  0.3293 -0.0971
  603TMC3     H 8940   4.081   2.127  10.861  0.4456 -0.1075  2.4106
  603TMC3    H1 8941   4.111   2.477  10.615  1.8672  0.4577  1.2320
  603TMC3    H2 8942   4.060   2.529  11.027 -1.3513 -0.2839  0.6628
  603TMC3    C7 8943   4.055   2.644  10.820 -0.2287  0.0288  0.3287
  603TMC3    C8 8944   4.008   2.258  11.086  0.4981 -1.2179 -0.2001
  603TMC3    O1 8945   4.083   2.717  10.917  0.3426  0.2269  0.5636
  603TMC3    O2 8946   4.029   2.139  11.095 -0.1559 -0.3907 -0.0436
  604MPD2     C 8947   3.560   0.718  15.943  0.1587 -0.1833  1.0576
  604MPD2    C1 8948   3.674   0.790  15.930 -0.4955  0.5619  0.1268
  604MPD2    C2 8949   3.792   0.724  15.893  0.0699  0.8746  1.3723
  604MPD2    C3 8950   3.794   0.589  15.867 -0.1118  0.2466  0.4869
  604MPD2    C4 8951   3.678   0.521  15.875  0.2753 -0.6944  0.6163
  604MPD2    C5 8952   3.561   0.583  15.915  0.3201  0.2754 -0.4816
  604MPD2     H 8953   3.886   0.776  15.881  0.3521 -0.9515 -4.1815
  604MPD2    H1 8954   3.670   0.416  15.848  3.3858 -0.3458 -1.5764
  604MPD2    H2 8955   3.469   0.767  15.974  1.2876  2.9032 -0.5143
  604MPD2    H3 8956   3.470   0.525  15.924  1.4746 -1.3356  0.8664
  604MPD2     N 8957   3.915   0.535  15.824 -0.0895 -0.1022  0.0998
  604MPD2    H5 8958   3.978   0.612  15.800 -1.6495  1.0401 -0.3555
  604MPD2    N1 8959   3.674   0.928  15.963  0.9520  0.3318  0.5620
  604MPD2    H7 8960   3.591   0.975  15.997  1.0190  1.3125 -0.6469
  605TMC3    C1 8961   3.746   1.146  15.991  0.4407  0.3924 -0.4629
  605TMC3    C2 8962   3.824   1.208  16.079  0.0707  0.8657  0.1224
  605TMC3    C3 8963   3.809   1.338  16.097 -0.6363 -0.5120 -0.1271
  605TMC3    C4 8964   3.636   1.205  15.934  0.8116  0.2281  0.4186
  605TMC3    C5 8965   3.618   1.341  15.954 -0.1446  1.0129 -0.0979
  605TMC3    C6 8966   3.715   1.410  16.033  0.5189  0.2909  0.2824
  605TMC3     C 8967   3.789   1.009  15.959  0.2099 -0.5006 -1.0639
  605TMC3     O 8968   3.906   0.980  15.977  0.4165  0.2034  0.3693
  605TMC3     H 8969   3.912   1.164  16.127  0.3728  2.2723  0.8575
  605TMC3    H1 8970   3.574   1.144  15.869 -0.9744  1.1572  1.2535
  605TMC3    H2 8971   3.722   1.518  16.045 -0.1677  0.1568  1.8001
  605TMC3    C7 8972   3.520   1.420  15.882 -0.4541  0.7640 -0.4611
  605TMC3    C8 8973   3.937   1.406  16.117 -0.1500  0.3486 -0.4372
  605TMC3    O1 8974   3.484   1.522  15.927 -0.0323  0.0014  0.1992
  605TMC3    O2 8975   4.008   1.411  16.018  0.4701 -0.4572  0.2245
  606TMC3    C1 8976   1.265   4.571  17.078  0.3720 -0.2165 -0.6394
  606TMC3    C2 8977   1.350   4.482  17.131 -0.2309 -0.5650 -0.1290
  606TMC3    C3 8978   1.343   4.353  17.091 -0.2305  0.6417 -0.1895
  606TMC3    C4 8979   1.167   4.536  16.992  0.1768 -0.1380  0.5971
  606TMC3    C5 8980   1.150   4.401  16.955  0.3198 -0.2704 -0.0387
  606TMC3    C6 8981   1.239   4.305  17.010  0.0082  0.2989  0.0147
  606TMC3     C 8982   1.287   4.713  17.104  0.4049  0.2217  0.0176
  606TMC3     O 8983   1.215   0.067  17.039  0.2990  0.8520  0.0514
  606TMC3     H 8984   1.436   4.510  17.191  0.4309  2.9053 -2.7303
  606TMC3    H1 8985   1.106   4.611  16.944  0.2860  0.1886  0.9684
  606TMC3    H2 8986   1.245   4.205  16.968 -0.3712  0.2204  0.1484
  606TMC3    C7 8987   1.069   4.375  16.836 -0.0794  0.3845 -0.3910
  606TMC3    C8 8988   1.440   4.262  17.147  0.6832  0.6913  0.0268
  606TMC3    O1 8989   1.061   4.458  16.749  0.5066 -0.0206 -0.0727
  606TMC3    O2 8990   1.519   4.320  17.218 -0.0718  0.0740 -0.1423
  607MPD2     C 8991   2.776   2.354  11.027  0.2286 -0.1859 -0.0809
  607MPD2    C1 8992   2.823   2.387  11.150 -0.4839 -0.3152 -0.8301
  607MPD2    C2 8993   2.784   2.319  11.260 -0.2629 -0.1154 -0.2337
  607MPD2    C3 8994   2.702   2.208  11.244  0.5824  0.5126 -0.4102
  607MPD2    C4 8995   2.655   2.173  11.115  0.1601  0.3882  0.5553
  607MPD2    C5 8996   2.697   2.246  11.006 -0.6282  0.6945 -0.0484
  607MPD2     H 8997   2.830   2.339  11.356 -0.6711  3.7894 -0.8551
  607MPD2    H1 8998   2.581   2.097  11.095 -0.3044  1.4786 -1.8568
  607MPD2    H2 8999   2.803   2.406  10.936 -2.0596 -0.0407 -0.6755
  607MPD2    H3 9000   2.671   2.213  10.905 -3.1676  2.1453  0.1369
  607MPD2     N 9001   2.676   2.136  11.365 -0.9133  0.1004  1.1138
  607MPD2    H5 9002   2.693   2.191  11.449  2.8689  1.8187 -0.7892
  607MPD2    N1 9003   2.907   2.499  11.170  0.2047 -0.9908 -0.3779
  607MPD2    H7 9004   2.915   2.525  11.268  0.8371 -2.1823 -0.1080
  608TMC3    C1 9005   3.085   2.645  11.138 -0.6117 -0.5355 -0.6844
  608TMC3    C2 9006   3.137   2.601  11.258  0.2197  0.5070 -0.3432
  608TMC3    C3 9007   3.235   2.666  11.318 -0.5802  0.3992 -0.0079
  608TMC3    C4 9008   3.157   2.735  11.066  0.1655 -0.2023 -0.9221
  608TMC3    C5 9009   3.266   2.794  11.121 -0.3093 -0.2718 -0.0098
  608TMC3    C6 9010   3.296   2.771  11.253 -0.1831 -0.5605  0.6452
  608TMC3     C 9011   2.989   2.559  11.080  0.4615 -0.7382  0.2980
  608TMC3     O 9012   2.999   2.543  10.957  0.1976  0.6355 -0.1745
  608TMC3     H 9013   3.109   2.500  11.286 -1.5360  1.1159  0.0560
  608TMC3    H1 9014   3.127   2.770  10.968  0.4117 -2.5409 -1.8408
  608TMC3    H2 9015   3.330   2.846  11.324 -2.1596 -0.6646  1.7127
  608TMC3    C7 9016   3.336   2.900  11.059  0.1435  0.4566 -0.2132
  608TMC3    C8 9017   3.283   2.602  11.442  0.1158 -0.1669 -0.1793
  608TMC3    O1 9018   3.273   2.940  10.963  0.2831  0.1227 -0.4339
  608TMC3    O2 9019   3.402   2.600  11.452  0.0923  0.2519  0.4197
  609TMC3    C1 9020   2.032   0.825   8.441 -0.4912  0.2749 -0.7796
  609TMC3    C2 9021   1.973   0.707   8.406 -0.0879 -0.7152 -0.1982
  609TMC3    C3 9022   2.037   0.593   8.448 -0.2682  0.0994 -0.2543
  609TMC3    C4 9023   2.134   0.836   8.538 -0.7901  0.4918 -0.6362
  609TMC3    C5 9024   2.182   0.718   8.584  0.6170  0.6654  0.1429
  609TMC3    C6 9025   2.135   0.594   8.543 -0.1686  0.3749  0.6617
  609TMC3     C 9026   1.954   0.946   8.423 -0.1373 -0.0841  0.0161
  609TMC3     O 9027   1.953   1.025   8.515  0.0405  0.0379 -0.2929
  609TMC3     H 9028   1.895   0.706   8.331 -1.3860 -0.4076  1.1589
  609TMC3    H1 9029   2.174   0.931   8.570  0.7717  0.3623 -2.2500
  609TMC3    H2 9030   2.175   0.501   8.583 -1.4868 -0.5035 -0.0580
  609TMC3    C7 9031   2.287   0.725   8.682  0.6935 -0.8170  0.1260
  609TMC3    C8 9032   1.977   0.465   8.422 -0.1069  0.0080  0.3860
  609TMC3    O1 9033   2.288   0.820   8.756  0.1001  0.1349  0.3635
  609TMC3    O2 9034   1.861   0.456   8.392 -0.2283  0.0181 -0.5461
  610TMC3    C1 9035   3.475   2.225  12.708 -0.4113 -0.3775  0.2398
  610TMC3    C2 9036   3.537   2.269  12.591 -0.6108  0.4274 -0.3818
  610TMC3    C3 9037   3.671   2.309  12.600  0.6625 -0.4874  0.3016
  610TMC3    C4 9038   3.540   2.232  12.828 -0.4439  0.4114 -0.2674
  610TMC3    C5 9039   3.672   2.267  12.826  0.3556  0.7062  0.5704
  610TMC3    C6 9040   3.740   2.308  12.717  0.1719  0.3005  0.2263
  610TMC3     C 9041   3.333   2.272  12.731  0.6423 -0.3635 -0.5408
  610TMC3     O 9042   3.308   2.305  12.843  0.4879 -0.3482  0.1228
  610TMC3     H 9043   3.485   2.280  12.497 -1.1735 -1.9750 -0.3553
  610TMC3    H1 9044   3.486   2.183  12.908  0.9983  1.6991  1.5127
  610TMC3    H2 9045   3.847   2.323  12.713  0.5972 -2.7446  0.4873
  610TMC3    C7 9046   3.754   2.232  12.943 -0.1535 -0.5324  0.2105
  610TMC3    C8 9047   3.726   2.350  12.482  1.1012 -0.8377  0.5304
  610TMC3    O1 9048   3.874   2.260  12.941  0.4481 -0.1527 -0.7135
  610TMC3    O2 9049   3.666   2.305  12.382  0.0975  0.2996  0.5489
  611MPD2     C 9050   3.398   2.208   9.964  0.8483 -0.1424  0.2404
  611MPD2    C1 9051   3.300   2.299   9.931  0.1861 -0.3093  0.7037
  611MPD2    C2 9052   3.322   2.434   9.967 -0.6334 -0.5359  0.1147
  611MPD2    C3 9053   3.441   2.483  10.039  0.4262  0.0731 -0.5450
  611MPD2    C4 9054   3.539   2.392  10.059 -0.2589  0.1431 -0.9217
  611MPD2    C5 9055   3.516   2.261  10.018  0.4796 -0.0093  0.5584
  611MPD2     H 9056   3.238   2.499   9.948  0.8347  0.8009 -1.7920
  611MPD2    H1 9057   3.632   2.426  10.105 -1.0333  0.7878  0.1571
  611MPD2    H2 9058   3.401   2.102   9.941 -0.0788 -0.3120  0.9352
  611MPD2    H3 9059   3.591   2.185  10.038  1.3635  0.9116  0.7020
  611MPD2     N 9060   3.454   2.615  10.095  0.2192 -0.0684 -0.4438
  611MPD2    H5 9061   3.532   2.636  10.156  1.6178 -0.1859 -2.1725
  611MPD2    N1 9062   3.172   2.251   9.882 -0.4345 -0.2550 -1.1198
  611MPD2    H7 9063   3.158   2.150   9.883 -4.0804  0.2404 -0.7977
  612TMC3    C1 9064   3.394   2.840  10.129 -0.9132 -0.3710 -0.3108
  612TMC3    C2 9065   3.498   2.859  10.212 -0.3364 -0.3007  0.0628
  612TMC3    C3 9066   3.497   2.979  10.288  0.2825  0.1232  0.6496
  612TMC3    C4 9067   3.292   2.933  10.116  0.7584  0.3875 -1.2101
  612TMC3    C5 9068   3.294   3.041  10.195  0.2177  0.0437  0.1975
  612TMC3    C6 9069   3.398   3.076  10.270  0.3781  0.0635  0.2039
  612TMC3     C 9070   3.368   2.716  10.059  0.0139  0.0360  0.9138
  612TMC3     O 9071   3.283   2.718   9.970 -0.2209  0.1533 -0.0184
  612TMC3     H 9072   3.582   2.792  10.209  0.3923  0.6628 -1.0173
  612TMC3    H1 9073   3.205   2.906  10.057 -1.3135  0.1723  1.9414
  612TMC3    H2 9074   3.406   3.172  10.319  1.5429 -0.0079  0.1649
  612TMC3    C7 9075   3.186   3.138  10.186  0.2147  0.1968  0.5681
  612TMC3    C8 9076   3.615   3.014  10.363  1.0177  0.2511  0.3766
  612TMC3    O1 9077   3.124   3.149  10.082  0.3371 -0.0453 -0.3304
  612TMC3    O2 9078   3.638   3.132  10.377  0.7622 -0.5620  0.4561
  613MPD2     C 9079   2.056   0.357  16.733  0.1197 -0.1482 -0.6564
  613MPD2    C1 9080   1.977   0.357  16.623  0.0797  0.3047 -0.2412
  613MPD2    C2 9081   1.888   0.257  16.613 -0.3683 -0.0977  0.2399
  613MPD2    C3 9082   1.901   0.140  16.673 -0.2064 -0.6956  0.3127
  613MPD2    C4 9083   1.996   0.132  16.773 -0.8435 -0.2770 -0.3182
  613MPD2    C5 9084   2.069   0.240  16.802  0.0199  0.1277  0.1634
  613MPD2     H 9085   1.815   0.261  16.533  0.6691  0.4466 -0.6855
  613MPD2    H1 9086   2.006   0.038  16.826 -1.2180  0.2254  0.6294
  613MPD2    H2 9087   2.112   0.444  16.766 -0.1863  0.1862 -1.0275
  613MPD2    H3 9088   2.137   0.251  16.886  0.2986  0.7188 -0.1355
  613MPD2     N 9089   1.827   0.017  16.655 -0.2993  0.1027  0.2301
  613MPD2    H5 9090   1.856   4.663  16.713  0.4686  0.5384  0.4445
  613MPD2    N1 9091   1.982   0.473  16.533  0.2316  0.4240 -0.2135
  613MPD2    H7 9092   2.043   0.546  16.568  1.1734 -1.6473  2.4763
  614TMC3    C1 9093   1.846   0.388  16.337  0.2585  0.5700 -0.2737
  614TMC3    C2 9094   1.913   0.273  16.303 -0.7439  0.7869  0.1492
  614TMC3    C3 9095   1.875   0.206  16.192  0.1123 -0.3555 -0.7113
  614TMC3    C4 9096   1.752   0.435  16.255 -0.5566 -0.3949 -0.3402
  614TMC3    C5 9097   1.721   0.366  16.140 -0.3109 -0.6223 -0.5993
  614TMC3    C6 9098   1.778   0.251  16.113  0.1348 -0.1491  0.2975
  614TMC3     C 9099   1.907   0.495  16.420 -0.0323  0.6091  0.1134
  614TMC3     O 9100   1.914   0.604  16.361 -0.0840  0.5395  0.5011
  614TMC3     H 9101   1.990   0.232  16.368 -2.0035 -1.8753 -0.0212
  614TMC3    H1 9102   1.718   0.537  16.258 -0.2112 -0.2450 -1.2938
  614TMC3    H2 9103   1.752   0.198  16.021 -0.3558 -0.6044  0.6998
  614TMC3    C7 9104   1.662   0.453  16.043 -0.0307  0.6858  0.2909
  614TMC3    C8 9105   1.902   0.060  16.197 -0.3641 -0.5123  0.3747
  614TMC3    O1 9106   1.615   0.558  16.081 -0.1838 -0.3871 -0.2493
  614TMC3    O2 9107   1.946   0.021  16.304 -0.1746  0.9790  0.1180
  615MPD2     C 9108   1.516   1.644  16.138  0.2694  0.4676  0.0142
  615MPD2    C1 9109   1.378   1.650  16.107  0.2043  0.0061 -0.4631
  615MPD2    C2 9110   1.305   1.533  16.081 -0.9709  0.4097 -0.5258
  615MPD2    C3 9111   1.368   1.412  16.078 -0.1742  0.0112  0.1982
  615MPD2    C4 9112   1.499   1.413  16.084 -0.0428 -0.5121 -0.2181
  615MPD2    C5 9113   1.573   1.524  16.117 -0.3859 -0.2516  0.4677
  615MPD2     H 9114   1.197   1.539  16.069 -1.2000 -1.1645  0.8511
  615MPD2    H1 9115   1.557   1.322  16.079  0.9071  0.0182  1.0248
  615MPD2    H2 9116   1.578   1.724  16.175  0.5832  0.8951 -1.4725
  615MPD2    H3 9117   1.678   1.503  16.135 -0.6256 -0.3162  1.7727
  615MPD2     N 9118   1.307   1.285  16.067  0.3275  0.3713  0.0942
  615MPD2    H5 9119   1.357   1.197  16.073  1.7197  1.4155  3.8046
  615MPD2    N1 9120   1.301   1.768  16.098 -0.1851  0.2217  0.2819
  615MPD2    H7 9121   1.208   1.760  16.059 -0.1701  0.2322  0.2447
  616TMC3    C1 9122   1.264   2.003  16.056  0.2533 -0.3884  0.5496
  616TMC3    C2 9123   1.321   2.122  16.047  0.0641  0.2396  0.2729
  616TMC3    C3 9124   1.250   2.226  15.990  0.0969 -0.9334 -0.2449
  616TMC3    C4 9125   1.143   1.974  15.987  0.3508 -0.4143  0.2835
  616TMC3    C5 9126   1.075   2.079  15.927  0.7158  0.1026  0.0252
  616TMC3    C6 9127   1.124   2.205  15.925 -0.9288  0.1205  0.5638
  616TMC3     C 9128   1.354   1.899  16.105  1.0354  0.5219  0.3724
  616TMC3     O 9129   1.468   1.930  16.145  0.1240  0.0092 -0.6613
  616TMC3     H 9130   1.409   2.144  16.106  0.4253  1.9294 -0.8808
  616TMC3    H1 9131   1.103   1.873  15.988  1.5884 -0.9116 -0.5724
  616TMC3    H2 9132   1.081   2.293  15.878 -1.0315 -1.1295 -1.6922
  616TMC3    C7 9133   0.984   2.043  15.816  0.3109  0.1094 -0.2598
  616TMC3    C8 9134   1.318   2.355  15.974 -0.6429 -0.1546 -0.0934
  616TMC3    O1 9135   0.904   2.131  15.791  0.1932 -0.4165 -0.1864
  616TMC3    O2 9136   1.247   2.454  15.988  0.3144 -0.8212  0.5726
  617MPD2     C 9137   4.117   4.170  12.966 -0.7536  0.0833 -0.0725
  617MPD2    C1 9138   4.104   4.193  13.096  0.3603 -0.8108  0.0759
  617MPD2    C2 9139   3.984   4.161  13.166  0.3675 -0.2290 -0.2948
  617MPD2    C3 9140   3.876   4.116  13.094 -0.1149 -0.1883  0.2001
  617MPD2    C4 9141   3.889   4.105  12.959 -0.1555  0.5930 -0.2481
  617MPD2    C5 9142   4.007   4.127  12.897  0.1200 -0.0354  0.1562
  617MPD2     H 9143   3.980   4.194  13.269 -0.5268 -1.2703 -0.0039
  617MPD2    H1 9144   3.807   4.077  12.894 -0.3193 -0.0627  0.2347
  617MPD2    H2 9145   4.211   4.194  12.918 -0.1968 -2.6226 -0.3267
  617MPD2    H3 9146   4.000   4.113  12.790 -0.4088 -1.2619  0.3393
  617MPD2     N 9147   3.747   4.080  13.156 -0.4217 -0.2266 -0.2708
  617MPD2    H5 9148   3.676   4.038  13.097 -0.1350 -0.6745 -0.3065
  617MPD2    N1 9149   4.216   4.251  13.161 -0.2990  0.1022  0.0941
  617MPD2    H7 9150   4.293   4.274  13.099  0.0855 -0.0249  0.5224
  618TMC3    C1 9151   4.386   4.291  13.305 -0.2613 -0.0232 -0.1089
  618TMC3    C2 9152   4.469   4.186  13.324 -0.4709 -0.3787  0.3048
  618TMC3    C3 9153   4.599   4.202  13.289 -0.4889  0.3960 -0.4937
  618TMC3    C4 9154   4.427   4.396  13.230  0.1281  0.2801 -0.6405
  618TMC3    C5 9155   4.560   4.405  13.195 -0.4343 -0.7582 -1.2686
  618TMC3    C6 9156   4.653   4.309  13.236  0.1843 -0.3106 -0.0490
  618TMC3     C 9157   4.246   4.265  13.290 -0.2752  0.0959  0.0625
  618TMC3     O 9158   4.185   4.225  13.388  0.1200 -0.3140  0.3082
  618TMC3     H 9159   4.431   4.097  13.372 -1.1257 -0.3246 -0.1176
  618TMC3    H1 9160   4.353   4.469  13.200 -1.5174 -1.5894 -1.0496
  618TMC3    H2 9161   0.031   4.322  13.203 -0.0533  2.2888  0.2056
  618TMC3    C7 9162   4.599   4.509  13.107 -0.3675 -0.6266  0.5391
  618TMC3    C8 9163   4.673   4.083  13.271 -0.5030 -0.1502 -0.4621
  618TMC3    O1 9164   4.566   4.619  13.146 -0.2805  0.4037  0.9658
  618TMC3    O2 9165   4.612   3.977  13.265  0.6226  0.5178 -0.3188
  619MPD2     C 9166   0.895   0.779  13.740 -0.0214  0.5127  0.3946
  619MPD2    C1 9167   0.863   0.759  13.611 -0.2654  0.1283 -0.3607
  619MPD2    C2 9168   0.740   0.702  13.586  0.4015 -0.1670 -0.0812
  619MPD2    C3 9169   0.651   0.671  13.689 -0.4942 -0.5272  0.1511
  619MPD2    C4 9170   0.683   0.694  13.821 -0.0460 -1.0053 -0.4350
  619MPD2    C5 9171   0.807   0.747  13.847  0.2640  0.3489  0.5484
  619MPD2     H 9172   0.715   0.686  13.481 -2.0751 -0.1633  0.5080
  619MPD2    H1 9173   0.612   0.682  13.901  0.7720  0.5467  0.5251
  619MPD2    H2 9174   0.993   0.817  13.766  0.8222 -1.6063  0.3060
  619MPD2    H3 9175   0.839   0.761  13.949  1.9747 -0.1689  0.0916
  619MPD2     N 9176   0.523   0.611  13.661  0.2862 -0.3944  0.4786
  619MPD2    H5 9177   0.449   0.612  13.731  0.5648  0.9495  0.7500
  619MPD2    N1 9178   0.928   0.813  13.496  0.5004 -0.9338  0.2049
  619MPD2    H7 9179   0.868   0.801  13.415 -0.2428  2.9580  0.1838
  620TMC3    C1 9180   1.063   0.943  13.367  0.4073 -0.1297 -0.2021
  620TMC3    C2 9181   0.973   0.909  13.268  0.1051 -0.1268 -1.1140
  620TMC3    C3 9182   0.930   1.023  13.193 -0.6655 -0.3136  0.0514
  620TMC3    C4 9183   1.124   1.063  13.377 -0.3600  0.3238 -0.2234
  620TMC3    C5 9184   1.090   1.162  13.290 -0.2215 -0.2897  0.3700
  620TMC3    C6 9185   1.007   1.140  13.187  0.8011 -0.5500 -0.4265
  620TMC3     C 9186   1.045   0.878  13.494  0.8306  0.1942 -0.2368
  620TMC3     O 9187   1.129   0.888  13.577  0.2297 -0.1708  0.2292
  620TMC3     H 9188   0.927   0.811  13.260 -0.2161  0.0880 -1.9754
  620TMC3    H1 9189   1.182   1.086  13.466 -2.0541  3.3759  0.0783
  620TMC3    H2 9190   0.967   1.221  13.127 -0.6406 -1.0909 -0.2026
  620TMC3    C7 9191   1.115   1.295  13.332  0.8648  0.1077 -0.1938
  620TMC3    C8 9192   0.792   1.054  13.204  0.4994 -1.2563  0.0111
  620TMC3    O1 9193   1.229   1.323  13.372 -0.2864 -0.9916  0.8287
  620TMC3    O2 9194   0.759   1.167  13.241  0.0484  0.3041 -0.2028
  621MPD2     C 9195   1.722   0.598   9.266  0.0432  0.1176 -0.0628
  621MPD2    C1 9196   1.743   0.597   9.402 -0.2954  0.5982 -0.3219
  621MPD2    C2 9197   1.810   0.702   9.457  0.5690  0.0747 -0.1879
  621MPD2    C3 9198   1.852   0.815   9.387  0.5835  0.1321 -0.5051
  621MPD2    C4 9199   1.829   0.815   9.250  0.0139 -0.4113 -0.8365
  621MPD2    C5 9200   1.773   0.703   9.194  0.5035 -0.7931  0.3113
  621MPD2     H 9201   1.816   0.712   9.565  3.2723 -1.7582 -0.1509
  621MPD2    H1 9202   1.879   0.886   9.185  1.1722 -1.2370 -0.8514
  621MPD2    H2 9203   1.653   0.529   9.219 -0.1950  0.7340 -0.6115
  621MPD2    H3 9204   1.769   0.698   9.086 -1.3348  1.0501  0.2840
  621MPD2     N 9205   1.920   0.912   9.462  0.2353 -0.1528 -0.4524
  621MPD2    H5 9206   1.936   0.906   9.562 -0.7119  1.5245 -0.2079
  621MPD2    N1 9207   1.688   0.498   9.486  0.2245  0.0093 -0.7185
  621MPD2    H7 9208   1.708   0.515   9.584  0.8210  3.0430 -1.3847
  622TMC3    C1 9209   1.586   0.313   9.562 -0.2180 -0.4606 -0.2624
  622TMC3    C2 9210   1.569   0.374   9.687 -0.3828 -0.0627  0.1164
  622TMC3    C3 9211   1.584   0.300   9.799  0.0104 -0.1977 -0.3198
  622TMC3    C4 9212   1.569   0.176   9.549 -0.9416 -0.2212  0.6195
  622TMC3    C5 9213   1.574   0.110   9.667  0.1814 -0.3028  0.0889
  622TMC3    C6 9214   1.581   0.167   9.794 -0.1642  0.1593  0.7244
  622TMC3     C 9215   1.626   0.390   9.451  0.7191  1.1396  0.1648
  622TMC3     O 9216   1.574   0.344   9.351 -0.3075 -0.7438 -0.0934
  622TMC3     H 9217   1.553   0.481   9.692  0.6439  0.1095 -0.1533
  622TMC3    H1 9218   1.576   0.124   9.454  0.6343 -0.2676  0.7618
  622TMC3    H2 9219   1.586   0.114   9.888 -1.4506  0.5103  0.9943
  622TMC3    C7 9220   1.548   4.693   9.682 -0.7386 -0.3405  0.2734
  622TMC3    C8 9221   1.531   0.349   9.924  0.8362  0.1257  0.3042
  622TMC3    O1 9222   1.595   4.630   9.774  0.4849 -0.2345  1.0119
  622TMC3    O2 9223   1.505   0.277  10.023 -0.2554  0.5527  0.1817
  623MPD2     C 9224   4.293   1.902  15.446 -0.4261  0.4492  0.7867
  623MPD2    C1 9225   4.242   1.806  15.529 -0.3614 -0.6520 -0.3083
  623MPD2    C2 9226   4.317   1.780  15.640  0.4391  0.5584  0.6413
  623MPD2    C3 9227   4.436   1.846  15.665  0.3791  0.2362  0.1913
  623MPD2    C4 9228   4.490   1.936  15.575  0.2255 -0.6422  0.2371
  623MPD2    C5 9229   4.421   1.950  15.459 -0.1507 -0.5215  0.3250
  623MPD2     H 9230   4.269   1.714  15.712 -0.0832  0.4899  0.2338
  623MPD2    H1 9231   4.590   1.976  15.591 -0.0011 -0.0945  0.2687
  623MPD2    H2 9232   4.237   1.924  15.356  1.2733  0.2670 -0.2878
  623MPD2    H3 9233   4.465   2.012  15.381 -0.1804 -1.0583 -0.1133
  623MPD2     N 9234   4.507   1.798  15.780 -0.0152 -0.4033 -0.3406
  623MPD2    H5 9235   4.466   1.723  15.835  0.7714 -0.8039 -0.3044
  623MPD2    N1 9236   4.119   1.738  15.521 -0.2018  0.4319  0.4229
  623MPD2    H7 9237   4.088   1.679  15.597 -1.3807  1.0099  0.3842
  624TMC3    C1 9238   0.119   1.743  16.109  0.0382 -0.1435 -0.6862
  624TMC3    C2 9239   0.035   1.719  16.211  0.5962  0.8395  0.1281
  624TMC3    C3 9240   4.624   1.729  16.182 -0.2115  0.2682 -0.3215
  624TMC3    C4 9241   0.072   1.774  15.981  0.6084 -0.8730 -0.0483
  624TMC3    C5 9242   4.665   1.789  15.954 -0.5461 -0.3808  0.1155
  624TMC3    C6 9243   4.581   1.767  16.059 -1.0653  0.0933 -0.8789
  624TMC3     C 9244   0.257   1.723  16.135 -0.2158  0.6286 -0.1880
  624TMC3     O 9245   0.292   1.664  16.236  0.2219 -0.1530  0.8225
  624TMC3     H 9246   0.073   1.685  16.307 -0.7433 -0.9162  0.0392
  624TMC3    H1 9247   0.138   1.800  15.899  3.8225 -1.1392  2.4971
  624TMC3    H2 9248   4.477   1.784  16.030 -0.7105  1.9960 -1.0609
  624TMC3    C7 9249   4.624   1.841  15.829 -0.4733  0.0518 -0.1481
  624TMC3    C8 9250   4.531   1.678  16.277 -0.0703  0.0986 -0.2928
  624TMC3    O1 9251   4.707   1.915  15.777 -0.2729  0.0801 -0.2698
  624TMC3    O2 9252   4.557   1.689  16.397  0.4097 -1.1071 -0.4406
  625MPD2     C 9253   4.480   2.319  17.468 -0.2810 -0.6266 -0.3298
  625MPD2    C1 9254   4.585   2.362  17.550 -0.5714 -0.7267 -0.3058
  625MPD2    C2 9255   4.592   2.292  17.675 -0.1321  1.2681  0.0638
  625MPD2    C3 9256   4.512   2.182   0.013 -0.2975 -1.0513 -0.3943
  625MPD2    C4 9257   4.425   2.146  17.619 -0.2610 -0.8192  0.5736
  625MPD2    C5 9258   4.405   2.215  17.502  1.1127  0.1765 -0.4072
  625MPD2     H 9259   4.664   2.321   0.054 -0.0044  2.8003 -0.6283
  625MPD2    H1 9260   4.369   2.054  17.631 -0.0291 -1.0378  0.0058
  625MPD2    H2 9261   4.452   2.383  17.384 -2.4790 -1.9451 -0.5973
  625MPD2    H3 9262   4.329   2.176  17.434  0.6710 -0.0680  0.2272
  625MPD2     N 9263   4.533   2.105   0.128  0.2303 -0.9488 -0.3847
  625MPD2    H5 9264   4.460   2.036   0.146  1.0716 -1.1499  2.2102
  625MPD2    N1 9265   4.664   2.476  17.517 -0.7123 -0.3948  0.4885
  625MPD2    H7 9266   4.724   2.509  17.592 -1.3077 -2.7168  1.9809
  626TMC3    C1 9267   0.058   2.642  17.392 -0.1687  0.1847 -0.3469
  626TMC3    C2 9268   0.052   2.725  17.287 -0.4895  0.1259  0.5586
  626TMC3    C3 9269   0.130   2.844  17.296  0.5251 -0.2549  0.3557
  626TMC3    C4 9270   0.144   2.662  17.503 -0.2569 -0.0131 -0.3485
  626TMC3    C5 9271   0.222   2.781  17.503  0.2306  0.2126  0.2104
  626TMC3    C6 9272   0.217   2.869  17.400 -0.1797 -0.3666  0.3474
  626TMC3     C 9273   4.684   2.538  17.394 -0.0532 -0.1570 -0.4529
  626TMC3     O 9274   4.617   2.527  17.291  0.1927 -0.0804  0.4953
  626TMC3     H 9275   4.723   2.711  17.193 -0.3210 -0.3772  0.5377
  626TMC3    H1 9276   0.152   2.594  17.586  1.6802  0.3407 -0.2262
  626TMC3    H2 9277   0.281   2.956  17.404 -0.1994 -0.3637  0.6096
  626TMC3    C7 9278   0.283   2.830  17.629 -0.0429 -0.5261  0.6966
  626TMC3    C8 9279   0.095   2.952  17.205  0.6659 -0.2148  0.4295
  626TMC3    O1 9280   0.312   2.949  17.626  0.5789  0.3428 -0.3392
  626TMC3    O2 9281   0.024   2.938  17.103  0.2907  0.0669  0.6035
  627MPD2     C 9282   3.251   3.392  14.182 -0.5741 -0.1072 -0.1920
  627MPD2    C1 9283   3.381   3.401  14.229  0.5835  0.1190 -0.6442
  627MPD2    C2 9284   3.448   3.288  14.258 -0.2565  0.3217 -0.9816
  627MPD2    C3 9285   3.404   3.160  14.215 -0.5355 -0.5420 -0.4628
  627MPD2    C4 9286   3.277   3.153  14.159 -0.8530  0.1354  0.1421
  627MPD2    C5 9287   3.202   3.271  14.148 -0.1674 -0.3064 -0.5432
  627MPD2     H 9288   3.548   3.291  14.298 -0.9219  0.2043  0.6875
  627MPD2    H1 9289   3.231   3.057  14.137 -0.3157 -0.4649  1.6111
  627MPD2    H2 9290   3.181   3.472  14.162  0.3078  0.8959  0.8174
  627MPD2    H3 9291   3.099   3.268  14.116  0.0423  1.3072 -1.3424
  627MPD2     N 9292   3.485   3.044  14.248  0.1619 -0.0946  0.8275
  627MPD2    H5 9293   3.564   3.060  14.310 -0.2769  1.0915  1.0800
  627MPD2    N1 9294   3.443   3.522  14.270  0.6396 -0.7158 -0.0237
  627MPD2    H7 9295   3.527   3.509  14.325  0.8682 -0.1895 -0.2449
  628TMC3    C1 9296   3.484   3.755  14.273  0.5772  0.6626  0.2045
  628TMC3    C2 9297   3.621   3.725  14.276 -0.5779  0.0458  0.3891
  628TMC3    C3 9298   3.706   3.834  14.275 -0.2991  0.5984  0.5797
  628TMC3    C4 9299   3.436   3.880  14.257  0.0684 -0.0042  0.3966
  628TMC3    C5 9300   3.530   3.982  14.259 -0.3196 -0.1383 -0.6089
  628TMC3    C6 9301   3.659   3.962  14.279  0.2344  0.1597  0.0425
  628TMC3     C 9302   3.396   3.648  14.240 -0.1364  1.1278 -0.6529
  628TMC3     O 9303   3.288   3.676  14.186 -0.2692 -0.4088  0.0215
  628TMC3     H 9304   3.659   3.627  14.252  0.4771  0.7629 -0.8523
  628TMC3    H1 9305   3.330   3.902  14.258 -0.0558 -0.5985  0.0478
  628TMC3    H2 9306   3.724   4.042  14.245  1.6873 -0.9472  0.2229
  628TMC3    C7 9307   3.493   4.110  14.200  0.3703  0.3521 -0.2382
  628TMC3    C8 9308   3.848   3.815  14.265  0.0906 -0.0396  0.6269
  628TMC3    O1 9309   3.511   4.217  14.264 -0.3089  0.9110 -0.7774
  628TMC3    O2 9310   3.927   3.907  14.241 -0.1854  0.7379 -0.0095
  629MPD2     C 9311   1.741   2.642  15.910 -0.2765 -0.6796 -1.0876
  629MPD2    C1 9312   1.786   2.513  15.945  0.1565 -0.2850  0.0154
  629MPD2    C2 9313   1.684   2.416  15.973 -0.0274  0.6792  0.4449
  629MPD2    C3 9314   1.556   2.443  15.947  0.4718  0.2548  1.1712
  629MPD2    C4 9315   1.523   2.568  15.913  0.4517  1.0576 -0.6058
  629MPD2    C5 9316   1.612   2.666  15.884 -0.3588  0.2755 -0.9651
  629MPD2     H 9317   1.703   2.317  16.014 -2.6726 -0.3020 -0.7530
  629MPD2    H1 9318   1.421   2.598  15.891 -0.3182 -1.4544 -0.4980
  629MPD2    H2 9319   1.816   2.715  15.884  0.1566 -0.3678  1.0540
  629MPD2    H3 9320   1.581   2.759  15.838  0.2040  0.7870 -0.3143
  629MPD2     N 9321   1.458   2.347  15.961 -0.7610  0.1561 -0.1622
  629MPD2    H5 9322   1.496   2.254  15.947  0.1547  0.5591 -0.3170
  629MPD2    N1 9323   1.924   2.490  15.944  0.0037 -0.4354  0.0893
  629MPD2    H7 9324   1.979   2.565  15.903 -0.9506  0.7869  1.0356
  630TMC3    C1 9325   2.125   2.379  15.953 -0.1720  0.1630 -0.8934
  630TMC3    C2 9326   2.193   2.473  15.883  0.4625  0.8968  0.3504
  630TMC3    C3 9327   2.321   2.449  15.846  0.5461 -0.9193 -0.4607
  630TMC3    C4 9328   2.187   2.261  15.986 -0.3859  0.6512 -0.8737
  630TMC3    C5 9329   2.318   2.241  15.949 -0.1807  0.0701 -0.6480
  630TMC3    C6 9330   2.380   2.326  15.853  0.0230 -0.5102 -0.1188
  630TMC3     C 9331   1.992   2.390  16.005  0.1012 -0.5400  0.8219
  630TMC3     O 9332   1.948   2.297  16.071  0.2546 -0.9181 -0.1125
  630TMC3     H 9333   2.145   2.568  15.864 -0.6804  0.4929  1.2438
  630TMC3    H1 9334   2.148   2.200  16.067  2.4197  0.7385  0.5483
  630TMC3    H2 9335   2.473   2.309  15.800 -0.8948 -1.8391 -1.3228
  630TMC3    C7 9336   2.408   2.185  16.039  0.4507  0.5658  0.1272
  630TMC3    C8 9337   2.421   2.558  15.842  0.2073  0.2275  0.0298
  630TMC3    O1 9338   2.371   2.111  16.127  0.7880 -0.5620 -0.3247
  630TMC3    O2 9339   2.536   2.515  15.833 -0.1718  0.1306  0.1795
  631MPD2     C 9340   0.325   1.209  15.708  0.9809 -0.4346 -0.1456
  631MPD2    C1 9341   0.425   1.231  15.614  0.0388 -0.8790  0.3507
  631MPD2    C2 9342   0.551   1.172  15.630  0.6085 -0.2799 -0.3893
  631MPD2    C3 9343   0.589   1.120  15.755  0.4102 -0.4846  0.3458
  631MPD2    C4 9344   0.488   1.094  15.843  0.3309  0.2383  0.1208
  631MPD2    C5 9345   0.360   1.129  15.811  0.6451  0.1352  0.3879
  631MPD2     H 9346   0.628   1.168  15.553  1.4794  1.2644  0.4010
  631MPD2    H1 9347   0.501   1.053  15.943 -2.0795 -1.5481 -0.2834
  631MPD2    H2 9348   0.227   1.252  15.696  0.8647  0.1640  2.8881
  631MPD2    H3 9349   0.283   1.103  15.883 -0.5084  1.7781 -0.2552
  631MPD2     N 9350   0.721   1.093  15.783  0.1722 -0.1431 -0.1648
  631MPD2    H5 9351   0.790   1.104  15.709 -0.3939  1.5978 -0.4141
  631MPD2    N1 9352   0.382   1.315  15.498 -0.7547  0.5438  0.4045
  631MPD2    H7 9353   0.291   1.358  15.512 -0.9088  0.8183 -1.4912
  632TMC3    C1 9354   0.394   1.475  15.324 -0.0406 -0.6123  0.7788
  632TMC3    C2 9355   0.291   1.548  15.374 -0.4048  0.2694 -0.0213
  632TMC3    C3 9356   0.253   1.646  15.287 -0.4513 -0.4223  0.2797
  632TMC3    C4 9357   0.452   1.486  15.197 -0.7570 -0.5568  0.0603
  632TMC3    C5 9358   0.396   1.575  15.114  0.1043  0.2509 -0.1710
  632TMC3    C6 9359   0.303   1.663  15.158  0.3778  0.1280 -0.1740
  632TMC3     C 9360   0.457   1.368  15.405 -0.0511 -0.4109 -0.1068
  632TMC3     O 9361   0.577   1.345  15.376  0.1396  0.0353  0.6808
  632TMC3     H 9362   0.260   1.538  15.478 -0.0026 -0.0382  0.0687
  632TMC3    H1 9363   0.534   1.420  15.172 -0.1577  0.9105 -1.9269
  632TMC3    H2 9364   0.266   1.745  15.097 -0.6608 -0.3578 -0.2070
  632TMC3    C7 9365   0.461   1.627  14.993  0.0659 -0.1564 -0.2738
  632TMC3    C8 9366   0.189   1.767  15.346 -0.0466  0.3711 -0.5354
  632TMC3    O1 9367   0.385   1.682  14.917 -0.0333 -0.4155  0.1882
  632TMC3    O2 9368   0.110   1.748  15.436 -0.4605  0.2048 -0.5212
  633MPD2     C 9369   0.118   4.190  17.073  0.4386 -0.2363 -0.3861
  633MPD2    C1 9370   0.146   4.197  16.936 -0.0707 -0.0381 -0.6459
  633MPD2    C2 9371   0.182   4.085  16.870 -0.0125  0.2615 -0.0995
  633MPD2    C3 9372   0.200   3.967  16.932  1.0021 -0.4604  0.2831
  633MPD2    C4 9373   0.164   3.956  17.066  0.0431 -0.7474 -0.1985
  633MPD2    C5 9374   0.126   4.070  17.132 -0.0131  0.4667  0.3247
  633MPD2     H 9375   0.207   4.097  16.765 -0.0130 -1.0012 -0.2448
  633MPD2    H1 9376   0.162   3.856  17.106 -2.0466 -0.1657  1.1822
  633MPD2    H2 9377   0.088   4.273  17.135  0.2191  1.7456 -3.1455
  633MPD2    H3 9378   0.080   4.054  17.229 -0.5998 -0.0478 -0.0363
  633MPD2     N 9379   0.246   3.854  16.855  0.1927 -0.0805 -0.1749
  633MPD2    H5 9380   0.273   3.770  16.904 -1.8432 -0.2336  0.6726
  633MPD2    N1 9381   0.165   4.322  16.865 -0.6358  0.6617 -0.2270
  633MPD2    H7 9382   0.177   4.308  16.765  0.0148  3.1308 -0.4864
  634TMC3    C1 9383   0.186   4.548  16.820  0.2531  0.2105  0.0392
  634TMC3    C2 9384   0.264   4.503  16.715  0.4734 -0.1684 -0.1826
  634TMC3    C3 9385   0.306   4.600  16.630 -0.3913  0.0104 -0.6411
  634TMC3    C4 9386   0.148   4.680  16.846  0.1844  0.2718 -0.5552
  634TMC3    C5 9387   0.195   0.041  16.754 -0.4718 -0.1052  0.0820
  634TMC3    C6 9388   0.269   0.009  16.642  0.5776 -0.8359  0.8811
  634TMC3     C 9389   0.152   4.447  16.920  0.3669  0.4734 -0.1318
  634TMC3     O 9390   0.115   4.486  17.029 -0.2816 -0.2317 -0.0652
  634TMC3     H 9391   0.326   4.414  16.709 -1.1658 -1.3112 -0.1251
  634TMC3    H1 9392   0.071   4.704  16.918  2.0339  1.0475  1.1693
  634TMC3    H2 9393   0.304   0.092  16.583 -2.5723  0.7015  1.1890
  634TMC3    C7 9394   0.131   0.174  16.745 -0.8449  0.2244 -0.3775
  634TMC3    C8 9395   0.361   4.561  16.504 -0.5219 -0.5313 -0.4852
  634TMC3    O1 9396   0.155   0.235  16.642  0.3820 -0.2515 -0.5350
  634TMC3    O2 9397   0.366   4.443  16.491 -1.0692  0.4356 -0.3025
  635TMC3    C1 9398   0.775   0.171  17.053  0.6987 -0.2360  0.1125
  635TMC3    C2 9399   0.853   0.202  16.941  0.2093  0.0379 -0.6588
  635TMC3    C3 9400   0.907   0.104  16.864 -0.0515 -0.1940  0.2373
  635TMC3    C4 9401   0.752   0.039  17.087 -0.3627  0.0851 -0.4923
  635TMC3    C5 9402   0.791   4.677  16.994 -0.8968 -0.0902  0.2966
  635TMC3    C6 9403   0.869   4.701  16.890  0.3115 -0.5509  0.7387
  635TMC3     C 9404   0.720   0.278  17.132 -0.6876  0.2633 -0.4949
  635TMC3     O 9405   0.744   0.387  17.083  0.1251 -0.1960  0.1950
  635TMC3     H 9406   0.883   0.306  16.934 -2.3670  0.8393  0.2478
  635TMC3    H1 9407   0.696   0.000  17.171  2.3564 -0.4735  1.0837
  635TMC3    H2 9408   0.906   4.621  16.826  1.2539  1.0936 -0.7547
  635TMC3    C7 9409   0.730   4.543  17.004 -0.2324 -0.6668 -0.6534
  635TMC3    C8 9410   0.983   0.129  16.742  0.0741 -0.9589  0.3288
  635TMC3    O1 9411   0.737   4.493  17.117 -0.9834  0.1272 -0.0435
  635TMC3    O2 9412   0.984   0.038  16.660 -0.7078  0.6720 -0.0771
  636MPD2     C 9413   1.434   0.072  15.811 -0.5076  0.1763  0.3785
  636MPD2    C1 9414   1.405   0.144  15.927  0.0579  0.3938 -0.0999
  636MPD2    C2 9415   1.421   0.084  16.053 -0.1369  0.7819 -0.0214
  636MPD2    C3 9416   1.461   4.679  16.065 -0.1777 -0.0013 -0.4494
  636MPD2    C4 9417   1.505   4.613  15.950 -0.3113 -0.6785 -0.7899
  636MPD2    C5 9418   1.489   4.669  15.825  0.0812  0.0953  0.6579
  636MPD2     H 9419   1.384   0.138  16.139  1.3184  2.9217 -0.7327
  636MPD2    H1 9420   1.557   4.519  15.954  0.1701 -0.4321 -1.3868
  636MPD2    H2 9421   1.428   0.112  15.710  2.2007  0.2985  0.2559
  636MPD2    H3 9422   1.518   4.608  15.741 -1.6225 -0.4102  0.4267
  636MPD2     N 9423   1.464   4.628  16.200 -0.1044  0.1093  0.0207
  636MPD2    H5 9424   1.440   4.683  16.282  0.0530 -2.4380  1.7592
  636MPD2    N1 9425   1.358   0.274  15.934 -0.3024  0.1163 -0.3600
  636MPD2    H7 9426   1.341   0.319  16.023 -0.1632  1.3682 -0.9523
  637TMC3    C1 9427   1.551   4.480  16.374 -0.5493  0.3899 -0.4007
  637TMC3    C2 9428   1.571   4.599  16.453 -0.1700  0.2365  0.0522
  637TMC3    C3 9429   1.674   4.602  16.543  0.5478 -0.3113  0.5253
  637TMC3    C4 9430   1.632   4.371  16.392 -0.1754  0.2771  0.0328
  637TMC3    C5 9431   1.743   4.384  16.473 -0.2895  0.9810  0.0766
  637TMC3    C6 9432   1.765   4.502  16.545  0.0177  0.0396  0.7520
  637TMC3     C 9433   1.507   4.502  16.232  0.0420  0.4866  0.2549
  637TMC3     O 9434   1.519   4.400  16.161 -0.1245  0.1303 -0.0430
  637TMC3     H 9435   1.505   4.684  16.448 -1.3723 -0.6217  1.2464
  637TMC3    H1 9436   1.627   4.282  16.330  1.1928  0.3991 -0.2392
  637TMC3    H2 9437   1.862   4.511  16.593 -1.1438 -0.2735  3.1359
  637TMC3    C7 9438   1.868   4.318  16.448 -0.1940 -0.1568 -0.6793
  637TMC3    C8 9439   1.729   0.011  16.556  0.3388  0.7690 -0.2540
  637TMC3    O1 9440   1.922   4.278  16.549  0.6715 -0.3933 -0.8445
  637TMC3    O2 9441   1.663   0.102  16.509  0.3416  0.1946  0.2039
  638MPD2     C 9442   1.165   3.795  14.559  0.5934  0.3363  0.0510
  638MPD2    C1 9443   1.128   3.673  14.513  0.5132  0.5220  0.4228
  638MPD2    C2 9444   1.023   3.603  14.573  0.8218  0.4529  0.5486
  638MPD2    C3 9445   0.971   3.653  14.692 -0.2742 -0.1814 -0.3992
  638MPD2    C4 9446   1.017   3.773  14.744  0.2717 -0.3457  0.8448
  638MPD2    C5 9447   1.118   3.843  14.680 -0.3846  0.2747  0.0890
  638MPD2     H 9448   0.998   3.502  14.542 -0.5371  0.3322  2.0902
  638MPD2    H1 9449   0.969   3.808  14.834  0.1200  0.7863  0.3172
  638MPD2    H2 9450   1.247   3.853  14.519  0.9890 -0.2459  0.0202
  638MPD2    H3 9451   1.149   3.942  14.712 -0.4027  0.8939 -1.7938
  638MPD2     N 9452   0.867   3.591  14.760  0.3981 -0.2723 -0.1466
  638MPD2    H5 9453   0.845   3.624  14.854 -1.8641 -0.1479 -0.7128
  638MPD2    N1 9454   1.199   3.629  14.395 -0.5920 -0.2145  0.4691
  638MPD2    H7 9455   1.294   3.658  14.373 -1.1974  1.4589  0.0453
  639TMC3    C1 9456   0.729   3.400  14.804 -0.0539 -0.4753  0.5661
  639TMC3    C2 9457   0.641   3.320  14.745 -0.4269 -0.0237  0.3813
  639TMC3    C3 9458   0.627   3.195  14.801  0.8465 -0.2185 -0.3444
  639TMC3    C4 9459   0.780   3.366  14.927 -0.5331 -0.0698  0.9036
  639TMC3    C5 9460   0.762   3.244  14.983 -0.7374  0.5509  0.2383
  639TMC3    C6 9461   0.691   3.150  14.914 -0.3625 -0.1974 -0.4509
  639TMC3     C 9462   0.796   3.485  14.708  0.0540  0.1561  0.1047
  639TMC3     O 9463   0.785   3.441  14.591 -0.1310  0.1164 -0.0062
  639TMC3     H 9464   0.588   3.337  14.651  0.9770 -2.8190 -0.9102
  639TMC3    H1 9465   0.862   3.423  14.969  0.8228 -0.9381 -0.5450
  639TMC3    H2 9466   0.688   3.047  14.947  1.8328  0.1403  0.7808
  639TMC3    C7 9467   0.861   3.196  15.074  0.4901 -0.4123  0.0768
  639TMC3    C8 9468   0.569   3.099  14.705 -0.2374 -0.6123 -0.7580
  639TMC3    O1 9469   0.911   3.276  15.152 -0.4109 -0.2107 -0.2515
  639TMC3    O2 9470   0.593   3.118  14.584  0.4818  0.1234 -0.3926
  640MPD2     C 9471   1.994   2.132   9.424  0.6824 -0.2681 -0.1444
  640MPD2    C1 9472   1.935   2.108   9.297 -0.2108 -0.3168 -0.3902
  640MPD2    C2 9473   1.817   2.186   9.260 -0.7773  0.2050  0.0906
  640MPD2    C3 9474   1.767   2.280   9.342 -0.0284 -0.6044  0.4843
  640MPD2    C4 9475   1.824   2.297   9.465 -0.9414  0.2315 -0.0092
  640MPD2    C5 9476   1.930   2.225   9.511  0.5500 -0.0450  0.1255
  640MPD2     H 9477   1.776   2.178   9.160 -1.2328  0.9900  0.2187
  640MPD2    H1 9478   1.782   2.356   9.546 -0.6768 -1.1305  1.1396
  640MPD2    H2 9479   2.077   2.076   9.466 -0.2487 -0.4464  1.4744
  640MPD2    H3 9480   1.962   2.251   9.612  0.6125 -1.3968  0.4494
  640MPD2     N 9481   1.660   2.356   9.301  0.0405  0.1102 -0.9061
  640MPD2    H5 9482   1.626   2.429   9.362 -0.0205  0.1457 -0.9816
  640MPD2    N1 9483   2.006   2.019   9.212  0.1024 -0.1683  0.1198
  640MPD2    H7 9484   2.081   1.969   9.257  1.6982  0.9039 -1.3732
  641TMC3    C1 9485   2.043   1.862   9.040 -0.1031  0.0151 -0.3302
  641TMC3    C2 9486   2.119   1.779   9.122 -0.7227 -0.3924 -0.1022
  641TMC3    C3 9487   2.174   1.671   9.061 -0.0259 -0.0384  0.1820
  641TMC3    C4 9488   2.015   1.835   8.908  0.2851 -0.3785  0.1669
  641TMC3    C5 9489   2.070   1.723   8.861 -0.3745  0.1763  0.2866
  641TMC3    C6 9490   2.143   1.639   8.929  0.6299 -0.8014  0.6130
  641TMC3     C 9491   1.980   1.987   9.080  0.6598 -0.3728 -0.2287
  641TMC3     O 9492   1.920   2.059   8.999 -0.2102  0.4252  0.2116
  641TMC3     H 9493   2.123   1.794   9.229  0.9315  2.0476 -0.5136
  641TMC3    H1 9494   1.968   1.910   8.847  0.1031 -1.1936 -0.6961
  641TMC3    H2 9495   2.180   1.548   8.882  2.2778 -0.3541  1.0155
  641TMC3    C7 9496   2.033   1.684   8.725 -0.6171 -0.6088  0.1909
  641TMC3    C8 9497   2.263   1.576   9.137  1.1142  0.1261  0.5750
  641TMC3    O1 9498   2.106   1.617   8.655  0.8106 -0.2682 -0.4351
  641TMC3    O2 9499   2.252   1.463   9.099 -0.0531  0.3660 -0.2196
  642TMC3    C1 9500   3.018   3.086  11.903  0.0583  0.4117 -0.7963
  642TMC3    C2 9501   3.070   3.052  12.023 -0.0738  0.1844 -0.5949
  642TMC3    C3 9502   3.085   2.918  12.041 -0.3344 -0.1828  0.5905
  642TMC3    C4 9503   2.958   2.999  11.821 -0.6373 -0.6354 -0.0845
  642TMC3    C5 9504   2.961   2.873  11.847 -0.2561  0.2554 -0.3556
  642TMC3    C6 9505   3.024   2.826  11.963  0.9178 -0.5148  0.1878
  642TMC3     C 9506   2.995   3.226  11.867 -0.6191 -0.2749 -0.8956
  642TMC3     O 9507   2.992   3.269  11.753 -0.6012  0.5156 -0.2148
  642TMC3     H 9508   3.101   3.124  12.097  0.6138  0.8387 -1.5177
  642TMC3    H1 9509   2.912   3.035  11.730 -0.4183  1.1595  0.5168
  642TMC3    H2 9510   3.041   2.720  11.975  0.2862 -0.5988  0.3412
  642TMC3    C7 9511   2.871   2.780  11.775  0.3164  0.7385  0.0748
  642TMC3    C8 9512   3.145   2.870  12.171  0.0080  0.0070  0.1580
  642TMC3    O1 9513   2.853   2.805  11.659  0.1703 -0.6304  0.0485
  642TMC3    O2 9514   3.123   2.944  12.263 -0.3783 -0.0712 -0.4502
  643TMC3    C1 9515   2.136   2.735   0.109  0.4216  0.1840  0.4739
  643TMC3    C2 9516   2.021   2.800   0.110  0.2200  0.2531  0.1679
  643TMC3    C3 9517   1.919   2.773   0.028 -0.4639  0.0566  0.1627
  643TMC3    C4 9518   2.157   2.626   0.031 -0.0336  0.2511  0.5847
  643TMC3    C5 9519   2.057   2.595  17.643  0.2049  0.5944  0.2703
  643TMC3    C6 9520   1.934   2.665  17.644 -0.1594 -0.2876 -0.5785
  643TMC3     C 9521   2.227   2.770   0.215 -0.5721 -0.8242  0.2042
  643TMC3     O 9522   2.182   2.845   0.302 -0.4349 -0.4348 -0.1716
  643TMC3     H 9523   2.007   2.882   0.179  1.7224  0.2697  0.4492
  643TMC3    H1 9524   2.248   2.568   0.038 -1.0974 -1.7077 -1.6002
  643TMC3    H2 9525   1.847   2.638  17.585 -0.2921 -0.7945 -0.1622
  643TMC3    C7 9526   2.112   2.581  17.509 -0.2913  0.5500  0.3638
  643TMC3    C8 9527   1.871   2.877  17.643 -0.5707  0.9003  0.0743
  643TMC3    O1 9528   2.221   2.632  17.490 -0.3515  0.4200  0.0307
  643TMC3    O2 9529   1.757   2.877  17.605 -0.9014 -0.2184  0.2511
  644MPD2     C 9530   1.916   2.809   8.743  0.2399 -0.2863  0.7335
  644MPD2    C1 9531   2.045   2.813   8.794 -0.1632 -0.4146 -0.3100
  644MPD2    C2 9532   2.099   2.940   8.830  1.4204  0.1216 -0.2734
  644MPD2    C3 9533   2.042   3.059   8.795 -0.4459  0.4643 -0.5741
  644MPD2    C4 9534   1.912   3.050   8.731  1.2606  0.1481  0.4072
  644MPD2    C5 9535   1.854   2.930   8.699  0.7733  0.2016 -0.2794
  644MPD2     H 9536   2.199   2.939   8.872  1.7418  2.4982 -0.9744
  644MPD2    H1 9537   1.854   3.137   8.704  1.0850  0.0516  0.4774
  644MPD2    H2 9538   1.870   2.714   8.718 -0.4518  0.1489  0.3518
  644MPD2    H3 9539   1.763   2.916   8.642  0.0374  1.5306  0.5717
  644MPD2     N 9540   2.099   3.186   8.821 -0.1606 -0.4900  0.8939
  644MPD2    H5 9541   2.194   3.180   8.856 -0.0549  1.1119  0.9065
  644MPD2    N1 9542   2.109   2.690   8.827  0.0665  0.2572 -0.3078
  644MPD2    H7 9543   2.052   2.613   8.794 -1.0835 -0.2186  2.7532
  645TMC3    C1 9544   2.135   3.409   8.851  0.7169 -0.3860 -0.2780
  645TMC3    C2 9545   2.213   3.374   8.954 -0.0678  0.6090  0.1171
  645TMC3    C3 9546   2.322   3.456   8.981  0.1722 -0.2627  0.0729
  645TMC3    C4 9547   2.149   3.525   8.783 -0.5729  0.1423  0.3688
  645TMC3    C5 9548   2.259   3.608   8.813  0.7190  0.3077  0.0513
  645TMC3    C6 9549   2.344   3.576   8.915  0.4578  0.3396 -0.0861
  645TMC3     C 9550   2.045   3.314   8.794  0.2688 -0.2515 -0.4728
  645TMC3     O 9551   1.947   3.349   8.728  0.3869  0.2724  0.1758
  645TMC3     H 9552   2.193   3.290   9.019 -0.8956  1.2085  0.6349
  645TMC3    H1 9553   2.076   3.545   8.706 -0.9318  0.3366  0.7593
  645TMC3    H2 9554   2.425   3.640   8.947 -0.2333  0.4334  1.5094
  645TMC3    C7 9555   2.258   3.743   8.762  0.2321 -0.4276  0.6041
  645TMC3    C8 9556   2.408   3.419   9.092 -0.4603  0.2906  0.3148
  645TMC3    O1 9557   2.151   3.786   8.717 -0.8383 -0.3236  0.9079
  645TMC3    O2 9558   2.363   3.325   9.154 -0.6537  0.2060 -0.5199
  646MPD2     C 9559   1.166   2.233  13.938  0.6673  0.6100 -0.0512
  646MPD2    C1 9560   1.120   2.238  14.066 -0.8401 -0.1947  0.3106
  646MPD2    C2 9561   1.002   2.308  14.097  0.1333  0.1926 -0.0881
  646MPD2    C3 9562   0.918   2.357  14.000  0.3164  0.1213  0.6063
  646MPD2    C4 9563   0.965   2.354  13.871 -0.2472 -0.5238  0.4721
  646MPD2    C5 9564   1.091   2.290  13.839 -0.0607  0.2918  0.1896
  646MPD2     H 9565   0.963   2.309  14.198  0.2237 -1.4548 -0.0349
  646MPD2    H1 9566   0.907   2.401  13.793 -0.7337 -0.2487  1.0043
  646MPD2    H2 9567   1.261   2.187  13.914 -0.3801 -0.4725 -2.1453
  646MPD2    H3 9568   1.128   2.277  13.737  0.3935 -1.3568  0.5734
  646MPD2     N 9569   0.799   2.410  14.033  0.0507 -0.5994 -0.2271
  646MPD2    H5 9570   0.787   2.429  14.133 -1.0066  1.7038 -0.7832
  646MPD2    N1 9571   1.193   2.177  14.171 -0.8946 -0.3048 -0.3326
  646MPD2    H7 9572   1.280   2.130  14.148  0.4788  1.5841  1.0597
  647TMC3    C1 9573   1.245   2.082  14.377 -0.0150 -0.4790 -0.2589
  647TMC3    C2 9574   1.221   2.082  14.508 -0.0506  0.4761 -0.3992
  647TMC3    C3 9575   1.317   2.050  14.592  0.7159  0.9207 -0.4241
  647TMC3    C4 9576   1.375   2.063  14.328 -0.6938 -0.0554 -0.4013
  647TMC3    C5 9577   1.478   2.049  14.422  0.0747  0.6984 -0.1735
  647TMC3    C6 9578   1.451   2.036  14.549 -0.2145  0.0709  0.3103
  647TMC3     C 9579   1.147   2.158  14.300 -0.0648 -0.4031  0.7687
  647TMC3     O 9580   1.045   2.191  14.359 -0.3282 -0.1176  0.4271
  647TMC3     H 9581   1.124   2.080  14.557  0.0129  2.8170 -0.1832
  647TMC3    H1 9582   1.401   2.068  14.223 -0.9807  1.1620 -0.4175
  647TMC3    H2 9583   1.530   2.016  14.620  0.8870 -0.6429 -1.0994
  647TMC3    C7 9584   1.567   1.940  14.407  0.2195  0.0938  0.2191
  647TMC3    C8 9585   1.285   1.957  14.699  0.3439  0.4310  0.4204
  647TMC3    O1 9586   1.684   1.972  14.426  0.0799 -0.0903  0.5378
  647TMC3    O2 9587   1.379   1.934  14.774  0.6404 -0.1648  0.1917
  648TMC3    C1 9588   0.745   0.104  15.837  0.6237 -0.2050  0.1410
  648TMC3    C2 9589   0.811   0.027  15.741 -0.6728  0.4989  0.0261
  648TMC3    C3 9590   0.744   4.714  15.631  0.0613  0.4757 -0.8861
  648TMC3    C4 9591   0.622   0.158  15.811 -1.2630 -0.3905  0.6513
  648TMC3    C5 9592   0.559   0.113  15.690  0.3583  0.6808  0.3975
  648TMC3    C6 9593   0.616   0.030  15.606  0.3644  0.1551 -0.6555
  648TMC3     C 9594   0.776   0.102  15.973  0.1363  0.0651 -0.1368
  648TMC3     O 9595   0.721   0.180  16.045  0.2944  0.4396  0.0501
  648TMC3     H 9596   0.909   4.709  15.757 -0.6059  0.9763  0.8563
  648TMC3    H1 9597   0.573   0.215  15.889  2.6259  2.1806  1.2497
  648TMC3    H2 9598   0.561   0.012  15.515  2.1449 -0.0884 -1.6769
  648TMC3    C7 9599   0.418   0.135  15.665 -0.1215 -0.1158 -0.0346
  648TMC3    C8 9600   0.781   4.596  15.553  0.0351 -0.5087  0.3975
  648TMC3    O1 9601   0.362   0.068  15.580 -0.5903  0.6535 -0.3634
  648TMC3    O2 9602   0.900   4.583  15.524 -0.0712 -0.2240 -0.4851
  649TMC3    C1 9603   4.181   1.189  12.376 -0.1384  0.1056 -0.4561
  649TMC3    C2 9604   4.315   1.196  12.370 -0.2964 -1.0065 -0.2427
  649TMC3    C3 9605   4.380   1.140  12.480 -0.7238  0.1245 -0.1133
  649TMC3    C4 9606   4.113   1.131  12.479 -0.5341  0.0797  0.4580
  649TMC3    C5 9607   4.177   1.072  12.585  0.3238  0.0455 -0.1277
  649TMC3    C6 9608   4.312   1.075  12.587  0.1459  0.3035  0.0324
  649TMC3     C 9609   4.101   1.293  12.323 -0.5262  0.6140  0.1781
  649TMC3     O 9610   4.037   1.361  12.399 -0.0096 -0.4604  0.2518
  649TMC3     H 9611   4.363   1.257  12.295 -1.6332  1.8587  1.2387
  649TMC3    H1 9612   4.006   1.145  12.476 -0.2209  2.2547 -0.5025
  649TMC3    H2 9613   4.366   1.019  12.663  1.2996 -0.6871 -1.5064
  649TMC3    C7 9614   4.110   0.967  12.662 -0.4684 -0.0619  0.1593
  649TMC3    C8 9615   4.521   1.164  12.492 -0.3735  0.0187  0.2727
  649TMC3    O1 9616   4.167   0.908  12.755 -0.3808  0.1230  0.6807
  649TMC3    O2 9617   4.587   1.182  12.389 -0.3138  0.4542  0.4251
  650TMC3    C1 9618   2.075   2.579  12.665  0.4880 -0.1100  0.4985
  650TMC3    C2 9619   2.062   2.720  12.676 -0.6550 -0.5539 -0.4431
  650TMC3    C3 9620   1.997   2.778  12.574 -0.8879 -0.9541 -0.4963
  650TMC3    C4 9621   2.026   2.512  12.557 -0.7790 -0.5983 -0.2891
  650TMC3    C5 9622   1.957   2.579  12.465 -0.4377 -0.1881 -0.8087
  650TMC3    C6 9623   1.945   2.713  12.465 -0.5197  0.5061 -0.2010
  650TMC3     C 9624   2.174   2.520  12.760 -0.1552  0.2846 -0.1266
  650TMC3     O 9625   2.181   2.571  12.869 -0.0402  0.7020  0.2588
  650TMC3     H 9626   2.101   2.772  12.763 -0.8304 -1.7568  0.3607
  650TMC3    H1 9627   2.031   2.404  12.555  1.2596 -0.4955 -0.5877
  650TMC3    H2 9628   1.918   2.773  12.378 -1.2686 -2.0928 -1.7599
  650TMC3    C7 9629   1.972   2.520  12.335 -0.6837  0.4303 -0.1726
  650TMC3    C8 9630   2.037   2.920  12.560 -0.6202  0.1624  0.4323
  650TMC3    O1 9631   2.031   2.410  12.334 -0.2705  0.0957  0.1795
  650TMC3    O2 9632   2.145   2.947  12.608 -0.1698  0.0819  0.1098
  651MPD2     C 9633   1.584   4.021  10.393 -0.2927 -0.7634  0.0160
  651MPD2    C1 9634   1.572   4.154  10.423 -0.0689  0.8505  0.1927
  651MPD2    C2 9635   1.656   4.250  10.357 -0.5432 -0.4627 -1.0393
  651MPD2    C3 9636   1.754   4.205  10.269  0.4687  0.6482 -0.4027
  651MPD2    C4 9637   1.771   4.071  10.246 -0.4346  0.2221  0.4625
  651MPD2    C5 9638   1.682   3.983  10.307  0.4900  0.1619  0.2773
  651MPD2     H 9639   1.644   4.357  10.373  1.8778 -0.4225  0.5360
  651MPD2    H1 9640   1.833   4.036  10.164 -0.7272 -0.2915  0.4588
  651MPD2    H2 9641   1.514   3.946  10.429  0.4559 -1.0046  0.9844
  651MPD2    H3 9642   1.689   3.881  10.272  0.9604 -0.0106  0.8790
  651MPD2     N 9643   1.833   4.313  10.216 -0.1674  0.2015  0.1517
  651MPD2    H5 9644   1.816   4.404  10.256  1.5005  0.8832 -0.7226
  651MPD2    N1 9645   1.467   4.206  10.497  0.2909 -0.0944 -0.3229
  651MPD2    H7 9646   1.466   4.307  10.493  1.5267 -0.0959 -0.9545
  652TMC3    C1 9647   2.212   4.529  10.034 -0.2619 -0.0698 -0.2894
  652TMC3    C2 9648   2.136   4.414  10.064  0.3944 -0.7318  0.7654
  652TMC3    C3 9649   2.002   4.423  10.079 -0.5435 -0.5867 -0.4545
  652TMC3    C4 9650   2.143   4.650  10.003  0.0192 -0.0542  0.1654
  652TMC3    C5 9651   2.004   4.648  10.017 -0.4225 -0.1104 -0.0436
  652TMC3    C6 9652   1.931   4.542  10.074 -0.0757 -0.0511 -0.0976
  652TMC3     C 9653   2.358   4.522  10.021  0.2819 -0.7481 -0.0280
  652TMC3     O 9654   2.414   4.591   9.933 -0.0056  0.5330 -1.3044
  652TMC3     H 9655   2.183   4.317  10.060  0.1910 -0.8066  0.1286
  652TMC3    H1 9656   2.189   0.015   9.961 -0.0106 -0.4238 -0.6568
  652TMC3    H2 9657   1.822   4.542  10.075 -0.0916 -1.5016 -1.8151
  652TMC3    C7 9658   1.941   0.058  10.040 -0.3074  0.4591  1.1194
  652TMC3    C8 9659   1.935   4.301  10.124 -0.0715  0.0291 -0.4825
  652TMC3    O1 9660   1.819   0.058  10.030  0.2894  0.2292  0.9414
  652TMC3    O2 9661   1.980   4.199  10.069 -0.3997 -0.3648 -0.1187
  653MPD2     C 9662   4.646   4.429  17.419 -0.6168  0.1620  1.1869
  653MPD2    C1 9663   4.555   4.532  17.398  0.1840 -0.3184 -0.3165
  653MPD2    C2 9664   4.444   4.506  17.311 -0.8744  0.5019 -0.1469
  653MPD2    C3 9665   4.417   4.382  17.258 -0.3447 -0.0411  0.2398
  653MPD2    C4 9666   4.510   4.283  17.287  0.9471 -0.0486  0.0883
  653MPD2    C5 9667   4.616   4.304  17.373  0.0378 -0.1605  0.7651
  653MPD2     H 9668   4.374   4.584  17.283 -0.7998 -0.0200 -1.8144
  653MPD2    H1 9669   4.503   4.183  17.246  0.3325 -0.5142  1.3386
  653MPD2    H2 9670   0.012   4.459  17.472 -0.0968  0.5125  0.0980
  653MPD2    H3 9671   4.679   4.223  17.409  1.6089  0.7624  0.1057
  653MPD2     N 9672   4.306   4.364  17.169 -0.2248 -0.6016 -0.2332
  653MPD2    H5 9673   4.248   4.445  17.154 -0.5048 -0.4631  1.5785
  653MPD2    N1 9674   4.571   4.662  17.448  0.0642 -0.6974 -0.1735
  653MPD2    H7 9675   4.510   0.014  17.420  0.6939  0.5478  1.8366
  654TMC3    C1 9676   4.168   4.246  17.012  0.0354 -0.1256  0.2414
  654TMC3    C2 9677   4.077   4.348  17.023  0.5936 -0.5472  0.0540
  654TMC3    C3 9678   3.992   4.367  16.919  0.4753 -0.0180 -0.2558
  654TMC3    C4 9679   4.185   4.176  16.895  0.8472  0.1035 -0.1476
  654TMC3    C5 9680   4.087   4.207  16.795  0.6710 -0.0946  0.5590
  654TMC3    C6 9681   3.993   4.303  16.802 -0.4823 -0.6222  0.3101
  654TMC3     C 9682   4.286   4.248  17.100 -0.8928 -0.6792 -0.0585
  654TMC3     O 9683   4.334   4.137  17.114  0.2404  0.2119 -0.8375
  654TMC3     H 9684   4.063   4.403  17.116 -0.8875 -1.3141  0.2726
  654TMC3    H1 9685   4.273   4.114  16.887 -0.4204 -1.6639 -0.5617
  654TMC3    H2 9686   3.942   4.350  16.719 -0.6092  1.8071  1.7516
  654TMC3    C7 9687   4.118   4.166  16.663 -0.1870  0.0821 -0.4247
  654TMC3    C8 9688   3.920   4.495  16.907  0.0008  0.6185 -0.1250
  654TMC3    O1 9689   4.074   4.234  16.567 -0.5216  0.5776  0.2014
  654TMC3    O2 9690   3.849   4.519  17.001 -0.4467  0.1421  0.2741
  655MPD2     C 9691   0.914   0.276  15.502  0.6415  0.5000  0.2918
  655MPD2    C1 9692   0.789   0.313  15.458  0.0902 -0.4102 -0.9950
  655MPD2    C2 9693   0.751   0.250  15.345 -0.3434 -0.5772  0.3592
  655MPD2    C3 9694   0.837   0.161  15.277 -0.4148 -0.6017 -0.2305
  655MPD2    C4 9695   0.966   0.147  15.311 -0.0646  0.0259 -0.4532
  655MPD2    C5 9696   1.002   0.199  15.432  0.0323  0.0166  0.0482
  655MPD2     H 9697   0.653   0.274  15.306  0.4500  0.8003 -0.7534
  655MPD2    H1 9698   1.035   0.089  15.250 -0.0383  1.8062 -2.0915
  655MPD2    H2 9699   0.955   0.318  15.593  0.0907  1.0360  0.2960
  655MPD2    H3 9700   1.101   0.189  15.475  1.4495 -1.4594 -3.5864
  655MPD2     N 9701   0.804   0.094  15.156 -0.2434  0.1247 -0.2370
  655MPD2    H5 9702   0.878   0.064  15.093 -1.3019 -1.7877 -0.5926
  655MPD2    N1 9703   0.697   0.389  15.537  0.0964 -0.2548 -0.0268
  655MPD2    H7 9704   0.601   0.400  15.504 -0.4366 -2.1473  0.8718
  656TMC3    C1 9705   0.617   0.505  15.724 -0.0388  0.2466  0.4549
  656TMC3    C2 9706   0.617   0.501  15.860 -0.4041  0.3350  0.0628
  656TMC3    C3 9707   0.548   0.588  15.933 -0.7012  0.5474  0.4068
  656TMC3    C4 9708   0.552   0.604  15.649 -0.4435  0.0770  0.2480
  656TMC3    C5 9709   0.466   0.672  15.724 -1.1831  0.5636 -0.0611
  656TMC3    C6 9710   0.458   0.663  15.858 -0.0507 -0.5500 -0.7634
  656TMC3     C 9711   0.726   0.438  15.660 -0.1412  0.0777  0.3092
  656TMC3     O 9712   0.827   0.412  15.724 -0.5042  0.0373 -0.0509
  656TMC3     H 9713   0.674   0.423  15.910  0.3466  1.3040  0.7203
  656TMC3    H1 9714   0.552   0.623  15.542 -0.7104 -2.2524 -0.1600
  656TMC3    H2 9715   0.391   0.731  15.910 -0.4705 -1.6038  0.0763
  656TMC3    C7 9716   0.355   0.736  15.655 -0.3147 -0.4285 -0.5934
  656TMC3    C8 9717   0.484   0.517  16.039 -0.3975 -0.0085  0.2955
  656TMC3    O1 9718   0.371   0.754  15.535  0.6332  0.9058  0.3353
  656TMC3    O2 9719   0.486   0.391  16.027 -0.0869  0.0305  0.0812
  657TMC3    C1 9720   4.654   4.489  14.023  0.4090 -0.6742 -0.0508
  657TMC3    C2 9721   4.620   4.450  14.148 -0.0016 -0.7942  0.0224
  657TMC3    C3 9722   4.500   4.492  14.204 -0.0284 -1.0271  0.0947
  657TMC3    C4 9723   4.565   4.563  13.950  0.4688  0.1673  0.0237
  657TMC3    C5 9724   4.442   4.589  14.000  0.7124 -0.2392 -0.0294
  657TMC3    C6 9725   4.411   4.566  14.132 -0.0854 -0.0049 -0.5128
  657TMC3     C 9726   0.062   4.484  13.980 -0.4683 -0.0427  0.0616
  657TMC3     O 9727   0.091   4.572  13.901  0.4406 -0.1824  0.2907
  657TMC3     H 9728   4.696   4.427  14.222  0.2988  0.6487  0.1579
  657TMC3    H1 9729   4.591   4.586  13.847 -0.2230 -2.1980 -0.6811
  657TMC3    H2 9730   4.319   4.601  14.178 -0.2572 -1.5273  0.3202
  657TMC3    C7 9731   4.378   4.706  13.940 -0.6113 -0.0898  0.1792
  657TMC3    C8 9732   4.446   4.422  14.318 -0.6255  0.1729 -0.0204
  657TMC3    O1 9733   4.454   0.051  13.871  0.4748 -0.5247 -0.2334
  657TMC3    O2 9734   4.376   4.500  14.383 -1.0831  0.2058  0.1038
  658MPD2     C 9735   1.222   4.643  14.746  0.6049 -0.1118 -0.1794
  658MPD2    C1 9736   1.104   4.653  14.670 -0.2302  0.8287  0.0686
  658MPD2    C2 9737   1.109   4.670  14.532 -0.6234 -0.6283  0.3128
  658MPD2    C3 9738   1.236   4.691  14.474  0.9831  0.1744 -0.1031
  658MPD2    C4 9739   1.351   4.687  14.549  0.4960 -0.1419  0.3676
  658MPD2    C5 9740   1.341   4.656  14.682  0.7606  0.3608  0.1141
  658MPD2     H 9741   1.019   4.695  14.477  0.2341  0.4078 -0.6211
  658MPD2    H1 9742   1.452   4.701  14.513  0.7386 -1.0967  0.6722
  658MPD2    H2 9743   1.228   4.640  14.855 -0.6867 -2.8028 -0.1994
  658MPD2    H3 9744   1.431   4.650  14.741 -0.8545  0.5801  2.6152
  658MPD2     N 9745   1.256   4.714  14.337 -0.7269 -0.2733 -0.5868
  658MPD2    H5 9746   1.355   4.713  14.314 -0.4852 -0.3497  0.4741
  658MPD2    N1 9747   0.981   4.639  14.751 -0.0528 -0.7664 -0.7030
  658MPD2    H7 9748   0.989   4.637  14.852 -0.0994 -0.8086 -0.7002
  659TMC3    C1 9749   0.752   4.616  14.805  0.3720 -0.0151  0.8287
  659TMC3    C2 9750   0.765   4.711  14.900  0.6930 -0.7363 -0.3212
  659TMC3    C3 9751   0.661   4.715  14.991  0.1023 -0.5141  0.0927
  659TMC3    C4 9752   0.640   4.533  14.785  0.2386  0.1361 -0.1215
  659TMC3    C5 9753   0.534   4.549  14.881  0.1125 -0.1228 -0.0790
  659TMC3    C6 9754   0.549   4.633  14.991 -0.0493 -1.3541  0.0131
  659TMC3     C 9755   0.856   4.605  14.701  0.2838  0.1476 -0.2340
  659TMC3     O 9756   0.831   4.582  14.583  0.0934 -0.0197  0.6777
  659TMC3     H 9757   0.843   0.062  14.899  1.5742 -1.6514  0.2307
  659TMC3    H1 9758   0.647   4.469  14.698  2.7154  1.9121 -1.2086
  659TMC3    H2 9759   0.481   4.623  15.075  1.0449  1.2639  1.2412
  659TMC3    C7 9760   0.417   4.466  14.875  0.5436 -0.3270 -0.4348
  659TMC3    C8 9761   0.679   0.057  15.122 -0.1588 -0.3477  0.2156
  659TMC3    O1 9762   0.321   4.497  14.942  0.2091 -0.1248 -0.5474
  659TMC3    O2 9763   0.578   0.068  15.191 -0.2210  0.2952  0.0278
  660MPD2     C 9764   4.101   3.291  12.669 -0.1564  0.0151  0.3825
  660MPD2    C1 9765   3.979   3.296  12.614  0.8175 -0.3332 -0.0778
  660MPD2    C2 9766   3.871   3.238  12.684 -0.0085  0.5362 -0.0760
  660MPD2    C3 9767   3.895   3.193  12.809  0.4774 -0.0078 -0.3574
  660MPD2    C4 9768   4.018   3.195  12.870  0.0838  0.0134 -0.4530
  660MPD2    C5 9769   4.123   3.246  12.796 -0.0174  0.3086 -0.1920
  660MPD2     H 9770   3.775   3.240  12.635 -0.0439 -2.0358 -0.0778
  660MPD2    H1 9771   4.024   3.154  12.970 -2.2194 -1.3214 -0.8560
  660MPD2    H2 9772   4.189   3.333  12.622 -1.1171  1.5494 -0.0675
  660MPD2    H3 9773   4.223   3.240  12.840 -1.2626 -0.1122  2.6125
  660MPD2     N 9774   3.791   3.130  12.885 -1.1573  0.0664  1.1984
  660MPD2    H5 9775   3.819   3.092  12.975 -1.2367 -0.2150  1.1036
  660MPD2    N1 9776   3.968   3.334  12.477 -0.3188  0.4251  0.3907
  660MPD2    H7 9777   4.054   3.354  12.428 -1.1381  0.2285 -1.1326
  661TMC3    C1 9778   3.865   3.379  12.259  0.4478  0.9881  0.5505
  661TMC3    C2 9779   3.981   3.414  12.201 -0.3347 -0.0310 -0.0581
  661TMC3    C3 9780   3.977   3.431  12.065  0.0490 -0.4837 -0.7613
  661TMC3    C4 9781   3.755   3.342  12.189  0.3897  0.1544 -0.4587
  661TMC3    C5 9782   3.753   3.361  12.052  0.1877 -0.2920  0.5992
  661TMC3    C6 9783   3.864   3.416  11.990  0.5539  0.2072 -0.4565
  661TMC3     C 9784   3.849   3.357  12.405 -0.7376  1.2181  0.2474
  661TMC3     O 9785   3.739   3.343  12.452  0.1953 -0.6350 -0.1741
  661TMC3     H 9786   4.072   3.434  12.257  0.4656 -0.7666 -1.0755
  661TMC3    H1 9787   3.671   3.300  12.242  1.1464  2.2799  2.4298
  661TMC3    H2 9788   3.884   3.413  11.883  2.4839  0.4845 -0.1057
  661TMC3    C7 9789   3.656   3.294  11.977 -0.1266  0.9699 -0.0741
  661TMC3    C8 9790   4.096   3.480  11.994  0.5417 -0.5632  0.0936
  661TMC3    O1 9791   3.646   3.341  11.860  0.1803  0.0330 -0.2254
  661TMC3    O2 9792   4.202   3.433  12.030  0.1614  0.7795 -0.1445
  662MPD2     C 9793   4.348   2.698  17.103 -0.3161  0.3605 -0.4474
  662MPD2    C1 9794   4.397   2.813  17.154 -0.1310 -0.4539  0.1657
  662MPD2    C2 9795   4.447   2.911  17.066  0.4145  0.3653  0.2642
  662MPD2    C3 9796   4.433   2.894  16.926  0.4911  0.0235  0.0271
  662MPD2    C4 9797   4.390   2.770  16.875 -0.1838  0.1325  0.6791
  662MPD2    C5 9798   4.343   2.682  16.969 -0.2220  0.1339 -1.0088
  662MPD2     H 9799   4.492   3.004  17.098  2.2070 -0.2886 -0.3616
  662MPD2    H1 9800   4.369   2.752  16.770  0.6402 -0.2704  0.5853
  662MPD2    H2 9801   4.294   2.624  17.160 -2.0486  1.7595 -0.2733
  662MPD2    H3 9802   4.288   2.598  16.927 -0.6871  0.0069 -0.1283
  662MPD2     N 9803   4.483   2.982  16.831  0.3699 -0.0179 -0.0773
  662MPD2    H5 9804   4.476   2.954  16.734  0.1750  0.1892 -0.1222
  662MPD2    N1 9805   4.408   2.826  17.292 -0.3120 -0.2435  0.2588
  662MPD2    H7 9806   4.458   2.905  17.330 -0.8248  0.1594  0.0931
  663TMC3    C1 9807   4.364   2.767  17.528 -0.1539  0.0058 -0.2075
  663TMC3    C2 9808   4.486   2.817  17.566 -0.0857  0.1424  0.4617
  663TMC3    C3 9809   4.532   2.754  17.675  0.6181  0.6035 -0.2840
  663TMC3    C4 9810   4.275   2.720  17.616  0.2602  0.0964  0.1976
  663TMC3    C5 9811   4.318   2.678   0.040 -0.7603  0.2958  0.1015
  663TMC3    C6 9812   4.452   2.695   0.068  0.3588  0.4048  0.5905
  663TMC3     C 9813   4.333   2.747  17.386 -0.0120 -0.9103 -0.8732
  663TMC3     O 9814   4.245   2.670  17.370  0.3495 -0.1648  0.2621
  663TMC3     H 9815   4.558   2.856  17.496 -2.6288 -0.8529 -2.7006
  663TMC3    H1 9816   4.168   2.719  17.598  0.6389  0.8406 -2.2003
  663TMC3    H2 9817   4.493   2.624   0.138 -2.8563 -1.9252  0.0815
  663TMC3    C7 9818   4.252   2.564   0.098  0.4232 -0.3842 -0.5594
  663TMC3    C8 9819   4.634   2.836   0.040  0.1624  0.4681 -0.4523
  663TMC3    O1 9820   4.257   2.542   0.218 -0.0982 -0.2246  0.1736
  663TMC3    O2 9821   4.711   2.895  17.656  0.2896  0.2262  0.3559
  664MPD2     C 9822   2.374   1.543  16.991  0.3699 -0.3963  0.1683
  664MPD2    C1 9823   2.454   1.633  17.059  0.0979 -0.2618 -0.4581
  664MPD2    C2 9824   2.489   1.600  17.193 -0.0400  0.0750  0.1363
  664MPD2    C3 9825   2.441   1.489  17.254 -0.0178  0.2032  0.3827
  664MPD2    C4 9826   2.364   1.399  17.189  0.0011  0.1479  0.1131
  664MPD2    C5 9827   2.334   1.428  17.058 -0.2560  0.0977  0.0642
  664MPD2     H 9828   2.549   1.672  17.248  1.5950 -0.0734 -1.4509
  664MPD2    H1 9829   2.329   1.303  17.227  0.9375 -1.2671 -2.5905
  664MPD2    H2 9830   2.331   1.566  16.894 -0.6507  1.9613  1.1676
  664MPD2    H3 9831   2.265   1.373  16.996  0.1694  0.4629 -0.7303
  664MPD2     N 9832   2.454   1.478  17.395 -0.0135  0.0851 -0.2078
  664MPD2    H5 9833   2.514   1.550  17.434 -0.3701  0.6413 -0.6691
  664MPD2    N1 9834   2.503   1.754  17.004  0.5296 -0.5315  0.0791
  664MPD2    H7 9835   2.579   1.800  17.051 -0.2679  1.0756 -0.2077
  665TMC3    C1 9836   2.401   1.427  17.617 -0.4911 -0.7609  0.6030
  665TMC3    C2 9837   2.281   1.439  17.680  0.1713 -0.6742  0.0545
  665TMC3    C3 9838   2.265   1.518   0.097 -0.4138 -0.2297  0.3726
  665TMC3    C4 9839   2.510   1.496  17.652 -1.0159 -0.1219  0.1357
  665TMC3    C5 9840   2.494   1.571   0.076 -0.3559 -0.2447 -0.6063
  665TMC3    C6 9841   2.370   1.588   0.142 -0.1586 -0.2368  0.1926
  665TMC3     C 9842   2.395   1.391  17.479 -0.4921 -0.1136  0.7528
  665TMC3     O 9843   2.313   1.307  17.457  0.3276 -0.8697  0.8749
  665TMC3     H 9844   2.195   1.404  17.624  1.1219 -1.3522 -0.9961
  665TMC3    H1 9845   2.607   1.484  17.607  0.2425  1.0173  2.5153
  665TMC3    H2 9846   2.360   1.664   0.219  1.0900  0.0259  0.1047
  665TMC3    C7 9847   2.616   1.632   0.126  0.0041  0.0821 -0.1497
  665TMC3    C8 9848   2.132   1.573   0.137  0.2925  0.2324  0.0425
  665TMC3    O1 9849   2.712   1.609   0.057  0.4848  0.3817  0.1030
  665TMC3    O2 9850   2.125   1.665   0.215  0.2609  0.2995 -0.3328
  666TMC3    C1 9851   2.039   1.128   9.471 -0.7425  0.3153 -0.1730
  666TMC3    C2 9852   2.118   1.091   9.571  0.0070  0.0581 -0.5821
  666TMC3    C3 9853   2.204   1.182   9.628  0.2838  0.8855 -0.2139
  666TMC3    C4 9854   2.034   1.259   9.437  0.0874 -0.0785 -0.6108
  666TMC3    C5 9855   2.124   1.348   9.487 -0.0195 -0.0669  0.6514
  666TMC3    C6 9856   2.208   1.312   9.585 -0.1523  0.2288  0.3768
  666TMC3     C 9857   1.939   1.034   9.404 -0.0218  0.1348 -0.1290
  666TMC3     O 9858   1.888   1.084   9.302 -0.1158  0.2049 -0.1413
  666TMC3     H 9859   2.120   0.988   9.602 -3.8456  0.5374  1.2394
  666TMC3    H1 9860   1.943   1.285   9.384  1.1997  1.9039 -1.5714
  666TMC3    H2 9861   2.268   1.385   9.639  0.8326 -1.0819  1.0783
  666TMC3    C7 9862   2.083   1.485   9.495  0.1844 -0.8675  0.7762
  666TMC3    C8 9863   2.277   1.144   9.753 -1.4351  0.3937  0.8068
  666TMC3    O1 9864   2.091   1.531   9.608  0.3089  0.3880 -0.0718
  666TMC3    O2 9865   2.248   1.036   9.803 -0.1675  0.0926 -0.8057
  667MPD2     C 9866   2.754   1.361  14.731  0.1909 -0.4432 -0.1903
  667MPD2    C1 9867   2.646   1.447  14.755  0.0299  0.6727 -0.0132
  667MPD2    C2 9868   2.520   1.421  14.696  0.1989  0.2662 -0.5227
  667MPD2    C3 9869   2.510   1.309  14.613  0.3528 -0.0760  0.3116
  667MPD2    C4 9870   2.616   1.219  14.599  0.0798  0.0189 -0.1060
  667MPD2    C5 9871   2.740   1.248  14.652  0.3965 -0.4509  0.8829
  667MPD2     H 9872   2.437   1.489  14.710 -1.1006 -0.7102 -3.3442
  667MPD2    H1 9873   2.604   1.126  14.544 -0.6313  1.8441 -3.0098
  667MPD2    H2 9874   2.853   1.386  14.767  0.1573 -0.6415  0.0432
  667MPD2    H3 9875   2.813   1.170  14.631  0.5444  0.0331 -0.4096
  667MPD2     N 9876   2.402   1.293  14.520  1.0832  0.5043 -0.1538
  667MPD2    H5 9877   2.399   1.206  14.466 -2.8515  0.9222 -0.6021
  667MPD2    N1 9878   2.660   1.572  14.823 -0.1496 -0.0439  0.2347
  667MPD2    H7 9879   2.574   1.626  14.820  0.2018  0.3531 -2.5959
  668TMC3    C1 9880   2.734   1.743  14.946 -0.4522  0.1866  0.0082
  668TMC3    C2 9881   2.831   1.837  14.948 -0.4695 -0.0781 -0.5957
  668TMC3    C3 9882   2.809   1.952  15.023  0.0607 -0.0538 -0.5071
  668TMC3    C4 9883   2.635   1.741  15.039 -0.7957 -0.9441 -0.3112
  668TMC3    C5 9884   2.626   1.850  15.123  0.2331  0.0133 -0.6079
  668TMC3    C6 9885   2.711   1.959  15.118  0.3125 -0.1169  0.0237
  668TMC3     C 9886   2.767   1.616  14.889 -0.2053 -0.4823  0.1422
  668TMC3     O 9887   2.879   1.566  14.907  0.3239 -0.2530 -0.5361
  668TMC3     H 9888   2.911   1.827  14.876 -0.2676 -0.7848 -0.2759
  668TMC3    H1 9889   2.550   1.674  15.036 -2.0861  0.6735  0.3986
  668TMC3    H2 9890   2.695   2.043  15.184  2.7782 -0.4707  1.0619
  668TMC3    C7 9891   2.529   1.849  15.234  0.1757 -0.3414 -0.1460
  668TMC3    C8 9892   2.889   2.073  15.021  0.1807  0.2680  0.5722
  668TMC3    O1 9893   2.520   1.955  15.293  0.0704 -0.1119 -0.4580
  668TMC3    O2 9894   2.907   2.131  15.125  0.1241  0.5389  0.3940
  669TMC3    C1 9895   1.303   1.303  14.185  0.0623  0.0719 -0.0388
  669TMC3    C2 9896   1.185   1.321  14.120  0.0063 -0.1466 -0.5994
  669TMC3    C3 9897   1.173   1.430  14.037  0.0621  0.2895  0.4425
  669TMC3    C4 9898   1.399   1.399  14.187  0.0974 -0.2574 -0.3193
  669TMC3    C5 9899   1.393   1.494  14.094  0.2649 -0.0817 -0.5342
  669TMC3    C6 9900   1.281   1.514  14.011  0.6852  0.2269 -0.8458
  669TMC3     C 9901   1.302   1.197  14.290  0.1130 -0.1443 -0.2932
  669TMC3     O 9902   1.201   1.125  14.293 -0.3811 -0.2876 -0.0370
  669TMC3     H 9903   1.110   1.244  14.126  0.8702 -1.1751 -3.0833
  669TMC3    H1 9904   1.473   1.393  14.266 -0.3158  0.1836  0.0989
  669TMC3    H2 9905   1.293   1.588  13.933 -0.6221 -0.8865 -2.1076
  669TMC3    C7 9906   1.487   1.597  14.105 -0.7083  0.7130 -0.8041
  669TMC3    C8 9907   1.044   1.450  13.976  0.1590  0.7608 -0.5443
  669TMC3    O1 9908   1.465   1.707  14.055  0.5496 -0.0975  0.6280
  669TMC3    O2 9909   0.951   1.386  14.027 -0.6326  0.4291  0.2747
  670MPD2     C 9910   3.849   3.632  13.056 -0.0522 -0.0472  0.4286
  670MPD2    C1 9911   3.955   3.713  13.100 -0.3738  0.3745  0.1423
  670MPD2    C2 9912   3.940   3.781  13.224  0.1691  0.1281  0.0065
  670MPD2    C3 9913   3.838   3.755  13.315  0.2218 -0.8600  0.1666
  670MPD2    C4 9914   3.737   3.671  13.271  0.3056 -0.1939 -0.3327
  670MPD2    C5 9915   3.740   3.623  13.144 -0.4142 -0.5260  0.1003
  670MPD2     H 9916   4.017   3.853  13.251  0.3656 -0.9261  2.3260
  670MPD2    H1 9917   3.652   3.647  13.334 -0.6037  2.2870 -0.5971
  670MPD2    H2 9918   3.856   3.568  12.969  0.0052  3.8975 -2.4827
  670MPD2    H3 9919   3.648   3.569  13.126 -0.5801  0.4916 -2.0752
  670MPD2     N 9920   3.836   3.823  13.439  0.9379 -0.3565 -0.4796
  670MPD2    H5 9921   3.917   3.883  13.453  0.1004  0.3764  1.2221
  670MPD2    N1 9922   4.068   3.753  13.025  0.7396 -0.5566 -0.1292
  670MPD2    H7 9923   4.133   3.820  13.065 -0.1638  0.2169  0.0468
  671TMC3    C1 9924   3.743   3.928  13.638 -0.3438  0.1145 -0.7652
  671TMC3    C2 9925   3.873   3.963  13.676  0.6669 -0.3582 -0.6348
  671TMC3    C3 9926   3.899   3.976  13.814  0.0658 -0.8743 -0.1492
  671TMC3    C4 9927   3.648   3.916  13.735  0.3185  0.2868  0.1451
  671TMC3    C5 9928   3.677   3.932  13.865 -0.3272  0.0265  0.6813
  671TMC3    C6 9929   3.804   3.958  13.904 -0.4175  0.1102 -0.2887
  671TMC3     C 9930   3.733   3.827  13.533 -0.8009 -1.0638  0.2835
  671TMC3     O 9931   3.632   3.757  13.530  0.5060  0.1540  0.2417
  671TMC3     H 9932   3.956   3.936  13.613  2.1027  1.4079  0.5007
  671TMC3    H1 9933   3.546   3.904  13.700 -0.7506  1.8466  2.6725
  671TMC3    H2 9934   3.836   3.989  14.002  0.7237 -1.3385 -0.1994
  671TMC3    C7 9935   3.614   3.817  13.929 -0.1379  0.8607 -0.0573
  671TMC3    C8 9936   3.999   3.880  13.852  0.2305  0.0248 -0.8705
  671TMC3    O1 9937   3.493   3.806  13.929  0.3487  0.2023 -0.5248
  671TMC3    O2 9938   3.967   3.777  13.918 -0.1003  0.0169 -0.0945
  672MPD2     C 9939   4.145   3.967   1.391 -0.1883  0.5340  0.5214
  672MPD2    C1 9940   4.145   4.074   1.309 -0.3576  0.2508  0.3994
  672MPD2    C2 9941   4.138   4.205   1.362  0.2154 -0.7049 -0.2246
  672MPD2    C3 9942   4.132   4.228   1.499 -0.8777  0.8462 -0.3692
  672MPD2    C4 9943   4.126   4.115   1.577  0.1795  0.0609 -0.2884
  672MPD2    C5 9944   4.134   3.987   1.523 -0.2431  0.2840  0.1014
  672MPD2     H 9945   4.147   4.296   1.305  1.5461 -0.6845  0.0161
  672MPD2    H1 9946   4.116   4.116   1.684  0.5669 -0.1350 -0.2496
  672MPD2    H2 9947   4.141   3.864   1.358 -1.5588  0.7426  0.0614
  672MPD2    H3 9948   4.126   3.906   1.595  1.7308  1.1720  1.3031
  672MPD2     N 9949   4.127   4.362   1.544  0.0117  0.7622  0.1544
  672MPD2    H5 9950   4.131   4.431   1.470  2.9387  0.2082 -0.1851
  672MPD2    N1 9951   4.160   4.060   1.165  0.3093  0.2623  0.0443
  672MPD2    H7 9952   4.163   4.147   1.114  2.0255  0.4589  0.4818
  673TMC3    C1 9953   4.223   3.944   0.960  0.1896 -0.5118  0.1096
  673TMC3    C2 9954   4.323   3.862   0.921  0.3023 -0.5397  0.5118
  673TMC3    C3 9955   4.376   3.883   0.801  0.2334 -0.0075 -0.0542
  673TMC3    C4 9956   4.172   4.042   0.877  0.3420  0.2484 -0.0337
  673TMC3    C5 9957   4.239   4.068   0.758  0.1394 -0.8139  0.2238
  673TMC3    C6 9958   4.341   3.987   0.719 -0.0439  0.5374  0.3965
  673TMC3     C 9959   4.174   3.937   1.101  0.5378  0.8116  0.3589
  673TMC3     O 9960   4.202   3.825   1.148  0.2440  0.4584 -0.1448
  673TMC3     H 9961   4.361   3.786   0.989  1.0656  1.6009  2.4877
  673TMC3    H1 9962   4.086   4.103   0.902  1.8440  1.7679  1.3776
  673TMC3    H2 9963   4.390   3.990   0.622 -3.4232  0.1239 -1.3277
  673TMC3    C7 9964   4.190   4.171   0.668  0.5450 -0.0199  0.6885
  673TMC3    C8 9965   4.517   3.844   0.791  0.5650  0.0984 -0.4489
  673TMC3    O1 9966   4.087   4.234   0.699 -0.1048 -0.7849  0.1558
  673TMC3    O2 9967   4.563   3.831   0.676 -0.2133 -0.5234 -0.2763
  674MPD2     C 9968   0.408   3.585   0.767 -0.3568 -0.0481  0.4044
  674MPD2    C1 9969   0.283   3.546   0.820 -0.3165 -0.0884  0.6126
  674MPD2    C2 9970   0.173   3.526   0.739 -0.8358 -0.8054 -0.5359
  674MPD2    C3 9971   0.176   3.549   0.599  0.4988  0.8205  0.6568
  674MPD2    C4 9972   0.297   3.602   0.552 -0.2629  0.0547 -0.0028
  674MPD2    C5 9973   0.402   3.613   0.630  1.0092  0.0396 -0.8141
  674MPD2     H 9974   0.080   3.498   0.787 -0.8498  0.5108  0.1973
  674MPD2    H1 9975   0.312   3.620   0.446 -1.1361 -1.1646 -0.3350
  674MPD2    H2 9976   0.494   3.614   0.826  1.0854  0.5304 -1.9602
  674MPD2    H3 9977   0.491   3.667   0.599  1.7203  0.0100  1.1694
  674MPD2     N 9978   0.062   3.528   0.526  0.2356  0.0586 -0.5067
  674MPD2    H5 9979   4.697   3.515   0.573  0.6821  0.0392  0.3271
  674MPD2    N1 9980   0.255   3.544   0.959  0.2528 -0.0349 -0.0535
  674MPD2    H7 9981   0.165   3.502   0.981  0.3900 -0.0912  0.4049
  675TMC3    C1 9982   0.287   3.577   1.183  0.1807 -0.6523  0.7882
  675TMC3    C2 9983   0.242   3.448   1.222  0.2030 -0.2608  0.2609
  675TMC3    C3 9984   0.220   3.435   1.352  0.5974  0.2335  0.6919
  675TMC3    C4 9985   0.290   3.683   1.267 -0.2096  0.9516  0.2555
  675TMC3    C5 9986   0.259   3.665   1.397  0.0528 -0.0636  0.0533
  675TMC3    C6 9987   0.220   3.543   1.444 -0.0402 -0.2149  0.0488
  675TMC3     C 9988   0.339   3.600   1.054  0.3109 -0.0146 -0.3960
  675TMC3     O 9989   0.428   3.677   1.041  0.1616  0.0444 -0.3397
  675TMC3     H 9990   0.236   3.369   1.148 -0.5220  0.3665 -0.3470
  675TMC3    H1 9991   0.318   3.782   1.234  2.4140 -0.9540 -3.1860
  675TMC3    H2 9992   0.204   3.524   1.549  0.8780 -0.4662  0.1487
  675TMC3    C7 9993   0.196   3.771   1.467  0.1513  0.3964 -0.5849
  675TMC3    C8 9994   0.192   3.302   1.398  0.0030  0.0770 -0.2167
  675TMC3    O1 9995   0.166   3.871   1.407  0.6305  0.4932  0.3922
  675TMC3    O2 9996   0.173   3.288   1.520  0.2810  0.6224  0.6372
  676MPD2     C 9997   2.131   2.608  10.543 -0.6645  0.2053 -0.0806
  676MPD2    C1 9998   2.059   2.542  10.639 -0.5201 -0.3491 -0.4633
  676MPD2    C2 9999   2.042   2.408  10.627 -0.3409  0.1120  0.0748
  676MPD2    C310000   2.100   2.337  10.527 -0.6376  0.6674 -0.2384
  676MPD2    C410001   2.170   2.401  10.429  0.3890 -0.4881 -0.2299
  676MPD2    C510002   2.189   2.538  10.439 -0.8346  0.0503  0.6225
  676MPD2     H10003   1.991   2.360  10.710 -1.1282  2.3988  0.8910
  676MPD2    H110004   2.225   2.345  10.355  1.0507 -1.9047  1.3215
  676MPD2    H210005   2.140   2.716  10.548  2.6616 -0.1023  0.5205
  676MPD2    H310006   2.234   2.601  10.364 -2.1688  1.1680  0.7623
  676MPD2     N10007   2.079   2.196  10.519  0.0985 -0.1880 -0.4402
  676MPD2    H510008   2.131   2.156  10.442 -0.8233 -2.7980  0.2896
  676MPD2    N110009   1.998   2.617  10.742  0.4515 -0.0448  0.0359
  676MPD2    H710010   1.921   2.579  10.796 -1.6207  2.9746 -0.7550
  677TMC3    C110011   1.945   2.772  10.902 -0.4819  0.7586  0.8320
  677TMC3    C210012   1.813   2.738  10.892 -0.3968 -0.1964 -0.1373
  677TMC3    C310013   1.737   2.730  10.999  0.3935 -0.7839 -0.0109
  677TMC3    C410014   2.006   2.802  11.020 -0.1472  0.3179 -0.1483
  677TMC3    C510015   1.921   2.803  11.131  0.3724 -0.3347  0.3203
  677TMC3    C610016   1.782   2.775  11.123 -0.5323  0.3310  0.2839
  677TMC3     C10017   2.024   2.740  10.788 -0.3809 -0.2448 -0.4519
  677TMC3     O10018   2.109   2.821  10.753  0.2527 -0.0617 -0.0370
  677TMC3     H10019   1.769   2.711  10.796 -0.4372  2.7093 -0.9528
  677TMC3    H110020   2.114   2.814  11.018  0.2721 -3.8299 -1.2464
  677TMC3    H210021   1.720   2.779  11.211 -0.1145 -0.3041  0.6042
  677TMC3    C710022   1.972   2.772  11.263  0.4663  0.6674 -0.5027
  677TMC3    C810023   1.604   2.678  10.983  0.0003 -0.8672  0.3449
  677TMC3    O110024   1.887   2.722  11.333  0.6103  0.0900 -0.4433
  677TMC3    O210025   1.539   2.745  10.904 -0.5153  0.0532 -0.1408
  678MPD2     C10026   3.480   2.396   1.554 -0.5192  0.5014 -0.4707
  678MPD2    C110027   3.512   2.339   1.435  0.7359 -0.0801  0.3883
  678MPD2    C210028   3.415   2.317   1.340  0.1196 -0.0925 -0.1282
  678MPD2    C310029   3.280   2.333   1.369 -0.2392  0.2972 -0.4687
  678MPD2    C410030   3.250   2.400   1.486 -0.3567  0.4361  0.3568
  678MPD2    C510031   3.352   2.445   1.567  0.0113 -0.7851 -0.1193
  678MPD2     H10032   3.442   2.276   1.243  0.3728  1.1793 -0.6018
  678MPD2    H110033   3.147   2.429   1.507 -0.3202  0.0504  1.0951
  678MPD2    H210034   3.546   2.426   1.634 -0.8846  2.6024 -0.9474
  678MPD2    H310035   3.331   2.502   1.657  2.0679 -0.8419  0.4054
  678MPD2     N10036   3.192   2.306   1.263  0.5048 -0.8664  0.3751
  678MPD2    H510037   3.217   2.253   1.180  3.0087  0.0378  0.5363
  678MPD2    N110038   3.647   2.309   1.400 -0.2521  0.2381  0.0431
  678MPD2    H710039   3.653   2.244   1.322 -0.0178  0.0938  0.1792
  679TMC3    C110040   3.972   2.171   1.220  0.8733  0.1633  0.1788
  679TMC3    C210041   3.864   2.196   1.294  0.0179 -0.1206  0.1420
  679TMC3    C310042   3.882   2.284   1.396 -0.6464 -0.6789  0.7296
  679TMC3    C410043   4.085   2.242   1.227 -0.0769 -0.4865 -0.6316
  679TMC3    C510044   4.101   2.331   1.327  0.6252 -0.6802  0.8023
  679TMC3    C610045   3.995   2.357   1.410 -0.2183 -0.9751  0.4164
  679TMC3     C10046   3.954   2.077   1.111 -0.3154 -0.5940  0.4634
  679TMC3     O10047   3.863   1.999   1.130  0.4801  0.2169 -0.0579
  679TMC3     H10048   3.781   2.127   1.296 -0.5130  0.6154  3.1743
  679TMC3    H110049   4.172   2.215   1.169  0.1531 -1.4042  0.1326
  679TMC3    H210050   4.003   2.426   1.493  0.5962  1.5120 -1.6796
  679TMC3    C710051   4.201   2.423   1.310  0.0707  0.0573 -0.2728
  679TMC3    C810052   3.765   2.333   1.470 -0.2029 -0.2441 -0.6436
  679TMC3    O110053   4.267   2.428   1.207 -0.1836  0.4202  0.1656
  679TMC3    O210054   3.785   2.399   1.576 -0.3298  0.0678  0.2304
  680MPD2     C10055   4.372   0.426  13.406  0.4235 -0.0716 -1.2118
  680MPD2    C110056   4.262   0.507  13.451  0.5576 -0.2925 -0.2767
  680MPD2    C210057   4.284   0.589  13.562 -0.3953 -0.0470 -0.0334
  680MPD2    C310058   4.406   0.605  13.619  0.2035  0.6693 -0.3779
  680MPD2    C410059   4.511   0.532  13.570  0.2575 -0.3680  0.4612
  680MPD2    C510060   4.492   0.440  13.471  0.2206 -0.0947 -0.2550
  680MPD2     H10061   4.193   0.635  13.600 -0.2445 -0.8550  1.3313
  680MPD2    H110062   4.610   0.548  13.610 -0.2191 -0.5650  1.7191
  680MPD2    H210063   4.360   0.352  13.327 -1.5166 -1.3153  0.2349
  680MPD2    H310064   4.578   0.382  13.439 -0.7768  0.0234 -3.1812
  680MPD2     N10065   4.429   0.700  13.719 -0.5418 -0.2545  0.0535
  680MPD2    H510066   4.517   0.689  13.769 -1.9312 -0.2295  2.5126
  680MPD2    N110067   4.135   0.503  13.391  0.0114  0.2381 -0.2051
  680MPD2    H710068   4.059   0.550  13.438 -1.7865 -1.5742 -1.2794
  681TMC3    C110069   3.962   0.433  13.233  0.0890  0.6225  0.5514
  681TMC3    C210070   3.867   0.453  13.332  0.7377  0.3961  0.4543
  681TMC3    C310071   3.740   0.478  13.278  0.4116 -0.8526  0.4427
  681TMC3    C410072   3.929   0.414  13.096 -0.1610  0.3685 -0.3863
  681TMC3    C510073   3.801   0.429  13.069  0.4161 -0.3102 -0.2137
  681TMC3    C610074   3.701   0.457  13.156  0.1473 -0.0464  0.0416
  681TMC3     C10075   4.104   0.440  13.268 -0.3300 -0.6055  1.2173
  681TMC3     O10076   4.178   0.413  13.177 -0.3852  0.1894  0.1351
  681TMC3     H10077   3.888   0.463  13.438 -0.9449  2.7574  0.5903
  681TMC3    H110078   4.004   0.392  13.021  0.2025  2.7127 -0.7185
  681TMC3    H210079   3.600   0.474  13.121  0.1150  0.9079  0.6041
  681TMC3    C710080   3.768   0.470  12.933 -0.1477 -0.2723  0.0441
  681TMC3    C810081   3.638   0.531  13.374  0.3724  0.0525 -0.5234
  681TMC3    O110082   3.655   0.447  12.885  0.0118  0.0688  0.4867
  681TMC3    O210083   3.522   0.503  13.345  0.1387  0.6325  0.0105
  682MPD2     C10084   1.397   2.504  10.153 -0.0243 -0.1979  0.9631
  682MPD2    C110085   1.345   2.374  10.152  0.0369  0.4447 -0.0601
  682MPD2    C210086   1.233   2.351  10.233  0.3793 -1.1293  0.1341
  682MPD2    C310087   1.173   2.451  10.304  0.3923 -0.0744 -0.2560
  682MPD2    C410088   1.228   2.578  10.306 -0.8587  0.0697 -0.0972
  682MPD2    C510089   1.344   2.600  10.231  1.1823 -1.0684 -0.2987
  682MPD2     H10090   1.211   2.245  10.241 -2.6001 -0.6428 -1.6594
  682MPD2    H110091   1.195   2.652  10.377 -0.6205  1.1820 -1.1498
  682MPD2    H210092   1.495   2.528  10.113 -1.1748  1.9290 -0.6004
  682MPD2    H310093   1.395   2.696  10.235 -0.2675 -0.3655  1.5982
  682MPD2     N10094   1.061   2.424  10.387 -0.2292 -0.3507  0.7713
  682MPD2    H510095   1.021   2.501  10.440 -2.2931 -0.5725 -0.4376
  682MPD2    N110096   1.405   2.262  10.089 -0.1664 -0.1470  0.2178
  682MPD2    H710097   1.361   2.171  10.097  0.2059 -0.3846 -0.4312
  683TMC3    C110098   0.859   2.400  10.728 -0.3307 -0.7581 -0.1128
  683TMC3    C210099   0.817   2.282  10.779  0.6730  0.8666  0.3049
  683TMC3    C310100   0.813   2.178  10.691  1.0031  0.2285  0.2720
  683TMC3    C410101   0.902   2.425  10.599 -0.8345 -0.9081 -0.6482
  683TMC3    C510102   0.902   2.315  10.511  0.1938 -0.1611 -0.4635
  683TMC3    C610103   0.852   2.195  10.558  0.5770  0.9426 -0.0315
  683TMC3     C10104   0.856   2.521  10.814  0.4462  0.2822  0.0633
  683TMC3     O10105   0.831   2.626  10.751 -0.3203  0.2156  0.3675
  683TMC3     H10106   0.780   2.274  10.881  0.3530 -0.3569  0.0921
  683TMC3    H110107   0.940   2.520  10.563  0.3120 -0.6071  1.3442
  683TMC3    H210108   0.865   2.106  10.497  0.4914  1.5363 -0.9111
  683TMC3    C710109   0.994   2.307  10.400 -0.6183 -0.3167  0.1757
  683TMC3    C810110   0.764   2.048  10.728 -0.2064  0.5055 -0.1277
  683TMC3    O110111   0.996   2.208  10.326  0.1581  0.2106 -0.1399
  683TMC3    O210112   0.705   1.985  10.635 -0.5775 -0.6846  0.0614
  684MPD2     C10113   3.581   2.153  15.512  0.4130  0.6733 -0.1322
  684MPD2    C110114   3.652   2.091  15.612  0.4320  0.1092 -0.1699
  684MPD2    C210115   3.715   2.174  15.705  0.2938 -0.2528 -0.7505
  684MPD2    C310116   3.722   2.315  15.688  0.2387 -0.8112 -0.2917
  684MPD2    C410117   3.653   2.370  15.589  0.2779  0.1980  0.1345
  684MPD2    C510118   3.595   2.286  15.498  0.0344 -0.0583 -0.0561
  684MPD2     H10119   3.771   2.127  15.785 -0.1175  0.8518  0.1915
  684MPD2    H110120   3.658   2.477  15.576  3.2370  0.2247  1.5248
  684MPD2    H210121   3.531   2.109  15.427  0.5592 -2.1843  1.2797
  684MPD2    H310122   3.548   2.331  15.411 -0.6386  0.5702  0.6410
  684MPD2     N10123   3.814   2.392  15.751 -0.1472 -0.5586  0.2939
  684MPD2    H510124   3.812   2.491  15.732 -0.0702 -0.1253  2.5830
  684MPD2    N110125   3.682   1.950  15.622 -0.5906 -0.0564 -0.3436
  684MPD2    H710126   3.742   1.928  15.702  1.8097  0.4372 -1.9989
  685TMC3    C110127   3.689   1.719  15.562  0.6247  0.1053 -0.3138
  685TMC3    C210128   3.633   1.654  15.459  0.3059 -0.0917  0.3191
  685TMC3    C310129   3.696   1.646  15.337  0.1798  0.3303  0.0040
  685TMC3    C410130   3.825   1.727  15.549 -0.0102  0.3359  0.6639
  685TMC3    C510131   3.886   1.706  15.435 -0.5757  0.1498  0.3111
  685TMC3    C610132   3.831   1.663  15.317 -0.5597  0.2510  0.3459
  685TMC3     C10133   3.620   1.848  15.554 -0.1807  0.3931  0.6149
  685TMC3     O10134   3.539   1.862  15.467 -0.2754 -0.9455  0.4529
  685TMC3     H10135   3.525   1.640  15.465  0.3010 -0.6005 -1.0456
  685TMC3    H110136   3.885   1.760  15.633  3.2795  0.6140 -1.7994
  685TMC3    H210137   3.882   1.645  15.223  1.2229  0.0435  1.3548
  685TMC3    C710138   4.019   1.764  15.418  0.1332  0.3755 -0.6761
  685TMC3    C810139   3.611   1.633  15.219  0.0571 -0.4381 -0.0231
  685TMC3    O110140   4.036   1.821  15.310 -0.5511  0.8369  0.1599
  685TMC3    O210141   3.630   1.546  15.135  0.4491  0.2662  0.2769
  686MPD2     C10142   0.860   1.237  15.363  0.5939  0.4912 -0.0082
  686MPD2    C110143   0.889   1.275  15.494  0.6849  0.1565 -0.9539
  686MPD2    C210144   1.007   1.214  15.549  0.6617 -0.2151 -0.0549
  686MPD2    C310145   1.069   1.103  15.484  0.3439 -0.4788  0.1576
  686MPD2    C410146   1.033   1.080  15.356 -0.0120  0.8012 -0.7074
  686MPD2    C510147   0.932   1.146  15.297  0.6062  0.0617  0.5188
  686MPD2     H10148   1.052   1.244  15.642 -0.2624 -0.3220  0.4336
  686MPD2    H110149   1.083   1.008  15.292  1.6946  2.7448 -1.5493
  686MPD2    H210150   0.780   1.269  15.298 -0.5224  1.1458  1.6751
  686MPD2    H310151   0.907   1.125  15.193  0.9692 -1.8193  0.8140
  686MPD2     N10152   1.176   1.027  15.543  0.6493 -0.4650  0.3934
  686MPD2    H510153   1.221   0.972  15.471 -1.3381 -0.8531 -0.5448
  686MPD2    N110154   0.805   1.365  15.564  0.0593 -1.1335  0.4854
  686MPD2    H710155   0.722   1.399  15.515  1.8035  0.1877 -1.5546
  687TMC3    C110156   1.114   1.063  15.781 -0.5073 -0.3809  0.6087
  687TMC3    C210157   0.979   1.038  15.785  0.2189 -0.3787  0.0505
  687TMC3    C310158   0.920   1.067  15.906 -0.4491  0.3238 -0.7158
  687TMC3    C410159   1.184   1.119  15.881  0.1368  0.2552  0.3602
  687TMC3    C510160   1.123   1.151  15.999 -0.8015 -0.5047  0.4120
  687TMC3    C610161   0.987   1.126  16.014  0.1572 -0.6385 -0.3723
  687TMC3     C10162   1.207   1.018  15.678  0.1004 -0.2734 -0.0984
  687TMC3     O10163   1.312   0.973  15.725 -0.2266 -0.7354 -0.1154
  687TMC3     H10164   0.921   0.999  15.702  1.4960 -1.8576 -0.1489
  687TMC3    H110165   1.277   1.164  15.848 -0.6218 -0.1601 -2.3509
  687TMC3    H210166   0.933   1.154  16.103 -2.6084 -0.3137 -2.1262
  687TMC3    C710167   1.169   1.271  16.061  0.1089  0.7068  0.1174
  687TMC3    C810168   0.769   1.065  15.911  0.6484 -0.5868 -0.2825
  687TMC3    O110169   1.085   1.356  16.082 -0.5480  0.3093  0.4610
  687TMC3    O210170   0.716   1.053  16.023 -0.3168  0.4707 -0.7018
  688MPD2     C10171   0.079   0.599  17.170 -0.3283  0.0705  0.4504
  688MPD2    C110172   0.125   0.469  17.195 -0.4338  0.7220  0.6357
  688MPD2    C210173   0.216   0.418  17.110 -0.7075 -0.0636  0.3672
  688MPD2    C310174   0.267   0.495  17.005  0.1249 -0.2052  0.3523
  688MPD2    C410175   0.229   0.625  16.982 -0.2157  0.0336  0.3616
  688MPD2    C510176   0.126   0.668  17.059  0.3375 -0.0661  0.3808
  688MPD2     H10177   0.264   0.321  17.118  1.4970  1.1760  2.2618
  688MPD2    H110178   0.258   0.691  16.901 -1.2126  0.7133  0.5622
  688MPD2    H210179   0.005   0.655  17.226 -1.9404 -2.1319  0.5236
  688MPD2    H310180   0.080   0.757  17.020  0.2228  1.1510  3.2910
  688MPD2     N10181   0.360   0.440  16.915 -0.5829  0.1317  0.0295
  688MPD2    H510182   0.393   0.503  16.842 -0.2136 -1.6156 -1.3063
  688MPD2    N110183   0.076   0.403  17.310 -0.5800 -0.0408 -0.3188
  688MPD2    H710184   0.116   0.311  17.328  0.6569  0.1483 -2.0779
  689TMC3    C110185   4.663   0.339  17.491  0.1175  0.5590  0.0376
  689TMC3    C210186   4.621   0.384  17.610 -0.3379 -0.1079 -0.7043
  689TMC3    C310187   4.594   0.296   0.015  0.0036  0.9438  0.0026
  689TMC3    C410188   4.690   0.203  17.474  0.2691  0.6667  0.8771
  689TMC3    C510189   4.669   0.115  17.579  0.7689  0.6592 -0.3933
  689TMC3    C610190   4.620   0.163   0.003 -0.2699 -0.0710 -0.7004
  689TMC3     C10191   4.705   0.449  17.398  0.0041  0.2743 -1.0562
  689TMC3     O10192   4.652   0.559  17.415  0.6897  0.2765  0.0072
  689TMC3     H10193   4.604   0.491  17.622 -1.6900 -0.4238  0.2270
  689TMC3    H110194   4.715   0.166  17.375  0.7077  1.1414  0.8074
  689TMC3    H210195   4.609   0.091   0.083 -0.7605 -1.8912 -2.4049
  689TMC3    C710196   4.662   4.689  17.555  0.1863 -0.3269  0.0707
  689TMC3    C810197   4.559   0.347   0.149 -0.2322  0.4736 -0.5550
  689TMC3    O110198   0.000   4.617  17.629  0.0038  0.7006 -0.1533
  689TMC3    O210199   4.536   0.264   0.231 -0.0740 -0.3614 -0.1845
  690MPD2     C10200   2.166   2.781  15.642 -0.0271 -0.0990 -0.7077
  690MPD2    C110201   2.191   2.678  15.553  0.2110  0.0993 -0.8617
  690MPD2    C210202   2.302   2.683  15.469 -0.7635 -0.1909  0.2265
  690MPD2    C310203   2.389   2.795  15.475  0.4792 -0.2754 -0.5279
  690MPD2    C410204   2.352   2.897  15.564 -0.5112  0.4607 -0.4175
  690MPD2    C510205   2.243   2.894  15.640 -0.0045  0.2927 -0.2561
  690MPD2     H10206   2.322   2.604  15.396  0.3675  0.4754 -0.1850
  690MPD2    H110207   2.410   2.987  15.575 -0.7919  0.4549  1.1014
  690MPD2    H210208   2.075   2.787  15.702 -0.0093 -1.3810 -0.5450
  690MPD2    H310209   2.219   2.978  15.704  1.5015 -2.0564  3.3682
  690MPD2     N10210   2.501   2.813  15.388 -0.2555  0.1018  0.0273
  690MPD2    H510211   2.558   2.895  15.406 -1.1565  1.3829 -2.9634
  690MPD2    N110212   2.104   2.570  15.531  0.4252 -0.8707  0.0957
  690MPD2    H710213   2.120   2.524  15.442  1.3331  0.3764 -0.3932
  691TMC3    C110214   1.893   2.452  15.540  0.2465  0.5487  0.2247
  691TMC3    C210215   1.759   2.472  15.542  0.1310 -0.7498  0.1561
  691TMC3    C310216   1.684   2.364  15.491 -0.1585 -0.2830 -0.6808
  691TMC3    C410217   1.954   2.332  15.499  0.5798 -0.2525  0.0232
  691TMC3    C510218   1.871   2.235  15.446 -0.5666  0.3496 -1.0287
  691TMC3    C610219   1.738   2.248  15.451  0.7650  0.3388 -0.0966
  691TMC3     C10220   1.987   2.555  15.596  0.5436 -0.5744 -0.0941
  691TMC3     O10221   1.942   2.613  15.695  0.3969  0.4087 -0.2888
  691TMC3     H10222   1.717   2.563  15.583 -2.8785 -0.7109 -2.9505
  691TMC3    H110223   2.062   2.330  15.490  0.4559  0.6373 -1.5836
  691TMC3    H210224   1.680   2.165  15.415 -1.2390  0.8507  1.9488
  691TMC3    C710225   1.932   2.112  15.403  0.3817  0.0202  0.1805
  691TMC3    C810226   1.551   2.354  15.535 -0.5149 -0.2404 -0.3327
  691TMC3    O110227   2.035   2.079  15.460  0.6610  0.2476  0.2694
  691TMC3    O210228   1.527   2.239  15.560  0.3287 -0.5292  0.2921
  692TMC3    C110229   4.026   3.629  15.724  0.5422  0.5406  0.0169
  692TMC3    C210230   4.161   3.617  15.740  0.0933 -0.2434 -0.6351
  692TMC3    C310231   4.230   3.517  15.670  0.4306  0.2206 -0.0290
  692TMC3    C410232   3.953   3.542  15.647  0.1915 -0.4777 -0.9028
  692TMC3    C510233   4.020   3.442  15.585  0.2359 -0.1964 -0.0362
  692TMC3    C610234   4.160   3.434  15.589  0.3291  0.1132  0.4571
  692TMC3     C10235   3.951   3.736  15.785  0.4325  0.1635 -0.3745
  692TMC3     O10236   3.831   3.712  15.788 -0.5269  0.4327  0.0109
  692TMC3     H10237   4.220   3.702  15.773 -0.5404 -0.2500  0.5296
  692TMC3    H110238   3.847   3.546  15.624  0.7271 -1.4458 -3.6166
  692TMC3    H210239   4.210   3.347  15.548 -1.0650 -1.2804  1.7287
  692TMC3    C710240   3.949   3.343  15.512  0.0280 -0.1923 -0.6245
  692TMC3    C810241   4.282   3.429  15.779  0.7974 -0.5494 -0.2432
  692TMC3    O110242   3.835   3.367  15.479  0.8507 -0.5277 -0.0819
  692TMC3    O210243   4.313   3.316  15.749 -0.0459 -0.1743  0.4775
  693MPD2     C10244   3.679   1.237   9.970  0.3660 -0.3420 -0.3572
  693MPD2    C110245   3.654   1.231  10.109  0.4224  0.4035 -0.3262
  693MPD2    C210246   3.758   1.188  10.188  0.3894 -0.2542 -0.2255
  693MPD2    C310247   3.878   1.143  10.138 -0.5100 -0.3756  0.1439
  693MPD2    C410248   3.899   1.149  10.003 -0.2627 -0.6599 -1.4937
  693MPD2    C510249   3.798   1.200   9.925  0.4202 -0.6086  0.4953
  693MPD2     H10250   3.745   1.195  10.295 -0.7570 -1.8468 -0.2716
  693MPD2    H110251   3.999   1.131   9.966  0.0938 -0.2020 -0.7441
  693MPD2    H210252   3.612   1.293   9.906 -1.4674  0.3035  2.1104
  693MPD2    H310253   3.829   1.235   9.827  2.9368 -1.6431  0.9253
  693MPD2     N10254   3.980   1.102  10.226 -0.6474 -0.4284 -0.0203
  693MPD2    H510255   4.074   1.098  10.187 -0.6533  5.2443 -0.5693
  693MPD2    N110256   3.533   1.279  10.168 -0.3183  0.0106 -0.4136
  693MPD2    H710257   3.462   1.309  10.102 -0.0661  2.1774  0.3197
  694TMC3    C110258   3.363   1.335  10.308  0.1349 -0.2334  0.5592
  694TMC3    C210259   3.278   1.244  10.255  0.3562 -0.3729 -0.2819
  694TMC3    C310260   3.174   1.187  10.320  0.3957  0.5116  0.0060
  694TMC3    C410261   3.332   1.391  10.430 -0.8117 -0.4396  0.2401
  694TMC3    C510262   3.229   1.335  10.500 -0.1443  0.1358 -0.3218
  694TMC3    C610263   3.157   1.224  10.447 -0.0673 -0.1017  0.1588
  694TMC3     C10264   3.498   1.294  10.299 -0.1028 -0.4944 -0.2100
  694TMC3     O10265   3.562   1.282  10.404  0.3018  0.0144 -0.7124
  694TMC3     H10266   3.291   1.203  10.155  1.8492  1.5112 -0.8691
  694TMC3    H110267   3.388   1.477  10.462  0.0134 -0.0843 -2.1064
  694TMC3    H210268   3.078   1.183  10.509 -0.8352  1.6914  0.3827
  694TMC3    C710269   3.235   1.363  10.642  0.1864 -0.0102  0.2289
  694TMC3    C810270   3.081   1.089  10.266 -0.0145  0.1613 -0.2149
  694TMC3    O110271   3.290   1.462  10.691  0.3395 -0.5253 -0.4300
  694TMC3    O210272   3.033   1.007  10.345  0.0343  0.1168  0.1812
  695MPD2     C10273   3.885   2.813  14.007  0.2739 -0.6362  0.0038
  695MPD2    C110274   3.893   2.937  13.949  0.0398 -0.1477  0.8542
  695MPD2    C210275   3.783   2.991  13.885  0.4158  0.7159 -0.8185
  695MPD2    C310276   3.672   2.913  13.875 -0.1366  0.3698  0.4634
  695MPD2    C410277   3.673   2.780  13.919  0.3104  0.2706  0.0648
  695MPD2    C510278   3.785   2.729  13.981  0.0527  0.0923 -0.8101
  695MPD2     H10279   3.780   3.096  13.857  2.5572  0.7774 -0.8410
  695MPD2    H110280   3.587   2.713  13.915  0.5491 -0.1198  1.3123
  695MPD2    H210281   3.962   2.775  14.074  0.2832 -2.1970 -0.8695
  695MPD2    H310282   3.774   2.631  14.027  0.7175 -0.6152 -2.1595
  695MPD2     N10283   3.557   2.970  13.801  0.5627  0.1534  0.3350
  695MPD2    H510284   3.560   3.066  13.769  1.6625  0.9516  2.8533
  695MPD2    N110285   4.006   3.022  13.964 -0.0410 -0.2460  0.2560
  695MPD2    H710286   4.017   3.110  13.914 -1.8666 -0.5824 -0.7388
  696TMC3    C110287   3.339   3.009  13.736 -0.1480  0.7539 -0.8386
  696TMC3    C210288   3.341   3.113  13.820 -0.3427 -0.2247  0.3215
  696TMC3    C310289   3.312   3.241  13.770 -0.1059 -1.4961 -0.9014
  696TMC3    C410290   3.321   3.032  13.601  0.5483 -0.1833  0.0942
  696TMC3    C510291   3.289   3.153  13.556 -0.1349 -0.4010  0.3651
  696TMC3    C610292   3.291   3.262  13.639  0.3286  0.0745  0.4493
  696TMC3     C10293   3.436   2.909  13.771  0.9636  0.1160 -0.2649
  696TMC3     O10294   3.402   2.789  13.775  0.2418 -0.3489  0.0613
  696TMC3     H10295   3.364   3.087  13.922 -2.3743 -2.8437  0.1077
  696TMC3    H110296   3.323   2.955  13.524 -0.1019  0.2150 -0.3219
  696TMC3    H210297   3.246   3.356  13.610 -2.2274 -1.4170 -0.4005
  696TMC3    C710298   3.299   3.175  13.414 -0.0040  0.5354  0.4478
  696TMC3    C810299   3.366   3.355  13.835 -0.8838 -0.1221  0.2348
  696TMC3    O110300   3.266   3.085  13.337 -0.5537 -0.0094  0.3167
  696TMC3    O210301   3.321   3.466  13.804  0.0353 -0.2807 -0.1225
  697MPD2     C10302   3.341   0.506  15.633 -0.0332 -0.0219  0.2431
  697MPD2    C110303   3.384   0.447  15.510  0.2244 -0.2581  0.0969
  697MPD2    C210304   3.431   0.532  15.406  0.4558  0.1150  0.7445
  697MPD2    C310305   3.442   0.671  15.427 -0.5939 -0.8422  0.0313
  697MPD2    C410306   3.409   0.725  15.552  0.3495 -0.4378 -0.0060
  697MPD2    C510307   3.360   0.642  15.649 -0.2535 -0.1964  0.1808
  697MPD2     H10308   3.472   0.494  15.313 -0.1971  0.3572  0.3554
  697MPD2    H110309   3.428   0.829  15.574 -1.0638 -0.3972  1.0152
  697MPD2    H210310   3.302   0.452  15.719  0.1309 -1.6455 -0.7143
  697MPD2    H310311   3.343   0.677  15.750  1.9590 -1.7361  1.0732
  697MPD2     N10312   3.507   0.739  15.326  0.8127 -0.0833  0.9165
  697MPD2    H510313   3.527   0.686  15.242  1.8581  2.7008 -0.5856
  697MPD2    N110314   3.378   0.306  15.494 -0.1202  0.1071  0.2419
  697MPD2    H710315   3.390   0.271  15.399 -1.5374  1.8340 -0.5694
  698TMC3    C110316   3.656   0.897  15.227  0.3899 -0.1213  0.0405
  698TMC3    C210317   3.770   0.960  15.283  1.1702  0.8019 -0.3673
  698TMC3    C310318   3.883   0.959  15.202  0.0047 -0.3698  0.5654
  698TMC3    C410319   3.668   0.816  15.120 -0.5759  0.6582 -0.7367
  698TMC3    C510320   3.786   0.810  15.060 -0.0041 -0.1617 -0.2359
  698TMC3    C610321   3.895   0.881  15.093 -0.3355 -0.1428 -0.2764
  698TMC3     C10322   3.559   0.868  15.335  0.5019  1.3770  0.4409
  698TMC3     O10323   3.560   0.947  15.430 -0.2083  0.4452  0.5922
  698TMC3     H10324   3.772   1.004  15.382 -1.5361 -1.2496  0.5798
  698TMC3    H110325   3.585   0.755  15.086  0.2500 -0.4224 -0.7903
  698TMC3    H210326   3.987   0.872  15.037  0.6804  2.7832  0.9259
  698TMC3    C710327   3.782   0.747  14.933  0.0912 -0.1398 -0.5209
  698TMC3    C810328   3.997   1.013  15.269 -0.1121  0.0209 -0.2958
  698TMC3    O110329   3.673   0.739  14.874 -0.2313 -0.0189 -0.0251
  698TMC3    O210330   3.981   1.091  15.361  0.2913  0.7371  0.2151
  699TMC3    C110331   3.572   3.050  12.945 -0.1786 -0.3593 -0.5787
  699TMC3    C210332   3.607   3.026  13.069 -0.5137  0.4914 -0.0795
  699TMC3    C310333   3.516   2.974  13.164 -0.1397 -0.4501 -0.0081
  699TMC3    C410334   3.447   3.025  12.894  0.0840  1.1026  0.1012
  699TMC3    C510335   3.363   2.956  12.980  0.6469 -0.9504 -0.1275
  699TMC3    C610336   3.392   2.936  13.113 -0.5198  0.0517  0.4009
  699TMC3     C10337   3.668   3.091  12.842 -0.7382 -0.0185 -0.0217
  699TMC3     O10338   3.614   3.110  12.735 -0.4012  0.0133  0.6992
  699TMC3     H10339   3.702   3.062  13.107 -0.8395  1.4722 -0.1975
  699TMC3    H110340   3.423   3.055  12.793  0.4917  0.2487 -0.2469
  699TMC3    H210341   3.325   2.879  13.178 -2.0021 -1.3971 -2.4257
  699TMC3    C710342   3.223   2.953  12.958  0.3518 -0.0674 -0.4973
  699TMC3    C810343   3.560   2.921  13.293 -0.3909  0.4711 -0.0985
  699TMC3    O110344   3.159   2.891  13.043  0.2277  0.3243 -0.6026
  699TMC3    O210345   3.471   2.884  13.367  0.0247  0.0553 -0.4059
  700TMC3    C110346   2.698   1.225  17.097  0.6272  0.3010  0.5552
  700TMC3    C210347   2.712   1.091  17.104 -0.4974 -0.4274  0.4814
  700TMC3    C310348   2.811   1.034  17.184  0.5422 -0.2542 -0.2086
  700TMC3    C410349   2.769   1.306  17.180 -0.4345  0.4023 -0.2096
  700TMC3    C510350   2.862   1.247  17.266  0.3145  0.2015  0.1198
  700TMC3    C610351   2.884   1.115  17.271 -0.1300  0.0060  0.3036
  700TMC3     C10352   2.627   1.278  16.977 -0.3674  0.2782  0.0155
  700TMC3     O10353   2.546   1.200  16.933 -0.3008  0.6213  0.0288
  700TMC3     H10354   2.661   1.021  17.038 -2.0390  0.4874  0.7107
  700TMC3    H110355   2.742   1.410  17.199 -1.8093  0.0311 -0.0853
  700TMC3    H210356   2.967   1.070  17.326  0.0856 -0.8792 -0.7385
  700TMC3    C710357   2.934   1.318  17.365 -0.5068  0.4701 -0.6532
  700TMC3    C810358   2.852   0.898  17.157 -0.2682  0.0406  0.1099
  700TMC3    O110359   2.964   1.255  17.466 -0.0032 -0.1080  0.3186
  700TMC3    O210360   2.814   0.855  17.051  0.1157 -0.3733  0.1507
  701TMC3    C110361   2.652   4.279  15.427  0.1248  0.0445 -0.1932
  701TMC3    C210362   2.695   4.170  15.361 -0.1667  0.6595 -0.5393
  701TMC3    C310363   2.827   4.178  15.310 -0.6920 -0.3173 -0.1279
  701TMC3    C410364   2.730   4.389  15.445 -0.1394  0.7166  0.4662
  701TMC3    C510365   2.858   4.388  15.396 -0.2598  0.3039  0.2051
  701TMC3    C610366   2.908   4.286  15.322  0.2020  0.3968  0.6278
  701TMC3     C10367   2.532   4.260  15.508 -0.0669 -0.3945  0.0927
  701TMC3     O10368   2.478   4.366  15.536 -0.3581 -0.3053  0.1619
  701TMC3     H10369   2.639   4.077  15.356 -0.5329  0.8235  0.4543
  701TMC3    H110370   2.685   4.466  15.506  0.2066  1.3745 -0.1031
  701TMC3    H210371   3.012   4.278  15.292 -0.7823 -2.2657 -2.1633
  701TMC3    C710372   2.945   4.497  15.425 -0.0562 -0.5956  0.4592
  701TMC3    C810373   2.876   4.068  15.230 -0.3467 -0.2278  0.3560
  701TMC3    O110374   3.015   4.541  15.334 -0.4831 -0.2136  0.6233
  701TMC3    O210375   2.994   4.044  15.231  0.3872 -0.5818 -0.4047
  702MPD2     C10376   2.544   1.683  10.351  0.6128  0.4477  0.5691
  702MPD2    C110377   2.498   1.806  10.356  0.0926  0.9586  0.6194
  702MPD2    C210378   2.543   1.900  10.260  1.2603 -0.5903  0.0311
  702MPD2    C310379   2.650   1.865  10.182  0.0267 -0.0441 -0.2584
  702MPD2    C410380   2.701   1.742  10.180  0.4840  0.6271  0.3488
  702MPD2    C510381   2.648   1.650  10.273 -0.6175  0.1340 -0.4694
  702MPD2     H10382   2.502   2.000  10.265 -0.0329 -1.1206 -0.0617
  702MPD2    H110383   2.783   1.710  10.117  1.5289 -0.4951  2.2811
  702MPD2    H210384   2.524   1.605  10.424 -0.6952  0.5694  0.3382
  702MPD2    H310385   2.685   1.548  10.281 -0.3049  0.3668  1.0671
  702MPD2     N10386   2.699   1.966  10.098  0.0463 -0.8980  0.1295
  702MPD2    H510387   2.665   2.060  10.118  2.4611 -0.1454  0.6038
  702MPD2    N110388   2.398   1.851  10.446 -0.7461  0.0523 -0.3378
  702MPD2    H710389   2.368   1.948  10.438  0.7614  0.4562 -1.1185
  703TMC3    C110390   2.816   2.086   9.946  0.2563 -0.3154 -0.6050
  703TMC3    C210391   2.699   2.146   9.913  0.0279 -0.2813 -0.5422
  703TMC3    C310392   2.714   2.265   9.838 -0.2250  0.7752 -0.2512
  703TMC3    C410393   2.941   2.138   9.924  0.4429  0.3076 -0.3419
  703TMC3    C510394   2.951   2.256   9.853 -0.4697  0.4593  0.1951
  703TMC3    C610395   2.833   2.328   9.818  0.6482  0.8834  0.1790
  703TMC3     C10396   2.799   1.952  10.003  0.8102 -0.0876  0.7469
  703TMC3     O10397   2.884   1.864   9.991 -0.0302 -0.3928 -0.7098
  703TMC3     H10398   2.601   2.113   9.945  0.3164 -0.6945 -0.1039
  703TMC3    H110399   3.031   2.096   9.968 -0.9985 -0.2828  2.0255
  703TMC3    H210400   2.843   2.414   9.754 -0.3309 -0.4630 -1.7704
  703TMC3    C710401   3.070   2.337   9.855  0.2968  0.9271  0.4378
  703TMC3    C810402   2.597   2.334   9.775 -0.2708  0.1144  0.3044
  703TMC3    O110403   3.065   2.453   9.817 -0.3682  0.2805  0.2142
  703TMC3    O210404   2.615   2.395   9.670 -0.6438  0.4935  0.1415
  704TMC3    C110405   0.047   0.290  12.096  0.3160 -0.2069 -0.3989
  704TMC3    C210406   0.179   0.332  12.102 -0.5378  0.1527  0.7369
  704TMC3    C310407   0.257   0.278  12.201  0.2138 -0.6398 -0.0985
  704TMC3    C410408   4.715   0.198  12.180 -0.2191 -0.4618  0.2933
  704TMC3    C510409   0.076   0.137  12.272  0.3994  0.2433  0.5834
  704TMC3    C610410   0.204   0.171  12.275  0.1005  0.4203 -0.4357
  704TMC3     C10411   4.683   0.364  12.004 -0.9585 -0.4779 -0.2697
  704TMC3     O10412   4.562   0.358  12.024 -0.2227  0.2711  0.2083
  704TMC3     H10413   0.212   0.414  12.040  0.7882 -0.6959  0.3355
  704TMC3    H110414   4.609   0.176  12.177 -0.7568  1.9905  1.4059
  704TMC3    H210415   0.274   0.109  12.330  0.4263  2.0864  1.0293
  704TMC3    C710416   0.049   4.724  12.291  0.7886 -0.1461  0.7888
  704TMC3    C810417   0.388   0.247  12.148 -0.1357  0.2251 -0.3245
  704TMC3    O110418   0.145   4.650  12.267  0.0741  0.0908  0.1038
  704TMC3    O210419   0.391   0.268  12.024  0.3294  0.2067  0.3945
  705MPD2     C10420   4.539   2.906  16.038  0.2387  0.2478 -0.5008
  705MPD2    C110421   4.424   2.908  15.961  0.5843 -0.5422 -0.8455
  705MPD2    C210422   4.297   2.895  16.010  0.3320 -0.7857 -0.8258
  705MPD2    C310423   4.276   2.907  16.143  0.5283  0.6897 -0.3687
  705MPD2    C410424   4.392   2.899  16.226 -0.2153  0.1614 -0.2950
  705MPD2    C510425   4.523   2.892  16.172  0.4439  0.1216 -0.0755
  705MPD2     H10426   4.208   2.903  15.948  1.5617  1.3466 -2.3087
  705MPD2    H110427   4.381   2.905  16.334  0.4922 -2.3528 -0.0930
  705MPD2    H210428   4.638   2.920  15.996 -0.1360 -1.3253 -1.8984
  705MPD2    H310429   4.612   2.901  16.233  0.0417 -0.9704  0.6791
  705MPD2     N10430   4.147   2.933  16.205 -0.0078 -0.2644 -0.5807
  705MPD2    H510431   4.148   2.963  16.302 -0.5741  1.6664 -1.1798
  705MPD2    N110432   4.430   2.931  15.823  0.3616  0.3126 -0.5555
  705MPD2    H710433   4.345   2.901  15.777  0.7866 -1.3223 -0.2677
  706TMC3    C110434   4.409   3.041  15.414 -0.2172 -0.1010  0.1162
  706TMC3    C210435   4.447   3.176  15.392 -0.0283  0.0201  0.3860
  706TMC3    C310436   4.520   3.239  15.489  0.4321 -0.1360  0.1325
  706TMC3    C410437   4.430   2.976  15.535  0.4070 -0.4881 -0.1948
  706TMC3    C510438   4.502   3.044  15.624  0.4737 -0.4831 -0.3897
  706TMC3    C610439   4.554   3.172  15.602 -0.7407  0.2904  0.1290
  706TMC3     C10440   4.396   2.950  15.300 -0.1185 -0.2532 -0.0093
  706TMC3     O10441   4.370   2.832  15.321 -0.0669 -0.4216 -0.0478
  706TMC3     H10442   4.431   3.215  15.292  1.3836 -1.1835 -0.3204
  706TMC3    H110443   4.402   2.873  15.557  1.4844 -0.3829  1.6961
  706TMC3    H210444   4.602   3.228  15.681 -0.5289 -0.5960  0.6313
  706TMC3    C710445   4.534   2.996  15.756 -0.3839  0.4810  0.3042
  706TMC3    C810446   4.542   3.378  15.484  0.3675  0.4302 -0.4433
  706TMC3    O110447   4.638   3.047  15.799 -0.0938  0.4230 -0.4498
  706TMC3    O210448   4.478   3.446  15.405  0.1292 -0.6624 -0.4802
  707TMC3    C110449   1.167   2.704   0.946  0.7598  0.3842 -0.1651
  707TMC3    C210450   1.114   2.577   0.915  0.7347 -0.2470  0.4870
  707TMC3    C310451   0.990   2.578   0.871 -0.0313  0.2245 -0.5234
  707TMC3    C410452   1.091   2.819   0.937 -0.1828 -0.2897  0.4429
  707TMC3    C510453   0.962   2.806   0.894  0.1841 -0.2612 -0.2589
  707TMC3    C610454   0.904   2.681   0.860 -0.1428 -0.3210  0.4819
  707TMC3     C10455   1.316   2.700   0.958  0.3110 -0.1533  0.3955
  707TMC3     O10456   1.359   2.599   1.003 -0.0564 -0.4123  0.2108
  707TMC3     H10457   1.164   2.487   0.948 -0.5056 -1.6987 -1.6054
  707TMC3    H110458   1.126   2.915   0.971  2.1067 -0.7562 -0.6058
  707TMC3    H210459   0.803   2.666   0.825 -0.2430  0.4896  0.4263
  707TMC3    C710460   0.881   2.921   0.868 -0.6391  0.0479  0.8644
  707TMC3    C810461   0.931   2.453   0.827 -0.3352 -0.4400 -0.9713
  707TMC3    O110462   0.775   2.909   0.803 -0.3744 -0.1306  0.9850
  707TMC3    O210463   0.808   2.440   0.843  0.3250  0.2015  0.2619
  708MPD2     C10464   3.070   1.676  13.662  0.2600 -0.1451  0.7914
  708MPD2    C110465   2.957   1.672  13.734  0.9830  0.1237 -0.0493
  708MPD2    C210466   2.951   1.615  13.859  0.4862 -0.9693 -0.4311
  708MPD2    C310467   3.068   1.553  13.904 -0.0842 -0.9825 -0.1147
  708MPD2    C410468   3.186   1.566  13.840  0.7143 -0.1703 -0.3090
  708MPD2    C510469   3.186   1.621  13.711  0.5640 -1.0103  0.6594
  708MPD2     H10470   2.860   1.622  13.917  0.4788 -0.4470 -0.5071
  708MPD2    H110471   3.271   1.508  13.874  1.4922  1.4510  0.5003
  708MPD2    H210472   3.083   1.743  13.577 -0.9094 -0.8523  0.0604
  708MPD2    H310473   3.281   1.636  13.660 -0.1077  0.5562 -0.1237
  708MPD2     N10474   3.057   1.476  14.021  0.2036  0.1815  0.2538
  708MPD2    H510475   3.134   1.442  14.077 -1.3850  0.5803  2.6520
  708MPD2    N110476   2.840   1.729  13.689 -0.2265  0.3254  0.0802
  708MPD2    H710477   2.756   1.713  13.744 -0.2669 -2.6353 -0.8233
  709TMC3    C110478   2.678   1.817  13.555  0.2153 -0.2367  0.0750
  709TMC3    C210479   2.639   1.773  13.430  0.0375  0.4494  0.1514
  709TMC3    C310480   2.512   1.713  13.426 -0.1761 -0.2506 -0.1324
  709TMC3    C410481   2.604   1.814  13.668  0.7730  0.1372 -0.7931
  709TMC3    C510482   2.494   1.733  13.657 -0.3618  0.3000 -0.0781
  709TMC3    C610483   2.444   1.687  13.539 -0.8056  0.1842  0.3022
  709TMC3     C10484   2.821   1.795  13.574 -0.5462 -0.0787  0.2089
  709TMC3     O10485   2.892   1.815  13.478  0.2127 -0.2897  0.0585
  709TMC3     H10486   2.711   1.764  13.350 -0.6636  0.1574 -0.4465
  709TMC3    H110487   2.634   1.867  13.758 -1.3550 -0.5772  0.3341
  709TMC3    H210488   2.358   1.622  13.530  0.4775 -1.2424 -1.6586
  709TMC3    C710489   2.494   1.647  13.769 -0.1032  0.3719 -0.2543
  709TMC3    C810490   2.487   1.632  13.306 -0.3066  0.9110 -0.2752
  709TMC3    O110491   2.598   1.641  13.831 -0.2126  0.0037 -0.2887
  709TMC3    O210492   2.421   1.535  13.334  0.3165  0.3510  0.1619
  710TMC3    C110493   4.669   3.126   1.002 -0.9110  0.0534  0.8050
  710TMC3    C210494   4.698   3.096   0.867  0.1842  0.2080 -0.4659
  710TMC3    C310495   4.674   2.968   0.825 -0.0229  0.5121 -0.0033
  710TMC3    C410496   4.637   3.034   1.093  0.0412 -0.1483  0.0765
  710TMC3    C510497   4.607   2.908   1.045  0.2416  0.1001 -0.4794
  710TMC3    C610498   4.617   2.875   0.912  0.0870  0.4831  0.1834
  710TMC3     C10499   4.695   3.261   1.047  0.1139 -0.0442  0.4489
  710TMC3     O10500   0.059   3.335   0.990  0.7796 -0.4694 -0.0355
  710TMC3     H10501   4.723   3.180   0.804 -3.3874  1.0256 -0.7511
  710TMC3    H110502   4.639   3.056   1.199 -1.9482 -1.4849  0.3905
  710TMC3    H210503   4.585   2.780   0.871  1.3953  0.4121 -0.6897
  710TMC3    C710504   4.551   2.806   1.132 -0.0839 -0.2361 -0.2868
  710TMC3    C810505   4.651   2.945   0.682  0.0431  0.0099  0.2865
  710TMC3    O110506   4.525   2.699   1.078 -0.4307  0.4039  0.1265
  710TMC3    O210507   4.583   2.849   0.650 -0.1167 -0.0055  0.1123
  711TMC3    C110508   3.230   4.248  14.955 -0.6619 -0.2242 -0.3388
  711TMC3    C210509   3.227   4.288  15.086  0.6028  0.6210 -0.7269
  711TMC3    C310510   3.343   4.332  15.141  0.2723 -0.0865  0.2620
  711TMC3    C410511   3.336   4.266  14.869 -0.7602  0.2526 -0.0685
  711TMC3    C510512   3.450   4.320  14.922 -0.2668 -0.0551 -0.4205
  711TMC3    C610513   3.448   4.358  15.058  0.1173 -1.1186 -0.6891
  711TMC3     C10514   3.120   4.176  14.907 -0.6453  0.2277  0.0721
  711TMC3     O10515   3.145   4.074  14.845 -0.1853  0.2079 -0.6713
  711TMC3     H10516   3.150   4.257  15.155  1.1740  0.5524 -0.1212
  711TMC3    H110517   3.328   4.234  14.766  2.6306 -2.3016  0.4427
  711TMC3    H210518   3.539   4.395  15.104 -0.8623 -1.4078  1.4846
  711TMC3    C710519   3.574   4.251  14.885  0.0532  0.0062  0.7782
  711TMC3    C810520   3.373   4.273  15.275 -1.0270  0.2252 -1.3338
  711TMC3    O110521   3.653   4.244  14.977  0.0528 -0.1428  0.0028
  711TMC3    O210522   3.280   4.230  15.342 -0.0907 -0.5918  0.0576
  712MPD2     C10523   0.162   0.081  12.851  0.5246 -0.2934 -0.2698
  712MPD2    C110524   0.056   0.097  12.936  0.7134  0.2402 -0.4223
  712MPD2    C210525   0.081   0.155  13.062 -0.0232  0.2859  0.7336
  712MPD2    C310526   0.199   0.216  13.084  0.5672 -0.2724 -0.2919
  712MPD2    C410527   0.310   0.191  12.997 -0.0387 -0.0304 -0.1156
  712MPD2    C510528   0.292   0.120  12.883  0.2791  0.1825  0.7200
  712MPD2     H10529   4.723   0.146  13.133 -0.2958  0.1872  0.4042
  712MPD2    H110530   0.407   0.236  13.012  0.6166 -1.4035 -0.2345
  712MPD2    H210531   0.146   0.032  12.755 -0.2116  0.6804 -0.6448
  712MPD2    H310532   0.369   0.113  12.807  0.8821  1.8428  1.1990
  712MPD2     N10533   0.214   0.297  13.203 -0.0374 -0.1826 -0.4468
  712MPD2    H510534   0.307   0.332  13.224 -0.1682  2.7539 -4.7366
  712MPD2    N110535   4.647   0.072  12.913  0.6242 -0.0741 -0.3590
  712MPD2    H710536   4.593   0.104  12.992 -0.8984 -3.4248 -0.0305
  713TMC3    C110537   0.171   0.441  13.371  0.1724 -0.1020 -0.1559
  713TMC3    C210538   0.297   0.432  13.431  0.8660 -0.1907  0.3564
  713TMC3    C310539   0.339   0.518  13.534  0.2483  0.8830  0.4504
  713TMC3    C410540   0.085   0.540  13.413  0.5769  0.4409  0.4243
  713TMC3    C510541   0.127   0.624  13.511  0.0959 -0.3522  0.4619
  713TMC3    C610542   0.250   0.616  13.570 -0.1916  0.2730  0.0130
  713TMC3     C10543   0.114   0.352  13.276 -0.7443 -0.6332 -0.5793
  713TMC3     O10544   4.719   0.348  13.272 -0.0395  0.4420  0.1858
  713TMC3     H10545   0.357   0.353  13.387  0.8014 -0.0205 -0.0415
  713TMC3    H110546   4.707   0.542  13.377  0.2396  0.5244  1.3927
  713TMC3    H210547   0.276   0.687  13.647  0.3454  1.1470 -0.9642
  713TMC3    C710548   0.058   0.751  13.532 -0.5520  0.6333  0.1839
  713TMC3    C810549   0.483   0.542  13.545 -0.7765  0.0104 -0.1058
  713TMC3    O110550   0.107   0.819  13.622 -0.6192 -0.2063  0.3601
  713TMC3    O210551   0.553   0.494  13.455  0.2895 -0.1851  0.6042
  714MPD2     C10552   2.276   3.260   1.436  0.3820 -0.4961 -0.1912
  714MPD2    C110553   2.329   3.218   1.316  0.6608  0.0377  0.3858
  714MPD2    C210554   2.274   3.277   1.203  0.4463  0.8862  0.0053
  714MPD2    C310555   2.172   3.369   1.207 -0.0949 -0.4875  0.3737
  714MPD2    C410556   2.116   3.404   1.332 -0.2141  0.2434 -0.2908
  714MPD2    C510557   2.168   3.343   1.443 -0.2495  0.9809  0.7320
  714MPD2     H10558   2.317   3.263   1.105  2.9459  2.1541  0.9232
  714MPD2    H110559   2.040   3.480   1.336  0.6661  1.0797  0.4512
  714MPD2    H210560   2.313   3.206   1.522  1.2946  0.1975 -0.1572
  714MPD2    H310561   2.122   3.370   1.537  0.4067 -2.4144  2.0306
  714MPD2     N10562   2.147   3.433   1.086 -0.1584 -0.3454  0.0985
  714MPD2    H510563   2.159   3.373   1.005 -1.2071 -1.5302  0.8191
  714MPD2    N110564   2.446   3.139   1.318  0.5776 -0.3252 -0.7640
  714MPD2    H710565   2.490   3.115   1.406  2.1252 -0.8916 -1.7044
  715TMC3    C110566   2.644   3.030   1.243  0.1672  0.1268 -0.7427
  715TMC3    C210567   2.695   2.935   1.149 -0.4898  0.2420 -0.6071
  715TMC3    C310568   2.827   2.893   1.175  0.6089  1.1624  0.1674
  715TMC3    C410569   2.710   3.072   1.352 -0.0662  0.5215  0.6245
  715TMC3    C510570   2.837   3.036   1.365  0.1000  0.1298 -0.4458
  715TMC3    C610571   2.896   2.950   1.281 -0.4863 -0.9442  0.8212
  715TMC3     C10572   2.515   3.093   1.212 -0.2738  0.3522 -0.1302
  715TMC3     O10573   2.484   3.105   1.095 -0.1326  0.4023  0.4160
  715TMC3     H10574   2.639   2.911   1.060  1.6914 -1.9820 -1.3765
  715TMC3    H110575   2.663   3.147   1.415 -1.4319 -0.0785  0.3183
  715TMC3    H210576   3.002   2.928   1.289 -0.0381  0.6872 -0.8065
  715TMC3    C710577   2.912   3.079   1.484 -0.6331  0.3155 -0.6690
  715TMC3    C810578   2.896   2.815   1.075  0.1072 -0.3864 -0.4830
  715TMC3    O110579   3.035   3.082   1.473 -0.0805 -0.3618 -0.1977
  715TMC3    O210580   2.850   2.817   0.959  0.1930 -0.5092 -0.4248
  716MPD2     C10581   2.435   1.623   9.456 -0.5399  0.5004 -0.2897
  716MPD2    C110582   2.388   1.556   9.348  0.1234 -0.3298  0.3907
  716MPD2    C210583   2.409   1.418   9.343  0.2018 -0.2403  0.4356
  716MPD2    C310584   2.496   1.356   9.432  0.2276 -0.3157 -0.7221
  716MPD2    C410585   2.551   1.435   9.530 -0.6783 -0.1248 -0.5302
  716MPD2    C510586   2.521   1.565   9.544 -0.1219 -0.4431  0.0718
  716MPD2     H10587   2.383   1.365   9.252  0.9060  0.3321 -0.1026
  716MPD2    H110588   2.626   1.396   9.598 -1.7843  1.4056  1.5745
  716MPD2    H210589   2.410   1.726   9.479  0.7929  0.8159 -0.1975
  716MPD2    H310590   2.557   1.616   9.632  0.7093  0.3910 -0.7620
  716MPD2     N10591   2.543   1.223   9.411  0.0657 -0.3510  0.1062
  716MPD2    H510592   2.490   1.169   9.343  0.5137 -1.3357  0.5468
  716MPD2    N110593   2.308   1.628   9.256  0.0016 -0.0260  0.2629
  716MPD2    H710594   2.291   1.725   9.278 -2.2152 -0.7508  1.6384
  717TMC3    C110595   2.687   1.033   9.390 -0.0029 -0.1823 -0.1029
  717TMC3    C210596   2.637   1.004   9.269  0.3370 -0.7365 -0.5510
  717TMC3    C310597   2.650   0.875   9.219 -0.0417  0.6398 -0.6878
  717TMC3    C410598   2.765   0.947   9.456  0.0419  0.0188  0.3898
  717TMC3    C510599   2.776   0.827   9.398 -0.7511 -0.3042 -0.0420
  717TMC3    C610600   2.722   0.782   9.279 -0.2357  0.2500 -0.1345
  717TMC3     C10601   2.656   1.160   9.455  0.1571  0.0709  0.0997
  717TMC3     O10602   2.740   1.196   9.535  0.1733  0.1660 -0.1330
  717TMC3     H10603   2.574   1.070   9.211 -4.0026 -4.5081 -0.0962
  717TMC3    H110604   2.794   0.971   9.558 -1.0607 -0.7317  0.8882
  717TMC3    H210605   2.712   0.674   9.268  1.6695  0.1454 -0.7838
  717TMC3    C710606   2.846   0.719   9.481  0.6666 -0.3056 -0.7556
  717TMC3    C810607   2.604   0.846   9.088 -0.9035  0.6552 -1.1129
  717TMC3    O110608   2.842   0.605   9.445  0.1379 -0.1533 -0.5226
  717TMC3    O210609   2.511   0.917   9.046  0.5317  0.6614 -0.7273
  718MPD2     C10610   2.000   0.986  12.562 -0.0704 -0.2035 -0.0912
  718MPD2    C110611   1.909   1.081  12.536  1.3953 -0.0361  0.4461
  718MPD2    C210612   1.775   1.045  12.531  0.4050 -0.5993  0.1651
  718MPD2    C310613   1.734   0.912  12.542  0.0202  0.4751  0.2340
  718MPD2    C410614   1.830   0.817  12.572  0.5015 -0.8818  0.1580
  718MPD2    C510615   1.960   0.860  12.587  0.1922 -0.0189 -0.0379
  718MPD2     H10616   1.693   1.114  12.517 -1.1416 -2.9180 -1.9759
  718MPD2    H110617   1.797   0.714  12.585  0.5542 -0.8130  0.8884
  718MPD2    H210618   2.106   1.005  12.571  0.1686 -1.3020 -0.6319
  718MPD2    H310619   2.020   0.773  12.609  0.1809 -0.4475 -1.6587
  718MPD2     N10620   1.595   0.883  12.524 -0.2599  0.1007 -0.3795
  718MPD2    H510621   1.536   0.965  12.510 -3.1970 -1.5535  2.7010
  718MPD2    N110622   1.951   1.219  12.524 -0.4703  0.6375  0.4325
  718MPD2    H710623   2.050   1.234  12.540 -0.1726  0.1384 -0.8962
  719TMC3    C110624   1.922   1.445  12.475  1.3241 -0.4589 -0.6078
  719TMC3    C210625   1.817   1.521  12.434  0.5351 -0.2865 -0.4592
  719TMC3    C310626   1.837   1.601  12.324  0.1557  0.6139 -0.2338
  719TMC3    C410627   2.051   1.447  12.418 -0.8217 -0.4327  0.5149
  719TMC3    C510628   2.060   1.538  12.319 -0.3856 -0.3706  0.4013
  719TMC3    C610629   1.961   1.617  12.275 -0.5603 -0.5028 -0.0946
  719TMC3     C10630   1.865   1.315  12.495  1.0749 -0.2363 -0.2782
  719TMC3     O10631   1.744   1.307  12.470  0.0786 -0.1575  0.4742
  719TMC3     H10632   1.725   1.520  12.492 -0.2943 -0.1997 -1.7775
  719TMC3    H110633   2.133   1.380  12.440 -0.6808 -0.3171  0.3419
  719TMC3    H210634   1.971   1.672  12.182 -0.3863 -0.1418  0.1358
  719TMC3    C710635   2.190   1.559  12.265 -0.6205 -0.0315  0.5481
  719TMC3    C810636   1.729   1.581  12.228 -0.0332 -0.3398 -0.5080
  719TMC3    O110637   2.278   1.475  12.278 -0.5325  0.0370  0.4559
  719TMC3    O210638   1.727   1.649  12.124  0.2203  0.2381  0.2192
  720MPD2     C10639   4.626   2.089  14.073  0.2430 -0.3896  0.8839
  720MPD2    C110640   4.721   2.093  13.979  0.1474 -0.1905 -0.3267
  720MPD2    C210641   0.124   2.048  14.004 -0.2197 -0.2196 -0.6957
  720MPD2    C310642   0.157   2.004  14.128  0.0854  0.0445  0.4303
  720MPD2    C410643   0.061   1.993  14.221 -0.4052  0.4064  0.4823
  720MPD2    C510644   4.652   2.034  14.190  0.3770 -0.1564 -0.4143
  720MPD2     H10645   0.203   2.064  13.932 -2.4775 -1.5988 -3.4913
  720MPD2    H110646   0.081   1.953  14.319  0.6525  1.1156  0.5578
  720MPD2    H210647   4.527   2.128  14.053  1.4272  1.9728 -0.4015
  720MPD2    H310648   4.570   2.046  14.259  1.2697  0.4426  0.5468
  720MPD2     N10649   0.295   1.988  14.156  0.7066 -0.2333 -0.1940
  720MPD2    H510650   0.350   1.993  14.070  0.1584  1.6131 -0.4273
  720MPD2    N110651   4.690   2.149  13.849 -0.0187 -0.1114  0.1485
  720MPD2    H710652   0.030   2.136  13.771  0.9496  0.1220  0.8925
  721TMC3    C110653   0.505   1.960  14.261  0.2990  0.4867 -0.6260
  721TMC3    C210654   0.573   1.962  14.383 -0.2018 -0.0413  0.5927
  721TMC3    C310655   0.709   1.950  14.382 -0.5323 -0.0860 -0.8447
  721TMC3    C410656   0.569   1.952  14.139  0.0405  0.6237  0.3244
  721TMC3    C510657   0.701   1.933  14.151  0.1737  0.2905  0.5281
  721TMC3    C610658   0.778   1.930  14.267  0.2327 -0.5173 -0.0594
  721TMC3     C10659   0.360   1.970  14.274  0.2015 -0.9555  0.4487
  721TMC3     O10660   0.315   1.950  14.386  0.5982  0.1263  0.0614
  721TMC3     H10661   0.524   2.000  14.473  0.0451 -0.4325  0.8931
  721TMC3    H110662   0.523   1.936  14.042  0.1096  0.9634  0.2383
  721TMC3    H210663   0.886   1.917  14.270  0.1280 -1.3757 -0.0499
  721TMC3    C710664   0.778   1.925  14.030  0.0818 -0.2301  0.4871
  721TMC3    C810665   0.779   1.924  14.504 -0.3371 -0.8820 -0.5621
  721TMC3    O110666   0.866   1.839  14.026  0.3540  0.2368 -0.3079
  721TMC3    O210667   0.899   1.944  14.503 -0.4553 -1.4068  0.5365
  722MPD2     C10668   3.689   0.847  13.015  0.3447  0.5317  0.8219
  722MPD2    C110669   3.714   0.947  12.924  0.3607 -0.1520  0.4455
  722MPD2    C210670   3.610   0.983  12.835 -0.0755 -0.3769 -0.2640
  722MPD2    C310671   3.489   0.920  12.837  0.0459 -0.7944  0.6884
  722MPD2    C410672   3.462   0.821  12.932  0.4771 -0.2491  0.4831
  722MPD2    C510673   3.563   0.788  13.014 -0.0283 -0.2423 -0.3390
  722MPD2     H10674   3.632   1.060  12.761 -0.4194 -2.1583 -2.2294
  722MPD2    H110675   3.383   0.747  12.928  0.3036  0.0395 -1.5816
  722MPD2    H210676   3.757   0.809  13.091 -0.1481 -0.6085  0.6952
  722MPD2    H310677   3.547   0.711  13.088 -0.9453  0.8873  0.6352
  722MPD2     N10678   3.401   0.947  12.731 -0.3176 -0.2508  0.2158
  722MPD2    H510679   3.422   1.024  12.668  3.1730 -0.8474  0.6355
  722MPD2    N110680   3.839   1.028  12.921 -0.4979  0.3573  0.4362
  722MPD2    H710681   3.836   1.095  12.844 -2.4868  1.9592  1.8821
  723TMC3    C110682   3.224   0.920  12.580 -0.8001  0.0243  0.6379
  723TMC3    C210683   3.136   0.835  12.528 -0.5953  0.1426  0.3780
  723TMC3    C310684   3.087   0.874  12.404  0.3428 -0.5720  0.8143
  723TMC3    C410685   3.249   1.051  12.538  0.7101 -0.6177  0.5956
  723TMC3    C510686   3.180   1.094  12.426  0.0363  0.2666 -0.2336
  723TMC3    C610687   3.102   1.004  12.359  0.1098 -0.8752 -0.4421
  723TMC3     C10688   3.286   0.868  12.698  0.1918  0.2502 -0.4285
  723TMC3     O10689   3.252   0.759  12.738  0.1749  0.7250  1.0818
  723TMC3     H10690   3.101   0.739  12.564  1.5589 -0.3389  1.1896
  723TMC3    H110691   3.328   1.110  12.583  0.8686  1.1115 -1.9475
  723TMC3    H210692   3.055   1.044  12.271 -0.3612  1.0287  0.6776
  723TMC3    C710693   3.210   1.215  12.366  0.6407  0.2721 -0.0920
  723TMC3    C810694   3.011   0.785  12.325 -0.2758  0.0842  0.3960
  723TMC3    O110695   3.216   1.205  12.243  0.2272 -0.4904  0.0740
  723TMC3    O210696   2.928   0.836  12.246 -0.3030  0.1005  0.0526
  724TMC3    C110697   4.323   3.745  10.285 -0.8786  0.3280  0.3102
  724TMC3    C210698   4.261   3.771  10.167 -0.4383 -0.6309  0.1775
  724TMC3    C310699   4.322   3.863  10.091 -0.6562  0.4086 -0.2774
  724TMC3    C410700   4.436   3.807  10.324  0.5101  0.8345 -0.1851
  724TMC3    C510701   4.501   3.887  10.234 -0.2084  0.3062  0.6235
  724TMC3    C610702   4.438   3.922  10.119 -0.6976 -1.0272 -0.5061
  724TMC3     C10703   4.252   3.654  10.376 -0.1223  1.1301  0.1726
  724TMC3     O10704   4.322   3.595  10.455  0.0456  0.2448  0.1021
  724TMC3     H10705   4.196   3.699  10.118  1.0567 -2.5177  0.9737
  724TMC3    H110706   4.483   3.778  10.417  0.4105 -1.1190 -0.7379
  724TMC3    H210707   4.489   3.990  10.052 -0.9976 -1.7680 -1.4766
  724TMC3    C710708   4.638   3.933  10.247 -0.1655 -0.5639 -0.3017
  724TMC3    C810709   4.259   3.897   9.968  0.1123  0.5444  0.0274
  724TMC3    O110710   4.690   3.979  10.143  0.1719 -0.4094  0.3989
  724TMC3    O210711   4.156   3.840   9.940  0.3136  0.4576  0.0665
  725TMC3    C110712   0.654   2.664  12.461 -0.0944  0.0040 -0.2581
  725TMC3    C210713   0.629   2.682  12.327 -0.0797  0.0235  0.9811
  725TMC3    C310714   0.514   2.627  12.271  0.0132 -0.2584 -0.6131
  725TMC3    C410715   0.580   2.569  12.532 -0.0937 -0.6890 -0.2333
  725TMC3    C510716   0.468   2.511  12.470  0.2164  0.4057 -0.6607
  725TMC3    C610717   0.435   2.543  12.341 -0.1831  0.6032 -0.0889
  725TMC3     C10718   0.752   2.741  12.524 -0.3011  0.0507  0.2058
  725TMC3     O10719   0.834   2.795  12.451 -0.4998  0.4053  0.8398
  725TMC3     H10720   0.694   2.746  12.268  1.0647 -1.1757  0.9506
  725TMC3    H110721   0.625   2.525  12.620  1.8537 -0.2211 -0.9939
  725TMC3    H210722   0.338   2.523  12.298  0.8939 -2.1223 -1.2388
  725TMC3    C710723   0.405   2.399  12.526  0.6531 -0.1252  0.4782
  725TMC3    C810724   0.453   2.707  12.167  0.3023  0.4060  0.2126
  725TMC3    O110725   0.342   2.335  12.443 -0.0875 -0.5401 -0.3332
  725TMC3    O210726   0.330   2.713  12.178 -0.7444  0.2211 -0.1768
  726MPD2     C10727   3.493   4.036  10.361  0.2941 -0.7866  0.0644
  726MPD2    C110728   3.518   4.079  10.488 -0.2475  0.0921  0.5302
  726MPD2    C210729   3.430   4.039  10.589 -0.4001 -0.2829  0.0926
  726MPD2    C310730   3.324   3.955  10.562  0.2696  0.2294  0.6654
  726MPD2    C410731   3.309   3.908  10.435 -0.4616  0.8680 -0.6991
  726MPD2    C510732   3.391   3.959  10.335 -0.1153  0.1580 -0.6589
  726MPD2     H10733   3.445   4.071  10.692  3.0132 -1.9882  0.1295
  726MPD2    H110734   3.230   3.841  10.402 -1.1935  2.0028 -1.2673
  726MPD2    H210735   3.551   4.066  10.274 -0.7629  1.6153  0.1940
  726MPD2    H310736   3.384   3.916  10.236  0.1628  0.0706 -0.6405
  726MPD2     N10737   3.213   3.930  10.644 -0.0914  0.1244  0.0294
  726MPD2    H510738   3.135   3.879  10.605  1.0123 -0.5791 -1.2587
  726MPD2    N110739   3.615   4.169  10.526  0.6066  0.0093 -0.0173
  726MPD2    H710740   3.645   4.172  10.623  0.2304 -0.9292  0.1201
  727TMC3    C110741   3.742   4.367  10.491 -0.2005 -0.6237  0.0947
  727TMC3    C210742   3.851   4.307  10.551  1.0273 -0.1694  0.2608
  727TMC3    C310743   3.970   4.377  10.547 -0.8061 -0.0978 -0.1533
  727TMC3    C410744   3.757   4.481  10.420 -0.0777  0.1026 -0.2814
  727TMC3    C510745   3.879   4.545  10.411  0.1732 -0.3465  0.7712
  727TMC3    C610746   3.984   4.485  10.474 -0.9648 -0.0329  1.2460
  727TMC3     C10747   3.646   4.281  10.446 -0.2100  0.0278  0.5860
  727TMC3     O10748   3.591   4.307  10.336 -0.0975 -0.1080  0.4972
  727TMC3     H10749   3.846   4.210  10.600  0.0897 -0.3265 -0.1400
  727TMC3    H110750   3.671   4.520  10.366  0.1617  0.2962 -0.5233
  727TMC3    H210751   4.078   4.536  10.496  0.1395 -1.5331  0.0195
  727TMC3    C710752   3.895   4.646  10.306 -0.2666 -0.6194 -0.1380
  727TMC3    C810753   4.083   4.314  10.604  0.0005  0.1734  0.2397
  727TMC3    O110754   3.798   4.665  10.228  0.1399  0.4680 -0.2987
  727TMC3    O210755   4.192   4.358  10.563  0.2469  0.1758  0.1068
  728TMC3    C110756   2.634   2.784  15.202 -0.4199 -0.2860 -0.4615
  728TMC3    C210757   2.739   2.813  15.282 -0.5675 -0.9238 -0.7803
  728TMC3    C310758   2.841   2.890  15.215  0.3258 -0.0117  0.1627
  728TMC3    C410759   2.619   2.816  15.062 -0.6928 -0.1693  0.3328
  728TMC3    C510760   2.723   2.889  14.998 -0.2855  0.4709  0.1454
  728TMC3    C610761   2.827   2.926  15.079 -0.0698 -0.3644 -0.3538
  728TMC3     C10762   2.517   2.749  15.267  0.0181  0.0231 -0.0370
  728TMC3     O10763   2.436   2.695  15.192  0.0378 -0.0576 -0.7018
  728TMC3     H10764   2.758   2.790  15.386 -0.0189 -0.4368 -0.7709
  728TMC3    H110765   2.530   2.810  15.000  0.1789 -0.9104 -0.8524
  728TMC3    H210766   2.917   2.966  15.034  1.4787 -1.3985  1.8319
  728TMC3    C710767   2.705   2.971  14.881 -0.2910  0.5268  0.9490
  728TMC3    C810768   2.937   2.957  15.305  0.0160  0.2664 -0.7420
  728TMC3    O110769   2.783   3.064  14.857  0.6936 -0.0349 -0.3797
  728TMC3    O210770   2.962   2.902  15.413  0.3023 -0.0874 -0.0556
  729MPD2     C10771   0.077   4.020  16.084 -0.3774  0.1420 -1.0727
  729MPD2    C110772   0.194   3.953  16.053 -0.8019 -0.1673 -0.3089
  729MPD2    C210773   0.242   3.861  16.141  0.0494  0.0042 -0.2732
  729MPD2    C310774   0.178   3.834  16.261  0.0029 -0.6138  0.6103
  729MPD2    C410775   0.068   3.917  16.299 -0.1278  0.4467  0.0504
  729MPD2    C510776   0.019   4.009  16.206  0.1089 -0.4635 -0.7177
  729MPD2     H10777   0.333   3.813  16.106  1.2440  1.8713  0.2827
  729MPD2    H110778   0.022   3.906  16.396 -2.1891  1.2934 -0.8100
  729MPD2    H210779   0.033   4.097  16.022  0.6303  0.1719 -1.7491
  729MPD2    H310780   4.657   4.073  16.225  0.2169 -0.5724  0.1627
  729MPD2     N10781   0.234   3.753  16.362  0.3449 -0.0323  0.0839
  729MPD2    H510782   0.196   3.758  16.456 -0.2839  1.1532 -0.2212
  729MPD2    N110783   0.264   3.995  15.934 -0.3652  0.3338 -0.3918
  729MPD2    H710784   0.229   4.080  15.891 -0.9922  0.4377  0.2991
  730TMC3    C110785   0.390   3.639  16.469 -0.6126  1.0630 -0.2560
  730TMC3    C210786   0.530   3.656  16.479  0.3225  0.0863 -0.1930
  730TMC3    C310787   0.566   3.738  16.585 -0.0142  0.5354 -0.4920
  730TMC3    C410788   0.303   3.670  16.572 -0.2428  0.1918  0.1618
  730TMC3    C510789   0.348   3.743  16.679  0.6003 -0.5128 -0.2626
  730TMC3    C610790   0.478   3.781  16.682  0.1817  0.5953  0.2516
  730TMC3     C10791   0.332   3.663  16.337 -0.3878  0.6375  0.5883
  730TMC3     O10792   0.396   3.634  16.236 -0.0272  0.5716 -0.1317
  730TMC3     H10793   0.590   3.636  16.391  0.4531 -1.3998  0.2349
  730TMC3    H110794   0.199   3.642  16.562 -0.8787  2.4957  0.1787
  730TMC3    H210795   0.517   3.850  16.757 -0.4587  0.5450  0.6271
  730TMC3    C710796   0.258   3.848  16.719 -0.1082 -0.1132 -0.3357
  730TMC3    C810797   0.693   3.803  16.563  0.2504 -0.4705 -0.5056
  730TMC3    O110798   0.213   3.913  16.626 -0.2475 -0.0790 -0.5559
  730TMC3    O210799   0.754   3.772  16.462  0.2831  0.2830 -0.5219
  731MPD2     C10800   0.357   2.323  11.840 -0.0982  0.1775 -1.1397
  731MPD2    C110801   0.295   2.206  11.831 -0.6067  0.3536 -0.4646
  731MPD2    C210802   0.222   2.163  11.936 -0.1614 -0.4062 -0.0382
  731MPD2    C310803   0.193   2.243  12.042  0.2700  0.2292  0.2067
  731MPD2    C410804   0.246   2.369  12.040 -0.4176  0.5491 -0.4456
  731MPD2    C510805   0.324   2.407  11.938  0.0874  0.1518  0.3638
  731MPD2     H10806   0.176   2.064  11.936  1.7356 -1.2757  2.0022
  731MPD2    H110807   0.238   2.443  12.119 -0.7461 -0.5772  0.5851
  731MPD2    H210808   0.425   2.364  11.767  0.9889 -2.8497 -1.8487
  731MPD2    H310809   0.376   2.501  11.953 -0.5456  0.5212  0.2378
  731MPD2     N10810   0.105   2.192  12.140  0.4315  0.0006  0.5299
  731MPD2    H510811   0.084   2.093  12.132  1.5430  0.0396 -2.9609
  731MPD2    N110812   0.324   2.118  11.724 -0.2559  0.0555 -0.1205
  731MPD2    H710813   0.402   2.148  11.667  0.4682 -2.2933 -0.3406
  732TMC3    C110814   0.287   1.948  11.553 -0.2140  0.1652  0.0726
  732TMC3    C210815   0.189   1.892  11.487 -0.6849 -0.4717  0.3953
  732TMC3    C310816   0.204   1.781  11.411 -0.0454  0.3883 -0.5322
  732TMC3    C410817   0.407   1.883  11.542 -0.5024  0.5964  0.4377
  732TMC3    C510818   0.432   1.774  11.463 -0.2157  0.7008 -0.4063
  732TMC3    C610819   0.328   1.716  11.394  0.1942 -0.7329  0.3146
  732TMC3     C10820   0.246   2.019  11.676 -0.1204  0.4899  0.0403
  732TMC3     O10821   0.126   2.009  11.709  0.5504  0.5754  0.0345
  732TMC3     H10822   0.103   1.958  11.476  1.2447  2.1102  0.7949
  732TMC3    H110823   0.489   1.920  11.601 -0.3841  2.3156 -0.8120
  732TMC3    H210824   0.328   1.614  11.357  0.6030 -0.8709  0.6959
  732TMC3    C710825   0.520   1.676  11.518  0.3352  0.0286 -0.1692
  732TMC3    C810826   0.083   1.700  11.410  0.0742 -0.1466 -0.4145
  732TMC3    O110827   0.577   1.604  11.437  0.0345 -0.1467  0.0583
  732TMC3    O210828   0.063   1.610  11.329 -0.0635  0.0997 -0.2237
  733TMC3    C110829   1.170   0.746  12.458 -0.3259 -0.3237 -0.2502
  733TMC3    C210830   1.291   0.712  12.505  0.0101  0.3324 -0.0361
  733TMC3    C310831   1.397   0.779  12.461 -1.1713 -0.2100 -0.5232
  733TMC3    C410832   1.153   0.838  12.363 -0.0874 -0.5580 -0.2392
  733TMC3    C510833   1.268   0.898  12.316  0.5169  0.7143 -0.2248
  733TMC3    C610834   1.394   0.873  12.363 -0.0623  0.1719  0.5171
  733TMC3     C10835   1.047   0.720  12.529 -0.2170  0.1564  0.2106
  733TMC3     O10836   0.955   0.798  12.519  0.2035 -0.3402  0.1109
  733TMC3     H10837   1.312   0.633  12.577  2.2526  1.3570  0.4219
  733TMC3    H110838   1.056   0.873  12.331  1.3830  1.7267 -2.2006
  733TMC3    H210839   1.486   0.895  12.311  0.6111 -0.2667  1.5231
  733TMC3    C710840   1.270   1.009  12.232 -0.0082  0.4282  0.6136
  733TMC3    C810841   1.526   0.763  12.524 -0.7523  0.1244  0.4382
  733TMC3    O110842   1.174   1.034  12.162  0.2713 -0.0031 -0.5671
  733TMC3    O210843   1.562   0.656  12.562 -0.1292 -0.3196  0.5911
  734MPD2     C10844   3.195   2.201  11.752  0.4841 -1.1905 -0.6751
  734MPD2    C110845   3.075   2.252  11.710  0.0771  0.2077 -0.5335
  734MPD2    C210846   3.077   2.370  11.645 -0.1326  0.0437  0.3419
  734MPD2    C310847   3.196   2.425  11.604 -0.7084 -0.1570  0.5572
  734MPD2    C410848   3.316   2.364  11.626  0.1097  0.1542  0.2828
  734MPD2    C510849   3.313   2.255  11.707  0.2012 -0.0287 -0.1310
  734MPD2     H10850   2.984   2.414  11.612 -0.9862 -2.4347 -0.5546
  734MPD2    H110851   3.413   2.404  11.599  0.6703 -1.9143 -0.7227
  734MPD2    H210852   3.208   2.131  11.833 -0.4394 -0.1810  0.3466
  734MPD2    H310853   3.406   2.216  11.748  0.8536  2.0929  0.4188
  734MPD2     N10854   3.179   2.538  11.517 -0.4299  0.6820  0.4844
  734MPD2    H510855   3.083   2.567  11.504 -1.1063 -1.5060  0.4998
  734MPD2    N110856   2.953   2.184  11.741  0.0799  0.2727 -0.0340
  734MPD2    H710857   2.975   2.102  11.798 -0.6223 -1.1167 -1.7750
  735TMC3    C110858   2.742   2.091  11.700  0.2486 -0.6628  0.5416
  735TMC3    C210859   2.652   2.092  11.599 -1.0342  0.0048 -0.7264
  735TMC3    C310860   2.635   1.980  11.519  0.1765 -0.6172  1.0629
  735TMC3    C410861   2.807   1.974  11.734 -0.3039 -0.5443  0.3618
  735TMC3    C510862   2.794   1.863  11.649  0.6472 -0.5067  0.1295
  735TMC3    C610863   2.705   1.861  11.540 -0.0201  0.0375  0.1520
  735TMC3     C10864   2.829   2.208  11.685  0.0061  0.0962  0.1803
  735TMC3     O10865   2.795   2.293  11.604 -0.2919  0.0983  0.5688
  735TMC3     H10866   2.599   2.185  11.585  1.2877  1.2465 -1.2372
  735TMC3    H110867   2.864   1.969  11.826 -0.8847 -1.8392  0.6487
  735TMC3    H210868   2.698   1.783  11.465  2.0568 -0.2825  0.2736
  735TMC3    C710869   2.908   1.766  11.646  0.3335  0.1173 -0.1808
  735TMC3    C810870   2.641   2.007  11.380  0.3592  0.1380 -0.0668
  735TMC3    O110871   2.992   1.804  11.725  0.1859  0.2766 -0.2126
  735TMC3    O210872   2.612   1.919  11.303  0.3814  0.1116 -0.2523
  736MPD2     C10873   2.981   1.464  11.465 -0.1246 -0.0201  0.6090
  736MPD2    C110874   3.007   1.573  11.547 -0.3435 -0.2471  0.1020
  736MPD2    C210875   3.136   1.600  11.589  0.1157 -0.2931 -0.1539
  736MPD2    C310876   3.237   1.508  11.569 -0.5307 -0.6585 -0.1915
  736MPD2    C410877   3.205   1.395  11.500  0.1718 -0.0305  0.1055
  736MPD2    C510878   3.083   1.379  11.441 -0.4063 -0.1216  0.3509
  736MPD2     H10879   3.157   1.681  11.657 -0.2125 -1.0265  0.8121
  736MPD2    H110880   3.285   1.327  11.472  0.8646  0.5754  0.6198
  736MPD2    H210881   2.889   1.447  11.410 -1.2738 -0.6802  2.7468
  736MPD2    H310882   3.060   1.292  11.382 -1.2820  1.3547 -1.4668
  736MPD2     N10883   3.372   1.534  11.603  0.5342  0.5326  0.3302
  736MPD2    H510884   3.435   1.460  11.573  1.0389  0.4823  1.5110
  736MPD2    N110885   2.898   1.660  11.564 -0.1495  0.2906 -0.0168
  736MPD2    H710886   2.812   1.661  11.509  0.5178 -1.6069 -1.0789
  737TMC3    C110887   3.568   1.648  11.679 -0.9562 -0.4240 -0.0242
  737TMC3    C210888   3.593   1.783  11.677  0.1400 -0.8170 -0.2100
  737TMC3    C310889   3.665   1.829  11.569 -0.3784 -0.3330  0.0806
  737TMC3    C410890   3.628   1.561  11.596 -0.0475  0.5373 -0.2522
  737TMC3    C510891   3.711   1.611  11.495 -0.8003 -0.0972 -0.5587
  737TMC3    C610892   3.722   1.745  11.473 -0.4277 -0.0857  0.0835
  737TMC3     C10893   3.428   1.639  11.685  0.0922 -0.6173  0.8288
  737TMC3     O10894   3.366   1.738  11.729  0.1159  0.2481 -0.3035
  737TMC3     H10895   3.579   1.841  11.767  0.0096  1.7390 -1.8778
  737TMC3    H110896   3.618   1.454  11.612  0.9617  0.1375 -2.1681
  737TMC3    H210897   3.753   1.783  11.377  0.5555 -1.7942 -0.2687
  737TMC3    C710898   3.817   1.524  11.448 -0.2479 -0.4618 -0.1139
  737TMC3    C810899   3.667   1.972  11.564 -0.4436  0.3087 -0.7713
  737TMC3    O110900   3.798   1.403  11.464  0.2057 -0.2495 -0.5470
  737TMC3    O210901   3.613   2.038  11.656 -0.0629  0.8472  0.0849
  738MPD2     C10902   4.274   1.122  15.298 -0.1700 -0.1740 -0.0864
  738MPD2    C110903   4.245   1.005  15.234 -0.0286 -0.7877 -0.1259
  738MPD2    C210904   4.349   0.924  15.187 -0.3966  0.3877  0.7906
  738MPD2    C310905   4.483   0.966  15.191 -0.2207 -0.2033  0.0842
  738MPD2    C410906   4.507   1.092  15.247 -0.3169  0.7557 -0.4689
  738MPD2    C510907   4.404   1.162  15.306 -1.1676 -0.1677  0.2567
  738MPD2     H10908   4.318   0.849  15.115 -1.2328  0.7322  0.7910
  738MPD2    H110909   4.607   1.133  15.253 -0.1988  0.2921  0.7255
  738MPD2    H210910   4.204   1.188  15.348  0.5146  1.4301 -1.2038
  738MPD2    H310911   4.418   1.255  15.359  1.9292 -0.0533 -0.7466
  738MPD2     N10912   4.592   0.896  15.131 -0.0967 -0.3459 -0.4340
  738MPD2    H510913   4.676   0.952  15.138 -1.5124  1.6928  0.4637
  738MPD2    N110914   4.110   0.959  15.216  0.0255 -0.0292 -1.0723
  738MPD2    H710915   4.096   0.869  15.170 -0.1897 -0.9660  0.8356
  739TMC3    C110916   4.712   0.764  14.992 -0.1695 -0.4201 -0.1957
  739TMC3    C210917   4.704   0.664  14.899  0.2652 -0.3531 -0.1016
  739TMC3    C310918   0.067   0.669  14.790 -0.0244  0.0491  0.7377
  739TMC3    C410919   0.088   0.859  14.989  0.2451 -0.1861 -0.0917
  739TMC3    C510920   0.171   0.859  14.878 -0.7149 -0.1487  0.7775
  739TMC3    C610921   0.156   0.767  14.777  0.5465  0.0418 -0.4913
  739TMC3     C10922   4.590   0.778  15.070 -0.2904  0.5919  0.0089
  739TMC3     O10923   4.484   0.722  15.039 -0.4717  0.1276  0.2974
  739TMC3     H10924   4.623   0.592  14.897 -0.5235  0.5670 -2.5749
  739TMC3    H110925   0.101   0.927  15.072 -1.3203  0.1909 -0.1564
  739TMC3    H210926   0.194   0.785  14.677  1.9003  0.1344  0.0477
  739TMC3    C710927   0.203   0.995  14.834 -0.1810  0.2619  0.1322
  739TMC3    C810928   0.004   0.637  14.666  0.2035 -0.0655 -0.1020
  739TMC3    O110929   0.156   1.078  14.912 -0.4973  0.1855  0.9451
  739TMC3    O210930   4.612   0.674  14.642 -0.4484 -0.5980  0.2825
  740TMC3    C110931   4.627   2.442  14.236 -0.7659  0.3085 -0.2295
  740TMC3    C210932   4.669   2.390  14.356 -0.1894 -0.0542  0.3448
  740TMC3    C310933   0.078   2.360  14.363 -0.3455 -0.1293  0.1747
  740TMC3    C410934   4.709   2.466  14.128 -0.7434 -0.4713  0.3675
  740TMC3    C510935   0.118   2.426  14.146 -0.1114 -0.2806 -0.3892
  740TMC3    C610936   0.166   2.377  14.260 -0.1494 -0.6768  0.0226
  740TMC3     C10937   4.498   2.497  14.226  1.0752 -0.1943 -0.2450
  740TMC3     O10938   4.493   2.592  14.148  0.5160  0.1272  0.5106
  740TMC3     H10939   4.608   2.393  14.445 -0.2440  2.1040  0.2280
  740TMC3    H110940   4.656   2.504  14.042  2.4982 -0.4476 -1.6293
  740TMC3    H210941   0.270   2.344  14.263  0.0330 -0.1527 -0.6460
  740TMC3    C710942   0.217   2.425  14.038 -0.6167  0.3345  0.3171
  740TMC3    C810943   0.127   2.293  14.487 -0.8838  0.1893  0.1164
  740TMC3    O110944   0.313   2.347  14.047  0.1497  0.3747  0.0217
  740TMC3    O210945   0.039   2.263  14.569 -0.2786 -0.1260 -0.5232
  741TMC3    C110946   4.470   1.821  13.887  0.1800  0.4381  0.4555
  741TMC3    C210947   4.370   1.833  13.980  0.2826  0.5209  0.3655
  741TMC3    C310948   4.402   1.778  14.101  0.5145  0.1268  0.9997
  741TMC3    C410949   4.592   1.769  13.911 -0.5289  0.2443 -0.0517
  741TMC3    C510950   4.618   1.722  14.031  0.2793 -0.2738  0.4333
  741TMC3    C610951   4.522   1.714  14.124  0.8340 -0.2384  0.0522
  741TMC3     C10952   4.453   1.862  13.750  1.1034 -0.3207  0.0134
  741TMC3     O10953   4.520   1.819  13.661 -0.3445 -0.4064  0.2906
  741TMC3     H10954   4.269   1.864  13.959  0.3015  0.8162  0.7066
  741TMC3    H110955   4.668   1.765  13.835 -0.0941 -0.9110  0.4527
  741TMC3    H210956   4.543   1.683  14.226  0.4998  2.6209  0.9956
  741TMC3    C710957   0.027   1.668  14.042 -0.5806  0.6251 -0.4513
  741TMC3    C810958   4.288   1.748  14.188  0.2490  0.6136  0.1542
  741TMC3    O110959   0.120   1.723  13.980 -0.5439 -0.1146  0.3914
  741TMC3    O210960   4.191   1.823  14.179  0.2146 -0.1065 -0.2445
  742TMC3    C110961   4.116   0.281  15.150 -0.2016 -0.3971 -0.2354
  742TMC3    C210962   4.041   0.275  15.033 -1.2211 -0.2620  0.7037
  742TMC3    C310963   4.069   0.182  14.934  0.6716  0.4352  0.7402
  742TMC3    C410964   4.220   0.195  15.168  0.1714 -0.1410  0.4275
  742TMC3    C510965   4.246   0.113  15.068  0.0410 -0.1515  0.2559
  742TMC3    C610966   4.177   0.105  14.953 -0.0944 -0.1741 -0.0080
  742TMC3     C10967   4.100   0.385  15.246 -0.5800  0.1176  0.5829
  742TMC3     O10968   4.208   0.435  15.280 -0.4503 -0.0466  0.0542
  742TMC3     H10969   3.988   0.367  15.013  0.1546  0.7672  1.9274
  742TMC3    H110970   4.278   0.192  15.259  1.5719 -0.2855 -0.4632
  742TMC3    H210971   4.202   0.026  14.882 -0.8772  0.5754 -1.1037
  742TMC3    C710972   4.372   0.040  15.075 -0.2017  0.3624  0.5798
  742TMC3    C810973   3.998   0.169  14.810  0.7278 -0.1597 -0.4698
  742TMC3    O110974   4.382   4.662  15.006  0.1152  0.1353 -0.3647
  742TMC3    O210975   4.058   0.125  14.712 -0.1575  0.7163 -0.9110
  743MPD2     C10976   1.566   1.914   1.185 -0.6850 -0.1573 -0.1300
  743MPD2    C110977   1.640   1.853   1.083 -0.4695 -0.9424 -0.5475
  743MPD2    C210978   1.746   1.781   1.119 -0.2724 -0.3949  0.1294
  743MPD2    C310979   1.784   1.768   1.252 -0.1846  0.9423 -0.2375
  743MPD2    C410980   1.697   1.794   1.348  0.3408 -0.4405 -0.0063
  743MPD2    C510981   1.588   1.870   1.319 -0.3482  0.1034  0.6130
  743MPD2     H10982   1.818   1.752   1.043 -0.8647 -0.7402 -0.3040
  743MPD2    H110983   1.718   1.777   1.453  3.6605  0.9080 -0.4295
  743MPD2    H210984   1.482   1.977   1.157  0.6294  1.7811  0.2815
  743MPD2    H310985   1.526   1.906   1.400 -1.6979 -0.7110 -0.0543
  743MPD2     N10986   1.895   1.686   1.283  0.2905 -0.0249  0.5281
  743MPD2    H510987   1.936   1.645   1.200  0.2369  1.8721 -0.4430
  743MPD2    N110988   1.596   1.866   0.946  0.4096 -0.0062  0.3706
  743MPD2    H710989   1.517   1.928   0.935  0.2772 -0.0770  0.9232
  744TMC3    C110990   1.605   1.851   0.712 -0.4667 -0.1454 -0.6524
  744TMC3    C210991   1.477   1.893   0.697 -0.5676 -0.3106  0.2087
  744TMC3    C310992   1.434   1.918   0.566  0.2729 -0.5389 -0.5521
  744TMC3    C410993   1.687   1.831   0.603  0.1764  0.6871 -0.2834
  744TMC3    C510994   1.640   1.865   0.474  1.0350  0.8228 -0.4972
  744TMC3    C610995   1.507   1.903   0.455 -0.1917 -0.2136  0.2349
  744TMC3     C10996   1.657   1.807   0.839  0.0722 -0.2422  0.0217
  744TMC3     O10997   1.756   1.746   0.830  0.1224  0.5677  0.2795
  744TMC3     H10998   1.406   1.909   0.778  0.5053  0.3421  1.0237
  744TMC3    H110999   1.787   1.792   0.612  0.4667  1.4468 -0.1530
  744TMC3    H211000   1.475   1.927   0.354  1.2825 -1.6102 -0.5678
  744TMC3    C711001   1.715   1.805   0.372  0.3384  0.2508  0.2130
  744TMC3    C811002   1.330   2.013   0.557  0.2186  0.0171 -0.1877
  744TMC3    O111003   1.840   1.823   0.376 -0.2557  0.2635 -0.2534
  744TMC3    O211004   1.367   2.128   0.553 -0.4153 -0.5185  0.0910
  745TMC3    C111005   4.459   0.068  12.799  0.8681  0.2361  0.1563
  745TMC3    C211006   4.392   0.040  12.914 -0.5983 -0.7722 -0.7930
  745TMC3    C311007   4.267   0.096  12.925 -0.2094  0.5198 -0.2632
  745TMC3    C411008   4.421   0.167  12.706  0.5911 -0.5745  0.4657
  745TMC3    C511009   4.307   0.228  12.730 -0.3319 -0.0437  0.3939
  745TMC3    C611010   4.229   0.201  12.839  0.1542 -0.0296 -0.8333
  745TMC3     C11011   4.595   0.032  12.795  0.3607  0.8208  0.8328
  745TMC3     O11012   4.649   0.005  12.689 -0.4807  0.1151  0.1757
  745TMC3     H11013   4.431   4.688  12.980 -1.2544 -0.3534  0.0878
  745TMC3    H111014   4.490   0.195  12.628 -0.8525 -0.0842 -0.6213
  745TMC3    H211015   4.141   0.262  12.853 -0.6360 -1.4416  0.3127
  745TMC3    C711016   4.297   0.369  12.688 -0.3049 -0.0912  0.5442
  745TMC3    C811017   4.188   0.084  13.048 -0.5745 -0.5078 -0.4975
  745TMC3    O111018   4.187   0.421  12.678  0.1862  0.2109 -0.2641
  745TMC3    O211019   4.065   0.099  13.053 -0.2325  0.4925 -0.0816
  746TMC3    C111020   2.076   1.978  10.618  0.6881  0.2418 -1.3194
  746TMC3    C211021   2.207   1.956  10.594  0.4619  0.7805  0.4069
  746TMC3    C311022   2.247   1.828  10.629  0.1507 -0.9347  0.5949
  746TMC3    C411023   1.999   1.898  10.697  0.1164 -0.3724 -0.2094
  746TMC3    C511024   2.054   1.786  10.746  0.1156  0.2921 -0.7799
  746TMC3    C611025   2.172   1.742  10.698  0.5669 -0.1397 -0.4129
  746TMC3     C11026   2.022   2.114  10.615  0.1049  0.6519 -0.3860
  746TMC3     O11027   1.939   2.142  10.700 -0.3750 -0.0681 -0.3223
  746TMC3     H11028   2.270   2.039  10.566 -1.2648  1.8773 -0.1967
  746TMC3    H111029   1.895   1.920  10.717  0.5672  1.7410 -0.1884
  746TMC3    H211030   2.208   1.644  10.724  0.4323 -0.2756 -0.7405
  746TMC3    C711031   1.956   1.682  10.786  0.3147  0.5925  0.2239
  746TMC3    C811032   2.357   1.773  10.554  1.0643  0.0955  0.0066
  746TMC3    O111033   1.839   1.679  10.748  0.7166 -0.4071  0.1174
  746TMC3    O211034   2.414   1.675  10.603 -0.3656  0.1225 -0.1405
  747TMC3    C111035   4.573   1.856  10.783  0.8622 -0.0685  0.9863
  747TMC3    C211036   4.480   1.759  10.816 -0.3824  0.2685  0.2850
  747TMC3    C311037   4.446   1.739  10.946 -0.2077 -0.2003  0.6136
  747TMC3    C411038   4.637   1.925  10.881 -0.1104  0.1153 -0.6247
  747TMC3    C511039   4.607   1.897  11.013 -0.2474  0.3740 -0.8017
  747TMC3    C611040   4.508   1.806  11.049  0.1574 -0.3504 -0.5183
  747TMC3     C11041   4.561   1.928  10.653 -0.5085  0.0716  0.8135
  747TMC3     O11042   4.571   2.048  10.654 -0.1459  0.1736  0.0007
  747TMC3     H11043   4.433   1.699  10.738 -2.9281  1.6003  0.7747
  747TMC3    H111044   4.701   2.010  10.860  0.2681  0.2480  1.0945
  747TMC3    H211045   4.504   1.771  11.152  0.9241  3.4490  0.7765
  747TMC3    C711046   4.696   1.952  11.109  0.3307  0.6368  0.5576
  747TMC3    C811047   4.356   1.632  10.972 -0.2682  0.1974  0.1036
  747TMC3    O111048   4.646   2.018  11.203  0.1352 -0.7405  0.3807
  747TMC3    O211049   4.340   1.538  10.890 -0.3321  0.2281  0.4739
  748MPD2     C11050   0.965   2.873   1.281  0.0847  0.9424  0.2252
  748MPD2    C111051   1.029   2.748   1.268 -0.0302 -0.6483 -0.3053
  748MPD2    C211052   1.165   2.749   1.261 -0.5353 -0.7680  0.2213
  748MPD2    C311053   1.241   2.861   1.254 -0.3428  0.1841 -0.3724
  748MPD2    C411054   1.176   2.982   1.253 -0.4870 -0.4394 -0.2756
  748MPD2    C511055   1.039   2.987   1.271 -1.0522  0.1262  0.4395
  748MPD2     H11056   1.218   2.659   1.232 -0.2191 -0.9068  1.2549
  748MPD2    H111057   1.224   3.078   1.240 -1.2391  0.0793  0.8218
  748MPD2    H211058   0.858   2.873   1.301 -0.2971  1.7224 -1.8091
  748MPD2    H311059   0.987   3.081   1.275  1.5010  1.5480  0.5701
  748MPD2     N11060   1.379   2.849   1.231  0.6900 -0.3673 -0.2991
  748MPD2    H511061   1.420   2.757   1.236 -0.3001 -0.7151  1.5023
  748MPD2    N111062   0.952   2.636   1.253  0.0369  0.0233  0.1541
  748MPD2    H711063   0.852   2.655   1.250 -0.0931 -0.4019  1.6926
  749TMC3    C111064   1.596   2.914   1.184  0.4136  0.5130 -0.1600
  749TMC3    C211065   1.660   2.798   1.233 -0.1377 -0.1642  0.2016
  749TMC3    C311066   1.780   2.768   1.175  0.0439  0.6875 -0.8296
  749TMC3    C411067   1.654   2.998   1.089 -0.2474 -0.5504  0.3231
  749TMC3    C511068   1.782   2.975   1.052 -0.4850 -0.3204  0.5384
  749TMC3    C611069   1.838   2.857   1.086  0.1369  0.6814  0.5947
  749TMC3     C11070   1.463   2.953   1.221 -0.7292 -0.0361  0.3278
  749TMC3     O11071   1.440   3.072   1.241 -0.1671 -0.0085  0.0836
  749TMC3     H11072   1.619   2.744   1.318 -0.0728  1.9409  1.5689
  749TMC3    H111073   1.596   3.084   1.058 -0.4006 -0.8698 -0.2848
  749TMC3    H211074   1.937   2.842   1.045  0.2756  1.5070  0.6329
  749TMC3    C711075   1.855   3.059   0.957 -0.5693  0.2281  0.2436
  749TMC3    C811076   1.856   2.661   1.238 -0.2969  1.0135 -0.6312
  749TMC3    O111077   1.972   3.035   0.920  0.2191 -0.0907 -0.2856
  749TMC3    O211078   1.807   2.621   1.343  0.3541 -0.0096 -0.4903
  750MPD2     C11079   2.583   3.330  11.119 -0.1600  0.0195  0.0104
  750MPD2    C111080   2.458   3.384  11.084  0.1294 -0.1764  0.3191
  750MPD2    C211081   2.381   3.312  10.990 -0.6684 -0.4125  0.6716
  750MPD2    C311082   2.427   3.194  10.931  0.3945  0.3539  0.1166
  750MPD2    C411083   2.555   3.159  10.957 -1.0214 -0.1675 -0.2448
  750MPD2    C511084   2.633   3.225  11.050  0.3274 -0.3543  0.6410
  750MPD2     H11085   2.282   3.348  10.965  0.0905  0.6716 -0.8068
  750MPD2    H111086   2.594   3.074  10.902  1.2722  0.4502  0.4413
  750MPD2    H211087   2.644   3.377  11.195  0.2889 -1.3445  0.4868
  750MPD2    H311088   2.735   3.193  11.066 -0.3068 -2.6907  0.0401
  750MPD2     N11089   2.355   3.137  10.829 -0.1873  0.2223 -0.4430
  750MPD2    H511090   2.405   3.075  10.766  1.2118  1.9559 -1.0389
  750MPD2    N111091   2.411   3.482  11.169 -0.1584  0.8727 -0.6234
  750MPD2    H711092   2.484   3.518  11.231  0.5647  1.0498 -1.5868
  751TMC3    C111093   2.183   3.123  10.657  0.4815  0.4301 -0.0718
  751TMC3    C211094   2.057   3.101  10.630  0.3347 -1.0141 -0.1855
  751TMC3    C311095   2.027   3.060  10.502 -0.3863 -0.1552  0.4815
  751TMC3    C411096   2.285   3.123  10.566  0.7648  0.1179  0.2179
  751TMC3    C511097   2.248   3.090  10.443 -0.1844  0.3113 -0.0510
  751TMC3    C611098   2.121   3.067  10.407  0.1684  0.0285  0.1068
  751TMC3     C11099   2.222   3.167  10.795 -0.1518  0.5038  0.3972
  751TMC3     O11100   2.138   3.210  10.873 -0.3341 -0.1157 -0.2293
  751TMC3     H11101   1.994   3.077  10.715 -3.2487 -0.4643 -2.6431
  751TMC3    H111102   2.389   3.145  10.587 -0.0102  2.7487  1.3083
  751TMC3    H211103   2.095   3.050  10.303 -2.1077 -1.5414  0.9241
  751TMC3    C711104   2.346   3.096  10.335  0.2398 -0.5639 -0.5634
  751TMC3    C811105   1.932   2.954  10.473 -0.2039  0.4579  0.1404
  751TMC3    O111106   2.303   3.094  10.222 -0.0907  0.0715 -0.3059
  751TMC3    O211107   1.956   2.892  10.370  0.1377  0.6820  0.0884
  752TMC3    C111108   0.919   3.315  16.281 -0.4436  0.4758  0.3956
  752TMC3    C211109   0.992   3.197  16.299  0.2114  0.1732  0.1907
  752TMC3    C311110   0.936   3.108  16.385  0.1901 -0.0168 -0.3667
  752TMC3    C411111   0.793   3.336  16.327  0.2961 -0.1581  0.2472
  752TMC3    C511112   0.744   3.231  16.405 -0.5287  0.2304  0.7555
  752TMC3    C611113   0.814   3.118  16.436  0.2307  0.0767  0.2580
  752TMC3     C11114   0.989   3.418  16.211 -0.0522 -0.2285 -0.3826
  752TMC3     O11115   1.101   3.384  16.183 -0.1978 -0.3372  0.4127
  752TMC3     H11116   1.087   3.169  16.256 -0.1153  0.8180 -0.9658
  752TMC3    H111117   0.747   3.433  16.317 -1.8096 -1.3893 -2.0149
  752TMC3    H211118   0.777   3.047  16.509 -1.1332  1.3100  0.7659
  752TMC3    C711119   0.637   3.274  16.497 -0.8759  0.0412 -0.1453
  752TMC3    C811120   1.009   2.985  16.427  0.5632 -0.5524  0.0267
  752TMC3    O111121   0.609   3.392  16.473  0.7651 -0.9794  0.1545
  752TMC3    O211122   0.947   2.904  16.489  0.5504  0.0693 -0.2041
  753TMC3    C111123   3.312   0.333  13.127 -0.3813 -0.3558 -0.9155
  753TMC3    C211124   3.353   0.286  13.248 -0.0551 -0.1618  0.4907
  753TMC3    C311125   3.409   0.163  13.268  0.3460  0.4481 -0.5128
  753TMC3    C411126   3.312   0.251  13.017 -0.4380  0.2222 -0.9639
  753TMC3    C511127   3.347   0.115  13.045  0.7007  0.5454  0.2875
  753TMC3    C611128   3.405   0.078  13.163 -0.2451  0.1999  0.0398
  753TMC3     C11129   3.242   0.462  13.115  0.2196  0.6445 -0.1553
  753TMC3     O11130   3.176   0.479  13.015  0.3311 -0.0959 -0.3716
  753TMC3     H11131   3.328   0.347  13.334 -1.9202  0.1931 -0.2870
  753TMC3    H111132   3.270   0.284  12.922  0.4175 -0.0179 -1.4228
  753TMC3    H211133   3.438   4.700  13.174 -0.4742  0.1758  0.5329
  753TMC3    C711134   3.314   0.018  12.939 -0.1722  0.1361 -1.0317
  753TMC3    C811135   3.355   0.095  13.384  0.1845 -0.1573  0.8631
  753TMC3    O111136   3.406   4.669  12.897 -0.3050 -0.2801 -0.1652
  753TMC3    O211137   3.312   4.703  13.372  0.1525 -0.1220 -0.6177
  754MPD2     C11138   1.954   3.223  12.845 -0.5639 -0.8121  0.6184
  754MPD2    C111139   1.854   3.129  12.810 -1.1548  0.7677 -0.2975
  754MPD2    C211140   1.765   3.153  12.701 -0.0092  0.1247 -0.2641
  754MPD2    C311141   1.759   3.279  12.649  0.3759  0.3315 -0.5063
  754MPD2    C411142   1.845   3.376  12.694 -0.4178  0.2437 -0.1143
  754MPD2    C511143   1.944   3.354  12.789 -0.0727  0.3140 -0.1113
  754MPD2     H11144   1.684   3.088  12.669 -1.1277  1.2160  0.3892
  754MPD2    H111145   1.839   3.475  12.650  1.7385  0.0742 -0.7879
  754MPD2    H211146   2.026   3.212  12.925 -1.5202  0.9731  1.7334
  754MPD2    H311147   2.021   3.428  12.808  0.5421  0.2284 -2.2232
  754MPD2     N11148   1.652   3.322  12.562 -0.5229  0.3998 -0.1247
  754MPD2    H511149   1.638   3.422  12.548  0.0837  0.5648  0.4082
  754MPD2    N111150   1.844   3.015  12.892  0.7705 -0.2437 -0.2492
  754MPD2    H711151   1.882   3.032  12.985  0.6076  0.1731 -0.2556
  755MPD2     C11152   1.346   4.061  12.850  0.6737 -0.1131  0.2648
  755MPD2    C111153   1.233   3.982  12.860 -0.0285  0.4277 -0.4905
  755MPD2    C211154   1.227   3.855  12.807 -0.1131 -0.0788  0.3739
  755MPD2    C311155   1.330   3.808  12.721 -0.5768  0.1897 -0.5059
  755MPD2    C411156   1.430   3.905  12.693 -0.0454 -0.2018 -0.0984
  755MPD2    C511157   1.437   4.020  12.757 -0.3031  0.1349 -0.4271
  755MPD2     H11158   1.139   3.796  12.827 -0.3235 -0.5646 -1.9590
  755MPD2    H111159   1.514   3.865  12.636 -1.4013  0.1441 -2.3275
  755MPD2    H211160   1.363   4.157  12.897  1.3231  0.3124 -0.8448
  755MPD2    H311161   1.528   4.078  12.745 -0.1631  0.8878  4.3507
  755MPD2     N11162   1.340   3.680  12.664  0.5377  0.0416  0.0613
  755MPD2    H511163   1.428   3.664  12.616  0.0324 -0.1006 -0.8308
  755MPD2    N111164   1.135   4.026  12.944  0.4481  0.1742  0.1699
  755MPD2    H711165   1.168   4.100  13.006 -3.0644  2.3166 -0.5381
  756MPD2     C11166   2.602   4.337   9.454  0.0072 -0.4158  0.1363
  756MPD2    C111167   2.514   4.236   9.495 -0.7130 -1.2834  0.5821
  756MPD2    C211168   2.430   4.172   9.405 -0.1504 -0.4016  0.1635
  756MPD2    C311169   2.423   4.211   9.273  0.0200 -0.8800 -0.1150
  756MPD2    C411170   2.511   4.307   9.228 -0.1619  0.1947 -0.3079
  756MPD2    C511171   2.592   4.365   9.322  0.4651  0.0841 -1.2622
  756MPD2     H11172   2.366   4.091   9.437 -0.8019 -0.5533 -1.5039
  756MPD2    H111173   2.518   4.330   9.123  0.9366 -0.5219 -0.3946
  756MPD2    H211174   2.662   4.397   9.521  0.2574  0.3353 -0.7610
  756MPD2    H311175   2.653   4.449   9.289  3.5742 -2.0586 -1.0264
  756MPD2     N11176   2.343   4.143   9.183  0.2695  0.1724  0.0099
  756MPD2    H511177   2.297   4.064   9.226 -0.9960 -1.6890 -4.7870
  756MPD2    N111178   2.509   4.182   9.630 -0.1085  0.4020  0.2554
  756MPD2    H711179   2.429   4.123   9.652 -0.7238  0.1721 -2.5913
  757MPD2     C11180   1.944   3.299   9.258  0.5162 -0.4123 -0.5547
  757MPD2    C111181   1.866   3.333   9.150  0.1825  0.1383  0.3432
  757MPD2    C211182   1.885   3.460   9.095 -0.0442 -0.0696  0.0043
  757MPD2    C311183   1.974   3.545   9.152  0.2054  0.0815 -0.0790
  757MPD2    C411184   2.055   3.508   9.262  0.0658  0.9106  0.0291
  757MPD2    C511185   2.041   3.383   9.308  0.1092 -0.1541 -0.7048
  757MPD2     H11186   1.832   3.490   9.005 -0.8192  0.3962  0.6150
  757MPD2    H111187   2.135   3.564   9.308  1.7443 -1.7443  0.3915
  757MPD2    H211188   1.934   3.201   9.303 -2.7808 -0.1663 -0.7462
  757MPD2    H311189   2.116   3.346   9.376  1.6092 -0.4407 -2.4964
  757MPD2     N11190   1.996   3.670   9.085 -0.2058 -0.5475  0.3654
  757MPD2    H511191   1.947   3.674   8.996 -1.1266 -0.0166  0.8971
  757MPD2    N111192   1.781   3.234   9.096 -0.8541  0.8044  0.1405
  757MPD2    H711193   1.786   3.137   9.126  1.6916  0.9725  0.2595
  758MPD2     C11194   1.371   3.476  15.683  0.7630 -0.0685 -0.6636
  758MPD2    C111195   1.465   3.414  15.774 -1.5925 -0.2529  0.7347
  758MPD2    C211196   1.504   3.480  15.884  0.1740  0.0999 -0.2880
  758MPD2    C311197   1.452   3.612  15.900 -0.0155  0.7553  0.3088
  758MPD2    C411198   1.363   3.670  15.813 -0.2288  0.8231 -0.4391
  758MPD2    C511199   1.330   3.602  15.698 -0.1442 -0.6247 -0.6765
  758MPD2     H11200   1.560   3.427  15.960 -1.4474  0.3561  1.1014
  758MPD2    H111201   1.337   3.775  15.825 -1.5227  0.6263 -1.5705
  758MPD2    H211202   1.344   3.441  15.584  2.5301 -3.1304 -0.0481
  758MPD2    H311203   1.265   3.650  15.626  1.9030  1.7796 -0.8960
  758MPD2     N11204   1.476   3.694  16.014  0.0017  0.0913  0.5861
  758MPD2    H511205   1.415   3.772  16.037  2.0909  1.4598  1.4795
  758MPD2    N111206   1.528   3.293  15.759 -0.2376 -0.5141 -0.4622
  758MPD2    H711207   1.586   3.264  15.837 -0.8118 -0.3783  0.0147
  759MPD2     C11208   1.564   1.343   9.308  0.5252 -0.1442 -0.1495
  759MPD2    C111209   1.446   1.283   9.273 -0.4701  0.2928 -0.2079
  759MPD2    C211210   1.402   1.294   9.143 -0.1135  0.5467 -0.7176
  759MPD2    C311211   1.470   1.365   9.047  0.0732 -0.0979 -0.3354
  759MPD2    C411212   1.599   1.423   9.082  0.4479  0.3305 -0.0126
  759MPD2    C511213   1.643   1.407   9.214 -0.5742 -0.9693 -0.0007
  759MPD2     H11214   1.300   1.264   9.118  0.0297 -0.7474  0.2054
  759MPD2    H111215   1.663   1.480   9.015  1.3214 -2.0392 -1.1796
  759MPD2    H211216   1.613   1.335   9.404 -0.2975 -2.6163  0.0454
  759MPD2    H311217   1.735   1.456   9.242 -0.4993 -1.3589  0.4331
  759MPD2     N11218   1.411   1.386   8.921  0.4454  0.1944  0.2562
  759MPD2    H511219   1.317   1.350   8.909  0.7855 -0.5792 -0.1236
  759MPD2    N111220   1.367   1.214   9.361  0.2034  0.9949 -0.5805
  759MPD2    H711221   1.282   1.177   9.318  0.3623  0.9207 -0.8286
  760MPD2     C11222   0.670   4.116  11.671  0.2638  0.5021  0.2738
  760MPD2    C111223   0.784   4.074  11.610  0.0704 -0.4008 -0.0549
  760MPD2    C211224   0.793   3.943  11.575 -0.5038 -0.0113 -0.4279
  760MPD2    C311225   0.707   3.842  11.616 -0.1241 -0.0083  0.1579
  760MPD2    C411226   0.596   3.889  11.678  0.0436 -0.5187 -0.5890
  760MPD2    C511227   0.579   4.019  11.704 -0.3233  0.4494 -0.0142
  760MPD2     H11228   0.882   3.913  11.521  0.7196 -0.2477  1.6982
  760MPD2    H111229   0.523   3.817  11.711  1.3709 -1.4703  0.2875
  760MPD2    H211230   0.645   4.220  11.686  0.1110  0.5553 -0.3179
  760MPD2    H311231   0.489   4.056  11.753  1.3259  3.3113  0.8605
  760MPD2     N11232   0.720   3.699  11.607  0.0282  0.3904  0.4463
  760MPD2    H511233   0.648   3.638  11.644  0.0532  0.4374  0.5707
  760MPD2    N111234   0.889   4.154  11.563  0.0288  0.2843  0.0228
  760MPD2    H711235   0.955   4.107  11.501  0.6278  0.5814  0.4360
  761MPD2     C11236   1.517   2.656  10.509 -0.2492 -1.4079  0.0677
  761MPD2    C111237   1.639   2.634  10.444 -0.3542 -0.1055 -0.2263
  761MPD2    C211238   1.745   2.724  10.458 -0.3458  0.2636 -0.3905
  761MPD2    C311239   1.730   2.840  10.543  0.3242  0.2950  0.1952
  761MPD2    C411240   1.609   2.851  10.612 -0.6161  0.1386 -0.1933
  761MPD2    C511241   1.507   2.762  10.589  0.0225  0.0332 -0.4548
  761MPD2     H11242   1.847   2.710  10.426 -0.9825 -3.2538 -0.9081
  761MPD2    H111243   1.594   2.931  10.684 -1.5291  0.3131 -0.5793
  761MPD2    H211244   1.440   2.579  10.511 -0.7104 -0.9382  0.3351
  761MPD2    H311245   1.420   2.770  10.653  1.1039  0.4999  0.9758
  761MPD2     N11246   1.823   2.943  10.554 -0.4851  0.2543  0.6129
  761MPD2    H511247   1.809   3.009  10.629 -0.1614  0.8775  0.1219
  761MPD2    N111248   1.650   2.522  10.370  0.5784 -0.1054 -1.1584
  761MPD2    H711249   1.586   2.446  10.391 -1.5650  1.7468 -0.9382
  762MPD2     C11250   2.097   2.431   9.766  0.4760 -0.5807 -0.1479
  762MPD2    C111251   2.111   2.332   9.852  0.0501 -0.1062 -0.3911
  762MPD2    C211252   2.239   2.313   9.903 -0.3162  0.2776  0.2702
  762MPD2    C311253   2.347   2.361   9.824  0.4939 -0.1733  0.3084
  762MPD2    C411254   2.327   2.434   9.709  0.7291  0.3200  0.3289
  762MPD2    C511255   2.201   2.471   9.689 -0.2545  0.1167 -0.3871
  762MPD2     H11256   2.261   2.269  10.000 -0.6943  1.2452  0.7915
  762MPD2    H111257   2.402   2.464   9.637 -1.4842 -0.6082 -2.3414
  762MPD2    H211258   1.997   2.457   9.735  0.3775 -0.1162  0.5492
  762MPD2    H311259   2.158   2.535   9.613 -1.8095 -1.0561 -0.5040
  762MPD2     N11260   2.482   2.322   9.852  0.8654  0.2730  0.4592
  762MPD2    H511261   2.501   2.272   9.938  2.3846  0.5282  0.2653
  762MPD2    N111262   1.999   2.276   9.912 -0.0399 -0.2739  0.0833
  762MPD2    H711263   1.907   2.310   9.886  0.2759 -0.0142 -0.7047
  763MPD2     C11264   3.878   3.074  15.810  0.2085 -0.1664 -0.1999
  763MPD2    C111265   3.776   3.166  15.811  0.3934 -0.2054  0.0908
  763MPD2    C211266   3.779   3.273  15.892  0.0344  0.0315  0.4945
  763MPD2    C311267   3.899   3.301  15.953 -0.7074 -0.5155 -0.5253
  763MPD2    C411268   4.005   3.217  15.939 -0.3610 -0.5243  0.5596
  763MPD2    C511269   3.999   3.096  15.873 -0.9177 -0.8216 -0.6027
  763MPD2     H11270   3.694   3.339  15.906 -1.4724 -1.9067  0.5306
  763MPD2    H111271   4.096   3.256  15.983 -1.1681  1.8286  0.1638
  763MPD2    H211272   3.871   2.986  15.747  1.9420 -2.5627  3.0294
  763MPD2    H311273   4.082   3.033  15.844 -1.6633 -0.7584 -2.8575
  763MPD2     N11274   3.933   3.416  16.032  0.6532 -0.1810 -0.0935
  763MPD2    H511275   4.030   3.422  16.064  0.1582 -0.0928  1.3676
  763MPD2    N111276   3.665   3.154  15.721  0.6475  0.1987  0.1415
  763MPD2    H711277   3.603   3.234  15.726 -0.7481 -0.9306  0.6931
  764MPD2     C11278   2.275   0.035  17.465 -0.5547 -0.1754  0.5554
  764MPD2    C111279   2.141   4.720  17.452  0.2964 -0.2849 -0.3061
  764MPD2    C211280   2.113   4.590  17.466 -0.3599  0.3191 -0.0854
  764MPD2    C311281   2.217   4.498  17.507 -0.1485 -0.3422  0.2814
  764MPD2    C411282   2.346   4.539  17.509  0.7480 -0.7518 -0.0894
  764MPD2    C511283   2.378   4.669  17.479 -0.6094 -0.3875 -0.1289
  764MPD2     H11284   2.012   4.549  17.463 -0.3107  0.1281  0.7256
  764MPD2    H111285   2.430   4.478  17.540  0.0415 -0.8419  1.6511
  764MPD2    H211286   2.304   0.135  17.436 -0.3178 -0.2287  0.6040
  764MPD2    H311287   2.476   4.713  17.491 -1.3365  1.1810  0.0913
  764MPD2     N11288   2.177   4.364  17.522  0.1275 -0.0935  0.6019
  764MPD2    H511289   2.081   4.341  17.499  0.1345 -0.7713  1.2721
  764MPD2    N111290   2.034   0.073  17.416 -0.2470 -0.2811 -0.1676
  764MPD2    H711291   1.939   0.037  17.419 -0.2392 -0.1521  1.5026
  765MPD2     C11292   1.088   2.523  15.650 -0.4386 -0.6040  0.3496
  765MPD2    C111293   1.174   2.630  15.651  0.1191  0.3268  0.1113
  765MPD2    C211294   1.307   2.613  15.630 -0.3634 -0.9176  0.7901
  765MPD2    C311295   1.354   2.485  15.599 -0.2013 -0.0711 -0.6994
  765MPD2    C411296   1.268   2.380  15.595 -0.2141  0.2743  0.6072
  765MPD2    C511297   1.132   2.398  15.621  0.2571  0.1332 -0.1779
  765MPD2     H11298   1.371   2.700  15.625 -0.5443 -0.8178  0.1962
  765MPD2    H111299   1.297   2.280  15.567 -0.2460  0.3371  0.3469
  765MPD2    H211300   0.981   2.542  15.656 -0.0773  1.5073  0.1926
  765MPD2    H311301   1.072   2.309  15.611  1.4322 -0.5238 -1.3211
  765MPD2     N11302   1.483   2.474  15.551 -0.5867 -0.1815 -0.0538
  765MPD2    H511303   1.533   2.556  15.520  3.3385 -3.1076 -1.4584
  765MPD2    N111304   1.115   2.759  15.645 -0.0737  0.2263 -0.1160
  765MPD2    H711305   1.015   2.758  15.661  0.1563 -0.0321  1.3286
  766MPD2     C11306   0.566   2.887  15.255  0.1450  0.4915 -0.4525
  766MPD2    C111307   0.703   2.887  15.247  0.5411 -0.8045  0.2465
  766MPD2    C211308   0.767   2.815  15.153 -0.2005 -0.4079 -0.6514
  766MPD2    C311309   0.701   2.744  15.060  0.0260  0.0243 -0.3840
  766MPD2    C411310   0.562   2.744  15.064  0.1559 -0.4935  0.3851
  766MPD2    C511311   0.495   2.816  15.156 -0.1050  1.1540  0.0652
  766MPD2     H11312   0.875   2.809  15.150 -0.2392 -0.5586 -1.5805
  766MPD2    H111313   0.506   2.685  14.992  0.7090  1.5401 -1.6965
  766MPD2    H211314   0.520   2.936  15.341  0.8524  1.9022 -0.8691
  766MPD2    H311315   0.387   2.826  15.146 -0.3570 -1.7842 -0.1481
  766MPD2     N11316   0.768   2.664  14.965  0.7437 -0.5724  0.4322
  766MPD2    H511317   0.721   2.632  14.881  1.1025 -0.5916  0.2403
  766MPD2    N111318   0.785   2.938  15.349  0.9055  0.1104 -0.5403
  766MPD2    H711319   0.881   2.904  15.344 -0.0844 -2.7348  0.0826
  767MPD2     C11320   0.359   2.811  14.770  1.1034 -0.7059 -0.0603
  767MPD2    C111321   0.444   2.886  14.694  0.6620  0.0503  0.0747
  767MPD2    C211322   0.476   2.851  14.565 -0.6815 -0.1478 -0.2608
  767MPD2    C311323   0.425   2.734  14.515 -1.0741  0.2628  0.3302
  767MPD2    C411324   0.343   2.654  14.588 -0.5156 -0.4945 -0.5254
  767MPD2    C511325   0.314   2.689  14.718 -0.0846  0.5318  0.8922
  767MPD2     H11326   0.551   2.912  14.517  0.3476 -1.3132 -0.1345
  767MPD2    H111327   0.307   2.563  14.542 -0.0003  0.0279 -1.9653
  767MPD2    H211328   0.311   2.836  14.863  1.1694 -2.2515  0.3865
  767MPD2    H311329   0.235   2.634  14.767 -1.8453  0.4626 -1.9715
  767MPD2     N11330   0.472   2.704  14.379 -0.5772  0.4712  0.0231
  767MPD2    H511331   0.529   2.773  14.330 -2.5000  0.4424 -2.2334
  767MPD2    N111332   0.496   3.000  14.761  0.2827  0.1838  0.4647
  767MPD2    H711333   0.469   3.007  14.858 -2.0970 -0.9713 -0.1131
  768MPD2     C11334   2.263   1.218  10.312  0.5020  0.0668  0.1845
  768MPD2    C111335   2.206   1.168  10.423 -0.3647 -0.1469 -0.4087
  768MPD2    C211336   2.261   1.196  10.543 -0.7704  0.2641 -0.1888
  768MPD2    C311337   2.372   1.286  10.558  1.5629  0.2758  0.7335
  768MPD2    C411338   2.424   1.340  10.444  0.9067 -0.2418 -0.7739
  768MPD2    C511339   2.358   1.313  10.325  0.0626  0.3421 -0.0372
  768MPD2     H11340   2.227   1.153  10.636 -1.9224 -0.6602 -1.0284
  768MPD2    H111341   2.503   1.413  10.457  0.0432  0.7362 -0.9321
  768MPD2    H211342   2.225   1.187  10.215 -0.3839  2.1487 -0.1301
  768MPD2    H311343   2.394   1.362  10.235  2.0409 -1.0722 -0.0046
  768MPD2     N11344   2.425   1.326  10.685  0.2482  0.1871 -0.2731
  768MPD2    H511345   2.499   1.396  10.694 -0.3695  0.3527  3.6712
  768MPD2    N111346   2.095   1.090  10.422  0.1097  0.3176 -0.4586
  768MPD2    H711347   2.050   1.060  10.508  1.9987 -1.6215 -0.1353
  769MPD2     C11348   2.747   3.607  15.045 -0.0415  0.3430 -0.1219
  769MPD2    C111349   2.634   3.686  15.029 -0.5861 -0.3435  0.6904
  769MPD2    C211350   2.651   3.824  15.064  0.4557 -0.9633  0.0865
  769MPD2    C311351   2.763   3.862  15.138 -0.3309  0.3777 -0.2738
  769MPD2    C411352   2.870   3.775  15.161  0.7679  0.1827  0.0446
  769MPD2    C511353   2.859   3.649  15.112  0.0856 -0.0697 -0.0540
  769MPD2     H11354   2.577   3.897  15.033  2.2271  1.0994  0.7226
  769MPD2    H111355   2.960   3.799  15.216  0.3108  1.4000  0.2450
  769MPD2    H211356   2.742   3.502  15.018 -1.0574  0.6036 -0.9550
  769MPD2    H311357   2.939   3.579  15.131 -0.0627 -0.7394 -1.9290
  769MPD2     N11358   2.765   3.994  15.185  0.6954 -0.4841  0.2138
  769MPD2    H511359   2.675   4.041  15.177  3.0012  4.1739  1.4824
  769MPD2    N111360   2.533   3.633  14.949  0.1798  0.0307  0.4545
  769MPD2    H711361   2.532   3.534  14.928 -0.5353  0.0968  0.1496
  770MPD2     C11362   2.058   2.823  14.849  0.1409  0.0056  0.1946
  770MPD2    C111363   1.965   2.889  14.773  0.0208  0.5134 -0.1011
  770MPD2    C211364   1.992   3.026  14.746 -0.2629 -0.5212 -0.3732
  770MPD2    C311365   2.116   3.081  14.793  0.3228 -0.1410 -0.0002
  770MPD2    C411366   2.210   3.005  14.858  0.2427  0.6852 -0.3312
  770MPD2    C511367   2.178   2.879  14.895 -0.2153  0.4439  0.5957
  770MPD2     H11368   1.929   3.089  14.685 -1.0216 -3.2725 -2.4480
  770MPD2    H111369   2.300   3.049  14.899  0.7692 -1.2944  0.6005
  770MPD2    H211370   2.048   2.716  14.866  1.6071  0.1430  2.0287
  770MPD2    H311371   2.240   2.813  14.954 -2.3091  0.3438  2.6953
  770MPD2     N11372   2.143   3.217  14.766  0.0771  0.0346  0.2735
  770MPD2    H511373   2.084   3.259  14.695  0.1627  0.8305  0.6753
  770MPD2    N111374   1.853   2.815  14.728  0.5152  0.3325 -0.5349
  770MPD2    H711375   1.857   2.716  14.749  0.4555  0.3144 -0.6095
  771MPD2     C11376   3.439   1.835  13.583  0.6530 -0.3439 -0.8994
  771MPD2    C111377   3.390   1.957  13.568 -0.2674 -0.2042 -0.7766
  771MPD2    C211378   3.328   1.981  13.446 -0.0035 -0.0529  0.0039
  771MPD2    C311379   3.340   1.897  13.337  0.2130  0.5299 -0.2715
  771MPD2    C411380   3.394   1.771  13.356  0.6769 -0.0587 -0.4249
  771MPD2    C511381   3.447   1.748  13.479  0.9467  0.0169  0.3066
  771MPD2     H11382   3.272   2.071  13.426  2.2278  1.1618 -0.7266
  771MPD2    H111383   3.407   1.698  13.277 -1.4577  2.2732 -2.9385
  771MPD2    H211384   3.476   1.795  13.677 -0.8006  0.3370 -0.0424
  771MPD2    H311385   3.483   1.648  13.499  0.3664 -0.2043  0.2697
  771MPD2     N11386   3.285   1.941  13.220 -0.0916  0.3573  0.1917
  771MPD2    H511387   3.233   2.028  13.231 -0.7692  0.0910 -0.9400
  771MPD2    N111388   3.391   2.056  13.665 -0.3461 -0.4124 -0.0073
  771MPD2    H711389   3.333   2.136  13.643  1.0740  0.6650  0.1335
  772MPD2     C11390   2.950   2.553  13.988  0.4748 -0.1113 -0.9379
  772MPD2    C111391   2.973   2.423  13.934 -0.9336 -0.0412 -0.3511
  772MPD2    C211392   2.858   2.339  13.922 -0.1696  0.3000 -0.2945
  772MPD2    C311393   2.731   2.386  13.943  0.0484  0.0840 -0.5026
  772MPD2    C411394   2.718   2.512  13.988  1.1762 -0.2060  0.6339
  772MPD2    C511395   2.821   2.592  14.016 -0.9540 -0.6631 -0.0716
  772MPD2     H11396   2.873   2.243  13.875  0.6677 -0.3497  1.3189
  772MPD2    H111397   2.624   2.556  14.020  0.8215 -1.6169  1.5280
  772MPD2    H211398   3.025   2.630  14.000  0.7498 -0.2529 -1.7657
  772MPD2    H311399   2.808   2.691  14.058 -3.6502 -1.7742  1.6964
  772MPD2     N11400   2.613   2.318  13.915  0.8743 -0.1917  0.0334
  772MPD2    H511401   2.527   2.373  13.923  2.6312  2.6739 -0.6320
  772MPD2    N111402   3.105   2.385  13.887 -0.7754  0.0135 -0.4026
  772MPD2    H711403   3.112   2.298  13.835 -1.8661 -1.1421  1.3865
  773MPD2     C11404   2.975   3.160  17.495 -0.0684 -0.1111  0.0438
  773MPD2    C111405   2.839   3.137  17.499  0.4697  0.1755 -0.6885
  773MPD2    C211406   2.798   3.018  17.553 -0.0292 -0.2120  0.6699
  773MPD2    C311407   2.882   2.930  17.616 -0.1968 -0.7143  0.3374
  773MPD2    C411408   3.017   2.958  17.626 -0.5326 -0.3266 -0.0782
  773MPD2    C511409   3.058   3.076  17.560  0.1414  0.4992  0.1838
  773MPD2     H11410   2.691   3.003  17.542  0.4001 -2.1944 -0.8454
  773MPD2    H111411   3.090   2.900  17.682  1.0230  1.2184 -0.5111
  773MPD2    H211412   3.003   3.248  17.438 -3.9405  0.2274 -1.3480
  773MPD2    H311413   3.166   3.079  17.559  0.1820  0.1494  2.5573
  773MPD2     N11414   2.831   2.810  17.680  0.0559 -0.4134 -0.1706
  773MPD2    H511415   2.735   2.788  17.653 -0.1903 -1.3078  1.3833
  773MPD2    N111416   2.742   3.213  17.430  0.1018 -0.0979  0.5854
  773MPD2    H711417   2.646   3.182  17.443 -0.1818  1.1972  1.5865
  774MPD2     C11418   1.833   1.952  13.131  0.6812 -0.3341 -0.1807
  774MPD2    C111419   1.708   2.002  13.165  0.4920 -0.7112 -0.1936
  774MPD2    C211420   1.692   2.140  13.143 -0.5055  0.1436 -0.2685
  774MPD2    C311421   1.788   2.218  13.089  0.7088  0.2014  0.0852
  774MPD2    C411422   1.908   2.164  13.048  0.4235  0.2984 -0.1225
  774MPD2    C511423   1.925   2.031  13.080 -0.1086 -0.2622 -0.0235
  774MPD2     H11424   1.595   2.186  13.159 -1.0206 -0.2975 -2.1315
  774MPD2    H111425   1.991   2.221  13.010 -0.1827  1.8963  0.9423
  774MPD2    H211426   1.869   1.856  13.167  0.7259 -1.2822 -2.7357
  774MPD2    H311427   2.021   1.982  13.071 -0.3089 -0.5324 -0.7584
  774MPD2     N11428   1.757   2.353  13.069 -0.5163  0.1883  0.4101
  774MPD2    H511429   1.664   2.389  13.090 -0.2731  0.0652  1.7199
  774MPD2    N111430   1.618   1.915  13.231  0.1150  0.2759  0.1478
  774MPD2    H711431   1.665   1.831  13.261  1.0514  1.6010  2.3882
  775MPD2     C11432   3.139   3.992  15.784  0.0715  0.1902 -0.1798
  775MPD2    C111433   3.064   4.107  15.771  0.4342 -0.3784 -0.3307
  775MPD2    C211434   3.122   4.226  15.732 -0.6584 -0.3953 -0.6161
  775MPD2    C311435   3.259   4.229  15.730 -0.0246 -0.3817  0.3184
  775MPD2    C411436   3.335   4.117  15.744  0.2280  0.2580 -0.4225
  775MPD2    C511437   3.274   4.002  15.770  0.3150  0.2782  0.3517
  775MPD2     H11438   3.063   4.316  15.718  0.5394  0.5408  0.3425
  775MPD2    H111439   3.441   4.129  15.730  0.2210  1.8788  0.9940
  775MPD2    H211440   3.084   3.901  15.802  0.1082 -0.0588 -1.3341
  775MPD2    H311441   3.334   3.912  15.772  1.5593  1.1209  0.6383
  775MPD2     N11442   3.331   4.344  15.694 -0.6305  0.1457 -0.3229
  775MPD2    H511443   3.427   4.333  15.664  0.7493  0.2837  4.0454
  775MPD2    N111444   2.924   4.094  15.794  0.2876  0.0925 -0.1875
  775MPD2    H711445   2.887   4.003  15.820 -0.0541 -0.1279 -1.4699
  776MPD2     C11446   2.724   3.999  11.618  0.0531  0.0549  0.0311
  776MPD2    C111447   2.622   4.030  11.534 -0.5352 -0.1472  0.9894
  776MPD2    C211448   2.617   4.153  11.474  0.2932  0.1406 -0.1752
  776MPD2    C311449   2.721   4.247  11.502 -0.1438 -0.1950 -0.2767
  776MPD2    C411450   2.825   4.219  11.590 -0.3080  0.2275  0.3554
  776MPD2    C511451   2.825   4.092  11.648 -0.5780 -0.2716 -0.0322
  776MPD2     H11452   2.537   4.176  11.404  1.5559  1.5413 -1.1651
  776MPD2    H111453   2.909   4.286  11.606 -1.6048  1.3335  2.4860
  776MPD2    H211454   2.748   3.902  11.659  1.8019  0.6045  0.3192
  776MPD2    H311455   2.909   4.054  11.705 -0.4186 -1.1420 -0.8662
  776MPD2     N11456   2.722   4.378  11.445 -0.3995  0.3003  0.1972
  776MPD2    H511457   2.795   4.445  11.471  0.5048 -0.6396  0.0793
  776MPD2    N111458   2.526   3.929  11.513  0.1422 -0.0729  0.0935
  776MPD2    H711459   2.538   3.839  11.558  0.0016  0.5659  1.3976
  777MPD2     C11460   2.871   1.968   0.442 -0.2651  0.4193 -0.9005
  777MPD2    C111461   2.740   1.946   0.492  0.5390 -0.6786  0.4046
  777MPD2    C211462   2.658   1.861   0.426  0.5788 -0.0153  0.9697
  777MPD2    C311463   2.694   1.788   0.310 -0.1699  0.4449 -0.6545
  777MPD2    C411464   2.826   1.801   0.267 -0.0573  0.3032 -0.1560
  777MPD2    C511465   2.910   1.893   0.336  0.4522  0.6127 -0.3864
  777MPD2     H11466   2.555   1.839   0.452  0.3740  0.4856  0.5871
  777MPD2    H111467   2.863   1.743   0.183  0.5053  0.8532 -0.2848
  777MPD2    H211468   2.940   2.035   0.493 -0.5267 -0.1207  0.1677
  777MPD2    H311469   3.013   1.902   0.305  0.9306 -1.7558  0.5102
  777MPD2     N11470   2.595   1.706   0.242  0.6761  0.3028  0.4106
  777MPD2    H511471   2.504   1.705   0.286  0.0376 -3.1036 -0.9290
  777MPD2    N111472   2.703   2.017   0.609 -0.0233 -0.3931  0.7380
  777MPD2    H711473   2.774   2.039   0.678  0.1387  0.4474  0.3080
  778MPD2     C11474   3.108   2.275  14.960 -0.0802 -0.4252 -0.2581
  778MPD2    C111475   3.066   2.175  14.873 -0.1680 -0.3126 -0.5644
  778MPD2    C211476   3.130   2.166  14.751  0.0363 -0.2784 -0.3625
  778MPD2    C311477   3.239   2.242  14.717 -0.3703  0.6189 -0.5581
  778MPD2    C411478   3.282   2.337  14.807  0.6081 -0.5245  1.0450
  778MPD2    C511479   3.214   2.359  14.923 -0.5001 -0.0973  0.0223
  778MPD2     H11480   3.082   2.090  14.691  1.0627 -1.4882  0.3647
  778MPD2    H111481   3.367   2.401  14.790 -0.2521  0.2757 -0.2860
  778MPD2    H211482   3.059   2.296  15.054 -0.5484 -0.6650 -0.4481
  778MPD2    H311483   3.237   2.445  14.985  0.3798  0.8206 -1.5838
  778MPD2     N11484   3.303   2.201  14.603  0.4947  0.1633  0.4719
  778MPD2    H511485   3.262   2.115  14.569 -1.5352  1.9855 -1.6224
  778MPD2    N111486   2.962   2.080  14.898 -0.1642  0.2958  0.0517
  778MPD2    H711487   2.952   2.007  14.828 -2.7706  0.7568 -0.0359
  779MPD2     C11488   3.200   0.894  14.367 -0.1422  0.5019  0.0244
  779MPD2    C111489   3.328   0.890  14.318  0.6297  0.5412 -0.0884
  779MPD2    C211490   3.396   1.007  14.292 -0.1908 -0.2095 -0.1752
  779MPD2    C311491   3.333   1.131  14.303 -0.0264  0.2802  0.0539
  779MPD2    C411492   3.200   1.137  14.351  0.7456 -0.6231 -0.8216
  779MPD2    C511493   3.137   1.015  14.385  1.0472  0.3702 -0.7288
  779MPD2     H11494   3.499   1.005  14.258 -0.2005 -1.0279 -0.1736
  779MPD2    H111495   3.138   1.225  14.363 -0.8562 -1.5719 -2.0390
  779MPD2    H211496   3.142   0.809  14.399  2.4687 -0.9277  0.9416
  779MPD2    H311497   3.045   1.015  14.443  1.6363  2.2678  0.1845
  779MPD2     N11498   3.408   1.249  14.284 -0.1555 -0.0188  0.3112
  779MPD2    H511499   3.509   1.240  14.295 -0.3537 -1.0516  1.3536
  779MPD2    N111500   3.392   0.766  14.299 -0.3762 -0.0449  0.1169
  779MPD2    H711501   3.492   0.766  14.281 -0.1194  1.5382  1.5136
  780MPD2     C11502   3.007   0.143   1.137 -0.5702  0.0847 -0.4872
  780MPD2    C111503   2.908   0.088   1.053  0.2035  0.9303  0.0859
  780MPD2    C211504   2.942   0.080   0.916 -0.2931 -1.0852  0.2559
  780MPD2    C311505   3.068   0.118   0.874 -0.4749  0.1897 -0.1032
  780MPD2    C411506   3.168   0.150   0.962  0.2094 -0.2233 -0.3304
  780MPD2    C511507   3.135   0.170   1.090 -0.7014 -0.1948 -0.2072
  780MPD2     H11508   2.871   0.055   0.838  0.0092 -0.0359 -0.3493
  780MPD2    H111509   3.273   0.164   0.943  0.0557  0.0016 -1.0186
  780MPD2    H211510   2.994   0.145   1.245 -2.3759 -0.5693 -0.6878
  780MPD2    H311511   3.211   0.213   1.155 -0.1145  3.1714 -3.1550
  780MPD2     N11512   3.091   0.131   0.729  0.7654 -0.6197  0.1066
  780MPD2    H511513   3.005   0.121   0.676  1.0532 -2.5257 -0.0158
  780MPD2    N111514   2.785   0.056   1.119 -0.3076 -0.3766 -0.0036
  780MPD2    H711515   2.776   0.075   1.218 -0.8465 -0.7458  0.0163
  781MPD2     C11516   4.458   2.442  11.843 -0.4064 -0.2780  0.2385
  781MPD2    C111517   4.561   2.490  11.926  0.0033 -0.6269  0.2523
  781MPD2    C211518   4.679   2.524  11.859  0.0085 -0.6213 -0.3281
  781MPD2    C311519   4.690   2.515  11.717 -0.0942 -0.0737  0.1481
  781MPD2    C411520   4.588   2.463  11.645  0.7939 -0.1088  0.3638
  781MPD2    C511521   4.470   2.433  11.706 -0.5182 -0.4009 -0.5384
  781MPD2     H11522   0.046   2.543  11.914 -0.8595  0.0185  0.8905
  781MPD2    H111523   4.587   2.448  11.537 -0.0409 -0.8665  0.4816
  781MPD2    H211524   4.360   2.412  11.880  0.0400  0.3513  1.9114
  781MPD2    H311525   4.387   2.395  11.648  0.4384 -0.5676 -1.7938
  781MPD2     N11526   0.077   2.552  11.641  0.0207 -0.2408 -0.1077
  781MPD2    H511527   0.080   2.528  11.543  2.0082 -0.6370  0.0341
  781MPD2    N111528   4.545   2.518  12.065 -0.8427 -0.2544 -0.1771
  781MPD2    H711529   4.627   2.544  12.120 -1.7580  2.1641  0.0707
  782MPD2     C11530   2.487   3.745  10.244  0.6618  0.1378 -0.6621
  782MPD2    C111531   2.623   3.739  10.218 -0.4660 -0.5070 -0.6646
  782MPD2    C211532   2.716   3.761  10.321 -0.2303  0.4523  0.1630
  782MPD2    C311533   2.669   3.774  10.448 -0.3695 -1.5501  0.0763
  782MPD2    C411534   2.529   3.783  10.475  0.4067 -0.2415 -0.4240
  782MPD2    C511535   2.441   3.770  10.374  0.4105  0.7858 -0.1547
  782MPD2     H11536   2.823   3.763  10.302 -0.4685 -1.0029 -1.2999
  782MPD2    H111537   2.488   3.793  10.575  1.4033  0.4899 -0.0808
  782MPD2    H211538   2.420   3.731  10.160 -2.2402  3.3371  1.1092
  782MPD2    H311539   2.337   3.775  10.402  0.9377  1.3020  1.7328
  782MPD2     N11540   2.765   3.781  10.553  0.0051 -0.4561  0.5793
  782MPD2    H511541   2.861   3.763  10.525 -0.6740  0.1654 -2.1675
  782MPD2    N111542   2.679   3.701  10.098  0.8762 -0.3466 -0.3381
  782MPD2    H711543   2.778   3.683  10.090  1.0389  0.7342 -0.7936
  783MPD2     C11544   2.714   3.057  10.329 -0.1670  0.1468  0.4807
  783MPD2    C111545   2.591   3.104  10.286 -0.2770  0.2154  0.2236
  783MPD2    C211546   2.572   3.153  10.150  0.4490 -0.3278  0.4737
  783MPD2    C311547   2.681   3.160  10.067  0.6729  0.7563 -0.4720
  783MPD2    C411548   2.799   3.103  10.104  0.1912 -0.0765 -0.0786
  783MPD2    C511549   2.811   3.049  10.229  0.0472 -0.3776  0.2030
  783MPD2     H11550   2.485   3.212  10.125  0.5130 -1.4265 -2.3111
  783MPD2    H111551   2.878   3.081  10.033  1.0502 -0.9779  1.1556
  783MPD2    H211552   2.728   3.018  10.430  0.0770 -0.3238  0.2655
  783MPD2    H311553   2.910   3.010  10.251 -0.2594 -1.2620  0.0110
  783MPD2     N11554   2.665   3.227   9.949  0.0735 -0.1839 -0.2025
  783MPD2    H511555   2.580   3.279   9.928  0.6077  1.7804  2.6062
  783MPD2    N111556   2.481   3.094  10.376 -0.4539  0.1172 -0.2278
  783MPD2    H711557   2.506   3.057  10.467  1.1843 -1.5895 -1.3697
  784MPD2     C11558   0.286   3.926   0.935  0.4336  0.3451 -0.4682
  784MPD2    C111559   0.203   3.963   1.037  0.4016  0.8105  0.0142
  784MPD2    C211560   0.066   3.939   1.020  0.2873 -0.4924  0.5687
  784MPD2    C311561   0.007   3.881   0.911  0.0698 -1.0343 -0.4025
  784MPD2    C411562   0.091   3.842   0.810 -0.0835 -0.0608  1.1179
  784MPD2    C511563   0.225   3.866   0.827 -0.2095 -0.1892  0.5337
  784MPD2     H11564   0.006   3.977   1.102 -2.1366  0.6132 -1.7346
  784MPD2    H111565   0.060   3.798   0.717  0.4554  1.9402 -0.0258
  784MPD2    H211566   0.394   3.934   0.937  0.5226 -0.9074 -0.0449
  784MPD2    H311567   0.284   3.829   0.743 -1.1575 -0.1621 -0.1479
  784MPD2     N11568   4.590   3.869   0.907  0.6207 -0.0183 -0.3237
  784MPD2    H511569   4.544   3.886   0.996 -0.3345 -0.7965 -0.6649
  784MPD2    N111570   0.252   4.023   1.153 -0.0984  0.1620 -0.2691
  784MPD2    H711571   0.184   4.030   1.228  0.4794 -1.7804  0.4336
  785MPD2     C11572   1.195   1.771   8.716  0.4286  0.0540 -0.0001
  785MPD2    C111573   1.189   1.723   8.841  0.5418 -0.0468  0.8752
  785MPD2    C211574   1.081   1.643   8.868  0.3519 -0.1397  0.6569
  785MPD2    C311575   0.988   1.596   8.783 -0.2719 -0.2777  0.2057
  785MPD2    C411576   0.998   1.641   8.648  0.3998 -0.5236  0.4866
  785MPD2    C511577   1.097   1.731   8.621 -0.3398  0.5027  0.5423
  785MPD2     H11578   1.066   1.615   8.972  0.0821  0.7001  0.8368
  785MPD2    H111579   0.932   1.616   8.566 -0.3928  1.6389  0.4739
  785MPD2    H211580   1.264   1.852   8.696  0.2132  0.4520  0.8724
  785MPD2    H311581   1.103   1.772   8.521  0.2232 -0.7766  0.0601
  785MPD2     N11582   0.885   1.516   8.830  0.1790 -0.1915  0.9331
  785MPD2    H511583   0.881   1.488   8.928  1.5363  0.7679  1.2605
  785MPD2    N111584   1.289   1.753   8.933 -0.4100  0.8267 -0.1991
  785MPD2    H711585   1.355   1.813   8.885 -1.0167  2.5510  1.1202
  786MPD2     C11586   3.575   0.266  14.537 -0.6452 -0.1146 -0.2816
  786MPD2    C111587   3.679   0.182  14.507 -0.0580 -0.2660 -0.1932
  786MPD2    C211588   3.777   0.173  14.597  0.3872 -0.8456  0.8178
  786MPD2    C311589   3.776   0.238  14.716 -1.1106  0.0677 -1.3524
  786MPD2    C411590   3.677   0.330  14.738 -0.5573 -1.0567  0.1757
  786MPD2    C511591   3.576   0.338  14.650  0.2609  0.1208 -0.3428
  786MPD2     H11592   3.861   0.109  14.570  1.7523  2.2166 -2.1424
  786MPD2    H111593   3.685   0.392  14.827  0.4368  1.2768 -1.5547
  786MPD2    H211594   3.489   0.278  14.472 -0.1481  0.0959 -0.9058
  786MPD2    H311595   3.501   0.416  14.657  1.2352  0.9997  0.3086
  786MPD2     N11596   3.874   0.227  14.817 -0.5666 -0.6479 -0.9202
  786MPD2    H511597   3.842   0.268  14.905 -1.3303 -0.2509 -1.3888
  786MPD2    N111598   3.678   0.091  14.396  0.3556 -0.0984 -0.1345
  786MPD2    H711599   3.765   0.039  14.389  1.1740  1.2193  0.1549
  787MPD2     C11600   3.835   4.277  14.638 -0.2877 -0.0885 -0.3816
  787MPD2    C111601   3.850   4.272  14.500  0.6772  0.1469  0.8058
  787MPD2    C211602   3.941   4.185  14.452 -1.2304  0.2663  0.4279
  787MPD2    C311603   4.025   4.111  14.542 -0.3960 -0.9331  0.2542
  787MPD2    C411604   3.998   4.115  14.677  0.5054  0.0212 -0.5639
  787MPD2    C511605   3.905   4.202  14.721 -0.0635  0.4255  0.5305
  787MPD2     H11606   3.958   4.167  14.347  1.2226  0.5782  0.7519
  787MPD2    H111607   4.045   4.054  14.753 -0.5176  1.5805  1.3205
  787MPD2    H211608   3.750   4.337  14.668  0.9409  0.3383  2.1937
  787MPD2    H311609   3.892   4.215  14.828 -1.2118  1.9078  0.2003
  787MPD2     N11610   4.114   4.019  14.490  0.1251 -0.1440  0.4361
  787MPD2    H511611   4.143   4.046  14.396  1.0584 -0.1705  0.7182
  787MPD2    N111612   3.770   4.353  14.419  0.4779 -0.1589  0.0500
  787MPD2    H711613   3.705   4.418  14.462  1.9123  1.1917  0.1909
  788MPD2     C11614   0.290   2.148   0.832  0.0542  0.0524 -1.0298
  788MPD2    C111615   0.291   2.171   0.697 -0.0514  0.0080 -0.7574
  788MPD2    C211616   0.387   2.254   0.644  0.0324 -0.2327 -0.0605
  788MPD2    C311617   0.480   2.320   0.725 -0.1499 -0.2362 -0.3696
  788MPD2    C411618   0.469   2.301   0.861 -0.0090  0.3463 -0.3962
  788MPD2    C511619   0.375   2.218   0.913  0.3683 -0.2044  0.3610
  788MPD2     H11620   0.388   2.268   0.536 -0.7820  0.2029 -0.0127
  788MPD2    H111621   0.542   2.337   0.933 -0.1024 -1.1375  0.4393
  788MPD2    H211622   0.229   2.074   0.882  0.1143  0.2958 -0.5967
  788MPD2    H311623   0.379   2.200   1.019  0.1231  2.0506  0.7490
  788MPD2     N11624   0.578   2.402   0.670 -0.5124 -0.5978  0.2978
  788MPD2    H511625   0.655   2.425   0.732 -0.1273  1.3928 -0.9302
  788MPD2    N111626   0.204   2.103   0.606 -0.4748 -0.2789  0.5869
  788MPD2    H711627   0.216   2.116   0.506 -1.3248 -3.4186  0.0662
  789MPD2     C11628   1.591   3.076  16.157 -0.6793 -0.7215 -0.3561
  789MPD2    C111629   1.528   2.960  16.127 -0.3960  0.3607 -0.1895
  789MPD2    C211630   1.398   2.963  16.075 -0.6045  0.4340 -0.1508
  789MPD2    C311631   1.340   3.082  16.040 -0.3218 -0.3658 -0.6206
  789MPD2    C411632   1.402   3.198  16.071 -0.1409  0.4305 -0.4204
  789MPD2    C511633   1.529   3.198  16.128 -0.1559  0.0225 -0.0453
  789MPD2     H11634   1.350   2.866  16.070 -0.3400  0.3052 -0.2059
  789MPD2    H111635   1.353   3.294  16.065  1.0464  1.2870  3.7576
  789MPD2    H211636   1.685   3.090  16.210 -0.3714  1.1843 -1.3849
  789MPD2    H311637   1.582   3.286  16.163 -0.6882  0.5131 -0.4706
  789MPD2     N11638   1.207   3.102  15.996  0.1449 -0.1387  0.2452
  789MPD2    H511639   1.183   3.195  15.965  1.4466  0.7005  1.7322
  789MPD2    N111640   1.591   2.835  16.158  0.5188  0.5143 -0.0913
  789MPD2    H711641   1.538   2.749  16.155  1.3804  0.0182 -1.2248
  790MPD2     C11642   2.181   4.593  13.546  0.0249  1.0454 -0.4582
  790MPD2    C111643   2.298   4.601  13.479 -0.2900  0.4313 -0.2414
  790MPD2    C211644   2.314   4.560  13.342  0.2135 -0.2122  0.0052
  790MPD2    C311645   2.197   4.526  13.277 -0.1721  0.3999  0.0534
  790MPD2    C411646   2.079   4.516  13.359 -0.0757  0.3812  0.1237
  790MPD2    C511647   2.066   4.545  13.489  0.4359  0.2810  0.2878
  790MPD2     H11648   2.410   4.556  13.292  1.0491 -1.4413  1.7019
  790MPD2    H111649   1.988   4.481  13.312  0.2524 -0.2047 -0.0798
  790MPD2    H211650   2.175   4.613  13.653  0.1567 -0.9221 -0.0778
  790MPD2    H311651   1.969   4.529  13.536 -0.0559  0.3193 -0.6996
  790MPD2     N11652   2.205   4.489  13.139 -0.4382  0.2706  0.1751
  790MPD2    H511653   2.293   4.503  13.091 -1.1853 -1.6642 -1.7730
  790MPD2    N111654   2.405   4.665  13.551 -0.3057  0.6087  0.3354
  790MPD2    H711655   2.399   4.666  13.653  0.8145 -0.4981  0.4224
  791MPD2     C11656   1.732   4.589  12.502 -0.2020  0.3867  0.0350
  791MPD2    C111657   1.795   4.471  12.516  0.4736  0.1668 -0.3245
  791MPD2    C211658   1.715   4.359  12.502  0.1527 -0.0458  0.6143
  791MPD2    C311659   1.581   4.372  12.475 -0.1756 -0.2062 -0.9183
  791MPD2    C411660   1.523   4.499  12.461  0.7868  0.4762 -0.7920
  791MPD2    C511661   1.603   4.604  12.474 -0.1297  0.1690 -0.4125
  791MPD2     H11662   1.752   4.259  12.524 -1.7614 -1.0632 -0.7479
  791MPD2    H111663   1.418   4.511  12.441  0.8481  1.2218 -0.6950
  791MPD2    H211664   1.786   4.682  12.519 -0.0993  0.6172 -1.5761
  791MPD2    H311665   1.562   4.705  12.469  1.0302  0.7476  1.9572
  791MPD2     N11666   1.499   4.257  12.469  1.1645 -0.0540  0.3265
  791MPD2    H511667   1.543   4.166  12.464 -1.8065 -1.3979 -0.7179
  791MPD2    N111668   1.921   4.474  12.583 -0.2593 -0.4685  0.2037
  791MPD2    H711669   1.954   4.558  12.629 -1.9724 -0.7939  2.0528
  792MPD2     C11670   2.800   4.153  11.137  0.1774 -0.7899 -0.1152
  792MPD2    C111671   2.707   4.217  11.055  0.2729  0.1749  0.1945
  792MPD2    C211672   2.587   4.155  11.012  0.1167  0.2565 -0.0817
  792MPD2    C311673   2.570   4.024  11.049 -0.7771 -0.4879 -0.4368
  792MPD2    C411674   2.657   3.954  11.128  0.7940 -0.2172  0.2494
  792MPD2    C511675   2.770   4.023  11.172 -0.3214 -0.7664 -0.1645
  792MPD2     H11676   2.514   4.210  10.952  1.9322  1.9052 -0.7978
  792MPD2    H111677   2.637   3.854  11.166  2.8874 -1.2356 -1.3587
  792MPD2    H211678   2.891   4.197  11.175 -1.9205  1.0465  2.7931
  792MPD2    H311679   2.839   3.976  11.242 -0.4421 -0.7923 -0.0626
  792MPD2     N11680   2.464   3.943  11.003  0.1481 -0.3297  0.4398
  792MPD2    H511681   2.470   3.842  11.016  0.4839 -0.0549  2.4970
  792MPD2    N111682   2.754   4.349  11.015  0.0098 -0.5127  0.0489
  792MPD2    H711683   2.846   4.381  11.041  0.2113 -1.1639  0.1454
  793MPD2     C11684   2.062   3.852  10.170 -0.2019 -0.6246  0.1348
  793MPD2    C111685   2.134   3.948  10.230  0.5378 -0.3650 -0.1676
  793MPD2    C211686   2.136   3.946  10.374  0.4091 -0.1733 -0.0893
  793MPD2    C311687   2.062   3.860  10.447  0.0830 -0.3059  0.0048
  793MPD2    C411688   1.975   3.770  10.383  0.3230  0.0002 -0.6698
  793MPD2    C511689   1.985   3.766  10.243 -0.0028  0.2976 -0.5882
  793MPD2     H11690   2.204   4.009  10.430 -0.4609 -0.5378  1.3734
  793MPD2    H111691   1.908   3.705  10.439  2.6212 -1.4770  0.3700
  793MPD2    H211692   2.080   3.840  10.064  3.3102 -0.1847  0.6833
  793MPD2    H311693   1.924   3.691  10.193  0.0167 -0.3602  0.3825
  793MPD2     N11694   2.068   3.875  10.584 -0.5142 -0.2997 -0.1318
  793MPD2    H511695   2.139   3.942  10.613 -2.0290  1.3498 -0.1889
  793MPD2    N111696   2.231   4.024  10.166  0.6764 -0.2154 -0.4999
  793MPD2    H711697   2.287   4.071  10.237 -0.2523  0.8354 -0.4557
  794MPD2     C11698   2.398   3.980  17.205  0.4374 -0.2465 -0.3028
  794MPD2    C111699   2.339   3.882  17.135 -0.2234  0.1281 -0.5266
  794MPD2    C211700   2.221   3.897  17.064 -0.4477  0.2184 -0.3674
  794MPD2    C311701   2.152   4.018  17.071 -0.4851 -1.0254  0.1711
  794MPD2    C411702   2.209   4.126  17.138  0.1064 -0.0802 -0.1814
  794MPD2    C511703   2.330   4.103  17.203  0.3449  0.1904  0.0976
  794MPD2     H11704   2.178   3.808  17.020  1.7259 -1.6281  1.3018
  794MPD2    H111705   2.160   4.222  17.145 -0.1013 -0.0951 -1.3012
  794MPD2    H211706   2.496   3.969  17.250 -0.2788  0.7471  1.4979
  794MPD2    H311707   2.384   4.184  17.251  1.7039  0.5081 -1.9657
  794MPD2     N11708   2.028   4.049  17.006  0.0203 -0.0252  1.0304
  794MPD2    H511709   1.976   4.132  17.034  0.8656  0.4296  1.2608
  794MPD2    N111710   2.403   3.753  17.124 -0.2966  0.1199  0.7531
  794MPD2    H711711   2.390   3.689  17.046 -0.6078  0.7152  0.3077
  795MPD2     C11712   4.433   1.120  13.481 -0.5054  0.0956 -0.0555
  795MPD2    C111713   4.437   1.058  13.361  0.4469  0.1018 -0.2049
  795MPD2    C211714   4.523   0.955  13.358 -0.1982  1.0994  0.0821
  795MPD2    C311715   4.611   0.910  13.459 -0.1980  0.6834 -0.3001
  795MPD2    C411716   4.606   0.983  13.575  0.5075 -0.0221  0.2957
  795MPD2    C511717   4.522   1.092  13.582  0.6852 -0.9790 -0.2113
  795MPD2     H11718   4.530   0.891  13.271  0.1779  0.1527  0.7982
  795MPD2    H111719   4.663   0.952  13.662 -2.0962 -1.0374  1.6510
  795MPD2    H211720   4.354   1.190  13.508  1.0459  2.5213 -1.7153
  795MPD2    H311721   4.513   1.149  13.674  2.3600 -2.1031  0.6462
  795MPD2     N11722   4.692   0.795  13.441 -0.9450  0.0605  0.4762
  795MPD2    H511723   4.677   0.746  13.353  0.8808  1.9913 -0.9302
  795MPD2    N111724   4.361   1.092  13.248  0.0476  0.6352 -0.0106
  795MPD2    H711725   4.368   1.021  13.176  0.5613  0.9008 -0.2226
  796MPD2     C11726   3.893   2.851  15.378  0.0138 -0.2376 -0.2792
  796MPD2    C111727   3.990   2.852  15.478  0.2710 -0.0013  0.3249
  796MPD2    C211728   4.031   2.979  15.518  0.4590  0.1875 -0.3887
  796MPD2    C311729   3.965   3.098  15.472  0.4197  0.2214  0.6136
  796MPD2    C411730   3.865   3.091  15.376 -0.6968  0.3098  0.4678
  796MPD2    C511731   3.840   2.969  15.325  0.4113  0.1364 -0.2713
  796MPD2     H11732   4.100   2.998  15.599 -0.2353  0.0306  0.2418
  796MPD2    H111733   3.820   3.173  15.321 -0.4381 -0.6662 -1.1804
  796MPD2    H211734   3.859   2.764  15.323  1.0538 -1.8184  1.5384
  796MPD2    H311735   3.768   2.963  15.244 -1.4824 -0.0797  1.4279
  796MPD2     N11736   4.009   3.221  15.530 -0.2396 -0.1332 -0.3648
  796MPD2    H511737   4.077   3.219  15.606  0.2918  3.0817 -0.7533
  796MPD2    N111738   4.047   2.734  15.526  0.4575 -0.1719  0.3902
  796MPD2    H711739   4.018   2.645  15.486 -1.6022  0.0083  1.4722
  797MPD2     C11740   4.667   1.968  17.047 -0.3207  0.1055 -0.2206
  797MPD2    C111741   0.037   2.071  17.065  0.1709 -0.1958 -0.2134
  797MPD2    C211742   0.018   2.188  16.996 -0.3888  0.3237 -0.1064
  797MPD2    C311743   4.634   2.210  16.910  0.2845 -0.3264  0.0201
  797MPD2    C411744   4.549   2.104  16.886 -0.0775 -0.0658 -0.1551
  797MPD2    C511745   4.560   1.985  16.959  0.4950 -0.5261 -0.3501
  797MPD2     H11746   0.102   2.256  17.006  0.6283 -0.8402 -0.7128
  797MPD2    H111747   4.465   2.112  16.817  0.4055 -1.9608 -0.9606
  797MPD2    H211748   4.685   1.865  17.076 -1.1402  1.0429  3.6683
  797MPD2    H311749   4.502   1.897  16.934 -2.4392  0.2594  3.8556
  797MPD2     N11750   4.611   2.332  16.843  0.5829  0.1849  0.0697
  797MPD2    H511751   4.541   2.320  16.769 -0.0922  2.2451  0.3755
  797MPD2    N111752   0.156   2.062  17.140  0.2783  0.1657  0.4985
  797MPD2    H711753   0.230   2.127  17.116  0.3612  0.7776  2.3643
  798MPD2     C11754   0.453   2.727  17.034  0.2686  0.0937  0.1934
  798MPD2    C111755   0.341   2.647  17.037  0.5638  0.7304 -0.2223
  798MPD2    C211756   0.343   2.530  17.111  0.5108 -0.2488 -0.0288
  798MPD2    C311757   0.459   2.483  17.171 -0.1117 -1.0048  0.4054
  798MPD2    C411758   0.575   2.555  17.168 -0.0630  0.1855 -0.0118
  798MPD2    C511759   0.567   2.677  17.097 -0.2178 -0.3794 -0.0087
  798MPD2     H11760   0.255   2.469  17.125 -0.9978  2.1728  0.9822
  798MPD2    H111761   0.663   2.523  17.222  0.9946  2.0191 -0.6366
  798MPD2    H211762   0.464   2.812  16.967  1.9600  1.4226  2.1319
  798MPD2    H311763   0.658   2.736  17.097 -0.0678 -0.6086 -0.8441
  798MPD2     N11764   0.449   2.358  17.227  0.5173  0.1388  0.0036
  798MPD2    H511765   0.357   2.317  17.232  0.7780 -0.4589 -0.0669
  798MPD2    N111766   0.217   2.670  16.972  0.4508 -0.4561  0.1205
  798MPD2    H711767   0.149   2.595  16.969  0.0518 -0.0768 -0.2756
  799MPD2     C11768   3.372   4.317  14.038  0.2930 -0.0841  0.1239
  799MPD2    C111769   3.380   4.188  13.992 -0.2687 -0.5534 -0.8728
  799MPD2    C211770   3.364   4.154  13.856 -0.2360 -0.0084 -0.1627
  799MPD2    C311771   3.350   4.257  13.768 -0.5143 -0.2334  0.2218
  799MPD2    C411772   3.330   4.382  13.816  0.0485  0.1861 -0.4203
  799MPD2    C511773   3.345   4.417  13.948  0.0563 -0.4308 -0.6634
  799MPD2     H11774   3.389   4.051  13.833  1.8396  0.2286  0.9191
  799MPD2    H111775   3.307   4.467  13.752 -1.3632  1.2625  1.5195
  799MPD2    H211776   3.379   4.351  14.140  1.2135 -1.1371  0.4088
  799MPD2    H311777   3.337   4.519  13.984  2.5923 -0.2212 -0.6847
  799MPD2     N11778   3.357   4.247  13.628 -0.0927  0.0555 -0.4353
  799MPD2    H511779   3.374   4.329  13.571 -1.2437  0.1645 -0.6169
  799MPD2    N111780   3.432   4.087  14.078 -1.0198 -0.6234  0.5603
  799MPD2    H711781   3.425   3.990  14.047  0.8401 -0.7200  0.4411
  800MPD2     C11782   4.241   0.069  13.560 -0.8744 -0.0606  0.0484
  800MPD2    C111783   4.364   0.082  13.505 -0.0948 -0.2366  0.3876
  800MPD2    C211784   4.373   0.077  13.370  0.1586  0.0208 -0.2666
  800MPD2    C311785   4.262   0.066  13.293 -0.0812  0.1468  0.0073
  800MPD2    C411786   4.132   0.070  13.338  0.5984 -0.2043  0.4872
  800MPD2    C511787   4.128   0.060  13.477  1.0501 -0.0572 -0.0151
  800MPD2     H11788   4.469   0.064  13.321  0.2515  1.3829 -0.4362
  800MPD2    H111789   4.049   0.063  13.269  0.9959 -2.0073  0.1794
  800MPD2    H211790   4.215   0.074  13.665  0.9512 -1.0884  0.5589
  800MPD2    H311791   4.028   0.060  13.518  1.2275  0.9573  0.3984
  800MPD2     N11792   4.282   0.071  13.149  0.4349 -0.3120 -0.1292
  800MPD2    H511793   4.379   0.083  13.122 -0.2534 -1.3615 -3.0087
  800MPD2    N111794   4.470   0.105  13.598  0.1943 -0.3252 -0.6275
  800MPD2    H711795   4.437   0.118  13.693  1.0192 -2.3418 -0.0710
  801MPD2     C11796   4.539   0.346  14.320  0.1576  0.4614 -0.9148
  801MPD2    C111797   4.507   0.396  14.198  0.3762  0.0634 -0.4675
  801MPD2    C211798   4.398   0.483  14.188 -1.1303 -0.6360  0.2029
  801MPD2    C311799   4.322   0.523  14.295 -0.2360 -0.6728  0.6320
  801MPD2    C411800   4.376   0.480  14.420  0.2273  0.1975  0.0463
  801MPD2    C511801   4.485   0.397  14.432 -0.2186  0.4236  0.3604
  801MPD2     H11802   4.377   0.527  14.091  0.1977  1.2805  0.7691
  801MPD2    H111803   4.342   0.521  14.514 -2.5548 -1.8871 -0.0460
  801MPD2    H211804   4.624   0.282  14.338  0.4062  0.6074 -1.5611
  801MPD2    H311805   4.532   0.380  14.528 -2.2267 -0.5022  1.1800
  801MPD2     N11806   4.216   0.617  14.295 -0.0269 -0.4426 -0.6291
  801MPD2    H511807   4.176   0.642  14.385  1.3834  1.4450 -0.5087
  801MPD2    N111808   4.593   0.361  14.087 -0.0797  0.5330  0.1431
  801MPD2    H711809   4.665   0.291  14.103 -0.3964  0.0478 -0.5687
  802MPD2     C11810   3.633   0.601  16.722 -0.1756 -0.6897 -0.9911
  802MPD2    C111811   3.667   0.688  16.820 -0.1757  0.0992 -0.3326
  802MPD2    C211812   3.769   0.775  16.809  0.1644 -0.3396  0.2066
  802MPD2    C311813   3.829   0.781  16.686 -0.0345 -0.7273  0.5163
  802MPD2    C411814   3.785   0.704  16.583 -0.3293  0.2571  0.1859
  802MPD2    C511815   3.697   0.596  16.601  0.4465  0.4174  0.4441
  802MPD2     H11816   3.796   0.850  16.882 -1.1636 -0.7213  1.0941
  802MPD2    H111817   3.821   0.718  16.482  2.8093 -2.1633  0.9505
  802MPD2    H211818   3.583   0.511  16.754 -0.0781 -0.0918  0.8269
  802MPD2    H311819   3.676   0.535  16.514  1.5794 -0.6446  0.9094
  802MPD2     N11820   3.933   0.883  16.677 -0.8151 -0.5101  0.2146
  802MPD2    H511821   3.950   0.927  16.766 -0.9258  0.5583 -0.2988
  802MPD2    N111822   3.597   0.686  16.939 -0.6231 -0.0522  0.1603
  802MPD2    H711823   3.644   0.730  17.017  0.8474  1.6486 -1.7034
  803MPD2     C11824   0.389   4.441  11.498  0.6738 -0.2375  0.3771
  803MPD2    C111825   0.483   4.435  11.601 -0.4150  0.4594 -0.1164
  803MPD2    C211826   0.449   4.362  11.717 -0.5329  0.0875  0.2426
  803MPD2    C311827   0.319   4.316  11.733 -0.2703  0.2362  0.4568
  803MPD2    C411828   0.221   4.337  11.638  0.3548 -0.0703 -0.6725
  803MPD2    C511829   0.259   4.406  11.526 -0.3460 -0.4777 -0.0418
  803MPD2     H11830   0.534   4.343  11.781  0.8057  1.1146 -1.2223
  803MPD2    H111831   0.119   4.301  11.644  0.7686 -1.0685  0.2647
  803MPD2    H211832   0.405   4.482  11.399  1.5523  2.7552  1.7552
  803MPD2    H311833   0.181   4.432  11.456 -1.2656  2.2040  1.9834
  803MPD2     N11834   0.285   4.238  11.847 -0.4053 -0.2631 -0.9602
  803MPD2    H511835   0.186   4.218  11.852 -0.2974 -0.4226  0.4613
  803MPD2    N111836   0.609   4.500  11.600 -0.6309  0.1486  0.6188
  803MPD2    H711837   0.670   4.491  11.681 -0.9584 -0.3943  0.8068
  804MPD2     C11838   4.229   0.709  16.648  0.7462 -0.3244 -0.1115
  804MPD2    C111839   4.232   0.725  16.786 -0.9992 -0.4756 -0.0795
  804MPD2    C211840   4.310   0.829  16.842 -0.3250 -0.3261 -0.2121
  804MPD2    C311841   4.390   0.903  16.757  0.2267  0.3972 -0.6403
  804MPD2    C411842   4.388   0.889  16.621 -0.6874  0.1049  0.5896
  804MPD2    C511843   4.315   0.782  16.573 -0.1377 -0.3333 -0.2284
  804MPD2     H11844   4.324   0.843  16.948  1.5500  0.0642 -0.5092
  804MPD2    H111845   4.450   0.943  16.550 -0.0069 -0.2454  0.9284
  804MPD2    H211846   4.165   0.640  16.595 -0.6284  0.7418  0.1638
  804MPD2    H311847   4.324   0.756  16.468  1.1098 -1.0904  0.0660
  804MPD2     N11848   4.475   1.003  16.816  0.2314 -0.3407  0.0546
  804MPD2    H511849   4.494   1.007  16.916 -1.0439  1.6010  0.2269
  804MPD2    N111850   4.152   0.657  16.871 -0.4709 -0.0944 -0.5155
  804MPD2    H711851   4.167   0.677  16.970 -2.2249 -1.2233 -0.0284
  805MPD2     C11852   3.515   4.089  15.478  0.7231  0.5993  0.6328
  805MPD2    C111853   3.578   4.180  15.400  0.1332 -0.0345  0.0966
  805MPD2    C211854   3.714   4.194  15.410 -0.1762 -0.1559  0.3307
  805MPD2    C311855   3.790   4.112  15.487  0.2598 -0.1252  0.7701
  805MPD2    C411856   3.724   4.018  15.564  0.1088  0.7299 -0.0346
  805MPD2    C511857   3.589   4.004  15.562 -0.4232 -1.0839  0.8084
  805MPD2     H11858   3.768   4.262  15.345  1.0070 -0.9075  0.5201
  805MPD2    H111859   3.775   3.943  15.624 -0.6638 -1.6348 -2.2990
  805MPD2    H211860   3.410   4.064  15.470  0.3338  2.2530  0.7374
  805MPD2    H311861   3.543   3.924  15.620  0.0401 -2.0314 -0.1441
  805MPD2     N11862   3.931   4.136  15.498  0.7214  0.6764 -0.3376
  805MPD2    H511863   3.955   4.230  15.468  1.8633  0.9990  1.6029
  805MPD2    N111864   3.509   4.266  15.307  0.2685 -0.3651  0.0214
  805MPD2    H711865   3.573   4.302  15.237 -1.0242  1.6091 -0.1067
  806MPD2     C11866   0.126   2.788   1.352  0.3260 -0.3044 -0.1908
  806MPD2    C111867   0.173   2.834   1.230 -0.3867  0.0633  0.4141
  806MPD2    C211868   0.189   2.973   1.215 -0.1866 -0.2697  0.0074
  806MPD2    C311869   0.170   3.058   1.319 -0.0046 -0.2234 -0.4675
  806MPD2    C411870   0.123   3.005   1.446  0.1064 -0.4114 -0.0372
  806MPD2    C511871   0.097   2.875   1.459 -0.4415  0.5002  0.1748
  806MPD2     H11872   0.212   3.018   1.119 -0.5045  2.2451  1.1070
  806MPD2    H111873   0.104   3.063   1.535  0.7329 -1.0147  0.4868
  806MPD2    H211874   0.097   2.684   1.366  0.5135 -0.5750 -1.7911
  806MPD2    H311875   0.063   2.839   1.555 -0.6440  0.7043  0.1793
  806MPD2     N11876   0.208   3.198   1.307 -0.4945 -0.0938 -0.1018
  806MPD2    H511877   0.265   3.223   1.226  0.6728 -0.9634  0.4438
  806MPD2    N111878   0.184   2.758   1.114 -0.5648 -0.0433  0.3598
  806MPD2    H711879   0.197   2.812   1.029  2.0401  1.8236  1.9404
  807MPD2     C11880   4.485   2.188   0.628 -0.1098 -0.1965 -0.4630
  807MPD2    C111881   4.530   2.203   0.759  0.0867 -0.9251 -0.3155
  807MPD2    C211882   4.509   2.101   0.847  0.3855 -0.3005 -0.4796
  807MPD2    C311883   4.428   1.988   0.822  0.2859 -1.0867 -0.3979
  807MPD2    C411884   4.387   1.969   0.690  0.5680 -0.0685 -0.6168
  807MPD2    C511885   4.413   2.069   0.595  0.4184 -0.3964 -0.0485
  807MPD2     H11886   4.547   2.109   0.949 -1.9159 -1.7107  0.4947
  807MPD2    H111887   4.329   1.885   0.653  1.0908 -1.3025  1.3759
  807MPD2    H211888   4.517   2.261   0.554  0.7686 -0.1462 -0.0315
  807MPD2    H311889   4.364   2.061   0.499 -0.1099  0.4050  0.1556
  807MPD2     N11890   4.396   1.906   0.933 -0.5046  0.1612  0.4846
  807MPD2    H511891   4.441   1.927   1.022  1.8504 -0.0432 -0.6420
  807MPD2    N111892   4.625   2.305   0.792  0.1387  0.1497  0.7691
  807MPD2    H711893   4.670   2.306   0.883 -0.1166 -0.8321  0.9026
  808MPD2     C11894   4.551   0.117   9.033  0.3567  0.0495 -0.0030
  808MPD2    C111895   4.598   0.158   9.157  0.1277 -0.4689 -0.2172
  808MPD2    C211896   4.714   0.239   9.155  0.1654 -0.4077  0.1695
  808MPD2    C311897   0.055   0.272   9.037 -0.3669  0.2587 -0.0924
  808MPD2    C411898   4.719   0.239   8.915 -0.6635 -0.1337 -0.3245
  808MPD2    C511899   4.600   0.170   8.914  0.1839  0.1494  0.2152
  808MPD2     H11900   0.024   0.282   9.248 -1.4961  0.4997  0.3714
  808MPD2    H111901   0.039   0.265   8.819  0.4983  1.7563  0.7045
  808MPD2    H211902   4.460   0.059   9.025  0.0250  0.6828 -0.7034
  808MPD2    H311903   4.559   0.135   8.820  0.0477  0.5443  0.1311
  808MPD2     N11904   0.178   0.346   9.032 -0.7444 -0.3113  0.6119
  808MPD2    H511905   0.219   0.341   8.939 -2.2687 -1.2626 -0.0144
  808MPD2    N111906   4.533   0.126   9.278  0.3225  0.2262  0.0595
  808MPD2    H711907   4.575   0.163   9.363  1.2764  0.7670 -0.6450
  809MPD2     C11908   0.768   4.599   8.693 -0.3393  0.4056  0.1912
  809MPD2    C111909   0.819   4.626   8.817  0.0478  0.1766  0.7154
  809MPD2    C211910   0.783   0.023   8.876 -0.7364 -0.2170  0.1352
  809MPD2    C311911   0.694   0.107   8.817  0.1363  0.2972 -0.5353
  809MPD2    C411912   0.649   0.083   8.684  0.4556  0.2401 -0.3470
  809MPD2    C511913   0.685   4.684   8.632 -0.0215  0.0416 -0.0992
  809MPD2     H11914   0.812   0.038   8.979 -0.9488 -0.7368  0.2731
  809MPD2    H111915   0.592   0.153   8.624  0.1472 -0.0820 -0.4295
  809MPD2    H211916   0.804   4.510   8.643 -2.3678 -0.9497  1.1390
  809MPD2    H311917   0.651   4.648   8.535  0.8860 -1.7539  0.2499
  809MPD2     N11918   0.647   0.228   8.872 -0.5564  0.3340  0.2380
  809MPD2    H511919   0.561   0.265   8.832 -0.0812  0.4510 -0.6680
  809MPD2    N111920   0.901   4.540   8.884  0.7422 -0.3816 -0.0528
  809MPD2    H711921   0.955   4.587   8.955 -0.6121  0.7663  0.2147
  810MPD2     C11922   4.601   4.636  10.059 -0.4566  0.5860  0.2521
  810MPD2    C111923   4.508   4.581  10.140 -0.1517  0.4770  0.5521
  810MPD2    C211924   4.539   4.538  10.273 -0.5097 -0.3631  0.7984
  810MPD2    C311925   4.664   4.561  10.322 -0.0279 -0.3463  0.3283
  810MPD2    C411926   0.030   4.626  10.243 -0.3303  0.3428  0.3946
  810MPD2    C511927   0.006   4.656  10.110 -0.0333 -0.4500  0.6098
  810MPD2     H11928   4.462   4.499  10.337 -0.4846 -2.4894 -0.4644
  810MPD2    H111929   0.116   4.656  10.302 -0.3682 -2.0355  1.6490
  810MPD2    H211930   4.579   4.676   9.961  0.1583  0.4187  0.0414
  810MPD2    H311931   0.079   4.704  10.045 -1.0893  0.5230  0.1345
  810MPD2     N11932   4.711   4.515  10.447  0.0138 -0.2407  0.1691
  810MPD2    H511933   0.074   4.553  10.484 -0.9490  3.3954 -1.3999
  810MPD2    N111934   4.380   4.551  10.086  0.1123  0.3761 -0.4487
  810MPD2    H711935   4.371   4.556   9.985  0.2680  0.7992 -0.4408
  811MPD2     C11936   3.771   4.248   9.562 -0.4098  0.6972  0.0960
  811MPD2    C111937   3.858   4.346   9.590 -0.4954 -0.0586  0.6308
  811MPD2    C211938   3.860   4.462   9.517 -0.3695  0.1217 -0.2393
  811MPD2    C311939   3.760   4.484   9.420  0.0899  0.2466  0.2393
  811MPD2    C411940   3.677   4.376   9.387  0.2840 -0.5680 -0.2345
  811MPD2    C511941   3.687   4.261   9.456 -0.2500 -0.0872 -0.2406
  811MPD2     H11942   3.930   4.544   9.536 -0.1538 -0.6414  2.3271
  811MPD2    H111943   3.623   4.373   9.293 -0.6041  0.4423  0.2361
  811MPD2    H211944   3.780   4.156   9.619 -1.4259  1.0013  0.7486
  811MPD2    H311945   3.622   4.186   9.414  0.4692 -1.3750  0.9600
  811MPD2     N11946   3.763   4.603   9.347  0.2831 -0.3409  0.1058
  811MPD2    H511947   3.851   4.652   9.362  0.3838 -0.5375  0.1642
  811MPD2    N111948   3.929   4.330   9.713  0.2074  0.0129  0.2281
  811MPD2    H711949   3.905   4.249   9.769 -0.7851 -1.2213 -1.9852
  812MPD2     C11950   2.765   4.254  11.912  0.0253 -0.9035 -0.2642
  812MPD2    C111951   2.897   4.266  11.931 -0.1137  0.2339  0.1178
  812MPD2    C211952   2.957   4.173  12.020  0.3979  0.1431  0.5880
  812MPD2    C311953   2.890   4.065  12.070  0.1512  0.4029  0.0339
  812MPD2    C411954   2.761   4.049  12.027  0.1189  0.6345  0.6086
  812MPD2    C511955   2.701   4.147  11.962  0.0752 -0.0188  0.1685
  812MPD2     H11956   3.061   4.192  12.046 -0.6227  3.5261  2.2044
  812MPD2    H111957   2.705   3.958  12.045 -0.8314  1.0954  0.0432
  812MPD2    H211958   2.715   4.329  11.852  2.4538  0.1857 -0.9139
  812MPD2    H311959   2.594   4.135  11.944  0.1825  0.9347 -1.0761
  812MPD2     N11960   2.967   3.987  12.160  0.5822  0.1414 -0.0159
  812MPD2    H511961   3.066   4.005  12.165  0.8117 -0.6059 -1.8191
  812MPD2    N111962   2.975   4.375  11.877  0.6018 -0.4150 -0.0241
  812MPD2    H711963   2.928   4.455  11.835  1.0427 -0.5914 -0.8675
  813MPD2     C11964   2.509   1.294  12.573 -0.1635  0.2182 -0.6424
  813MPD2    C111965   2.445   1.420  12.573 -1.0724  0.2367 -0.1962
  813MPD2    C211966   2.327   1.437  12.643 -0.0003 -0.0141 -0.5387
  813MPD2    C311967   2.275   1.326  12.711 -0.0979 -0.3471 -0.6420
  813MPD2    C411968   2.328   1.198  12.695 -0.3319 -0.0455  1.0271
  813MPD2    C511969   2.451   1.186  12.634  0.3312 -0.8217  0.1067
  813MPD2     H11970   2.274   1.531  12.641  0.9184  0.4835 -1.2403
  813MPD2    H111971   2.279   1.110  12.735  0.9894 -0.7333  1.1601
  813MPD2    H211972   2.603   1.278  12.523 -1.3513 -1.3519 -2.3902
  813MPD2    H311973   2.503   1.091  12.632  1.9486  0.1124 -2.1707
  813MPD2     N11974   2.153   1.348  12.785 -0.1856 -0.2294  0.4897
  813MPD2    H511975   2.132   1.446  12.803  1.0878 -0.0751  1.1078
  813MPD2    N111976   2.509   1.537  12.526  0.4341 -0.0708  0.4898
  813MPD2    H711977   2.458   1.625  12.532  2.3058  1.1850 -1.8047
  814MPD2     C11978   2.526   2.389  11.747 -0.0065  0.1049 -0.0549
  814MPD2    C111979   2.571   2.475  11.652 -0.4301 -0.2764  0.0623
  814MPD2    C211980   2.665   2.570  11.677 -0.0602  0.2331 -0.3546
  814MPD2    C311981   2.721   2.590  11.808  0.0369 -0.3486 -0.9481
  814MPD2    C411982   2.670   2.498  11.904 -0.0929  1.0147  0.1648
  814MPD2    C511983   2.574   2.402  11.877  0.2688  0.4403  1.0091
  814MPD2     H11984   2.694   2.634  11.594  0.1353  1.4717  0.6632
  814MPD2    H111985   2.703   2.506  12.007  1.3136 -0.2836 -0.1873
  814MPD2    H211986   2.467   2.301  11.726 -0.3173 -0.5350  3.4305
  814MPD2    H311987   2.536   2.326  11.944 -0.6891  0.6270  0.6762
  814MPD2     N11988   2.821   2.675  11.847 -0.3404 -0.0357  0.1937
  814MPD2    H511989   2.829   2.678  11.948 -0.1796 -0.5666  0.1984
  814MPD2    N111990   2.516   2.474  11.521 -0.0225  0.0016  0.0246
  814MPD2    H711991   2.539   2.549  11.456 -1.1899 -0.0423 -0.4368
  815MPD2     C11992   3.652   1.246  11.772 -0.0937 -0.1327  0.0018
  815MPD2    C111993   3.551   1.189  11.698 -1.1889 -0.0942 -0.0517
  815MPD2    C211994   3.423   1.214  11.741 -0.8810  0.0896  0.1544
  815MPD2    C311995   3.393   1.310  11.838 -0.3705 -0.1055 -0.1582
  815MPD2    C411996   3.500   1.370  11.908  0.2930 -0.0422  0.0438
  815MPD2    C511997   3.625   1.329  11.880 -0.2252 -0.7061 -0.1002
  815MPD2     H11998   3.340   1.173  11.685 -0.8635 -0.7186  0.7113
  815MPD2    H111999   3.477   1.439  11.988 -1.4503 -0.2901 -0.2430
  815MPD2    H212000   3.752   1.212  11.745 -0.2266  0.4770 -1.2675
  815MPD2    H312001   3.712   1.358  11.938  0.9028  0.6477 -2.4370
  815MPD2     N12002   3.258   1.337  11.867 -0.6788 -0.0653  0.0956
  815MPD2    H512003   3.195   1.278  11.814  0.1918 -1.5177  0.6739
  815MPD2    N112004   3.587   1.102  11.588 -0.1409 -0.0937 -0.4032
  815MPD2    H712005   3.686   1.096  11.569  0.1238 -1.8833  1.5342
  816MPD2     C12006   3.047   0.656  17.343 -0.2066 -0.1963  0.1877
  816MPD2    C112007   2.994   0.709  17.231  0.3057  0.1964  0.1375
  816MPD2    C212008   3.026   0.653  17.106  0.0013 -0.6368  0.2003
  816MPD2    C312009   3.108   0.541  17.107 -0.0875 -0.1431  0.0399
  816MPD2    C412010   3.168   0.493  17.221 -0.0587  0.0742 -0.2968
  816MPD2    C512011   3.138   0.554  17.336  0.3958  0.3578  0.5318
  816MPD2     H12012   2.970   0.684  17.018  1.3035 -2.3293 -1.2200
  816MPD2    H112013   3.245   0.419  17.232 -0.9228 -0.7509  0.2447
  816MPD2    H212014   3.031   0.704  17.439 -2.9315  1.2954 -0.9990
  816MPD2    H312015   3.186   0.512  17.424  0.5905 -1.0364 -0.2403
  816MPD2     N12016   3.121   0.472  16.983 -0.0005  0.4147 -0.1061
  816MPD2    H512017   3.090   0.523  16.901 -0.3981  1.6715  0.8496
  816MPD2    N112018   2.923   0.831  17.254 -0.1248 -0.8576 -0.0521
  816MPD2    H712019   2.913   0.861  17.350 -0.3329 -1.3488  0.0789
  817MPD2     C12020   2.601   1.970   9.504  0.8675  0.2105 -0.1056
  817MPD2    C112021   2.626   1.936   9.366  0.3567  0.1529 -0.0609
  817MPD2    C212022   2.563   2.018   9.271  0.4193  0.2530 -0.4092
  817MPD2    C312023   2.500   2.131   9.302  0.0047  0.5289  0.2051
  817MPD2    C412024   2.478   2.163   9.435 -0.1857  0.5463 -0.5128
  817MPD2    C512025   2.531   2.085   9.533  0.3116 -0.4205  0.4324
  817MPD2     H12026   2.587   2.011   9.165  0.5039  0.1355 -0.3818
  817MPD2    H112027   2.402   2.234   9.466 -0.7849 -0.8947  1.3329
  817MPD2    H212028   2.643   1.909   9.583  0.5859  0.3070  0.1190
  817MPD2    H312029   2.503   2.096   9.638  1.8977 -0.3892  0.8515
  817MPD2     N12030   2.452   2.205   9.195 -0.4098  0.5432  0.2818
  817MPD2    H512031   2.477   2.170   9.103  0.0814 -0.7438  0.9031
  817MPD2    N112032   2.707   1.822   9.334  0.0673 -0.5196 -0.2692
  817MPD2    H712033   2.718   1.800   9.236 -0.2396  0.6013 -0.5504
  818MPD2     C12034   1.741   1.864   9.380  0.6404 -0.1255 -0.0185
  818MPD2    C112035   1.809   1.834   9.502  0.2859 -0.2322 -0.0701
  818MPD2    C212036   1.893   1.720   9.509 -0.3257 -0.2395 -0.3232
  818MPD2    C312037   1.922   1.640   9.390  0.1858 -0.4773  0.3482
  818MPD2    C412038   1.852   1.675   9.276 -0.1463 -0.0460  0.0356
  818MPD2    C512039   1.767   1.784   9.268  0.9979 -0.0113 -0.5738
  818MPD2     H12040   1.934   1.705   9.608  1.1865 -0.3893 -0.9714
  818MPD2    H112041   1.864   1.618   9.184  1.7894 -0.6455  0.6507
  818MPD2    H212042   1.670   1.946   9.377 -0.4373 -1.0809 -0.7390
  818MPD2    H312043   1.717   1.795   9.173  1.1604 -4.4826 -1.1639
  818MPD2     N12044   2.006   1.530   9.391  0.8927  0.8505  0.1895
  818MPD2    H512045   2.011   1.466   9.313  0.2280  2.3103 -1.0446
  818MPD2    N112046   1.779   1.892   9.624  0.0283 -0.8129 -0.0676
  818MPD2    H712047   1.825   1.852   9.705  1.6158  0.0506 -0.5352
  819MPD2     C12048   4.430   4.162  15.359 -0.4404 -0.2232 -1.2946
  819MPD2    C112049   4.418   4.030  15.338  0.4235  0.4141 -0.3662
  819MPD2    C212050   4.523   3.948  15.342  0.0732 -0.3366  0.2750
  819MPD2    C312051   4.648   4.000  15.371  0.5852  0.3193  0.0603
  819MPD2    C412052   4.660   4.137  15.391 -0.0771 -0.4125 -0.5371
  819MPD2    C512053   4.551   4.224  15.383 -0.3845  0.4978  0.3651
  819MPD2     H12054   4.509   3.841  15.329 -0.3349 -0.4288  1.4685
  819MPD2    H112055   0.035   4.174  15.415 -0.2099 -0.5433  0.1967
  819MPD2    H212056   4.347   4.231  15.363 -0.4505 -0.2807 -0.5203
  819MPD2    H312057   4.560   4.329  15.408  0.4518  0.6747 -0.6570
  819MPD2     N12058   0.028   3.903  15.363  0.1916  0.2594  0.4898
  819MPD2    H512059   0.004   3.812  15.325 -1.1972 -0.3089  2.7770
  819MPD2    N112060   4.294   3.974  15.314  0.9214 -0.4629 -0.0755
  819MPD2    H712061   4.232   4.017  15.246  1.7209  1.6483  0.5226
  820MPD2     C12062   3.586   3.961  14.659  0.7036  0.0591  0.7307
  820MPD2    C112063   3.626   4.038  14.769  0.3425 -0.6293 -0.3891
  820MPD2    C212064   3.712   3.986  14.860 -0.9528 -0.0280 -0.3591
  820MPD2    C312065   3.760   3.856  14.847 -0.0674 -0.2345 -0.9083
  820MPD2    C412066   3.722   3.780  14.738  0.1240 -0.7192 -1.2469
  820MPD2    C512067   3.631   3.832  14.651 -0.1358  0.0413  0.4335
  820MPD2     H12068   3.740   4.037  14.951  0.2852 -0.1922 -0.6419
  820MPD2    H112069   3.761   3.680  14.720  0.3293 -0.2647 -3.3484
  820MPD2    H212070   3.519   4.004  14.586 -1.3751 -1.2763  1.8465
  820MPD2    H312071   3.597   3.762  14.576 -1.8882  1.4106 -0.0465
  820MPD2     N12072   3.853   3.798  14.935 -0.0684  0.0416 -0.7226
  820MPD2    H512073   3.879   3.703  14.911  1.8591  0.0691  1.2731
  820MPD2    N112074   3.558   4.159  14.786 -0.3021 -0.3720 -0.1749
  820MPD2    H712075   3.477   4.167  14.725 -0.3384  0.5152 -0.0043
  821MPD2     C12076   4.374   0.633  12.579  0.4588 -0.2426  0.0487
  821MPD2    C112077   4.464   0.556  12.647  0.0576 -0.0764 -0.1850
  821MPD2    C212078   4.589   0.603  12.660  0.0414  0.0886  0.7505
  821MPD2    C312079   4.633   0.716  12.592 -0.4681  0.1595 -0.6754
  821MPD2    C412080   4.543   0.790  12.520 -0.2670  0.3981 -0.8168
  821MPD2    C512081   4.411   0.749  12.522 -0.8287  0.1501  0.2798
  821MPD2     H12082   4.652   0.550  12.730  2.5068  1.2508 -0.5639
  821MPD2    H112083   4.578   0.883  12.478  1.7356  1.2626  2.7390
  821MPD2    H212084   4.269   0.609  12.562  0.7613  0.4917 -2.8563
  821MPD2    H312085   4.330   0.804  12.476 -1.9243 -0.0799  1.9175
  821MPD2     N12086   0.045   0.772  12.601 -0.7944  0.0625  0.0967
  821MPD2    H512087   0.070   0.850  12.541 -0.8448 -1.3006 -1.6863
  821MPD2    N112088   4.420   0.430  12.696 -0.6184 -0.3547  0.4481
  821MPD2    H712089   4.493   0.375  12.741  0.6629  0.7975 -0.2175
  822MPD2     C12090   0.120   0.181  15.688  0.3476  1.2254  0.3365
  822MPD2    C112091   0.217   0.242  15.764 -0.3718  0.3070  0.2982
  822MPD2    C212092   0.172   0.339  15.863 -0.0181  0.5099  0.2217
  822MPD2    C312093   0.033   0.354  15.880  0.2263 -0.3803 -0.1402
  822MPD2    C412094   4.663   0.284  15.805  0.0617  0.5250  0.1427
  822MPD2    C512095   4.709   0.202  15.707  0.3934  0.4579  0.4157
  822MPD2     H12096   0.248   0.395  15.917  1.0021 -0.1188 -0.5666
  822MPD2    H112097   4.557   0.295  15.823  0.7469  3.3415  2.3851
  822MPD2    H212098   0.140   0.096  15.623  1.1469  1.7180 -0.0670
  822MPD2    H312099   4.634   0.153  15.645  1.2648 -0.2185 -0.1034
  822MPD2     N12100   4.710   0.442  15.984  0.1527  0.1580 -0.0653
  822MPD2    H512101   4.615   0.424  16.014  0.3366 -1.4026 -0.3853
  822MPD2    N112102   0.358   0.218  15.755  0.0209 -0.1917 -0.2048
  822MPD2    H712103   0.410   0.275  15.821  1.0162 -0.4363 -0.7850
  823MPD2     C12104   4.549   0.568  16.809  0.1350 -0.1732  0.1410
  823MPD2    C112105   4.585   0.507  16.697  0.1061  0.0855  0.5244
  823MPD2    C212106   4.653   0.386  16.712 -0.0467 -0.0246  0.0870
  823MPD2    C312107   4.677   0.325  16.831  0.6685 -0.1258 -0.3078
  823MPD2    C412108   4.623   0.384  16.945  0.2198  0.4793  0.5663
  823MPD2    C512109   4.563   0.501  16.926 -0.1807 -0.1959 -0.0134
  823MPD2     H12110   4.674   0.328  16.622  2.5999 -0.6272  1.1110
  823MPD2    H112111   4.643   0.350  17.046  0.4782  1.7968  0.9527
  823MPD2    H212112   4.514   0.670  16.807  1.7476  0.3789 -0.0610
  823MPD2    H312113   4.528   0.548  17.017  0.8480  1.6061 -0.5558
  823MPD2     N12114   0.037   0.209  16.844  0.7532 -0.1456  0.1682
  823MPD2    H512115   0.050   0.163  16.933  0.3664  0.0532  0.3252
  823MPD2    N112116   4.560   0.573  16.572 -0.2427  0.3302  0.4114
  823MPD2    H712117   4.530   0.670  16.570 -0.9202  0.1111 -0.0137
  824MPD2     C12118   0.586   4.284  15.502  0.2387 -0.4134 -0.2973
  824MPD2    C112119   0.692   4.372  15.492 -0.0993  0.4975  0.4431
  824MPD2    C212120   0.799   4.325  15.426 -0.2500  0.2107 -0.4765
  824MPD2    C312121   0.801   4.203  15.358 -0.4241  0.0610 -0.7122
  824MPD2    C412122   0.687   4.126  15.361 -0.5234  0.4318  0.4025
  824MPD2    C512123   0.582   4.162  15.445  0.2974 -0.1308 -0.0181
  824MPD2     H12124   0.888   4.387  15.438  1.2172 -1.9787 -0.1750
  824MPD2    H112125   0.684   4.031  15.311 -0.8673  0.0104  1.2188
  824MPD2    H212126   0.501   4.304  15.566  1.2057 -1.1569  1.2235
  824MPD2    H312127   0.507   4.089  15.473  0.9909  0.0794  2.4521
  824MPD2     N12128   0.920   4.167  15.294 -0.5162 -0.7393 -0.0274
  824MPD2    H512129   0.997   4.232  15.291 -2.3291  1.5116  1.4606
  824MPD2    N112130   0.679   4.504  15.545 -0.3422 -0.4079  0.2588
  824MPD2    H712131   0.593   4.526  15.592 -0.2459  0.1739  0.1694
  825MPD2     C12132   1.651   4.327  14.867 -0.3368 -0.2977 -0.3041
  825MPD2    C112133   1.542   4.377  14.938 -0.4906 -0.0407 -0.3592
  825MPD2    C212134   1.536   4.508  14.985 -0.4789  0.5935  0.0402
  825MPD2    C312135   1.639   4.594  14.939 -0.0244  0.3853 -0.1792
  825MPD2    C412136   1.744   4.551  14.864 -0.3920  0.4840 -0.1169
  825MPD2    C512137   1.751   4.421  14.833 -0.4521 -0.7832  0.5221
  825MPD2     H12138   1.450   4.541  15.042  0.6065  1.2663  1.2794
  825MPD2    H112139   1.816   4.622  14.824  0.5795  0.0109  0.7820
  825MPD2    H212140   1.658   4.224  14.835  0.8501  0.2247 -1.6802
  825MPD2    H312141   1.832   4.388  14.769 -1.0683  1.5517 -1.4794
  825MPD2     N12142   1.636   0.009  14.960  0.1443  0.4802  0.5364
  825MPD2    H512143   1.695   0.074  14.909  0.3314 -0.4876 -0.4779
  825MPD2    N112144   1.452   4.269  14.970  0.0438 -0.7442 -0.1500
  825MPD2    H712145   1.465   4.175  14.931 -0.1247 -0.0290 -1.9453
  826MPD2     C12146   1.636   4.219  13.354 -1.1252 -0.1353  0.5697
  826MPD2    C112147   1.526   4.151  13.303  0.3285 -0.2970  0.0420
  826MPD2    C212148   1.436   4.216  13.225  0.0918 -0.6584  0.2853
  826MPD2    C312149   1.439   4.347  13.213  0.0629  0.1681 -0.1095
  826MPD2    C412150   1.543   4.422  13.266  0.1626 -0.1187  0.6458
  826MPD2    C512151   1.641   4.353  13.335  0.3974 -0.2351 -0.9990
  826MPD2     H12152   1.349   4.164  13.187 -0.2139  1.1220 -1.4773
  826MPD2    H112153   1.552   4.529  13.251  0.9460 -0.0361  1.6468
  826MPD2    H212154   1.720   4.175  13.406 -0.8266  0.4343  0.5716
  826MPD2    H312155   1.720   4.416  13.375 -0.1899  1.3104 -2.2789
  826MPD2     N12156   1.342   4.426  13.147 -0.2655 -0.8511 -0.1425
  826MPD2    H512157   1.331   4.526  13.163 -1.8686 -1.5464  3.2617
  826MPD2    N112158   1.502   4.016  13.341 -0.7492  0.5570 -0.2107
  826MPD2    H712159   1.418   3.973  13.304  0.0314 -1.8132  0.7094
  827MPD2     C12160   2.215   0.519   9.877 -0.2634 -0.9253 -0.5212
  827MPD2    C112161   2.294   0.404   9.873 -0.1383 -0.3007  0.1860
  827MPD2    C212162   2.248   0.283   9.820 -0.6177 -0.6699 -0.0386
  827MPD2    C312163   2.119   0.282   9.764 -0.1847 -0.2061  0.0065
  827MPD2    C412164   2.044   0.397   9.762  0.0096  0.1852  0.2296
  827MPD2    C512165   2.092   0.513   9.821 -0.6870 -0.8071  0.1626
  827MPD2     H12166   2.322   0.204   9.807  0.8077  0.7309 -0.4399
  827MPD2    H112167   1.944   0.403   9.721  0.2020 -1.0687 -0.4159
  827MPD2    H212168   2.260   0.602   9.929  0.8633 -1.3893 -0.7475
  827MPD2    H312169   2.035   0.605   9.831  0.5116  0.0232 -0.5626
  827MPD2     N12170   2.072   0.162   9.708  0.4533 -0.5286  0.4493
  827MPD2    H512171   2.127   0.077   9.704  0.9434 -0.1724 -0.2738
  827MPD2    N112172   2.425   0.415   9.924  0.3326 -0.2707 -0.1242
  827MPD2    H712173   2.460   0.507   9.952 -0.6839 -0.1416  0.7661
  828MPD2     C12174   0.558   0.553  12.391 -1.1257 -0.6860  0.5136
  828MPD2    C112175   0.557   0.583  12.254  0.2166  0.7732  0.4294
  828MPD2    C212176   0.665   0.556  12.186 -1.1462 -0.2039  0.0913
  828MPD2    C312177   0.783   0.505  12.239  0.4361 -0.3055 -0.2151
  828MPD2    C412178   0.787   0.486  12.374  1.1714 -0.2692  0.2351
  828MPD2    C512179   0.673   0.509  12.446  0.5245  0.9269  0.7429
  828MPD2     H12180   0.656   0.575  12.080  0.4748 -0.1668 -0.0421
  828MPD2    H112181   0.881   0.461  12.421  1.8032  1.1266 -0.2946
  828MPD2    H212182   0.473   0.567  12.456 -2.1663  5.4537 -2.1656
  828MPD2    H312183   0.665   0.498  12.554 -0.0317 -0.1840  0.5781
  828MPD2     N12184   0.896   0.467  12.168 -0.1303  0.1469  0.3186
  828MPD2    H512185   0.980   0.436  12.215  0.3154  0.9573  0.0710
  828MPD2    N112186   0.440   0.626  12.181 -0.0643 -0.2217 -0.1385
  828MPD2    H712187   0.458   0.630  12.081  0.0981  1.3005 -0.0605
  829MPD2     C12188   0.604   0.852  11.479 -0.0922  0.1144 -0.1060
  829MPD2    C112189   0.475   0.884  11.461 -0.0943 -0.0820 -0.3666
  829MPD2    C212190   0.377   0.860  11.554  0.1323 -0.0223 -0.0532
  829MPD2    C312191   0.418   0.801  11.669 -0.4048 -0.2327 -0.1725
  829MPD2    C412192   0.542   0.739  11.676  0.5411 -0.6905 -0.0498
  829MPD2    C512193   0.636   0.776  11.585  0.4233 -0.2331 -0.2036
  829MPD2     H12194   0.281   0.909  11.545  0.3226  0.6774  1.5732
  829MPD2    H112195   0.571   0.673  11.756 -0.5579 -2.6561 -1.2677
  829MPD2    H212196   0.683   0.881  11.411 -1.1457  1.2748 -0.8449
  829MPD2    H312197   0.736   0.738  11.597  1.3974  2.9355  1.7731
  829MPD2     N12198   0.335   0.787  11.782  0.1427  0.4265  0.5704
  829MPD2    H512199   0.369   0.721  11.850 -0.6542 -0.8408 -0.2694
  829MPD2    N112200   0.450   0.940  11.332  0.6406  0.0760 -0.3142
  829MPD2    H712201   0.520   0.918  11.262 -0.5514 -2.8239 -0.5652
  830MPD2     C12202   0.085   3.602  14.818  0.1855  0.6616  0.6155
  830MPD2    C112203   0.206   3.631  14.876  0.1333  0.3362 -0.3930
  830MPD2    C212204   0.316   3.662  14.794 -0.3662 -0.2778  0.0259
  830MPD2    C312205   0.300   3.665  14.659  0.1633  0.2725  1.0515
  830MPD2    C412206   0.170   3.636  14.609 -0.3887  0.3506 -0.0477
  830MPD2    C512207   0.071   3.593  14.684  0.8093  0.3479 -0.0295
  830MPD2     H12208   0.415   3.673  14.836 -0.2382 -0.6548 -0.1775
  830MPD2    H112209   0.157   3.622  14.502 -1.6372  1.1648  0.0049
  830MPD2    H212210   4.724   3.561  14.870 -0.1289  0.3474 -0.1596
  830MPD2    H312211   4.700   3.552  14.650  1.3692 -1.0754  0.1504
  830MPD2     N12212   0.401   3.701  14.565 -0.1391 -0.8892 -0.1989
  830MPD2    H512213   0.374   3.687  14.468  0.6946  1.2648 -0.7406
  830MPD2    N112214   0.212   3.627  15.018 -0.2299  0.8249 -0.0890
  830MPD2    H712215   0.139   3.599  15.082 -0.0920  1.5834  0.3939
  831MPD2     C12216   0.351   0.652  16.360 -0.7478 -0.7396  0.2133
  831MPD2    C112217   0.374   0.556  16.263  0.1677 -0.8361  0.0087
  831MPD2    C212218   0.301   0.440  16.262 -0.4201  0.0936 -0.0841
  831MPD2    C312219   0.227   0.404  16.365 -0.1821 -0.0735  0.1767
  831MPD2    C412220   0.222   0.489  16.471  0.2018  0.2774  0.2444
  831MPD2    C512221   0.277   0.618  16.471 -0.4552 -0.4652 -0.3402
  831MPD2     H12222   0.308   0.369  16.181 -1.5718  0.2366 -0.3124
  831MPD2    H112223   0.161   0.479  16.561 -1.1393  1.3586 -0.5366
  831MPD2    H212224   0.410   0.743  16.357 -1.3874 -0.3797 -1.2252
  831MPD2    H312225   0.256   0.698  16.541 -0.4518 -1.4800  0.8100
  831MPD2     N12226   0.157   0.281  16.368 -0.2096  0.5427  0.3312
  831MPD2    H512227   0.125   0.254  16.461 -0.4259  2.1716  0.7251
  831MPD2    N112228   0.440   0.594  16.142  0.0727 -0.0574 -0.0403
  831MPD2    H712229   0.463   0.692  16.130  0.1608 -0.0385  0.2945
  832MPD2     C12230   3.403   1.714  17.203 -0.3652  0.3216  0.2660
  832MPD2    C112231   3.476   1.806  17.134 -0.3236  0.7052  0.3418
  832MPD2    C212232   3.415   1.876  17.028  0.2975  0.2060  0.1853
  832MPD2    C312233   3.287   1.851  16.987 -0.9103  0.2513  0.2841
  832MPD2    C412234   3.216   1.763  17.059  1.1175 -0.4359 -0.6196
  832MPD2    C512235   3.272   1.691  17.165 -0.2124  0.9836 -0.4764
  832MPD2     H12236   3.480   1.941  16.970  0.2756 -1.4195 -1.6533
  832MPD2    H112237   3.114   1.754  17.023  0.7948 -2.3872  0.8327
  832MPD2    H212238   3.444   1.653  17.284  0.6269 -0.9851 -1.2243
  832MPD2    H312239   3.212   1.618  17.219  0.1582  0.0678 -1.3066
  832MPD2     N12240   3.224   1.913  16.885 -0.7868  0.0745  0.2360
  832MPD2    H512241   3.130   1.878  16.870 -0.5983  0.2237 -1.3240
  832MPD2    N112242   3.607   1.830  17.182 -0.2818  0.4334 -0.0506
  832MPD2    H712243   3.636   1.784  17.268 -0.1046 -1.7399 -1.2668
  833MPD2     C12244   1.070   2.642  12.286 -0.1215 -0.1746  0.4728
  833MPD2    C112245   1.073   2.751  12.211 -0.4217  0.4521  0.6454
  833MPD2    C212246   1.128   2.739  12.087 -0.4840 -0.2352 -0.3182
  833MPD2    C312247   1.173   2.617  12.041  0.3834  0.2166 -0.0725
  833MPD2    C412248   1.186   2.507  12.129 -0.4090  0.5967 -0.1662
  833MPD2    C512249   1.117   2.518  12.244 -0.3973 -0.1965  0.5389
  833MPD2     H12250   1.139   2.826  12.023  1.5704 -0.2904 -0.0170
  833MPD2    H112251   1.234   2.415  12.097  1.5941  1.2725  0.8508
  833MPD2    H212252   1.026   2.652  12.384 -1.8462  0.8534 -0.3932
  833MPD2    H312253   1.109   2.436  12.314 -0.2840 -1.0265 -0.4200
  833MPD2     N12254   1.223   2.623  11.907  0.1178 -0.4553  0.3415
  833MPD2    H512255   1.219   2.717  11.869 -0.9719 -0.1851  1.1289
  833MPD2    N112256   1.017   2.868  12.264  0.3470 -0.1463  0.2826
  833MPD2    H712257   0.958   2.858  12.346 -0.0865 -2.5583 -0.3214
  834MPD2     C12258   0.777   2.676  11.048 -0.0217  0.0837 -0.5169
  834MPD2    C112259   0.883   2.592  11.042 -0.3383  0.7432  0.2442
  834MPD2    C212260   0.964   2.583  11.150 -0.3197  0.2883  0.2488
  834MPD2    C312261   0.951   2.664  11.269  0.0011 -0.2436 -0.6023
  834MPD2    C412262   0.836   2.746  11.275 -0.1509  0.0926  0.3205
  834MPD2    C512263   0.761   2.754  11.157  0.2669  0.1279  0.7809
  834MPD2     H12264   1.035   2.501  11.144  0.1640  0.8008 -0.9676
  834MPD2    H112265   0.814   2.800  11.366 -1.2100  1.7149 -0.9081
  834MPD2    H212266   0.700   2.699  10.976 -1.6979 -1.0761  0.9263
  834MPD2    H312267   0.674   2.818  11.165  0.4531  0.6028 -1.0068
  834MPD2     N12268   1.045   2.679  11.371  0.1950 -0.2457 -0.2269
  834MPD2    H512269   1.038   2.748  11.445 -2.6829  1.4316 -2.0952
  834MPD2    N112270   0.903   2.498  10.940  0.8214 -0.0996 -0.1051
  834MPD2    H712271   0.963   2.419  10.963  1.3132  0.2591 -0.1766
  835MPD2     C12272   1.745   0.780  10.957  0.6318  0.5478  0.0258
  835MPD2    C112273   1.637   0.800  10.868 -0.0813  0.0449  0.2167
  835MPD2    C212274   1.558   0.909  10.893  0.4895  0.2642 -0.0458
  835MPD2    C312275   1.546   0.978  11.009  0.2253  0.0720 -0.5592
  835MPD2    C412276   1.641   0.950  11.100  0.3264  0.4045  0.8441
  835MPD2    C512277   1.741   0.860  11.071 -0.6320 -0.6658  0.1993
  835MPD2     H12278   1.484   0.931  10.817 -0.6405 -0.4697  0.8226
  835MPD2    H112279   1.653   0.999  11.196 -1.0811  0.0200  1.2077
  835MPD2    H212280   1.827   0.711  10.943  0.8431  1.1532 -1.5975
  835MPD2    H312281   1.820   0.850  11.144 -0.6874 -0.5467  0.2744
  835MPD2     N12282   1.470   1.093  11.032 -0.3617 -0.2972  0.0098
  835MPD2    H512283   1.464   1.123  11.129 -0.1829 -1.5033  0.3841
  835MPD2    N112284   1.632   0.737  10.738  0.2992  0.4873 -0.7803
  835MPD2    H712285   1.549   0.770  10.691  0.9286  0.0748 -2.1660
  836MPD2     C12286   0.658   1.352  10.960  0.2733 -0.1747 -0.2241
  836MPD2    C112287   0.736   1.336  11.078 -0.6073  0.2178 -0.1696
  836MPD2    C212288   0.661   1.327  11.195 -0.0126  0.3964  0.3492
  836MPD2    C312289   0.525   1.335  11.202  0.2857 -0.2444  0.5109
  836MPD2    C412290   0.452   1.355  11.091  0.0450 -0.4991  0.6564
  836MPD2    C512291   0.520   1.363  10.967 -0.4359  0.5046 -0.3831
  836MPD2     H12292   0.714   1.320  11.289  0.4805 -0.9063 -0.0211
  836MPD2    H112293   0.344   1.349  11.095 -0.0703 -0.0396 -1.7516
  836MPD2    H212294   0.696   1.369  10.860  0.9271 -0.2433  0.0143
  836MPD2    H312295   0.462   1.374  10.876  0.4136  0.5321 -0.9242
  836MPD2     N12296   0.456   1.297  11.323 -0.7647 -0.1685 -1.0628
  836MPD2    H512297   0.356   1.309  11.318 -0.9042 -0.6638  0.8648
  836MPD2    N112298   0.874   1.352  11.085  0.3759  1.2374  0.0752
  836MPD2    H712299   0.921   1.338  11.174 -0.0827 -0.0997  0.1115
  837MPD2     C12300   4.258   0.343   9.258 -0.1897  0.4065  0.0397
  837MPD2    C112301   4.136   0.381   9.312  0.7839 -0.7837  0.6098
  837MPD2    C212302   4.131   0.487   9.400  0.4474 -0.2346 -0.7531
  837MPD2    C312303   4.237   0.570   9.413  0.4075  0.1575  0.7307
  837MPD2    C412304   4.351   0.544   9.344 -0.1486 -0.6175 -0.1350
  837MPD2    C512305   4.367   0.428   9.275  0.0169  0.1065  0.6099
  837MPD2     H12306   4.042   0.514   9.455  0.8857  2.7055 -1.4891
  837MPD2    H112307   4.431   0.618   9.338  0.4157 -1.0029  2.2699
  837MPD2    H212308   4.268   0.255   9.195  0.1383 -0.5025  1.3442
  837MPD2    H312309   4.462   0.394   9.237 -0.6084 -0.6124 -0.3033
  837MPD2     N12310   4.206   0.688   9.485 -0.6557 -0.0962  0.1870
  837MPD2    H512311   4.111   0.691   9.519 -1.1096  2.1474 -1.3072
  837MPD2    N112312   4.014   0.320   9.281  0.2275 -0.3456  0.3175
  837MPD2    H712313   3.931   0.352   9.331  0.3390 -2.1133  1.6192
  838MPD2     C12314   2.312   3.266  11.434 -0.3535 -0.5006  0.0142
  838MPD2    C112315   2.281   3.226  11.566 -0.2070 -0.4561  0.2136
  838MPD2    C212316   2.170   3.145  11.587 -0.3385 -0.5995  0.1733
  838MPD2    C312317   2.084   3.114  11.484  0.8180  0.5074  0.5960
  838MPD2    C412318   2.110   3.164  11.357  0.0985 -0.2026  0.6021
  838MPD2    C512319   2.228   3.236  11.331 -0.4693 -0.3477 -0.1969
  838MPD2     H12320   2.155   3.123  11.692  0.3330  2.5034  0.8978
  838MPD2    H112321   2.034   3.141  11.282  0.4256  0.1012  0.1792
  838MPD2    H212322   2.411   3.307  11.415  0.5598 -2.3446  0.7510
  838MPD2    H312323   2.249   3.258  11.227  0.3048 -0.4664 -0.0670
  838MPD2     N12324   1.960   3.049  11.513 -0.1726  0.2562 -0.3793
  838MPD2    H512325   1.956   3.004  11.604 -1.2739  0.3847 -0.3591
  838MPD2    N112326   2.371   3.253  11.675 -0.4386 -0.0821  0.0441
  838MPD2    H712327   2.353   3.201  11.760 -0.0588 -0.3352 -0.0286
  839MPD2     C12328   2.116   2.675  11.504 -0.0051 -0.2364 -0.6556
  839MPD2    C112329   2.170   2.769  11.413  0.4226 -0.1093  0.1382
  839MPD2    C212330   2.285   2.834  11.437 -0.2404  1.1863  0.0047
  839MPD2    C312331   2.355   2.806  11.553  0.6927 -0.6854  0.1651
  839MPD2    C412332   2.294   2.716  11.644  0.1184  0.0291 -0.1672
  839MPD2    C512333   2.177   2.653  11.622 -0.1829  0.2551  0.2089
  839MPD2     H12334   2.328   2.911  11.374 -0.7682  0.8634 -0.7563
  839MPD2    H112335   2.338   2.710  11.743 -1.5089  0.0846  0.5492
  839MPD2    H212336   2.026   2.618  11.485  1.0716 -1.7823 -1.1244
  839MPD2    H312337   2.134   2.584  11.693 -0.4847 -0.8122 -0.9967
  839MPD2     N12338   2.466   2.878  11.605  0.0703  1.2592  0.3508
  839MPD2    H512339   2.485   2.861  11.704  2.3711 -0.3657 -0.3617
  839MPD2    N112340   2.105   2.804  11.291  0.3873 -1.0841 -0.4771
  839MPD2    H712341   2.157   2.857  11.223  0.6508 -1.1582 -0.3331
  840MPD2     C12342   2.789   0.913   9.885 -0.6023  0.0287 -0.4891
  840MPD2    C112343   2.814   0.865  10.010  0.0703 -0.2500 -0.0021
  840MPD2    C212344   2.911   0.923  10.096  0.1189 -0.3563  0.3050
  840MPD2    C312345   2.962   1.045  10.054  0.6638  0.1186 -0.0466
  840MPD2    C412346   2.928   1.099   9.932 -0.0049 -0.6512 -0.3430
  840MPD2    C512347   2.842   1.038   9.843  0.1391 -1.0117  0.5247
  840MPD2     H12348   2.927   0.871  10.190 -2.0320 -0.9309  0.3688
  840MPD2    H112349   2.976   1.187   9.890 -1.2544  1.0435  1.8086
  840MPD2    H212350   2.726   0.866   9.810 -0.9717  1.0001 -0.8010
  840MPD2    H312351   2.825   1.092   9.750 -1.2021 -1.6248  0.4181
  840MPD2     N12352   3.052   1.120  10.135  0.0445  0.0204  0.9642
  840MPD2    H512353   3.087   1.204  10.089 -0.4082 -0.7220 -0.7469
  840MPD2    N112354   2.750   0.743  10.040  0.1053 -0.3780 -0.1581
  840MPD2    H712355   2.673   0.712   9.980 -1.1480  0.5619  0.9579
  841MPD2     C12356   2.002   0.779  14.891  0.3088 -0.2459 -0.5659
  841MPD2    C112357   1.989   0.741  14.762  0.0508 -0.3727  0.3092
  841MPD2    C212358   1.987   0.838  14.667 -0.6208 -0.4444  0.7827
  841MPD2    C312359   1.991   0.971  14.699  0.0046 -0.4406  0.2115
  841MPD2    C412360   1.994   1.003  14.831 -0.4171  0.3731  0.2204
  841MPD2    C512361   2.008   0.908  14.925 -1.1295 -0.5878  0.8508
  841MPD2     H12362   1.982   0.817  14.561  1.5684  0.0997  0.5569
  841MPD2    H112363   2.006   1.109  14.851 -2.7534  1.0157 -1.7918
  841MPD2    H212364   2.007   0.715  14.978  2.6144  2.0651  1.0220
  841MPD2    H312365   2.026   0.945  15.025  1.8323  1.4927 -0.4625
  841MPD2     N12366   1.999   1.080  14.604 -0.0500 -0.8563  0.3306
  841MPD2    H512367   2.018   1.175  14.635 -1.9253  0.1814 -1.6881
  841MPD2    N112368   1.983   0.607  14.722  0.0926 -0.2130 -0.1776
  841MPD2    H712369   1.982   0.588  14.622 -1.1185 -0.0749 -0.1841
  842MPD2     C12370   2.722   2.361  16.123 -0.7747  0.3117  0.0806
  842MPD2    C112371   2.616   2.278  16.148 -0.2660 -0.8833 -0.0959
  842MPD2    C212372   2.602   2.218  16.270  0.4326 -0.2445 -0.0679
  842MPD2    C312373   2.698   2.241  16.369 -0.1955  1.0527  0.6292
  842MPD2    C412374   2.801   2.326  16.345  0.3214  0.7834  0.3451
  842MPD2    C512375   2.813   2.387  16.225  0.0728  0.6761  0.0745
  842MPD2     H12376   2.514   2.156  16.287  0.6561 -0.4840  0.2101
  842MPD2    H112377   2.884   2.326  16.415 -0.9510 -1.0351  1.8362
  842MPD2    H212378   2.755   2.408  16.031 -0.2355  1.0430  0.6400
  842MPD2    H312379   2.903   2.445  16.202  0.2331  1.2679  2.2439
  842MPD2     N12380   2.686   2.194  16.504  0.0410 -0.3218 -0.1077
  842MPD2    H512381   2.770   2.208  16.559 -1.3660  0.7991  1.7568
  842MPD2    N112382   2.523   2.264  16.040 -0.0647  0.1250  0.2970
  842MPD2    H712383   2.544   2.325  15.962 -0.9373 -1.8323 -1.4456
  843MPD2     C12384   4.302   1.724  17.242  0.1611  0.1246  0.4459
  843MPD2    C112385   4.333   1.646  17.349 -0.1417 -0.6001 -0.4896
  843MPD2    C212386   4.439   1.694  17.425  0.6354  0.3862  0.3752
  843MPD2    C312387   4.502   1.814  17.394 -0.4104 -0.2831 -0.1894
  843MPD2    C412388   4.469   1.882  17.283 -0.1219  0.2020  0.6386
  843MPD2    C512389   4.368   1.835  17.208  0.0245  0.7218 -0.4342
  843MPD2     H12390   4.479   1.629  17.502  1.0780  0.0852 -0.1088
  843MPD2    H112391   4.517   1.976  17.259  0.1042 -0.1255 -0.2037
  843MPD2    H212392   4.235   1.694  17.162 -0.0094 -1.9263  1.3590
  843MPD2    H312393   4.337   1.888  17.119  0.5241  2.6524  0.5274
  843MPD2     N12394   4.612   1.859  17.464 -0.4977  0.0744 -0.5591
  843MPD2    H512395   4.676   1.917  17.411 -0.6784  0.2468 -0.5880
  843MPD2    N112396   4.257   1.529  17.372  0.0394 -0.3995 -0.1061
  843MPD2    H712397   4.191   1.500  17.300  0.4633  0.5573 -0.8638
  844MPD2     C12398   2.928   1.344  16.410  0.0052 -0.5183  0.1160
  844MPD2    C112399   3.040   1.343  16.330  1.0909 -0.4731 -0.0034
  844MPD2    C212400   3.147   1.416  16.362 -0.0745  0.4202  0.4734
  844MPD2    C312401   3.142   1.497  16.474 -0.8013 -0.3470  0.0078
  844MPD2    C412402   3.023   1.520  16.540  0.0691 -0.5618  0.6192
  844MPD2    C512403   2.919   1.431  16.513 -0.6752  0.7302 -0.8780
  844MPD2     H12404   3.241   1.400  16.311 -1.0423  0.1491 -1.2289
  844MPD2    H112405   3.015   1.595  16.617 -1.1198  0.0787 -0.1258
  844MPD2    H212406   2.847   1.275  16.389 -0.2225 -0.8049  1.9404
  844MPD2    H312407   2.825   1.436  16.567 -0.2327  1.2236 -0.1630
  844MPD2     N12408   3.259   1.562  16.516 -0.1507 -0.3118 -0.2033
  844MPD2    H512409   3.333   1.553  16.447 -0.8834 -0.9901 -0.9151
  844MPD2    N112410   3.053   1.259  16.210  0.5388 -0.8179 -0.4146
  844MPD2    H712411   3.141   1.278  16.164  0.4507 -2.1025 -1.0980
  845MPD2     C12412   3.890   2.314  16.251 -0.4972 -0.0027 -0.4854
  845MPD2    C112413   3.901   2.312  16.387  0.1448 -0.3847 -0.5531
  845MPD2    C212414   3.832   2.227  16.468 -0.4163 -0.5313 -0.4796
  845MPD2    C312415   3.753   2.138  16.412  0.0262  0.2228  0.4415
  845MPD2    C412416   3.729   2.145  16.280 -0.0449 -0.8693 -1.0626
  845MPD2    C512417   3.790   2.235  16.201 -0.4941 -0.1626 -0.0856
  845MPD2     H12418   3.842   2.224  16.576 -0.9377  0.0011 -0.4177
  845MPD2    H112419   3.659   2.076  16.233 -2.2636  0.3909  0.3697
  845MPD2    H212420   3.939   2.372  16.174 -0.8294 -0.3825 -0.9874
  845MPD2    H312421   3.771   2.239  16.095  2.0535 -1.5470 -0.6058
  845MPD2     N12422   3.690   2.043  16.496 -0.0555  0.0184 -0.5701
  845MPD2    H512423   3.733   2.028  16.586 -0.9459  0.0337 -0.1434
  845MPD2    N112424   3.990   2.410  16.432  0.0436  0.2436  0.2834
  845MPD2    H712425   4.031   2.471  16.361 -3.6335  1.1428 -1.0582
  846MPD2     C12426   0.308   2.475  13.539  0.0340  0.2554  0.5738
  846MPD2    C112427   0.252   2.601  13.583 -0.0108  0.1751 -0.5035
  846MPD2    C212428   0.213   2.610  13.716  1.0068  0.3822  0.3841
  846MPD2    C312429   0.237   2.506  13.806  0.7325 -0.1537  0.4747
  846MPD2    C412430   0.294   2.387  13.761 -0.9843  0.2803  0.3407
  846MPD2    C512431   0.328   2.377  13.628  0.3377 -0.0957  0.6248
  846MPD2     H12432   0.156   2.698  13.743 -1.2054 -1.0538  0.3788
  846MPD2    H112433   0.295   2.298  13.822  0.8202 -0.9436 -1.4741
  846MPD2    H212434   0.355   2.455  13.443  0.5794 -1.3064  1.1738
  846MPD2    H312435   0.366   2.281  13.595 -0.0387  0.4868 -1.5111
  846MPD2     N12436   0.178   2.506  13.933 -0.5678  0.3440 -0.0539
  846MPD2    H512437   0.097   2.564  13.956 -1.3367 -0.2213 -1.3647
  846MPD2    N112438   0.245   2.716  13.504 -0.4241 -0.3222 -0.3990
  846MPD2    H712439   0.205   2.805  13.534  1.1249  0.1024  0.3862
  847MPD2     C12440   0.171   3.479  13.798 -0.7985 -0.2507 -0.6434
  847MPD2    C112441   0.295   3.516  13.754 -0.0463 -0.0592 -0.2299
  847MPD2    C212442   0.396   3.428  13.774 -0.2406  0.6546 -0.6632
  847MPD2    C312443   0.384   3.331  13.865  0.4660 -0.3756  0.6150
  847MPD2    C412444   0.261   3.309  13.917  0.0396  0.4670 -0.2227
  847MPD2    C512445   0.153   3.379  13.881  0.1395  0.9710  0.2425
  847MPD2     H12446   0.497   3.448  13.741  0.0159 -1.4187 -1.1393
  847MPD2    H112447   0.244   3.234  13.992 -2.0609  0.4313 -0.7092
  847MPD2    H212448   0.081   3.532  13.768  0.3064  1.4444 -0.9838
  847MPD2    H312449   0.052   3.368  13.917  0.0855 -1.8473 -0.7835
  847MPD2     N12450   0.485   3.240  13.918  0.3706  0.5569 -0.0409
  847MPD2    H512451   0.459   3.177  13.992 -2.4488  1.2502 -0.4166
  847MPD2    N112452   0.326   3.633  13.684  0.0907 -0.3643 -0.5864
  847MPD2    H712453   0.411   3.640  13.630  0.3041 -1.9437 -0.4432
  848MPD2     C12454   3.131   2.122  16.095  0.3613  0.4483  0.0828
  848MPD2    C112455   3.147   2.191  16.215 -0.1622 -0.6229 -0.3001
  848MPD2    C212456   3.145   2.332  16.209 -1.0770  0.0999 -0.4144
  848MPD2    C312457   3.142   2.400  16.086 -0.5143  0.3857 -0.6344
  848MPD2    C412458   3.121   2.322  15.974  0.1687 -0.2343  0.6336
  848MPD2    C512459   3.116   2.192  15.980 -0.7183  0.1323  0.3442
  848MPD2     H12460   3.133   2.388  16.301 -0.5433  0.0790 -0.3326
  848MPD2    H112461   3.098   2.369  15.879 -1.6339  1.2535  1.8057
  848MPD2    H212462   3.121   2.015  16.080  2.1859  0.4565 -1.1450
  848MPD2    H312463   3.089   2.146  15.886  3.0155  0.0437 -0.7006
  848MPD2     N12464   3.134   2.539  16.079  0.4127  0.2387 -1.1774
  848MPD2    H512465   3.101   2.572  15.989  1.1024  0.3083 -1.4005
  848MPD2    N112466   3.149   2.130  16.343  0.3639  0.4718  0.3535
  848MPD2    H712467   3.162   2.195  16.420  0.0117 -0.4604  1.1930
  849MPD2     C12468   2.311   1.341  13.819 -0.1611  0.7261  0.3244
  849MPD2    C112469   2.389   1.444  13.863  0.2000 -0.0198 -0.5019
  849MPD2    C212470   2.451   1.436  13.980  0.3980  0.3672  0.2731
  849MPD2    C312471   2.462   1.312  14.044 -0.0068 -0.1112 -0.3579
  849MPD2    C412472   2.402   1.204  13.989 -0.0026 -0.2579 -0.1085
  849MPD2    C512473   2.320   1.219  13.879 -0.6685 -0.0319  0.1697
  849MPD2     H12474   2.498   1.523  14.024 -1.8132  1.0580  1.2777
  849MPD2    H112475   2.429   1.107  14.028 -2.7363 -1.0072 -0.0433
  849MPD2    H212476   2.239   1.358  13.740 -1.6185  0.5209  1.5995
  849MPD2    H312477   2.270   1.140  13.824  0.9913  0.4890 -2.0804
  849MPD2     N12478   2.560   1.298  14.152 -0.5274  0.0023 -0.1115
  849MPD2    H512479   2.592   1.206  14.179  0.4347 -0.2546 -2.0563
  849MPD2    N112480   2.396   1.553  13.772  1.3572  0.7632  0.0760
  849MPD2    H712481   2.320   1.552  13.705  0.0148 -0.4835  1.6486
  850MPD2     C12482   0.222   4.049  14.647  0.3071 -0.9105  0.5448
  850MPD2    C112483   0.191   4.106  14.771 -0.0098 -0.1409  0.2411
  850MPD2    C212484   0.258   4.223  14.799 -0.7306  0.1677 -0.7031
  850MPD2    C312485   0.370   4.266  14.728 -0.3897  0.6531  0.0106
  850MPD2    C412486   0.409   4.196  14.612 -0.3805  0.0328 -0.0765
  850MPD2    C512487   0.323   4.100  14.567  0.1858  0.3175 -1.3095
  850MPD2     H12488   0.217   4.282  14.881 -1.2439 -1.5540  0.2907
  850MPD2    H112489   0.496   4.235  14.561 -0.5882  0.7703  0.1409
  850MPD2    H212490   0.171   3.965  14.600 -0.5847  0.7873 -1.5145
  850MPD2    H312491   0.332   4.049  14.472 -2.8751  0.9754 -1.9355
  850MPD2     N12492   0.443   4.378  14.769  0.1345  0.0755 -0.1628
  850MPD2    H512493   0.533   4.387  14.724  0.3467  2.0810  0.6752
  850MPD2    N112494   0.082   4.055  14.838  0.4255  0.3370  0.1858
  850MPD2    H712495   0.024   4.002  14.774  1.1642  1.1648 -1.1595
  851MPD2     C12496   0.785   4.275  14.970 -0.3634 -0.4340 -0.0703
  851MPD2    C112497   0.683   4.180  14.953  0.5350  0.5371 -0.0998
  851MPD2    C212498   0.684   4.096  14.845 -0.1762 -0.6055 -0.2062
  851MPD2    C312499   0.778   4.110  14.747 -0.2987  0.2625 -0.3946
  851MPD2    C412500   0.865   4.208  14.758  0.1361  0.5001 -0.0282
  851MPD2    C512501   0.872   4.296  14.864  0.2623  0.1580  0.7375
  851MPD2     H12502   0.621   4.009  14.853  0.4546 -1.1164 -0.7911
  851MPD2    H112503   0.943   4.218  14.684 -0.9507  1.0849 -1.0944
  851MPD2    H212504   0.788   4.337  15.059 -2.0805 -1.5892  0.8093
  851MPD2    H312505   0.948   4.372  14.879  1.0631 -0.5310  0.1704
  851MPD2     N12506   0.762   4.025  14.630 -0.0514  0.5660  0.2866
  851MPD2    H512507   0.685   3.960  14.639  1.2096 -1.2190 -1.7433
  851MPD2    N112508   0.584   4.177  15.051  0.3099  0.5550 -0.7368
  851MPD2    H712509   0.569   4.265  15.099 -0.6185 -1.9029  3.4359
  852MPD2     C12510   0.297   1.860   9.117  0.2330  0.3749  0.3110
  852MPD2    C112511   0.429   1.836   9.173 -0.3072 -0.9810 -0.5746
  852MPD2    C212512   0.490   1.941   9.237  0.4473  0.0132  0.9387
  852MPD2    C312513   0.423   2.061   9.259 -0.3234 -0.2967 -0.4577
  852MPD2    C412514   0.300   2.086   9.203 -0.6871 -0.4707 -0.9072
  852MPD2    C512515   0.238   1.983   9.126 -0.2244 -0.0563 -0.3440
  852MPD2     H12516   0.588   1.924   9.280  0.9927 -1.1733 -0.7824
  852MPD2    H112517   0.244   2.179   9.201 -1.7404 -1.0400  3.1315
  852MPD2    H212518   0.238   1.787   9.062  0.0980  1.7552 -1.3702
  852MPD2    H312519   0.145   2.004   9.076 -0.0415  0.7260 -0.3498
  852MPD2     N12520   0.492   2.159   9.340 -0.0326  0.3552 -0.6629
  852MPD2    H512521   0.578   2.126   9.382 -1.6354 -0.0133  2.2438
  852MPD2    N112522   0.498   1.708   9.168 -0.0420 -0.1379  0.1292
  852MPD2    H712523   0.587   1.687   9.213  0.8406 -1.2803 -2.1385
  853MPD2     C12524   1.815   1.664  11.807 -0.7441 -0.3445  0.5767
  853MPD2    C112525   1.714   1.762  11.795  0.0584 -0.2940 -1.1882
  853MPD2    C212526   1.671   1.806  11.672 -0.9658 -0.0156 -0.4976
  853MPD2    C312527   1.735   1.763  11.556 -0.4519 -0.1400  0.1455
  853MPD2    C412528   1.839   1.666  11.565 -0.5431  0.0232 -0.1892
  853MPD2    C512529   1.874   1.611  11.690  0.4482  0.0888  0.0274
  853MPD2     H12530   1.587   1.872  11.661  0.0865  1.2838 -0.7180
  853MPD2    H112531   1.875   1.623  11.472  0.8067  1.1441 -0.1767
  853MPD2    H212532   1.845   1.628  11.904  0.6785  0.6270  0.5034
  853MPD2    H312533   1.936   1.523  11.702  0.2599 -0.2262 -1.2960
  853MPD2     N12534   1.709   1.822  11.426 -0.0393  0.1234 -0.3014
  853MPD2    H512535   1.765   1.783  11.352 -0.5922  0.4689 -0.9049
  853MPD2    N112536   1.667   1.818  11.921  0.5507  0.3251 -0.1699
  853MPD2    H712537   1.696   1.770  12.005  1.0911 -1.2208 -1.2404
  854MPD2     C12538   3.645   2.125  13.270  0.4818 -0.0236  0.5334
  854MPD2    C112539   3.734   2.131  13.162  0.8484 -0.3169 -0.1288
  854MPD2    C212540   3.857   2.061  13.170  0.8249  0.0273  0.7698
  854MPD2    C312541   3.892   1.993  13.282  0.5073 -0.0581 -0.4060
  854MPD2    C412542   3.793   1.981  13.377 -0.3149 -0.5462  0.0176
  854MPD2    C512543   3.678   2.052  13.378 -0.4356  0.1296  0.4783
  854MPD2     H12544   3.921   2.063  13.083 -2.1647  0.4511 -1.4505
  854MPD2    H112545   3.820   1.927  13.467 -2.0150  0.2795  1.0123
  854MPD2    H212546   3.557   2.188  13.257 -0.0478 -0.8591  0.0170
  854MPD2    H312547   3.621   2.057  13.471 -1.4465 -0.0155 -0.1316
  854MPD2     N12548   4.015   1.931  13.307 -0.1099 -0.0976 -0.2785
  854MPD2    H512549   4.022   1.896  13.403  0.3386 -1.2323 -0.7254
  854MPD2    N112550   3.680   2.192  13.050  0.1460 -0.7397  0.1817
  854MPD2    H712551   3.580   2.210  13.047  0.3526  0.7453  1.8653
  855MPD2     C12552   4.168   1.457  13.983  0.2591  0.1127  0.1199
  855MPD2    C112553   4.222   1.381  13.887  0.9773  0.0319  0.4913
  855MPD2    C212554   4.233   1.424  13.757  0.7714  0.5874  0.0392
  855MPD2    C312555   4.203   1.553  13.727  0.7616 -0.5643  0.1109
  855MPD2    C412556   4.147   1.628  13.827  0.2032  0.7438 -0.2305
  855MPD2    C512557   4.128   1.586  13.953 -0.2673  0.3965  0.4525
  855MPD2     H12558   4.258   1.355  13.678  1.5006  0.2995  0.5240
  855MPD2    H112559   4.117   1.725  13.790  0.6436  0.9734  0.0142
  855MPD2    H212560   4.163   1.420  14.084 -1.2420 -2.1605 -0.7871
  855MPD2    H312561   4.083   1.652  14.027  0.0029  2.3794 -1.1302
  855MPD2     N12562   4.213   1.613  13.599  0.5656 -0.2941  0.1035
  855MPD2    H512563   4.147   1.687  13.575  0.4681 -0.3414  0.2243
  855MPD2    N112564   4.258   1.252  13.903 -0.2436 -0.3731 -0.0331
  855MPD2    H712565   4.268   1.201  13.816 -1.0578  0.4333 -0.5915
  856MPD2     C12566   1.154   2.827  13.673  0.3820  0.0911  0.1816
  856MPD2    C112567   1.189   2.883  13.794 -0.0866 -0.1359 -0.3603
  856MPD2    C212568   1.175   3.025  13.804 -0.5485  0.0452  0.0670
  856MPD2    C312569   1.102   3.098  13.708  0.3856 -0.2271  0.4583
  856MPD2    C412570   1.049   3.027  13.601 -0.5550 -0.5621 -0.9581
  856MPD2    C512571   1.084   2.900  13.581  0.2904 -0.0211 -0.1628
  856MPD2     H12572   1.232   3.079  13.879 -1.0572  0.7210 -0.0421
  856MPD2    H112573   0.988   3.065  13.519 -1.5018 -0.7328 -0.3344
  856MPD2    H212574   1.161   2.721  13.649  0.8242 -0.1689  1.4637
  856MPD2    H312575   1.044   2.851  13.493  1.5736  2.6878 -2.2517
  856MPD2     N12576   1.067   3.236  13.713  0.0505 -0.1023 -0.9209
  856MPD2    H512577   1.019   3.281  13.636  1.3597  1.2272 -0.9646
  856MPD2    N112578   1.263   2.821  13.896 -0.5648  0.1934  0.1621
  856MPD2    H712579   1.290   2.885  13.970 -1.1597  0.2484  0.3297
  857MPD2     C12580   2.804   0.329  12.225 -0.0599  0.1090 -0.2737
  857MPD2    C112581   2.939   0.315  12.251 -0.6427  0.5861  0.3138
  857MPD2    C212582   3.021   0.421  12.297  0.4737  0.1683  0.1320
  857MPD2    C312583   2.965   0.551  12.294  0.8187 -0.0198  0.1319
  857MPD2    C412584   2.832   0.571  12.254 -0.3156  0.2419 -0.2285
  857MPD2    C512585   2.758   0.459  12.228 -0.2968 -0.3055 -0.0453
  857MPD2     H12586   3.125   0.411  12.326 -0.1726 -1.2353  2.0021
  857MPD2    H112587   2.784   0.668  12.261  0.1178  0.1242  4.1956
  857MPD2    H212588   2.752   0.243  12.185  0.4604 -0.3885  0.1010
  857MPD2    H312589   2.651   0.471  12.216 -0.0630  1.2644 -0.5456
  857MPD2     N12590   3.041   0.653  12.341  0.0467 -0.5309 -0.8254
  857MPD2    H512591   3.136   0.640  12.373 -0.9405 -0.2495  2.2080
  857MPD2    N112592   2.989   0.183  12.241 -0.2236 -0.1439 -0.5324
  857MPD2    H712593   2.933   0.111  12.197  0.1270  0.2086 -1.5615
  858MPD2     C12594   3.741   4.073  16.569 -0.1852  0.3151  0.3481
  858MPD2    C112595   3.825   3.967  16.596  0.8212 -0.0088 -0.4143
  858MPD2    C212596   3.871   3.949  16.726  0.0674  0.1736 -0.4999
  858MPD2    C312597   3.808   4.022  16.825 -0.6343  0.1279 -0.1434
  858MPD2    C412598   3.712   4.112  16.797  0.4864  0.7277 -0.8070
  858MPD2    C512599   3.684   4.148  16.669 -0.3057  0.1962 -0.7142
  858MPD2     H12600   3.955   3.890  16.759 -0.4539 -0.3046 -0.0260
  858MPD2    H112601   3.676   4.166  16.884 -1.5344  0.3630 -1.4163
  858MPD2    H212602   3.711   4.099  16.468 -0.8753 -0.7842  0.2751
  858MPD2    H312603   3.598   4.211  16.648  0.7287  1.6198 -0.5966
  858MPD2     N12604   3.850   4.017  16.960 -0.5911 -0.1528 -0.6665
  858MPD2    H512605   3.792   4.072  17.023 -1.1727  0.6566 -1.8909
  858MPD2    N112606   3.886   3.899  16.492 -1.1576 -0.5364  0.1855
  858MPD2    H712607   3.967   3.841  16.509  0.5650  1.6850 -0.3339
  859MPD2     C12608   2.100   1.171  15.268 -1.1954 -0.1830  0.2708
  859MPD2    C112609   2.185   1.193  15.165  0.0898 -0.6111  0.3589
  859MPD2    C212610   2.271   1.092  15.123 -0.3588  0.4035  0.2448
  859MPD2    C312611   2.270   0.971  15.200 -0.0080  0.0415 -0.6427
  859MPD2    C412612   2.195   0.965  15.313 -0.1447 -0.1034  0.1974
  859MPD2    C512613   2.125   1.074  15.355  0.2417  0.5579  0.4907
  859MPD2     H12614   2.325   1.110  15.030 -2.5763 -0.3824 -1.2036
  859MPD2    H112615   2.194   0.873  15.371 -0.6578 -0.6814 -0.7257
  859MPD2    H212616   2.032   1.248  15.300 -1.5375 -0.1409 -0.5623
  859MPD2    H312617   2.066   1.064  15.445  0.4244 -1.3186  0.4030
  859MPD2     N12618   2.337   0.853  15.146 -0.0320 -0.0913  0.0408
  859MPD2    H512619   2.312   0.769  15.198 -1.5801 -0.5272 -1.3762
  859MPD2    N112620   2.174   1.306  15.083 -0.6410 -0.3358  0.0026
  859MPD2    H712621   2.088   1.359  15.091  0.7521  1.6580  1.7798
  860MPD2     C12622   4.529   1.637  11.478  0.3452  0.1159 -0.3494
  860MPD2    C112623   4.612   1.691  11.567 -0.1295 -0.5023 -0.9061
  860MPD2    C212624   4.566   1.727  11.694 -0.8123 -0.0345  0.0221
  860MPD2    C312625   4.438   1.694  11.732 -1.1330  0.1831 -0.0854
  860MPD2    C412626   4.356   1.624  11.643 -0.4835  0.7363  0.1441
  860MPD2    C512627   4.402   1.603  11.517  0.2147 -0.5249  0.9425
  860MPD2     H12628   4.634   1.777  11.761  0.4450  0.0418 -1.3052
  860MPD2    H112629   4.264   1.577  11.676  0.0343 -0.6299 -0.3757
  860MPD2    H212630   4.554   1.610  11.376 -2.0507 -3.1871 -0.0430
  860MPD2    H312631   4.346   1.545  11.445 -0.8480 -0.3113  1.5955
  860MPD2     N12632   4.394   1.737  11.858  0.5480 -0.5071  0.2822
  860MPD2    H512633   4.457   1.781  11.924  1.0835  1.5696 -1.5772
  860MPD2    N112634   0.022   1.720  11.534  0.6176 -0.4359 -0.4373
  860MPD2    H712635   0.083   1.773  11.594 -0.4887  1.0902 -0.6553
  861MPD2     C12636   4.178   0.134  10.810 -0.0079 -0.3167  0.1555
  861MPD2    C112637   4.055   0.111  10.859 -0.9882  0.0509  0.7751
  861MPD2    C212638   3.934   0.123  10.787 -0.3562  0.0467  0.1629
  861MPD2    C312639   3.950   0.175  10.657  0.1187  0.5201 -0.3843
  861MPD2    C412640   4.070   0.231  10.617  0.0085 -0.0009  0.4397
  861MPD2    C512641   4.186   0.189  10.683  0.3818 -0.8599  0.2325
  861MPD2     H12642   3.836   0.101  10.827 -0.1402  0.4044  0.8775
  861MPD2    H112643   4.088   0.289  10.527 -2.4854 -0.0349 -0.0784
  861MPD2    H212644   4.267   0.113  10.867  0.4857  0.4003 -0.3537
  861MPD2    H312645   4.286   0.215  10.651 -0.1672  0.2346 -0.5822
  861MPD2     N12646   3.843   0.182  10.562  0.2574 -0.0231 -0.3321
  861MPD2    H512647   3.843   0.247  10.483  0.7317  0.2555 -0.1051
  861MPD2    N112648   4.040   0.069  10.988 -0.0359 -0.6439 -0.2181
  861MPD2    H712649   3.947   0.068  11.029  0.7697  0.4080  1.6213
  862MPD2     C12650   3.170   0.224  10.104  0.9843  1.1951 -0.0270
  862MPD2    C112651   3.289   0.227  10.176 -0.2945 -0.1636  0.2477
  862MPD2    C212652   3.309   0.126  10.266  0.3982  0.7367  0.1536
  862MPD2    C312653   3.211   0.036  10.301 -0.2297 -0.1205 -0.2896
  862MPD2    C412654   3.083   0.052  10.252  0.1892  0.4871 -0.3112
  862MPD2    C512655   3.065   0.137  10.145  0.2495  0.1282 -0.2666
  862MPD2     H12656   3.406   0.112  10.313  0.2889  1.1096  0.4899
  862MPD2    H112657   2.996   4.719  10.280  0.6397 -0.6834 -1.2980
  862MPD2    H212658   3.146   0.282  10.015 -0.3769  0.8749  0.1291
  862MPD2    H312659   2.972   0.134  10.090  1.5846  1.6192 -2.6051
  862MPD2     N12660   3.233   4.658  10.393  0.6667 -0.1661  0.2813
  862MPD2    H512661   3.154   4.609  10.434  1.2442 -0.4178  1.0875
  862MPD2    N112662   3.399   0.312  10.126  0.3429  1.0414  0.1795
  862MPD2    H712663   3.374   0.345  10.033  0.9058  0.1131 -0.3055
  863MPD2     C12664   1.815   3.654  16.902  0.0241  0.3496  0.3008
  863MPD2    C112665   1.830   3.600  16.772 -0.3547 -0.4562 -0.9275
  863MPD2    C212666   1.932   3.510  16.747  0.8016 -0.1379 -0.0826
  863MPD2    C312667   2.013   3.481  16.852 -0.3394 -0.0754 -0.0883
  863MPD2    C412668   2.012   3.549  16.968 -0.7202 -0.8383  0.6264
  863MPD2    C512669   1.908   3.634  16.992  0.5510  0.3522 -0.1387
  863MPD2     H12670   1.955   3.469  16.649  0.4376 -1.8476  0.5608
  863MPD2    H112671   2.076   3.533  17.054  0.1436  0.7244  0.2819
  863MPD2    H212672   1.737   3.728  16.917 -0.0679  0.1097  1.0378
  863MPD2    H312673   1.889   3.677  17.091 -5.7264 -0.1734 -1.1309
  863MPD2     N12674   2.111   3.384  16.846 -0.3780 -0.0736 -0.2643
  863MPD2    H512675   2.172   3.369  16.926 -0.1920 -1.0687 -0.5892
  863MPD2    N112676   1.725   3.623  16.687  0.1610 -0.1766 -0.3376
  863MPD2    H712677   1.654   3.682  16.729  0.0701 -0.6511  0.1807
  864MPD2     C12678   2.275   4.508  16.810  0.0267  0.4629  0.1843
  864MPD2    C112679   2.403   4.500  16.864  0.8034  0.0507 -0.4609
  864MPD2    C212680   2.488   4.608  16.845  0.8748  0.2412 -0.3361
  864MPD2    C312681   2.451   4.715  16.772 -0.3869  0.3072 -0.5037
  864MPD2    C412682   2.330   4.721  16.721  0.2346 -0.6713 -0.2855
  864MPD2    C512683   2.243   4.617  16.739 -0.1546 -0.1613  0.4773
  864MPD2     H12684   2.591   4.605  16.881  1.3490  0.6655 -1.6553
  864MPD2    H112685   2.293   0.080  16.662  0.0076 -0.5489  0.0266
  864MPD2    H212686   2.216   4.417  16.817  4.2294 -2.1254  1.1906
  864MPD2    H312687   2.141   4.621  16.701 -0.2532  1.4931  0.9012
  864MPD2     N12688   2.531   0.111  16.751 -0.6106 -1.2425 -0.8178
  864MPD2    H512689   2.509   0.186  16.686 -2.7524 -0.1661  1.1731
  864MPD2    N112690   2.445   4.389  16.942 -0.0961 -0.0176  0.7846
  864MPD2    H712691   2.378   4.312  16.941 -0.2230  0.1087 -0.8466
  865MPD2     C12692   2.523   0.053  15.958  0.2593  0.5282 -0.0401
  865MPD2    C112693   2.575   4.680  16.037  0.4568 -0.6208  0.1644
  865MPD2    C212694   2.634   4.715  16.156  0.2260 -0.2735 -0.4670
  865MPD2    C312695   2.625   0.124  16.198  0.4952 -0.2292 -1.0131
  865MPD2    C412696   2.555   0.223  16.123  0.0449  0.0406 -0.7845
  865MPD2    C512697   2.503   0.179  16.000  0.1393 -0.4969 -0.5930
  865MPD2     H12698   2.693   4.642  16.211  1.9125  0.7048 -0.9671
  865MPD2    H112699   2.547   0.330  16.143 -0.9786 -0.0569 -0.6827
  865MPD2    H212700   2.477   0.014  15.868 -2.9416  1.3524  1.2301
  865MPD2    H312701   2.460   0.249  15.929 -0.7549 -2.0465 -1.5541
  865MPD2     N12702   2.683   0.168  16.319  0.0276 -0.1372 -0.1627
  865MPD2    H512703   2.654   0.258  16.357 -0.6880 -0.9231  1.1832
  865MPD2    N112704   2.572   4.549  15.996 -0.8179 -0.4864 -0.0032
  865MPD2    H712705   2.560   4.532  15.896  4.2694 -0.2128 -0.6702
  866MPD2     C12706   4.348   0.456  11.376 -0.5223 -0.0176  1.3633
  866MPD2    C112707   4.390   0.458  11.245  0.1184 -0.3878 -0.2387
  866MPD2    C212708   4.295   0.491  11.157 -0.8217  0.0818 -0.0517
  866MPD2    C312709   4.169   0.543  11.205 -0.1678 -0.4733 -0.1013
  866MPD2    C412710   4.138   0.540  11.336  0.1707  0.0351 -0.0928
  866MPD2    C512711   4.232   0.499  11.428  0.2349 -0.7546  0.3072
  866MPD2     H12712   4.312   0.487  11.050 -2.9120  1.2522 -0.4298
  866MPD2    H112713   4.044   0.574  11.379  0.2550 -0.2697  0.3334
  866MPD2    H212714   4.425   0.437  11.450  2.1173  2.0429 -0.8559
  866MPD2    H312715   4.222   0.514  11.535 -0.3929 -0.7161  0.2436
  866MPD2     N12716   4.064   0.587  11.112  0.1609 -0.2167  0.6525
  866MPD2    H512717   3.979   0.612  11.160 -0.0235 -1.5155  1.0084
  866MPD2    N112718   4.517   0.409  11.206 -0.3858  0.1090 -0.2157
  866MPD2    H712719   4.554   0.432  11.115 -0.0336  2.6361  0.5545
  867MPD2     C12720   1.402   4.537  16.751 -0.3704  0.4618  0.0973
  867MPD2    C112721   1.513   4.494  16.824  0.1572  0.2996 -0.0354
  867MPD2    C212722   1.576   4.585  16.902 -0.0779  0.4949  0.2686
  867MPD2    C312723   1.556   4.723  16.888  0.6005  0.0880 -0.2477
  867MPD2    C412724   1.449   0.041  16.814  0.2836  0.4462  0.0915
  867MPD2    C512725   1.375   4.667  16.748  0.3757  0.8089  0.2397
  867MPD2     H12726   1.647   4.545  16.974  0.2942  1.1015  0.2435
  867MPD2    H112727   1.426   0.147  16.805  1.2096  0.7914  1.8004
  867MPD2    H212728   1.340   4.474  16.687 -0.3211 -0.9971  1.4890
  867MPD2    H312729   1.296   4.699  16.680  1.1206  0.5544 -0.7558
  867MPD2     N12730   1.652   0.096  16.942  0.1638  0.0911  0.3039
  867MPD2    H512731   1.643   0.197  16.928 -1.7950  0.0716  1.4814
  867MPD2    N112732   1.548   4.354  16.809  0.0171  0.0719 -0.5463
  867MPD2    H712733   1.489   4.304  16.743 -0.9416  0.0567  0.3102
  868MPD2     C12734   3.047   2.934  12.631  0.2348  0.2892 -0.1116
  868MPD2    C112735   3.060   2.947  12.770 -0.1573 -0.3035 -0.2531
  868MPD2    C212736   2.946   2.931  12.847 -0.3324  0.2714  0.6969
  868MPD2    C312737   2.827   2.898  12.794  0.5613  1.0037 -0.0894
  868MPD2    C412738   2.815   2.886  12.660 -0.3359  0.5862  0.1830
  868MPD2    C512739   2.924   2.908  12.582  0.2844 -0.8078  0.1238
  868MPD2     H12740   2.947   2.947  12.954 -1.2600  1.5281  0.5108
  868MPD2    H112741   2.724   2.866  12.606  0.7398 -1.6777 -0.8294
  868MPD2    H212742   3.128   2.931  12.560 -1.1935 -0.2639 -1.7026
  868MPD2    H312743   2.917   2.885  12.476 -0.9154  0.4596 -0.0710
  868MPD2     N12744   2.719   2.893  12.885 -0.2316  0.5341 -0.8250
  868MPD2    H512745   2.734   2.928  12.979  1.6165 -2.3997 -0.0018
  868MPD2    N112746   3.190   2.973  12.825  0.4239  1.3198  0.1824
  868MPD2    H712747   3.261   2.998  12.757 -0.5375  1.4808 -0.7498
  869MPD2     C12748   3.426   0.746   1.114  0.0768  0.1701  0.5320
  869MPD2    C112749   3.493   0.828   1.200  0.1927 -0.1529  0.1198
  869MPD2    C212750   3.567   0.929   1.144  1.1568 -0.3690  0.0562
  869MPD2    C312751   3.567   0.958   1.004  0.2197 -0.4577 -0.1943
  869MPD2    C412752   3.501   0.868   0.924  1.0387 -0.4596 -0.1091
  869MPD2    C512753   3.428   0.764   0.977 -0.3375 -0.0177  0.7099
  869MPD2     H12754   3.608   1.009   1.206  0.6808 -0.6443  0.7277
  869MPD2    H112755   3.489   0.886   0.818 -0.9795  2.1498  0.5706
  869MPD2    H212756   3.361   0.664   1.140  0.6145 -0.4851 -0.2043
  869MPD2    H312757   3.365   0.702   0.914  1.1250 -1.3720  0.5920
  869MPD2     N12758   3.628   1.074   0.946  0.2213  0.8825 -0.1910
  869MPD2    H512759   3.601   1.096   0.851 -3.1024  1.7118  0.9254
  869MPD2    N112760   3.480   0.804   1.336  0.4042 -0.2203  0.4240
  869MPD2    H712761   3.427   0.725   1.372  0.7734 -1.3530 -1.4814
  870MPD2     C12762   3.257   4.653   1.566 -0.0837 -0.2434 -0.3290
  870MPD2    C112763   3.325   4.561   1.492  0.2310  0.2837  0.4151
  870MPD2    C212764   3.273   4.516   1.377 -0.4118 -0.6024  0.0510
  870MPD2    C312765   3.143   4.539   1.339 -0.0510 -0.6318  0.0785
  870MPD2    C412766   3.071   4.631   1.416 -0.5914  0.2873  0.9461
  870MPD2    C512767   3.125   4.682   1.531  0.5963  0.2919 -0.3750
  870MPD2     H12768   3.317   4.433   1.322  1.4944  0.5229 -0.1435
  870MPD2    H112769   2.982   4.681   1.379 -0.4309 -0.1761 -0.0618
  870MPD2    H212770   3.305   4.697   1.653 -0.3348 -1.7063  0.5503
  870MPD2    H312771   3.064   0.029   1.585  1.9904  1.0918  0.1465
  870MPD2     N12772   3.096   4.473   1.225 -0.0391 -0.3213  0.5727
  870MPD2    H512773   3.158   4.416   1.168  1.0896  2.4090 -0.8951
  870MPD2    N112774   3.453   4.525   1.538  0.2556  0.1519 -0.1789
  870MPD2    H712775   3.486   4.574   1.620 -2.0969  2.1439 -0.4065
  871MPD2     C12776   0.409   0.046  16.212 -0.0451 -0.4743 -0.3076
  871MPD2    C112777   0.414   4.656  16.282 -0.1788 -0.7381  0.8674
  871MPD2    C212778   0.431   4.532  16.219 -0.9127  0.2630  0.4544
  871MPD2    C312779   0.473   4.528  16.088  0.1186 -1.0274  0.6202
  871MPD2    C412780   0.464   4.645  16.014 -0.5258  0.4147 -0.2746
  871MPD2    C512781   0.424   0.039  16.074 -0.2375  0.2154  0.2080
  871MPD2     H12782   0.436   4.437  16.271 -0.1809 -0.9220 -1.7783
  871MPD2    H112783   0.481   4.650  15.907 -0.0383 -0.2138 -0.2215
  871MPD2    H212784   0.387   0.144  16.253  4.0030 -0.8776  2.7672
  871MPD2    H312785   0.414   0.129  16.016 -1.8235  0.3639  0.7162
  871MPD2     N12786   0.515   4.403  16.035  0.0157 -0.9580 -0.0090
  871MPD2    H512787   0.512   4.322  16.096  0.6558 -0.7010  0.3772
  871MPD2    N112788   0.377   4.667  16.417  0.6599 -0.1063 -0.0188
  871MPD2    H712789   0.355   0.038  16.445 -2.7298 -0.3112 -1.9377
  872MPD2     C12790   0.910   2.051  13.558  0.2467  0.3265  0.1481
  872MPD2    C112791   0.982   1.971  13.641 -1.4902  0.2016 -0.3885
  872MPD2    C212792   0.924   1.956  13.768  0.2752  0.1656 -0.1340
  872MPD2    C312793   0.799   2.016  13.800  0.4963  0.9520 -0.8880
  872MPD2    C412794   0.726   2.094  13.710 -0.1599 -0.4051  0.0515
  872MPD2    C512795   0.787   2.107  13.587  1.0228 -0.4638  0.2596
  872MPD2     H12796   0.978   1.897  13.841  0.6441 -0.5567 -1.0042
  872MPD2    H112797   0.636   2.153  13.728 -1.8566 -2.8375 -0.3661
  872MPD2    H212798   0.945   2.073  13.457  0.5547  0.4261  0.2757
  872MPD2    H312799   0.726   2.159  13.514  2.5257  0.9716  0.0307
  872MPD2     N12800   0.736   2.006  13.926  0.2951  0.4580  0.5325
  872MPD2    H512801   0.657   2.063  13.955  0.2793  0.4387  0.5275
  872MPD2    N112802   1.116   1.938  13.597 -0.0060 -0.1465 -0.0629
  872MPD2    H712803   1.139   1.965  13.502  1.3587 -0.3748  0.2010
  873MPD2     C12804   3.327   1.881   0.801 -0.1605 -0.1505 -0.5453
  873MPD2    C112805   3.197   1.926   0.800 -0.4757 -0.4824 -0.4223
  873MPD2    C212806   3.100   1.838   0.748 -0.1918  0.0184  0.0736
  873MPD2    C312807   3.136   1.717   0.684 -0.5061 -0.1385 -0.2168
  873MPD2    C412808   3.273   1.682   0.676  0.1965  0.8628  0.3976
  873MPD2    C512809   3.366   1.763   0.734  0.0012 -0.4526  0.2005
  873MPD2     H12810   2.997   1.868   0.733  0.1991  1.3254  0.0138
  873MPD2    H112811   3.324   1.606   0.619 -0.8713  0.6524 -0.2897
  873MPD2    H212812   3.401   1.958   0.822  0.9271 -1.2869 -0.2261
  873MPD2    H312813   3.473   1.747   0.727  0.1958  0.9158  0.0161
  873MPD2     N12814   3.046   1.641   0.605  0.7341 -0.3978 -0.5068
  873MPD2    H512815   3.090   1.568   0.550  0.1050 -0.7851 -0.4997
  873MPD2    N112816   3.165   2.057   0.850 -0.2553 -0.3211 -0.0433
  873MPD2    H712817   3.236   2.124   0.879  1.1600 -1.5265 -0.7697
  874MPD2     C12818   2.391   2.911  15.951 -0.1386 -0.1701 -0.1987
  874MPD2    C112819   2.458   2.794  15.924 -0.4051 -1.0082 -0.2954
  874MPD2    C212820   2.593   2.792  15.925 -0.2573 -0.2937 -0.5763
  874MPD2    C312821   2.659   2.905  15.977  0.2637 -0.2631  0.2735
  874MPD2    C412822   2.589   3.016  16.019 -0.3548  0.1605  0.4277
  874MPD2    C512823   2.454   3.020  15.991  0.2251 -0.2294 -0.1781
  874MPD2     H12824   2.646   2.706  15.884 -1.4625 -1.7770  1.0027
  874MPD2    H112825   2.647   3.102  16.052  3.9997 -2.6266  0.0617
  874MPD2    H212826   2.283   2.915  15.936 -0.0032  0.8267 -0.9411
  874MPD2    H312827   2.404   3.116  16.000 -1.2076 -0.7974 -2.0413
  874MPD2     N12828   2.798   2.886  15.995 -0.1335  0.4084 -0.4105
  874MPD2    H512829   2.838   2.795  15.973 -1.1740  0.0385 -0.7575
  874MPD2    N112830   2.375   2.680  15.888  0.9234 -0.7307 -0.9372
  874MPD2    H712831   2.274   2.687  15.884  1.1273  0.9460 -2.9959
  875MPD2     C12832   4.004   0.506  14.535 -0.2445  0.2479 -0.3264
  875MPD2    C112833   3.880   0.559  14.556  0.3125  0.8798  0.5747
  875MPD2    C212834   3.843   0.619  14.671  0.2757  0.6097 -0.5881
  875MPD2    C312835   3.930   0.635  14.776 -0.1284 -0.0837 -0.6883
  875MPD2    C412836   4.058   0.586  14.756 -0.5652  0.2168  0.1508
  875MPD2    C512837   4.080   0.502  14.647  0.0573  0.8348  0.1342
  875MPD2     H12838   3.739   0.650  14.678 -0.1735 -0.8401 -0.9075
  875MPD2    H112839   4.134   0.576  14.833  0.1176 -4.1451 -1.1034
  875MPD2    H212840   4.038   0.444  14.452  1.5401 -0.7333  1.1260
  875MPD2    H312841   4.173   0.447  14.638 -0.7623 -0.5596  0.2293
  875MPD2     N12842   3.903   0.690  14.902  0.2635 -0.1116 -0.9416
  875MPD2    H512843   3.975   0.704  14.972 -0.7089  3.1968 -0.5767
  875MPD2    N112844   3.776   0.546  14.457  0.6702  0.2213  0.2798
  875MPD2    H712845   3.685   0.584  14.484 -0.3986  0.1212 -3.1371
  876MPD2     C12846   2.780   2.045  15.957  0.3687  0.0043  0.1951
  876MPD2    C112847   2.687   1.996  15.869 -0.3894  0.5037  0.3133
  876MPD2    C212848   2.640   1.871  15.894 -0.2656  0.4872  0.2476
  876MPD2    C312849   2.693   1.788  15.992  0.6012  0.2149 -0.4509
  876MPD2    C412850   2.788   1.844  16.078 -0.1866  0.5706  0.1274
  876MPD2    C512851   2.824   1.978  16.066 -0.0893 -0.4219  0.1249
  876MPD2     H12852   2.571   1.820  15.828  0.8848 -0.5176 -0.1578
  876MPD2    H112853   2.847   1.795  16.155  1.0414  1.4773 -0.2335
  876MPD2    H212854   2.826   2.139  15.931 -0.7168 -0.0212 -1.8362
  876MPD2    H312855   2.905   2.009  16.132 -1.0716  0.8469  0.7383
  876MPD2     N12856   2.659   1.655  16.007 -0.4184 -0.1031  0.0519
  876MPD2    H512857   2.609   1.616  15.928 -0.2613 -2.9622  1.3837
  876MPD2    N112858   2.655   2.076  15.753  0.6626 -0.1753  0.0459
  876MPD2    H712859   2.693   2.168  15.737  3.6618 -1.4172 -0.0066
  877MPD2     C12860   2.979   2.534  15.240  0.3261 -0.4257  0.1503
  877MPD2    C112861   2.865   2.479  15.177 -0.1681 -0.3002  0.7303
  877MPD2    C212862   2.840   2.494  15.050  0.2079 -0.3637  0.4284
  877MPD2    C312863   2.920   2.575  14.972 -0.5673  0.2570  0.2507
  877MPD2    C412864   3.031   2.636  15.026 -1.0560 -0.3128 -0.0809
  877MPD2    C512865   3.052   2.620  15.160  0.3214  0.5110  0.6329
  877MPD2     H12866   2.768   2.442  14.988 -0.4918  0.8480  0.2291
  877MPD2    H112867   3.096   2.705  14.975 -0.2604 -1.5634 -0.7463
  877MPD2    H212868   3.002   2.508  15.342  0.9818  0.8190  0.3169
  877MPD2    H312869   3.134   2.676  15.203 -0.6871  1.0648  1.8363
  877MPD2     N12870   2.908   2.578  14.831 -0.0301 -0.2032 -0.1146
  877MPD2    H512871   2.985   2.612  14.775 -1.4871 -0.3003 -2.1820
  877MPD2    N112872   2.772   2.401  15.247  0.0198 -0.3157 -0.0647
  877MPD2    H712873   2.694   2.372  15.189 -0.3386 -0.3785  0.4475
  878MPD2     C12874   2.669   1.415  12.867 -0.0308  0.7196  0.7224
  878MPD2    C112875   2.717   1.547  12.880  0.8082 -0.1153 -0.1856
  878MPD2    C212876   2.685   1.619  12.996  0.2935  0.8040 -0.6343
  878MPD2    C312877   2.606   1.569  13.096 -0.0138 -0.2195 -0.2179
  878MPD2    C412878   2.563   1.439  13.080 -0.2386  0.1519 -0.0799
  878MPD2    C512879   2.609   1.365  12.976 -0.3913  0.5594 -0.1819
  878MPD2     H12880   2.729   1.717  13.013  0.6910  1.0634 -3.1654
  878MPD2    H112881   2.501   1.392  13.155 -0.9731  3.3533  1.2846
  878MPD2    H212882   2.696   1.338  12.795 -3.6236 -1.2505  1.4782
  878MPD2    H312883   2.585   1.259  12.973  1.7711  0.0252  1.3492
  878MPD2     N12884   2.578   1.653  13.203 -0.4051 -0.2223 -0.2748
  878MPD2    H512885   2.620   1.745  13.216  1.5696 -1.2660  0.6989
  878MPD2    N112886   2.794   1.602  12.777  0.1144  0.5133  0.0465
  878MPD2    H712887   2.825   1.552  12.694 -0.0919 -1.7176  1.3249
  879MPD2     C12888   3.086   3.140  16.632 -0.6016  0.3126 -0.1502
  879MPD2    C112889   3.044   3.015  16.664  0.0998  1.0668  0.2348
  879MPD2    C212890   2.916   2.972  16.631  0.3534  0.5601  0.3059
  879MPD2    C312891   2.834   3.050  16.550 -0.3543  0.2400  0.4665
  879MPD2    C412892   2.889   3.164  16.494 -1.1620 -0.2204 -0.3173
  879MPD2    C512893   3.016   3.200  16.531  0.3171 -0.1499 -0.0361
  879MPD2     H12894   2.883   2.882  16.681  0.4805  0.7648  0.7587
  879MPD2    H112895   2.829   3.227  16.430  0.2009 -0.1579 -1.5306
  879MPD2    H212896   3.180   3.179  16.669 -0.6165 -0.1305  0.3532
  879MPD2    H312897   3.051   3.292  16.487 -0.3031 -0.6336 -1.5370
  879MPD2     N12898   2.696   3.018  16.515  0.3475  0.1868 -0.3202
  879MPD2    H512899   2.650   3.075  16.445 -0.2356 -0.3876 -0.3985
  879MPD2    N112900   3.133   2.939  16.738  0.4547 -0.1770  0.7156
  879MPD2    H712901   3.212   2.984  16.783 -1.2214  0.7792  2.7194
  880MPD2     C12902   4.169   4.391   0.198  0.6663 -0.3281 -0.2232
  880MPD2    C112903   4.085   4.397   0.305 -0.0810  0.0670  0.1023
  880MPD2    C212904   4.108   4.344   0.428  0.1036 -0.0775  0.2556
  880MPD2    C312905   4.231   4.272   0.443  0.2108 -0.3561 -0.1766
  880MPD2    C412906   4.310   4.260   0.333 -0.4708  0.0728  0.0043
  880MPD2    C512907   4.281   4.313   0.211 -0.4527 -0.0068  0.2158
  880MPD2     H12908   4.035   4.348   0.509  3.1142 -1.0423  3.0504
  880MPD2    H112909   4.402   4.204   0.330 -2.5596 -3.3509  0.4388
  880MPD2    H212910   4.141   4.434   0.103  3.9342  0.8213 -0.6792
  880MPD2    H312911   4.348   4.295   0.127 -1.5369  0.4499 -0.7377
  880MPD2     N12912   4.269   4.200   0.555 -0.3459  0.4966 -0.4393
  880MPD2    H512913   4.357   4.149   0.549 -1.9551 -1.9005 -3.7004
  880MPD2    N112914   3.974   4.484   0.273 -0.1110  0.2468  0.1164
  880MPD2    H712915   3.960   4.521   0.180  2.1632  1.4992  0.2574
  881MPD2     C12916   3.498   0.245  17.247  0.1182 -0.2102  0.5169
  881MPD2    C112917   3.627   0.207  17.279 -0.0946  0.4734  0.4924
  881MPD2    C212918   3.647   0.156  17.405  0.3197 -0.1994 -0.1421
  881MPD2    C312919   3.545   0.115  17.482  0.0539  0.3299 -0.5613
  881MPD2    C412920   3.418   0.138  17.445  0.5703  0.0048  0.8681
  881MPD2    C512921   3.398   0.202  17.327 -0.7734  0.3728 -0.5352
  881MPD2     H12922   3.746   0.147  17.450  2.0568 -0.2539 -3.9568
  881MPD2    H112923   3.331   0.104  17.501  0.5751  1.0222  1.5118
  881MPD2    H212924   3.470   0.269  17.145  1.3043 -1.3187 -0.0688
  881MPD2    H312925   3.299   0.201  17.285 -0.1900  1.1123 -1.9288
  881MPD2     N12926   3.555   0.048  17.608  0.1315  0.1552  0.5006
  881MPD2    H512927   3.466   0.029  17.653 -0.5889 -0.5684 -1.2378
  881MPD2    N112928   3.743   0.250  17.212  0.0401  0.2167  0.4292
  881MPD2    H712929   3.835   0.224  17.244  0.0329 -0.2801  0.0485
  882MPD2     C12930   2.423   2.853  14.257 -0.6177 -0.4349 -0.7890
  882MPD2    C112931   2.465   2.725  14.259  0.0864 -0.0422  0.6596
  882MPD2    C212932   2.374   2.628  14.223  0.2309  1.1366 -0.7161
  882MPD2    C312933   2.244   2.656  14.198 -0.1577  0.1660 -0.7076
  882MPD2    C412934   2.201   2.790  14.205  0.8215  0.4515  0.2348
  882MPD2    C512935   2.291   2.889  14.232 -0.9396 -0.5463 -0.6817
  882MPD2     H12936   2.410   2.527  14.207  1.3201  1.0622  2.1572
  882MPD2    H112937   2.097   2.815  14.185 -0.1600 -2.6364  1.4262
  882MPD2    H212938   2.485   2.938  14.282  1.3951 -1.7692 -1.1839
  882MPD2    H312939   2.259   2.992  14.233  1.1184  0.1067 -0.7558
  882MPD2     N12940   2.153   2.554  14.155  0.3673 -0.3885 -0.2294
  882MPD2    H512941   2.061   2.584  14.125 -0.4234 -0.1162  2.4247
  882MPD2    N112942   2.597   2.694  14.307 -0.0658 -0.1472  1.3482
  882MPD2    H712943   2.654   2.773  14.337  1.4066 -1.1935  1.3018
  883MPD2     C12944   0.007   2.163  16.483  0.0371  0.1361  0.1018
  883MPD2    C112945   0.064   2.240  16.377 -0.0681  0.6213  0.4542
  883MPD2    C212946   0.175   2.318  16.399  0.5814 -0.0089  0.1755
  883MPD2    C312947   0.230   2.316  16.524 -0.0797 -0.5847 -0.0979
  883MPD2    C412948   0.187   2.229  16.623 -0.2148  0.0523 -0.0784
  883MPD2    C512949   0.078   2.149  16.602 -0.3895 -0.1607 -0.3460
  883MPD2     H12950   0.220   2.380  16.322 -2.6629  2.5351  0.2957
  883MPD2    H112951   0.251   2.213  16.709 -1.5359  1.0866  1.1031
  883MPD2    H212952   4.655   2.087  16.469  0.0131  0.6585 -2.6118
  883MPD2    H312953   0.053   2.081  16.682  2.0663  1.2018  1.5867
  883MPD2     N12954   0.343   2.396  16.548 -0.1679 -0.3267 -0.2748
  883MPD2    H512955   0.378   2.445  16.466 -3.8037  2.5776 -0.0773
  883MPD2    N112956   0.019   2.238  16.243  0.5593  0.2397 -0.3273
  883MPD2    H712957   0.071   2.298  16.181  0.1022  1.8542  0.8617
  884MPD2     C12958   1.285   2.911  15.140 -0.5510  0.0777  0.5978
  884MPD2    C112959   1.226   2.874  15.021  0.1667 -0.1456  0.5749
  884MPD2    C212960   1.103   2.931  14.991  0.3704 -0.3520  0.1431
  884MPD2    C312961   1.040   3.023  15.067 -0.1536  0.0073 -0.3566
  884MPD2    C412962   1.105   3.067  15.178  0.9000 -0.0471  0.0302
  884MPD2    C512963   1.223   3.011  15.216  0.1841  0.1486 -0.0807
  884MPD2     H12964   1.052   2.906  14.899  2.9065  0.3126 -1.4715
  884MPD2    H112965   1.063   3.135  15.251 -0.4743 -0.3551 -0.4754
  884MPD2    H212966   1.380   2.870  15.171  0.7287  0.5159 -2.7392
  884MPD2    H312967   1.273   3.047  15.305 -2.2544 -0.6566  1.6061
  884MPD2     N12968   0.918   3.077  15.031 -0.1034  0.5804 -0.0659
  884MPD2    H512969   0.878   3.030  14.950  1.1549 -1.2987  0.4056
  884MPD2    N112970   1.306   2.792  14.929  0.2919  0.1089 -0.0675
  884MPD2    H712971   1.273   2.799  14.833  1.7008  0.4767 -0.5255
  885MPD2     C12972   0.134   3.312  17.299  0.9891  0.6484 -0.3384
  885MPD2    C112973   0.107   3.206  17.219  0.5596  0.3585 -0.2318
  885MPD2    C212974   0.075   3.232  17.083  0.0124  0.3097  0.3821
  885MPD2    C312975   0.070   3.360  17.035  0.2534 -0.5995 -0.1059
  885MPD2    C412976   0.101   3.465  17.120  0.1443  0.4767 -0.1767
  885MPD2    C512977   0.133   3.437  17.253  0.0910 -0.2251 -0.1623
  885MPD2     H12978   0.059   3.159  17.005  1.6735 -0.7691  1.0656
  885MPD2    H112979   0.131   3.563  17.083  0.9617 -0.1114 -1.0717
  885MPD2    H212980   0.178   3.298  17.398 -1.5825  2.5291  1.0840
  885MPD2    H312981   0.168   3.512  17.322 -1.0710 -1.5656  1.8984
  885MPD2     N12982   0.062   3.369  16.901  0.3881  0.0446  0.2221
  885MPD2    H512983   0.049   3.286  16.844 -1.1106 -1.3274  2.5755
  885MPD2    N112984   0.128   3.075  17.265 -0.3304  0.1975  0.0856
  885MPD2    H712985   0.166   3.076  17.359  0.5096  0.4619 -0.2602
  886MPD2     C12986   1.168   1.457  14.716  0.0520  0.5028 -0.2758
  886MPD2    C112987   1.255   1.530  14.795  0.2838 -0.6060 -0.5600
  886MPD2    C212988   1.261   1.667  14.772  0.0864 -0.0047 -0.1380
  886MPD2    C312989   1.181   1.736  14.684 -0.8747  0.2143  0.6730
  886MPD2    C412990   1.083   1.665  14.626  0.3048 -0.2658 -0.9097
  886MPD2    C512991   1.079   1.526  14.632 -0.1821  0.6040 -0.0231
  886MPD2     H12992   1.329   1.716  14.840 -2.1352  1.8179  0.7831
  886MPD2    H112993   1.005   1.709  14.565 -0.9402 -0.5489  0.4796
  886MPD2    H212994   1.156   1.351  14.736  0.9202 -0.0994 -2.9501
  886MPD2    H312995   1.004   1.461  14.589  1.0613 -1.1478  0.4650
  886MPD2     N12996   1.183   1.874  14.657 -0.2221  0.2428  0.2637
  886MPD2    H512997   1.114   1.910  14.591  1.5373  2.2710 -0.4766
  886MPD2    N112998   1.350   1.472  14.886  0.1733  0.9405 -0.0825
  886MPD2    H712999   1.402   1.541  14.940 -0.5993  1.3672  0.1130
  887MPD2     C13000   1.990   1.677  15.147  0.4824  0.1324  0.4063
  887MPD2    C113001   1.853   1.704  15.138  0.7044  0.2815 -0.2172
  887MPD2    C213002   1.802   1.824  15.191  0.7007  0.0526  0.5942
  887MPD2    C313003   1.891   1.913  15.259  0.0468  0.4016 -0.1930
  887MPD2    C413004   2.031   1.880  15.252 -0.4397 -0.1912 -0.1612
  887MPD2    C513005   2.076   1.766  15.199 -0.6004 -0.2632  0.0942
  887MPD2     H13006   1.697   1.847  15.187  0.4839 -1.0407 -0.1218
  887MPD2    H113007   2.108   1.944  15.294 -2.3468  2.3928 -0.5858
  887MPD2    H213008   2.037   1.593  15.096 -1.8105  0.6965 -2.6554
  887MPD2    H313009   2.181   1.740  15.198 -0.4585  0.2791  1.3107
  887MPD2     N13010   1.848   2.036  15.319  0.3271  0.6082  0.1451
  887MPD2    H513011   1.762   2.076  15.283  1.7171  1.5024 -2.2807
  887MPD2    N113012   1.771   1.601  15.104 -0.1776 -0.2651  0.4155
  887MPD2    H713013   1.669   1.605  15.100 -0.1656  0.3842  0.8730
  888MPD2     C13014   4.050   1.523  14.942 -0.3703 -0.8045 -0.1994
  888MPD2    C113015   4.127   1.621  14.885  0.5586 -0.0729 -0.0421
  888MPD2    C213016   4.063   1.728  14.826 -0.4578 -0.8078  0.0889
  888MPD2    C313017   3.929   1.759  14.859  0.0703 -0.4387 -0.4444
  888MPD2    C413018   3.856   1.667  14.922 -0.7288 -0.1857 -0.0068
  888MPD2    C513019   3.913   1.548  14.964 -0.3400  0.2546  0.7327
  888MPD2     H13020   4.117   1.787  14.752  1.5267 -1.4137  1.0534
  888MPD2    H113021   3.749   1.675  14.935 -0.8516 -2.2017  0.2366
  888MPD2    H213022   4.104   1.443  14.991  2.1206  0.4562 -0.9155
  888MPD2    H313023   3.854   1.481  15.026  1.0405 -1.4201  0.2501
  888MPD2     N13024   3.889   1.884  14.804 -0.4586  0.6286 -0.5560
  888MPD2    H513025   3.965   1.932  14.758  0.8969 -1.3265 -0.3842
  888MPD2    N113026   4.266   1.610  14.885  0.3666 -0.5303 -0.4147
  888MPD2    H713027   4.306   1.551  14.957 -1.7591 -0.6822  0.6478
  889MPD2     C13028   3.228   1.504  12.300  0.5519 -0.5446 -0.0205
  889MPD2    C113029   3.256   1.457  12.425 -0.3028 -0.8909  0.1182
  889MPD2    C213030   3.249   1.546  12.531 -0.5991 -0.0966  0.6595
  889MPD2    C313031   3.226   1.676  12.513 -0.7387 -0.7356 -0.0543
  889MPD2    C413032   3.208   1.728  12.387  0.0536 -0.2397  0.0242
  889MPD2    C513033   3.215   1.635  12.290  0.6563  0.0356 -0.3480
  889MPD2     H13034   3.232   1.497  12.626 -0.7521  0.3607  0.8649
  889MPD2    H113035   3.174   1.829  12.365 -0.6720  0.0690  2.6225
  889MPD2    H213036   3.184   1.441  12.223  1.7741 -0.0024 -1.1553
  889MPD2    H313037   3.189   1.672  12.191  0.0310 -0.3017 -0.3068
  889MPD2     N13038   3.210   1.756  12.626 -0.4902 -0.0093 -0.1832
  889MPD2    H513039   3.234   1.707  12.711  0.4444 -1.1979 -1.1325
  889MPD2    N113040   3.231   1.323  12.451 -1.0872 -0.4152  0.1292
  889MPD2    H713041   3.228   1.292  12.547 -0.7653  2.1150  0.9355
  890MPD2     C13042   2.397   3.171  14.526 -0.0090 -0.0331  0.1676
  890MPD2    C113043   2.500   3.231  14.597  0.0530  0.3095 -0.4344
  890MPD2    C213044   2.565   3.155  14.694  0.2553 -0.0157 -0.4855
  890MPD2    C313045   2.536   3.019  14.708 -0.8584  0.3447  0.5251
  890MPD2    C413046   2.433   2.966  14.633 -0.0791  0.4336  0.2395
  890MPD2    C513047   2.368   3.042  14.542 -0.3698  0.7453 -0.6645
  890MPD2     H13048   2.654   3.195  14.742 -0.3405 -0.9561  1.4079
  890MPD2    H113049   2.394   2.865  14.643  1.6066 -0.4432 -2.0482
  890MPD2    H213050   2.349   3.230  14.449 -1.9684  0.3131  1.6248
  890MPD2    H313051   2.285   2.992  14.493 -0.4904  1.8309 -1.5743
  890MPD2     N13052   2.598   2.931  14.799 -0.0195 -0.4638  0.0221
  890MPD2    H513053   2.562   2.839  14.824 -1.0849 -0.2898 -0.8807
  890MPD2    N113054   2.536   3.363  14.559  0.3048 -0.0036  0.6047
  890MPD2    H713055   2.504   3.397  14.469 -0.3864 -1.5415  0.2697
  891MPD2     C13056   0.547   1.887  15.973 -0.7359 -0.4530  0.3563
  891MPD2    C113057   0.485   1.806  16.063 -0.9476 -0.1486 -0.3554
  891MPD2    C213058   0.565   1.733  16.142  0.3317  0.5370 -0.3626
  891MPD2    C313059   0.704   1.753  16.139 -0.2574  0.4121 -0.0360
  891MPD2    C413060   0.759   1.849  16.061 -0.5210  1.1945 -0.0233
  891MPD2    C513061   0.679   1.916  15.972 -0.0950  0.5630  0.3891
  891MPD2     H13062   0.521   1.654  16.203  0.5225 -0.1724 -1.1453
  891MPD2    H113063   0.867   1.862  16.057 -0.2717  0.0246  2.3020
  891MPD2    H213064   0.490   1.931  15.892  0.2319  1.9398  0.9681
  891MPD2    H313065   0.727   1.994  15.916  0.5140 -1.4610 -1.9106
  891MPD2     N13066   0.782   1.661  16.215 -0.0855  0.3790 -0.2471
  891MPD2    H513067   0.723   1.594  16.263  2.3348 -2.2113 -0.8912
  891MPD2    N113068   0.341   1.788  16.042  0.0032 -0.3564 -0.3580
  891MPD2    H713069   0.303   1.833  15.960 -2.2248 -1.0917  0.2656
  892MPD2     C13070   1.537   2.226  14.805  0.0305 -0.1174  0.2191
  892MPD2    C113071   1.488   2.302  14.705 -0.0436  0.5869 -1.1939
  892MPD2    C213072   1.569   2.321  14.590 -0.2652 -0.0903  0.1812
  892MPD2    C313073   1.698   2.261  14.579 -0.1643 -0.5190  0.2714
  892MPD2    C413074   1.747   2.196  14.690  0.3794  0.2036  0.3671
  892MPD2    C513075   1.669   2.180  14.805 -0.0970  0.6131 -0.1661
  892MPD2     H13076   1.527   2.373  14.505  1.2050 -2.6628 -2.1012
  892MPD2    H113077   1.848   2.155  14.692 -0.0859 -0.9921 -1.1818
  892MPD2    H213078   1.476   2.204  14.892  2.8384 -0.1182  2.2084
  892MPD2    H313079   1.710   2.112  14.879 -0.9898  2.0755  1.6720
  892MPD2     N13080   1.771   2.263  14.452 -0.1734  0.5513  0.9546
  892MPD2    H513081   1.848   2.196  14.452 -1.7912 -1.2991  1.5362
  892MPD2    N113082   1.362   2.367  14.705 -0.2779  0.4771  0.5909
  892MPD2    H713083   1.340   2.412  14.616 -3.7662 -0.6225  0.9095
  893MPD2     C13084   2.495   0.329   0.507 -0.2830 -1.0137  0.9570
  893MPD2    C113085   2.516   0.302   0.640 -0.0847  0.7911  0.6997
  893MPD2    C213086   2.423   0.222   0.704  0.0663  0.2169 -0.3561
  893MPD2    C313087   2.318   0.171   0.631  0.6347  0.5354 -0.2175
  893MPD2    C413088   2.315   0.187   0.496  1.3863  0.6369 -1.2738
  893MPD2    C513089   2.404   0.273   0.434 -0.5513 -0.2228  0.1461
  893MPD2     H13090   2.439   0.183   0.804 -1.1989  0.4096 -0.0764
  893MPD2    H113091   2.236   0.143   0.436  0.9291 -1.3407  0.8126
  893MPD2    H213092   2.554   0.403   0.454 -3.6467  1.3589  0.4878
  893MPD2    H313093   2.402   0.300   0.329 -1.0011  0.7550  0.4084
  893MPD2     N13094   2.218   0.092   0.685 -0.5981 -0.0356  0.3499
  893MPD2    H513095   2.145   0.066   0.620 -0.5333  0.4144  0.0983
  893MPD2    N113096   2.635   0.362   0.700 -0.0868  0.6215  0.0323
  893MPD2    H713097   2.689   0.413   0.632 -0.3943  1.7786  0.6628
  894MPD2     C13098   1.464   4.178   0.834 -0.2519 -0.7020 -0.3959
  894MPD2    C113099   1.556   4.168   0.935 -0.7784 -0.5498  0.1640
  894MPD2    C213100   1.658   4.083   0.922 -0.4163 -0.1645  0.2192
  894MPD2    C313101   1.664   3.986   0.826 -0.1227  0.6965 -0.0398
  894MPD2    C413102   1.571   4.003   0.725 -0.0881  0.4663  0.6803
  894MPD2    C513103   1.469   4.095   0.728 -0.7950  0.6164  1.1880
  894MPD2     H13104   1.735   4.080   0.998 -1.5639 -1.5997  1.3055
  894MPD2    H113105   1.574   3.946   0.633 -1.4032  3.1150 -1.0429
  894MPD2    H213106   1.380   4.248   0.830  0.6228  0.5225  2.2354
  894MPD2    H313107   1.400   4.110   0.646  1.6556  0.6699 -0.8974
  894MPD2     N13108   1.764   3.885   0.836 -0.7305 -0.6399 -0.0609
  894MPD2    H513109   1.832   3.890   0.911 -1.6539  1.4440  0.6452
  894MPD2    N113110   1.544   4.236   1.059 -0.2987 -0.0916  0.1967
  894MPD2    H713111   1.620   4.225   1.124 -1.2250  0.8801  1.4446
  895MPD2     C13112   0.958   1.766  13.248  0.0728  0.1906  0.3844
  895MPD2    C113113   0.849   1.678  13.241 -0.2321 -0.0786 -0.0567
  895MPD2    C213114   0.872   1.547  13.268 -0.1945  0.2564  0.3205
  895MPD2    C313115   0.999   1.501  13.297 -0.2390  0.4056 -0.0926
  895MPD2    C413116   1.109   1.591  13.295  0.0663 -0.7604 -0.3823
  895MPD2    C513117   1.088   1.720  13.268 -0.3294 -0.2505 -0.3375
  895MPD2     H13118   0.800   1.466  13.263  0.4862 -0.4450  1.6875
  895MPD2    H113119   1.209   1.552  13.311  0.4174  1.3006  2.3936
  895MPD2    H213120   0.944   1.873  13.252 -0.7234  0.1084 -0.3765
  895MPD2    H313121   1.174   1.786  13.268  1.0060 -1.9974  3.3715
  895MPD2     N13122   1.005   1.367  13.315 -0.6211  0.2698  0.6357
  895MPD2    H513123   0.922   1.323  13.278 -0.4467 -0.6085  1.2940
  895MPD2    N113124   0.713   1.713  13.216 -0.1482  0.2365 -0.1184
  895MPD2    H713125   0.640   1.642  13.221  1.0948 -1.0770 -0.6964
  896MPD2     C13126   3.737   2.889   1.007  0.1951  0.1090 -1.2462
  896MPD2    C113127   3.693   2.995   1.080  0.2166 -0.4408  0.6995
  896MPD2    C213128   3.557   3.021   1.095  0.4937  0.7645  0.5484
  896MPD2    C313129   3.471   2.943   1.027  0.7330  1.0224  0.2440
  896MPD2    C413130   3.516   2.840   0.948 -0.0613 -0.0699  0.8344
  896MPD2    C513131   3.650   2.814   0.940 -0.1033  0.4606 -0.2331
  896MPD2     H13132   3.524   3.114   1.139 -0.6023 -0.9955  3.4383
  896MPD2    H113133   3.450   2.792   0.877  0.1085  1.8752 -0.6383
  896MPD2    H213134   3.842   2.873   0.982 -0.0138 -2.0145 -0.7555
  896MPD2    H313135   3.687   2.732   0.879  2.0303  0.3881  1.1542
  896MPD2     N13136   3.335   2.965   1.012  0.4660 -1.0321 -0.1353
  896MPD2    H513137   3.294   2.916   0.933 -1.5814 -0.8428  0.8147
  896MPD2    N113138   3.795   3.081   1.129  0.2673  0.0072 -0.1911
  896MPD2    H713139   3.886   3.065   1.087 -0.5263 -4.2382 -0.3286
  897MPD2     C13140   0.086   1.254  10.242  0.8546 -0.2585  0.1340
  897MPD2    C113141   4.708   1.237  10.146 -0.2372 -0.5238 -0.3576
  897MPD2    C213142   4.601   1.156  10.157  0.2288 -0.1889 -0.2796
  897MPD2    C313143   4.585   1.101  10.286  0.1276  0.2751 -0.4407
  897MPD2    C413144   4.681   1.123  10.386 -0.6245 -0.2250  0.2537
  897MPD2    C513145   0.066   1.201  10.366 -0.1192  0.4336 -0.5123
  897MPD2     H13146   4.518   1.142  10.089 -2.1473  1.7311  2.2164
  897MPD2    H113147   4.670   1.097  10.491 -2.2387 -0.8397 -0.0697
  897MPD2    H213148   0.169   1.321  10.224 -0.3082  1.0878 -0.2062
  897MPD2    H313149   0.142   1.219  10.441 -1.0877  1.0662  0.3195
  897MPD2     N13150   4.463   1.035  10.311 -0.7252 -0.6625 -0.5743
  897MPD2    H513151   4.397   1.021  10.234 -0.0828  0.9551 -1.4160
  897MPD2    N113152   4.714   1.313  10.024 -0.0402 -0.1366 -0.1539
  897MPD2    H713153   0.055   1.391  10.022  0.6863 -0.7563 -1.3428
  898MPD2     C13154   1.938   1.556  17.024  0.1804  0.3164  0.3323
  898MPD2    C113155   1.886   1.654  17.108  0.2807 -0.0355 -0.9525
  898MPD2    C213156   1.775   1.728  17.065  0.3123 -0.3762  0.3634
  898MPD2    C313157   1.712   1.711  16.945  0.3173 -0.0714  0.7901
  898MPD2    C413158   1.764   1.615  16.865  0.6761 -0.2892 -0.4991
  898MPD2    C513159   1.867   1.533  16.909 -0.2365  0.2705  0.0700
  898MPD2     H13160   1.733   1.809  17.122 -2.1170 -1.2276 -0.2060
  898MPD2    H113161   1.722   1.576  16.773 -2.8916  2.0302  0.1618
  898MPD2    H213162   2.029   1.506  17.057 -1.6363 -1.6167  2.4127
  898MPD2    H313163   1.898   1.450  16.846 -1.1826 -0.6224  0.7884
  898MPD2     N13164   1.603   1.794  16.901  0.2683  0.1778 -0.0135
  898MPD2    H513165   1.583   1.879  16.951  2.8274  0.5959  0.3321
  898MPD2    N113166   1.957   1.686  17.224 -0.8372  0.3923  0.6371
  898MPD2    H713167   2.025   1.616  17.253 -1.4055 -0.6215 -0.4942
  899MPD2     C13168   1.896   2.713  17.064  0.0424  0.0521  0.1774
  899MPD2    C113169   2.014   2.757  17.117 -0.5340 -0.0995 -0.1223
  899MPD2    C213170   2.058   2.700  17.239 -0.2663 -0.3632 -0.0552
  899MPD2    C313171   1.978   2.607  17.299  0.1588  0.4495  0.1306
  899MPD2    C413172   1.857   2.569  17.247 -0.5156 -0.4197  0.0674
  899MPD2    C513173   1.822   2.617  17.122 -0.4504  0.4543  0.8501
  899MPD2     H13174   2.139   2.749  17.291  0.0851 -0.4208 -0.5485
  899MPD2    H113175   1.792   2.492  17.288 -0.5627 -1.0280 -1.1443
  899MPD2    H213176   1.850   2.753  16.975  1.6532  2.0097  0.2088
  899MPD2    H313177   1.728   2.579  17.084 -0.6988  0.4156  1.4993
  899MPD2     N13178   2.005   2.556  17.427  0.5657  0.3837 -0.4489
  899MPD2    H513179   1.930   2.510  17.479  1.2844  2.6068  2.5721
  899MPD2    N113180   2.080   2.854  17.039  0.1808  0.4946  0.6693
  899MPD2    H713181   2.026   2.887  16.960  1.6548  1.4354  0.0551
  900MPD2     C13182   2.560   4.228  12.258 -0.2523  0.1496  0.1096
  900MPD2    C113183   2.460   4.151  12.312  0.3587  0.1461 -0.1451
  900MPD2    C213184   2.333   4.205  12.322  0.0710  0.0039  0.3384
  900MPD2    C313185   2.299   4.326  12.268 -0.0736  0.2120  0.3013
  900MPD2    C413186   2.404   4.399  12.206  0.2910  0.3885 -0.7682
  900MPD2    C513187   2.533   4.349  12.199 -0.3128 -0.4694 -0.3985
  900MPD2     H13188   2.250   4.154  12.370 -3.1488  2.8595 -2.2454
  900MPD2    H113189   2.397   4.498  12.163 -2.0355  0.1999 -0.8380
  900MPD2    H213190   2.659   4.185  12.251  0.0574  0.9636 -0.4645
  900MPD2    H313191   2.614   4.409  12.159  0.9206 -2.0192 -0.2087
  900MPD2     N13192   2.163   4.365  12.269 -0.1886 -0.4269 -0.4933
  900MPD2    H513193   2.097   4.303  12.314 -1.5550  0.9626 -0.5664
  900MPD2    N113194   2.489   4.024  12.358 -0.4889  0.3228  0.0594
  900MPD2    H713195   2.579   3.983  12.334 -1.9061 -3.4481  1.1582
  901MPD2     C13196   1.885   3.192  12.363 -0.4728  0.8607  0.3511
  901MPD2    C113197   1.985   3.132  12.438  0.0293  0.4196 -0.6481
  901MPD2    C213198   2.091   3.203  12.472 -0.6045 -0.1029 -0.2358
  901MPD2    C313199   2.104   3.338  12.436  0.6156 -0.0718 -0.0494
  901MPD2    C413200   2.011   3.390  12.353  0.7129 -0.0212 -0.1599
  901MPD2    C513201   1.899   3.321  12.322  0.1701  0.1219 -0.4833
  901MPD2     H13202   2.176   3.155  12.518 -0.0220 -1.0420 -2.2787
  901MPD2    H113203   2.035   3.482  12.301  0.8113  0.9298  1.5685
  901MPD2    H213204   1.798   3.133  12.336  1.4802 -2.1186  0.5764
  901MPD2    H313205   1.825   3.369  12.258 -0.3705 -1.0907 -0.7751
  901MPD2     N13206   2.224   3.409  12.483 -0.3093 -0.0352  0.2967
  901MPD2    H513207   2.297   3.354  12.528 -0.1802 -0.8630 -0.9200
  901MPD2    N113208   1.960   2.998  12.471 -0.2488  0.5682  0.1636
  901MPD2    H713209   1.869   2.965  12.438  0.0672 -0.8930  0.7670
  902MPD2     C13210   0.453   2.245  12.864 -0.5147  0.0427  0.1732
  902MPD2    C113211   0.442   2.247  12.728 -0.0425  0.2851 -0.3077
  902MPD2    C213212   0.441   2.130  12.653 -0.0444 -0.0961 -0.0887
  902MPD2    C313213   0.451   2.009  12.718 -0.5844  0.3956 -0.7713
  902MPD2    C413214   0.457   2.005  12.851  0.5476  0.7398 -0.2245
  902MPD2    C513215   0.465   2.121  12.926 -0.3454  0.4780 -0.4260
  902MPD2     H13216   0.461   2.132  12.546 -1.6317 -0.2698 -0.3865
  902MPD2    H113217   0.457   1.914  12.910  2.4160  0.8508 -0.0619
  902MPD2    H213218   0.450   2.329  12.933  1.7917 -1.1602  1.7239
  902MPD2    H313219   0.469   2.116  13.034  2.3691 -0.6625 -0.5632
  902MPD2     N13220   0.465   1.883  12.658 -0.2040 -0.2930 -0.0476
  902MPD2    H513221   0.467   1.808  12.725  2.0142  1.5045  1.8932
  902MPD2    N113222   0.456   2.371  12.657  0.2024  0.7742  0.4684
  902MPD2    H713223   0.483   2.451  12.714 -1.0492  1.1685  0.5014
  903MPD2     C13224   0.641   1.372  11.908 -0.3987 -0.5504  0.6499
  903MPD2    C113225   0.558   1.469  11.959 -0.1354 -0.5866  0.4860
  903MPD2    C213226   0.510   1.571  11.868 -0.8445 -0.1160  0.3148
  903MPD2    C313227   0.544   1.564  11.742 -0.0168 -0.2196  0.8504
  903MPD2    C413228   0.643   1.479  11.704 -0.5604  0.2056  0.7261
  903MPD2    C513229   0.688   1.379  11.779  0.6442 -0.3101  0.3108
  903MPD2     H13230   0.461   1.661  11.904  0.5470  1.0285 -0.6635
  903MPD2    H113231   0.686   1.492  11.606  0.0807 -0.3405  0.9353
  903MPD2    H213232   0.675   1.293  11.974  1.6850 -0.0373  0.1852
  903MPD2    H313233   0.768   1.314  11.746 -0.3739 -0.6126 -1.5065
  903MPD2     N13234   0.485   1.659  11.657  0.1772  0.6283  0.3695
  903MPD2    H513235   0.420   1.725  11.698 -0.7429  1.7113 -2.8033
  903MPD2    N113236   0.527   1.471  12.102 -0.1623  0.6026 -0.7529
  903MPD2    H713237   0.558   1.396  12.163  0.9363  1.7234  0.0535
  904MPD2     C13238   0.612   1.124  13.647 -0.3239 -0.0294 -0.3576
  904MPD2    C113239   0.619   1.098  13.783 -0.3614 -0.1829 -0.1869
  904MPD2    C213240   0.742   1.084  13.840 -0.1398  0.4166 -0.1688
  904MPD2    C313241   0.861   1.120  13.771  0.1060  0.4520  0.0511
  904MPD2    C413242   0.851   1.178  13.643 -0.3402  0.3021  0.3550
  904MPD2    C513243   0.730   1.169  13.584  0.5569 -0.5203 -0.7515
  904MPD2     H13244   0.750   1.042  13.940 -0.2512 -2.3444 -1.3174
  904MPD2    H113245   0.936   1.206  13.580  0.0135  0.3607  0.8602
  904MPD2    H213246   0.529   1.109  13.579 -1.2044  1.1742  0.4496
  904MPD2    H313247   0.730   1.189  13.477 -4.2020 -1.9379 -1.0313
  904MPD2     N13248   0.986   1.098  13.843  0.5711 -0.1863  0.6811
  904MPD2    H513249   0.976   1.068  13.939  0.1280  1.0698  1.0189
  904MPD2    N113250   0.504   1.045  13.846 -0.2948 -0.1463 -0.0689
  904MPD2    H713251   0.522   0.973  13.914 -1.0410 -3.0685 -2.9797
  905MPD2     C13252   0.326   0.861  13.275  0.2939 -0.0471  0.3178
  905MPD2    C113253   0.371   0.990  13.290  0.0683 -0.5444 -0.1238
  905MPD2    C213254   0.501   1.023  13.258 -0.1760 -0.0933 -0.0723
  905MPD2    C313255   0.583   0.922  13.208 -0.2720  0.0340 -0.4673
  905MPD2    C413256   0.527   0.795  13.179  0.2088  0.1095  0.4815
  905MPD2    C513257   0.400   0.765  13.211 -0.1778  0.0546 -0.5001
  905MPD2     H13258   0.537   1.121  13.289  1.4641 -0.2560 -1.5166
  905MPD2    H113259   0.591   0.721  13.132 -0.3437  0.2265 -0.4420
  905MPD2    H213260   0.223   0.832  13.295  0.1399  0.4792  0.2863
  905MPD2    H313261   0.352   0.668  13.209  0.3093 -0.2655  2.8968
  905MPD2     N13262   0.718   0.937  13.183  0.0113  0.0981 -0.0012
  905MPD2    H513263   0.769   0.857  13.147 -0.0148 -0.5935  1.5352
  905MPD2    N113264   0.301   1.079  13.374  0.7106 -0.0412 -0.4000
  905MPD2    H713265   0.221   1.034  13.418  0.9003 -1.0444 -1.0882
  906MPD2     C13266   3.222   1.325  10.948  0.2858 -0.7132 -0.1383
  906MPD2    C113267   3.195   1.231  10.851  0.2725 -0.5114 -0.6309
  906MPD2    C213268   3.163   1.098  10.887  0.0764 -1.4408 -0.2884
  906MPD2    C313269   3.176   1.060  11.020 -0.4533  0.5029 -0.4336
  906MPD2    C413270   3.201   1.154  11.118  0.1644  0.5828 -0.0962
  906MPD2    C513271   3.213   1.285  11.083  0.7066  0.7799 -0.2119
  906MPD2     H13272   3.147   1.026  10.808 -3.0946  0.3580 -1.2969
  906MPD2    H113273   3.211   1.125  11.222 -0.6695  0.6862  0.0120
  906MPD2    H213274   3.238   1.429  10.922  0.1637 -0.5460  0.4662
  906MPD2    H313275   3.226   1.352  11.167  0.7652  1.4393 -0.7375
  906MPD2     N13276   3.165   0.924  11.057  0.4664  0.4848 -0.2481
  906MPD2    H513277   3.167   0.901  11.156 -2.7054  0.3117 -0.2074
  906MPD2    N113278   3.182   1.259  10.716 -0.2524  0.1034  0.1293
  906MPD2    H713279   3.169   1.180  10.654  2.1647  1.6303 -2.3890
  907MPD2     C13280   1.524   0.611  15.571 -0.4213 -0.0967 -0.2575
  907MPD2    C113281   1.549   0.472  15.568 -0.2493 -0.8170 -1.0993
  907MPD2    C213282   1.603   0.407  15.678  0.4142 -0.2242 -0.2714
  907MPD2    C313283   1.620   0.474  15.799 -0.8411  0.4771  0.0317
  907MPD2    C413284   1.573   0.609  15.810  0.7303  0.3143 -0.0895
  907MPD2    C513285   1.520   0.671  15.694 -0.3943 -0.3459 -0.7740
  907MPD2     H13286   1.642   0.306  15.673  3.7803  1.1782 -2.7128
  907MPD2    H113287   1.566   0.665  15.903  0.9257  0.9984 -0.4922
  907MPD2    H213288   1.479   0.674  15.495 -0.3412  0.6392  0.3071
  907MPD2    H313289   1.475   0.770  15.696  2.8084  1.1647 -3.8106
  907MPD2     N13290   1.668   0.406  15.910  0.3977  0.6201 -0.1747
  907MPD2    H513291   1.697   0.309  15.901 -0.8631  0.4414 -2.3780
  907MPD2    N113292   1.542   0.406  15.442  0.1187 -0.1191 -0.1591
  907MPD2    H713293   1.591   0.317  15.443 -0.2977 -0.3458 -0.0447
  908MPD2     C13294   4.100   1.152   9.247  0.3560  0.6452 -0.4617
  908MPD2    C113295   4.234   1.122   9.256 -0.1166 -0.1071 -0.3055
  908MPD2    C213296   4.327   1.200   9.331 -0.9921  0.2483  0.1296
  908MPD2    C313297   4.291   1.314   9.402  0.0676  0.0957  0.0501
  908MPD2    C413298   4.157   1.350   9.378 -0.6034  0.1859  0.1454
  908MPD2    C513299   4.072   1.274   9.304 -0.5894  0.0537  0.2822
  908MPD2     H13300   4.426   1.158   9.345 -1.6590  0.1736  4.6243
  908MPD2    H113301   4.114   1.434   9.431  0.1720  1.2016 -0.8482
  908MPD2    H213302   4.029   1.113   9.175  0.0687 -0.7296  0.5634
  908MPD2    H313303   3.970   1.312   9.306 -0.8131 -0.5523  0.6864
  908MPD2     N13304   4.384   1.372   9.494  0.4467 -0.1869  0.8482
  908MPD2    H513305   4.481   1.344   9.493  0.3143 -0.6900  1.5612
  908MPD2    N113306   4.279   1.010   9.189 -0.0093  0.9048  0.1281
  908MPD2    H713307   4.379   0.994   9.195  0.0419  1.4809  0.7424
  909MPD2     C13308   0.271   3.366  11.658  0.8211  0.6603  0.8592
  909MPD2    C113309   0.264   3.492  11.602  0.8116  0.4096 -0.9085
  909MPD2    C213310   0.174   3.583  11.659 -0.3706  0.0064  0.3052
  909MPD2    C313311   0.106   3.559  11.777 -0.2264  0.1382  0.2959
  909MPD2    C413312   0.126   3.441  11.836 -0.4933  0.0760  0.2344
  909MPD2    C513313   0.206   3.353  11.780  0.0471 -0.6104  0.7479
  909MPD2     H13314   0.155   3.676  11.605 -1.5136  0.4500  1.4739
  909MPD2    H113315   0.073   3.413  11.926 -0.7502 -0.5098 -0.0988
  909MPD2    H213316   0.327   3.283  11.617  1.4582  0.5362  1.9826
  909MPD2    H313317   0.225   3.257  11.827 -0.7591 -0.2455  1.8297
  909MPD2     N13318   0.019   3.658  11.833  0.0152 -0.2217 -0.0365
  909MPD2    H513319   0.009   3.734  11.766  1.3571  0.5942  0.6750
  909MPD2    N113320   0.323   3.533  11.483 -0.6642 -0.6879  0.2352
  909MPD2    H713321   0.292   3.620  11.441 -2.5565 -0.7816  1.4694
  910MPD2     C13322   0.785   0.806  15.539 -0.1453 -0.4982  0.7126
  910MPD2    C113323   0.904   0.744  15.508 -0.2490 -0.2156 -0.3228
  910MPD2    C213324   0.930   0.734  15.374  0.1384  0.1604  0.0604
  910MPD2    C313325   0.844   0.783  15.275  0.0614  0.0468  0.4885
  910MPD2    C413326   0.735   0.858  15.316 -0.0436 -0.3491 -0.0380
  910MPD2    C513327   0.705   0.868  15.447 -0.2618  0.3557 -0.4634
  910MPD2     H13328   1.013   0.674  15.337  0.6909  0.9100  0.0817
  910MPD2    H113329   0.661   0.900  15.249  0.1596  0.7446  0.4210
  910MPD2    H213330   0.748   0.817  15.641  0.8653 -1.8910  1.2116
  910MPD2    H313331   0.616   0.926  15.469 -1.6504 -2.1966  0.6819
  910MPD2     N13332   0.861   0.771  15.135  0.2396  0.1055  0.1311
  910MPD2    H513333   0.799   0.820  15.072 -0.5083  2.2960  2.5417
  910MPD2    N113334   1.002   0.695  15.597  0.4049  0.0604 -0.0092
  910MPD2    H713335   1.086   0.662  15.551  1.4279 -0.3166  2.1528
  911MPD2     C13336   3.428   1.366  15.532  0.0675  0.1738  0.2365
  911MPD2    C113337   3.411   1.425  15.658  0.6361  0.2454 -0.4733
  911MPD2    C213338   3.316   1.523  15.685 -0.5137 -0.3552 -0.4043
  911MPD2    C313339   3.238   1.570  15.577  0.4295  0.8007  0.1695
  911MPD2    C413340   3.252   1.513  15.450  0.2048  1.1159 -0.1484
  911MPD2    C513341   3.346   1.415  15.436  0.9799  0.9461 -0.5716
  911MPD2     H13342   3.299   1.560  15.785 -0.0757  2.0196 -1.2072
  911MPD2    H113343   3.192   1.535  15.363  0.4614 -0.4996 -0.7396
  911MPD2    H213344   3.486   1.280  15.500 -0.3067 -0.1951  0.5308
  911MPD2    H313345   3.359   1.375  15.336 -1.2311 -1.2735  0.0425
  911MPD2     N13346   3.147   1.679  15.579 -0.1350 -0.6833 -0.4646
  911MPD2    H513347   3.092   1.703  15.497 -1.2327  0.1390  0.5154
  911MPD2    N113348   3.501   1.368  15.761 -0.1261 -0.3057  0.1955
  911MPD2    H713349   3.565   1.297  15.726 -1.3541  0.4645 -3.6394
  912MPD2     C13350   2.907   1.439  15.381 -0.8695  0.5569  0.5000
  912MPD2    C113351   2.857   1.477  15.504  0.3320  0.5224  0.5021
  912MPD2    C213352   2.905   1.411  15.618  0.4369  0.0947  0.3327
  912MPD2    C313353   2.998   1.309  15.606 -0.4354  0.4698  0.5372
  912MPD2    C413354   3.030   1.262  15.483  0.1111  0.3627  0.3099
  912MPD2    C513355   2.988   1.325  15.373 -0.4447 -0.4566 -0.2202
  912MPD2     H13356   2.880   1.445  15.718  0.5478  0.4264  0.2450
  912MPD2    H113357   3.098   1.183  15.453 -1.6542 -1.8299  2.1394
  912MPD2    H213358   2.871   1.489  15.292 -1.4993 -1.8687 -0.6033
  912MPD2    H313359   3.029   1.289  15.279  4.7596 -0.7227  2.1269
  912MPD2     N13360   3.052   1.259  15.726 -0.7183  0.5003  0.6023
  912MPD2    H513361   3.004   1.280  15.813  0.5266 -0.6660  1.5793
  912MPD2    N113362   2.780   1.594  15.503 -0.1441  0.1028 -0.8456
  912MPD2    H713363   2.788   1.649  15.418 -0.0904  0.6170 -0.5075
  913MPD2     C13364   4.342   2.621  10.606 -1.3339 -0.7202 -0.3826
  913MPD2    C113365   4.343   2.731  10.683  0.4468  0.2177 -0.3506
  913MPD2    C213366   4.307   2.859  10.622 -0.5003  0.3983  0.2205
  913MPD2    C313367   4.241   2.841  10.500 -0.2068  0.3330 -0.0115
  913MPD2    C413368   4.232   2.728  10.428  0.5034 -0.1131 -0.0280
  913MPD2    C513369   4.290   2.618  10.476 -0.0940  0.6461  0.3065
  913MPD2     H13370   4.303   2.951  10.680 -0.7950  1.7523 -1.9788
  913MPD2    H113371   4.186   2.726  10.330 -1.4079 -2.3783  0.8915
  913MPD2    H213372   4.377   2.528  10.649 -0.2079 -1.0804 -2.0676
  913MPD2    H313373   4.290   2.535  10.406 -2.6662 -0.1431  1.2211
  913MPD2     N13374   4.187   2.951  10.430 -0.9089  0.0850 -0.3628
  913MPD2    H513375   4.120   2.946  10.355  0.7933 -4.0481 -1.6149
  913MPD2    N113376   4.407   2.715  10.810  0.2486 -0.1040 -0.7738
  913MPD2    H713377   4.420   2.619  10.838  2.4138  0.8927  1.6107
  914MPD2     C13378   1.874   2.501  11.830 -0.4237  0.6481 -0.4346
  914MPD2    C113379   1.819   2.613  11.880 -0.4931 -0.0085  0.4735
  914MPD2    C213380   1.823   2.628  12.015 -0.2114 -0.5117 -0.2639
  914MPD2    C313381   1.882   2.538  12.102 -0.0845 -0.0544  0.0809
  914MPD2    C413382   1.938   2.426  12.048 -0.5535  0.2725  0.2068
  914MPD2    C513383   1.926   2.401  11.911 -0.1370  0.4013  0.1117
  914MPD2     H13384   1.788   2.717  12.066 -2.0848 -1.5268  0.2251
  914MPD2    H113385   1.984   2.352  12.113  1.4468  1.0622 -0.3146
  914MPD2    H213386   1.881   2.492  11.722  1.3908  0.1376 -0.2768
  914MPD2    H313387   1.967   2.309  11.871  1.6230 -0.5545  4.1692
  914MPD2     N13388   1.893   2.576  12.237  0.4261  0.8000 -0.0826
  914MPD2    H513389   1.846   2.663  12.260 -1.6734 -0.1497 -0.7801
  914MPD2    N113390   1.769   2.708  11.786 -0.0983  0.0816  0.3339
  914MPD2    H713391   1.786   2.692  11.687  1.0053 -0.0993  0.5524
  915MPD2     C13392   4.607   2.762  14.877  0.3991 -0.4854 -0.1569
  915MPD2    C113393   4.552   2.882  14.845  0.2595  0.1432 -0.8433
  915MPD2    C213394   4.505   2.955  14.952  0.4926  0.6337  0.7425
  915MPD2    C313395   4.511   2.915  15.085  0.6672  0.3750  0.0071
  915MPD2    C413396   4.562   2.788  15.111  0.7735 -1.0457 -0.6586
  915MPD2    C513397   4.613   2.720  15.005 -0.4499 -0.4385 -0.1172
  915MPD2     H13398   4.453   3.049  14.937 -0.2530  0.5990  2.9654
  915MPD2    H113399   4.569   2.733  15.204  0.4220  0.5966  0.3378
  915MPD2    H213400   4.644   2.705  14.792  0.9060  2.1283 -1.6863
  915MPD2    H313401   4.650   2.620  15.024  0.3672  0.1906  1.5719
  915MPD2     N13402   4.455   3.003  15.190  0.0908 -0.3849  0.2890
  915MPD2    H513403   4.451   3.102  15.168 -0.7135 -0.5004 -0.0772
  915MPD2    N113404   4.539   2.927  14.710  0.8446  0.9638  0.2844
  915MPD2    H713405   4.555   2.853  14.643 -2.5991 -0.0396  0.6086
  916MPD2     C13406   2.606   1.209  15.483 -0.0884 -0.0411 -0.3209
  916MPD2    C113407   2.681   1.159  15.590  0.4280  0.7007 -0.5453
  916MPD2    C213408   2.764   1.048  15.573 -0.0535  0.6494  0.0320
  916MPD2    C313409   2.772   0.985  15.445  0.3834  0.4147  0.3178
  916MPD2    C413410   2.682   1.022  15.345  0.2636 -0.3880 -0.0806
  916MPD2    C513411   2.601   1.130  15.367  0.4458  0.2001  0.7920
  916MPD2     H13412   2.821   1.013  15.658 -3.0338 -0.4609  1.5835
  916MPD2    H113413   2.667   0.981  15.246  0.9308 -0.6953 -0.0516
  916MPD2    H213414   2.550   1.300  15.498  0.5619  0.2495  0.3397
  916MPD2    H313415   2.539   1.169  15.287  0.8568  0.0916  0.4168
  916MPD2     N13416   2.845   0.866  15.433  0.2390 -0.1505 -0.8822
  916MPD2    H513417   2.887   0.817  15.511 -2.2763 -0.2101  0.4306
  916MPD2    N113418   2.644   1.216  15.713 -0.1799  0.5317  0.6814
  916MPD2    H713419   2.592   1.303  15.711  0.3054  0.7895 -0.2969
  917MPD2     C13420   3.221   3.494  10.957 -0.5172 -0.0897  0.0172
  917MPD2    C113421   3.290   3.448  11.065  0.5454 -0.2472  0.3903
  917MPD2    C213422   3.405   3.517  11.102 -0.1994  0.1050  0.2084
  917MPD2    C313423   3.452   3.625  11.024 -0.1326 -0.7890 -0.5691
  917MPD2    C413424   3.380   3.672  10.917 -0.4488 -0.3751 -0.4473
  917MPD2    C513425   3.268   3.598  10.880  0.2326 -0.8817  0.1549
  917MPD2     H13426   3.470   3.482  11.182  0.3251 -1.8868 -1.0881
  917MPD2    H113427   3.415   3.751  10.852 -0.1623 -0.1078  0.0353
  917MPD2    H213428   3.126   3.449  10.932 -0.4455 -0.1833 -0.0902
  917MPD2    H313429   3.213   3.648  10.802 -1.0940  0.9346  2.2539
  917MPD2     N13430   3.569   3.695  11.059 -0.5377 -0.2794 -0.2792
  917MPD2    H513431   3.573   3.793  11.035 -0.1101 -0.9276 -2.8136
  917MPD2    N113432   3.233   3.341  11.140 -0.3130 -0.7288  0.3835
  917MPD2    H713433   3.155   3.288  11.105 -0.4352  0.9110 -1.8383
  918MPD2     C13434   3.520   2.955  12.028  0.3721 -0.0086 -0.0720
  918MPD2    C113435   3.531   3.080  11.972 -0.7546  0.0504  0.2340
  918MPD2    C213436   3.447   3.115  11.866  0.6875 -0.5650 -0.4655
  918MPD2    C313437   3.369   3.015  11.803  0.2269  0.1430 -0.3450
  918MPD2    C413438   3.372   2.888  11.858 -0.0625  0.5135  0.1633
  918MPD2    C513439   3.448   2.856  11.966 -0.0605 -0.2022 -0.9178
  918MPD2     H13440   3.436   3.217  11.833 -4.5100 -0.7483  0.8234
  918MPD2    H113441   3.311   2.810  11.814  0.0647  0.5383 -0.0618
  918MPD2    H213442   3.589   2.935  12.109 -0.6378 -1.5979  0.3948
  918MPD2    H313443   3.456   2.752  11.995  1.4104  0.2221  0.1999
  918MPD2     N13444   3.306   3.051  11.684 -0.4792 -0.2985  0.1917
  918MPD2    H513445   3.319   3.147  11.654  1.0859 -0.7744 -0.6639
  918MPD2    N113446   3.621   3.171  12.032  0.1302 -0.3855  0.3795
  918MPD2    H713447   3.675   3.141  12.113  0.0494 -0.4912  0.3939
  919MPD2     C13448   3.674   2.250  11.476  0.3135 -0.6161  0.7348
  919MPD2    C113449   3.752   2.155  11.425 -0.2696 -0.1386 -0.1575
  919MPD2    C213450   3.845   2.188  11.328 -0.4291  0.0085  0.7008
  919MPD2    C313451   3.842   2.308  11.267  0.3540  0.1512  0.2134
  919MPD2    C413452   3.764   2.408  11.317  0.2157 -0.7141 -0.0912
  919MPD2    C513453   3.679   2.371  11.420  0.2250 -0.2420 -0.1999
  919MPD2     H13454   3.903   2.107  11.285 -2.3153 -0.2643 -1.3122
  919MPD2    H113455   3.755   2.506  11.272 -0.3715 -1.2424 -1.1241
  919MPD2    H213456   3.595   2.244  11.550 -1.4214 -0.3715 -1.0767
  919MPD2    H313457   3.609   2.436  11.470  0.1151 -0.0708 -0.5749
  919MPD2     N13458   3.925   2.342  11.160  0.0341 -0.2155 -0.3452
  919MPD2    H513459   3.921   2.440  11.134  1.6014  0.0920  0.6029
  919MPD2    N113460   3.747   2.019  11.467 -0.0582  0.5163 -1.0772
  919MPD2    H713461   3.795   1.950  11.410 -0.0922 -0.4260  0.0314
  920MPD2     C13462   3.824   3.024  10.572 -0.2796  0.0431 -0.2429
  920MPD2    C113463   3.775   2.907  10.516  0.0536 -0.0805 -0.3239
  920MPD2    C213464   3.840   2.796  10.555 -0.1235 -0.1243  1.2656
  920MPD2    C313465   3.930   2.790  10.664  0.5394 -0.0214  0.3050
  920MPD2    C413466   3.965   2.908  10.727 -0.6456 -0.0999 -0.1193
  920MPD2    C513467   3.922   3.024  10.670  0.4274  0.2192 -1.2567
  920MPD2     H13468   3.820   2.704  10.501  0.2150  1.8056 -2.1603
  920MPD2    H113469   4.032   2.917  10.812 -1.0449  3.7138 -0.2116
  920MPD2    H213470   3.805   3.124  10.535 -2.3603 -0.6034 -0.9290
  920MPD2    H313471   3.959   3.116  10.714  0.4040 -0.0519 -0.6652
  920MPD2     N13472   3.987   2.667  10.704 -0.6119  0.0309  0.0327
  920MPD2    H513473   3.964   2.581  10.655 -1.0052 -0.0168  0.3000
  920MPD2    N113474   3.671   2.902  10.420 -0.0635  0.5561 -0.2250
  920MPD2    H713475   3.627   2.813  10.395  0.5523  0.6338 -1.6120
  921MPD2     C13476   4.274   1.637  16.422 -0.4593 -0.0904  0.1652
  921MPD2    C113477   4.289   1.598  16.292 -0.3794  0.2368 -0.3011
  921MPD2    C213478   4.176   1.542  16.226  0.4095 -0.1131  0.7048
  921MPD2    C313479   4.072   1.498  16.303  0.7099  0.1281  0.6126
  921MPD2    C413480   4.067   1.517  16.438 -0.8899 -0.6113 -0.0985
  921MPD2    C513481   4.168   1.602  16.499 -0.4185 -1.0375 -0.3827
  921MPD2     H13482   4.172   1.525  16.119 -1.2460  1.7215  0.4803
  921MPD2    H113483   3.984   1.498  16.505 -1.7203 -1.6483 -1.4238
  921MPD2    H213484   4.354   1.686  16.477  0.9998 -1.4666 -0.7292
  921MPD2    H313485   4.167   1.643  16.599 -1.2271  1.6806 -1.5042
  921MPD2     N13486   3.958   1.432  16.249  0.2618  0.5416  0.3877
  921MPD2    H513487   3.880   1.405  16.308  1.1730 -1.1337  0.8305
  921MPD2    N113488   4.406   1.634  16.221 -0.4321 -0.4453 -0.6499
  921MPD2    H713489   4.410   1.616  16.122  0.8359  1.2458 -0.9053
  922MPD2     C13490   0.981   4.224  16.606  0.2860  0.4956 -0.5424
  922MPD2    C113491   0.951   4.184  16.733 -0.4732 -0.8573 -0.4190
  922MPD2    C213492   0.875   4.070  16.737 -1.0741 -0.2170  0.1402
  922MPD2    C313493   0.825   3.999  16.632 -0.3080 -0.1423  0.1556
  922MPD2    C413494   0.859   4.043  16.506  0.0393 -0.9693  0.0887
  922MPD2    C513495   0.947   4.153  16.496 -0.8139 -0.0819 -0.2159
  922MPD2     H13496   0.848   4.031  16.834  1.1116 -0.9892  0.4300
  922MPD2    H113497   0.814   4.000  16.418 -0.8763  3.0552 -1.4072
  922MPD2    H213498   1.062   4.293  16.584  1.6331 -0.3259  1.8178
  922MPD2    H313499   0.984   4.184  16.399  1.0496  2.1159  1.2049
  922MPD2     N13500   0.734   3.890  16.659 -0.3012  0.2237 -0.4008
  922MPD2    H513501   0.702   3.872  16.753 -0.6537 -0.1100 -0.5821
  922MPD2    N113502   1.004   4.253  16.838  0.1525  0.4809 -0.2825
  922MPD2    H713503   0.998   4.210  16.929  0.0340  2.0299  0.4449
  923MPD2     C13504   2.572   0.503   8.719  0.6749  0.1665  0.2350
  923MPD2    C113505   2.480   0.603   8.757  1.1044 -0.3066 -0.2440
  923MPD2    C213506   2.502   0.671   8.870 -0.1985 -0.7408  0.4703
  923MPD2    C313507   2.621   0.645   8.938 -0.0596  0.3391 -0.1108
  923MPD2    C413508   2.711   0.549   8.898 -0.7548  0.0887 -1.0630
  923MPD2    C513509   2.692   0.481   8.783  0.1327  0.2180  0.0017
  923MPD2     H13510   2.433   0.746   8.906 -1.3160 -1.3250 -0.4741
  923MPD2    H113511   2.800   0.540   8.959 -0.4422  1.8687 -1.2508
  923MPD2    H213512   2.532   0.450   8.633  3.2294 -2.0947  0.4378
  923MPD2    H313513   2.770   0.414   8.746  2.3302  2.0084  1.3995
  923MPD2     N13514   2.660   0.724   9.048  0.1368  0.3200  0.6118
  923MPD2    H513515   2.747   0.696   9.091 -0.2440 -0.1658  1.0554
  923MPD2    N113516   2.369   0.614   8.675 -0.1954 -0.2351 -0.1848
  923MPD2    H713517   2.357   0.555   8.594  1.1076  1.3001 -1.5069
  924MPD2     C13518   1.896   4.286  16.080 -0.2400 -0.2707 -0.8476
  924MPD2    C113519   1.885   4.349  16.202  0.0399  0.1851  0.0216
  924MPD2    C213520   1.875   4.488  16.203 -0.3594 -0.5782 -0.1119
  924MPD2    C313521   1.886   4.563  16.093  0.2598  0.2106 -0.2768
  924MPD2    C413522   1.901   4.500  15.970 -0.3277 -0.5782 -0.4403
  924MPD2    C513523   1.911   4.362  15.965  0.1680 -0.1397  0.0236
  924MPD2     H13524   1.875   4.538  16.299 -3.6905 -0.9955  0.0832
  924MPD2    H113525   1.909   4.561  15.881  3.0658  2.2761  1.8214
  924MPD2    H213526   1.899   4.178  16.079 -1.1434 -0.2980 -0.7983
  924MPD2    H313527   1.928   4.309  15.873  0.3441  0.0765 -0.0683
  924MPD2     N13528   1.883   4.705  16.086 -0.2728 -0.6676  0.5305
  924MPD2    H513529   1.883   0.035  16.001 -0.9615  2.5983  2.5920
  924MPD2    N113530   1.886   4.271  16.321  0.5927  0.0336  0.3730
  924MPD2    H713531   1.937   4.186  16.301 -0.6838 -0.7264  0.3522
  925MPD2     C13532   0.864   1.849  14.773 -0.5654 -0.1574 -0.2480
  925MPD2    C113533   0.742   1.818  14.718 -0.1346 -0.1442  0.1338
  925MPD2    C213534   0.657   1.751  14.799  0.2553 -0.1166 -0.6255
  925MPD2    C313535   0.692   1.686  14.917  0.1586 -0.2484 -0.5268
  925MPD2    C413536   0.818   1.712  14.965  0.3040 -0.0307  0.6890
  925MPD2    C513537   0.903   1.796  14.893  0.0170 -0.0066  0.2914
  925MPD2     H13538   0.553   1.733  14.773  0.1159  0.8248 -0.7301
  925MPD2    H113539   0.846   1.667  15.059 -2.3721  0.3181  1.6500
  925MPD2    H213540   0.941   1.899  14.717 -2.2490  1.3651 -1.2010
  925MPD2    H313541   1.004   1.812  14.928 -0.0554 -0.0371  0.5149
  925MPD2     N13542   0.599   1.618  15.003 -0.2334 -0.5359  0.0197
  925MPD2    H513543   0.639   1.583  15.089  1.0960  2.8320  0.7724
  925MPD2    N113544   0.699   1.860  14.593 -0.1902 -0.0221 -0.2192
  925MPD2    H713545   0.604   1.829  14.573 -0.5896  0.4874  0.8656
  926MPD2     C13546   3.770   0.578  12.661 -0.4561 -0.6327  0.2990
  926MPD2    C113547   3.855   0.625  12.762  0.0397  0.0512  0.7909
  926MPD2    C213548   3.944   0.729  12.738 -0.3510 -0.1272 -0.5879
  926MPD2    C313549   3.923   0.808  12.625  0.1167 -0.3434  0.3662
  926MPD2    C413550   3.817   0.774  12.539  0.2855 -0.2571 -0.6761
  926MPD2    C513551   3.744   0.668  12.558 -0.3989 -0.6221  0.1467
  926MPD2     H13552   4.007   0.756  12.821 -1.5133 -0.7342  0.4911
  926MPD2    H113553   3.787   0.848  12.466 -1.1298  0.3256  0.4737
  926MPD2    H213554   3.713   0.486  12.671 -0.1720 -0.9234 -0.7957
  926MPD2    H313555   3.665   0.640  12.489  0.0218 -1.9108  0.1907
  926MPD2     N13556   4.002   0.922  12.592  0.4759 -0.5628 -0.2852
  926MPD2    H513557   3.970   0.982  12.517 -2.0226  0.4905  1.6024
  926MPD2    N113558   3.867   0.557  12.888  0.2660 -0.5017 -0.3304
  926MPD2    H713559   3.940   0.589  12.950  1.6884 -0.3886 -2.0573
  927MPD2     C13560   0.122   3.092   0.413  0.1392 -0.5136 -0.4423
  927MPD2    C113561   0.038   3.009   0.473  0.1237  0.4503 -0.2422
  927MPD2    C213562   4.674   2.937   0.389  0.2939 -0.1339 -0.1695
  927MPD2    C313563   4.693   2.934   0.254 -0.1077  0.6129 -0.4138
  927MPD2    C413564   0.053   3.026   0.194  0.0792 -0.0878 -0.5476
  927MPD2    C513565   0.138   3.095   0.274  0.1564 -0.3653  0.1985
  927MPD2     H13566   4.604   2.867   0.433  0.0795 -1.0265 -1.9546
  927MPD2    H113567   0.075   3.029   0.088  1.8026 -1.6174 -0.2466
  927MPD2    H213568   0.184   3.149   0.481  1.4502  0.6473 -2.6176
  927MPD2    H313569   0.215   3.159   0.232  0.5605 -1.0891 -0.1654
  927MPD2     N13570   4.615   2.848   0.173  0.8074 -0.3874  0.1291
  927MPD2    H513571   4.542   2.789   0.212 -0.6757 -1.0426 -3.5657
  927MPD2    N113572   0.024   3.017   0.615  0.3049  0.4994  0.7009
  927MPD2    H713573   0.093   3.066   0.670 -0.2562  2.7982 -0.6427
  928MPD2     C13574   1.605   1.582   0.082 -0.8430  0.2243  0.3754
  928MPD2    C113575   1.694   1.653   0.172  0.0617  0.4008 -0.6574
  928MPD2    C213576   1.833   1.626   0.160 -0.4529 -0.4250  1.0319
  928MPD2    C313577   1.890   1.548   0.065 -0.1884 -0.2045 -0.7490
  928MPD2    C413578   1.806   1.491  17.676 -0.0151  0.6556  0.1659
  928MPD2    C513579   1.669   1.500  17.686  0.0157 -0.0274  0.3426
  928MPD2     H13580   1.900   1.677   0.228  0.6610  1.0627 -1.1766
  928MPD2    H113581   1.841   1.431  17.592 -0.6622 -0.2268  0.5329
  928MPD2    H213582   1.499   1.595   0.100 -0.5795  1.9904  0.6658
  928MPD2    H313583   1.606   1.455  17.610  1.3232 -0.1899 -0.6395
  928MPD2     N13584   2.033   1.519   0.061  0.2840 -0.7450  0.1513
  928MPD2    H513585   2.062   1.458  17.683  1.2897 -1.9567  1.5238
  928MPD2    N113586   1.639   1.734   0.281  0.3364  0.0785  0.0114
  928MPD2    H713587   1.538   1.732   0.285  0.4099  0.7151  2.2422
  929MPD2     C13588   2.642   1.195  10.119  0.4132 -0.2390  0.5895
  929MPD2    C113589   2.551   1.099  10.097  0.0309  0.2746 -0.2383
  929MPD2    C213590   2.446   1.109  10.001 -0.6649  0.4975 -1.1477
  929MPD2    C313591   2.453   1.221   9.917  0.6903 -0.0361  0.0933
  929MPD2    C413592   2.537   1.320   9.947  0.6459  0.0607  0.3493
  929MPD2    C513593   2.631   1.310  10.050 -0.3123 -0.2029 -0.0385
  929MPD2     H13594   2.383   1.025   9.974  1.2145 -1.0772 -0.6958
  929MPD2    H113595   2.536   1.414   9.892  1.0737  1.2012  2.2874
  929MPD2    H213596   2.716   1.181  10.196  1.8843  1.1756 -0.5490
  929MPD2    H313597   2.698   1.393  10.071 -1.0785  0.7390 -1.3452
  929MPD2     N13598   2.365   1.237   9.803 -0.3772  0.3862 -0.0425
  929MPD2    H513599   2.374   1.326   9.754  1.6813 -0.2156 -0.7666
  929MPD2    N113600   2.547   0.993  10.184  0.0685 -0.0171  0.2596
  929MPD2    H713601   2.621   0.989  10.254  1.4425  2.7179 -1.0238
  930MPD2     C13602   3.807   3.524  14.025 -0.5376  0.3762 -0.1488
  930MPD2    C113603   3.699   3.589  13.978 -0.1149 -0.2864  0.1816
  930MPD2    C213604   3.582   3.527  13.949  0.1183 -0.7840  0.0533
  930MPD2    C313605   3.573   3.389  13.963  0.2964  0.3798  0.1629
  930MPD2    C413606   3.675   3.326  14.026  0.0240  0.5323  0.0875
  930MPD2    C513607   3.792   3.389  14.047  0.6310  0.3651  0.4137
  930MPD2     H13608   3.497   3.585  13.914  1.3724  0.6151 -0.7012
  930MPD2    H113609   3.665   3.222  14.056  1.3741  0.2575 -0.3953
  930MPD2    H213610   3.895   3.582  14.051 -0.1831  0.1094 -0.7456
  930MPD2    H313611   3.878   3.335  14.086  2.7067  1.8847 -2.0645
  930MPD2     N13612   3.456   3.310  13.924  0.4974  0.1384  0.6017
  930MPD2    H513613   3.472   3.211  13.941  2.9749  0.7885  2.0830
  930MPD2    N113614   3.709   3.727  13.952  0.4645 -0.5905 -0.0137
  930MPD2    H713615   3.807   3.753  13.958  0.0512  1.1073 -0.8246
  931MPD2     C13616   4.470   2.816   1.497  0.4475  0.2704  0.2214
  931MPD2    C113617   4.469   2.775   1.367  0.3137 -0.8395 -0.4260
  931MPD2    C213618   4.380   2.668   1.342 -0.5326 -0.4988 -0.7633
  931MPD2    C313619   4.294   2.612   1.441  0.4180  0.0811  0.4610
  931MPD2    C413620   4.312   2.659   1.570  0.0542  0.4790 -0.3680
  931MPD2    C513621   4.402   2.756   1.599  0.4657  0.5012  0.5352
  931MPD2     H13622   4.358   2.640   1.240  2.0573  1.7798 -1.9228
  931MPD2    H113623   4.260   2.612   1.653 -0.8340  0.7373 -0.7745
  931MPD2    H213624   4.533   2.898   1.530  0.3526  0.0966  0.8342
  931MPD2    H313625   4.409   2.798   1.699 -2.9285  1.4023  0.4028
  931MPD2     N13626   4.210   2.508   1.423 -0.9324 -0.3595  0.0663
  931MPD2    H513627   4.159   2.470   1.502  1.7870 -0.5172  1.7599
  931MPD2    N113628   4.533   2.844   1.262 -0.2320  0.4873 -0.6406
  931MPD2    H713629   4.583   2.927   1.291  1.0518  0.2648 -2.1811
  932MPD2     C13630   0.655   1.805  10.863  0.0508 -0.4054 -0.1406
  932MPD2    C113631   0.753   1.890  10.923 -0.3064  0.0561  0.6423
  932MPD2    C213632   0.799   1.860  11.051  0.2503  0.5013 -0.1740
  932MPD2    C313633   0.744   1.750  11.122  0.2431 -0.0671  0.4233
  932MPD2    C413634   0.644   1.674  11.069 -0.8004  0.6189 -0.2080
  932MPD2    C513635   0.603   1.709  10.939 -0.0716 -0.5863 -0.2196
  932MPD2     H13636   0.870   1.929  11.095 -0.3202  0.2891  1.0920
  932MPD2    H113637   0.587   1.597  11.120  1.1015 -1.8370 -1.8008
  932MPD2    H213638   0.606   1.818  10.767 -2.9238 -2.1764  1.1475
  932MPD2    H313639   0.527   1.652  10.887  1.0752 -1.9348 -0.4203
  932MPD2     N13640   0.785   1.708  11.251  0.1309 -0.0493 -0.3650
  932MPD2    H513641   0.734   1.631  11.293  0.2551  0.3875  0.5687
  932MPD2    N113642   0.794   2.006  10.858 -0.1390  0.8940  0.0929
  932MPD2    H713643   0.862   2.065  10.905 -1.5890  0.1335  3.1379
  933MPD2     C13644   0.987   1.969   0.670  0.2537 -0.4570 -0.3262
  933MPD2    C113645   1.101   2.040   0.643  0.4771  0.9783 -0.0413
  933MPD2    C213646   1.119   2.176   0.683 -0.2901 -0.4250 -0.1568
  933MPD2    C313647   1.006   2.237   0.738  0.4110  0.6269  0.4800
  933MPD2    C413648   0.886   2.168   0.753  0.1771 -0.0539  0.0938
  933MPD2    C513649   0.877   2.037   0.722 -0.9142 -0.3520  0.5350
  933MPD2     H13650   1.210   2.231   0.663 -0.9940  0.2340 -1.5639
  933MPD2    H113651   0.810   2.221   0.810  0.8525 -0.3161  1.2460
  933MPD2    H213652   0.963   1.866   0.643 -2.3152  0.6686 -2.3956
  933MPD2    H313653   0.793   1.985   0.766 -1.6383 -0.3870 -0.8855
  933MPD2     N13654   1.021   2.371   0.775 -0.4330 -0.5003 -0.3524
  933MPD2    H513655   1.114   2.412   0.767 -0.8862  1.0952  2.3744
  933MPD2    N113656   1.205   1.966   0.589  0.2432 -0.4279 -0.0679
  933MPD2    H713657   1.195   1.865   0.583 -1.5105 -0.1624 -1.7031
  934MPD2     C13658   2.936   3.163   1.998  0.9167  0.5778 -0.4681
  934MPD2    C113659   3.043   3.159   1.907 -0.7263 -0.2727  0.4095
  934MPD2    C213660   3.007   3.144   1.770  0.3726 -0.0749  0.3552
  934MPD2    C313661   2.877   3.142   1.727 -0.9925  0.4033 -0.5742
  934MPD2    C413662   2.780   3.173   1.824 -0.0339 -0.6103 -0.4174
  934MPD2    C513663   2.807   3.175   1.957  0.3604  0.7218  0.8143
  934MPD2     H13664   3.078   3.129   1.689 -0.2142 -2.5157  0.2767
  934MPD2    H113665   2.675   3.179   1.797  0.0134 -0.5227 -0.5814
  934MPD2    H213666   2.959   3.176   2.103  1.4323 -0.2641 -0.4699
  934MPD2    H313667   2.721   3.183   2.022 -1.3549 -0.9905 -1.2676
  934MPD2     N13668   2.833   3.108   1.596 -0.1656  0.0909  0.4553
  934MPD2    H513669   2.734   3.105   1.578 -0.7116 -1.8386  3.8606
  934MPD2    N113670   3.178   3.170   1.940  0.2622 -0.0186 -0.1078
  934MPD2    H713671   3.242   3.164   1.862 -1.2518  2.8715 -1.5828
  935MPD2     C13672   3.253   2.507   0.907 -0.2014 -0.1486 -0.3296
  935MPD2    C113673   3.144   2.552   0.842  0.8064 -0.3652 -0.6581
  935MPD2    C213674   3.065   2.641   0.912  0.1458 -0.2606  0.3701
  935MPD2    C313675   3.098   2.682   1.038 -0.4075 -0.5469  1.1170
  935MPD2    C413676   3.215   2.642   1.094  0.3203 -0.0030 -0.0057
  935MPD2    C513677   3.292   2.555   1.025 -0.5051 -0.9696 -0.0939
  935MPD2     H13678   2.982   2.690   0.864  0.0894 -0.6216  0.0963
  935MPD2    H113679   3.249   2.679   1.190 -1.2813  0.7493  0.2832
  935MPD2    H213680   3.322   2.446   0.849  0.8997  1.3522 -0.5997
  935MPD2    H313681   3.393   2.531   1.057  0.5733  0.0051 -2.8016
  935MPD2     N13682   3.016   2.774   1.112  0.0951  0.4880 -0.8065
  935MPD2    H513683   3.050   2.792   1.206 -1.0570 -0.7062 -0.1517
  935MPD2    N113684   3.102   2.500   0.715 -1.0540 -0.5769  0.6413
  935MPD2    H713685   3.025   2.548   0.669  0.5738 -1.2313 -2.7098
  936MPD2     C13686   1.329   1.271  12.113 -0.1039 -0.2695  0.3771
  936MPD2    C113687   1.401   1.218  12.215 -0.1848 -0.6063 -0.2302
  936MPD2    C213688   1.511   1.281  12.251 -0.0415  0.1562 -0.6247
  936MPD2    C313689   1.548   1.402  12.206 -0.1888  0.4356 -0.0372
  936MPD2    C413690   1.460   1.467  12.122  0.3204  0.2649 -0.4158
  936MPD2    C513691   1.351   1.402  12.075  0.1088  0.3619 -0.2116
  936MPD2     H13692   1.576   1.245  12.330 -0.3558  1.7932  0.3665
  936MPD2    H113693   1.487   1.567  12.089  1.4247  0.1388  0.0963
  936MPD2    H213694   1.258   1.219  12.051  2.4308 -0.6801 -2.1975
  936MPD2    H313695   1.288   1.451  12.002 -2.2201 -1.1584  0.7863
  936MPD2     N13696   1.659   1.464  12.267  0.2685 -0.3370 -0.2802
  936MPD2    H513697   1.699   1.398  12.332  1.6529  0.5544 -0.2179
  936MPD2    N113698   1.380   1.088  12.260  0.7070  0.5407  0.1145
  936MPD2    H713699   1.452   1.062  12.326 -0.5504  1.1353  1.7527
  937MPD2     C13700   4.011   1.402  11.265  0.1030 -0.4419  0.2971
  937MPD2    C113701   4.021   1.535  11.311  0.0315 -0.2804  0.0799
  937MPD2    C213702   4.110   1.616  11.250 -0.0342  1.0014  0.5371
  937MPD2    C313703   4.197   1.569  11.148  0.3710  1.0260  0.0558
  937MPD2    C413704   4.189   1.431  11.115  0.3197 -0.1840 -0.4377
  937MPD2    C513705   4.093   1.348  11.173  0.1172  0.0646 -0.8271
  937MPD2     H13706   4.109   1.721  11.278  1.5144  0.4944  2.4649
  937MPD2    H113707   4.249   1.390  11.035 -1.1553 -0.8809 -1.1934
  937MPD2    H213708   3.939   1.331  11.304 -1.0475 -1.0320 -2.9456
  937MPD2    H313709   4.093   1.247  11.134 -0.3277 -0.9046  1.6759
  937MPD2     N13710   4.281   1.661  11.086 -1.0335 -0.0412 -0.7041
  937MPD2    H513711   4.289   1.751  11.132  2.1415 -0.0465 -1.2357
  937MPD2    N113712   3.916   1.600  11.387 -0.6403 -0.4815 -0.0377
  937MPD2    H713713   3.920   1.700  11.404  2.1997 -0.0313 -3.4248
  938MPD2     C13714   1.788   3.408   0.594 -0.6016  0.7462 -0.0906
  938MPD2    C113715   1.878   3.306   0.600  0.6543 -0.4185 -0.2561
  938MPD2    C213716   1.889   3.231   0.716 -0.9212  0.2772  0.6045
  938MPD2    C313717   1.799   3.254   0.817  0.2193 -0.1178  0.2958
  938MPD2    C413718   1.712   3.364   0.809  0.1923  0.8720  0.9148
  938MPD2    C513719   1.712   3.444   0.698 -0.1777  0.2868  0.5521
  938MPD2     H13720   1.963   3.152   0.720  0.0363  1.1591  0.3019
  938MPD2    H113721   1.652   3.398   0.893  0.6753  2.1382  0.7376
  938MPD2    H213722   1.776   3.470   0.505 -0.8991  1.5833  0.5255
  938MPD2    H313723   1.652   3.534   0.696  0.2032  0.5025 -0.7403
  938MPD2     N13724   1.785   3.168   0.931  0.0085 -0.1696  0.6749
  938MPD2    H513725   1.718   3.194   1.003  0.9583 -1.3494  1.9627
  938MPD2    N113726   1.969   3.277   0.496  0.1355  0.3285 -0.2376
  938MPD2    H713727   2.034   3.200   0.508  0.0380  0.2063 -0.4895
  939MPD2     C13728   3.491   3.594   1.350 -0.1577 -0.3954 -0.1706
  939MPD2    C113729   3.469   3.709   1.286  0.0231 -0.2732 -0.8687
  939MPD2    C213730   3.499   3.719   1.151 -0.8033 -0.4060 -1.0260
  939MPD2    C313731   3.550   3.606   1.088 -0.0031  1.0454  0.4428
  939MPD2    C413732   3.561   3.483   1.158  0.2820  0.6220 -0.1476
  939MPD2    C513733   3.519   3.482   1.289 -0.4686  0.3095 -0.1530
  939MPD2     H13734   3.489   3.806   1.087  0.2958 -0.1390 -0.8329
  939MPD2    H113735   3.596   3.394   1.108 -2.3527  0.6927 -2.1592
  939MPD2    H213736   3.476   3.578   1.457 -0.0297  0.9289  0.0435
  939MPD2    H313737   3.525   3.392   1.348 -0.3498  0.8217  0.6112
  939MPD2     N13738   3.580   3.623   0.949 -0.2893 -0.0403 -0.0289
  939MPD2    H513739   3.547   3.708   0.904 -0.2358  1.1295  2.1071
  939MPD2    N113740   3.429   3.823   1.365 -0.0187  0.0297 -0.0487
  939MPD2    H713741   3.418   3.810   1.465 -1.2479  0.8273 -0.0823
  940MPD2     C13742   1.896   0.254  13.047  0.1980 -0.2746 -0.2588
  940MPD2    C113743   2.026   0.243  13.078  0.0008 -0.6540 -0.0805
  940MPD2    C213744   2.122   0.273  12.985 -0.2241 -0.0016 -0.1917
  940MPD2    C313745   2.085   0.305  12.849  1.0086  0.2561 -0.9868
  940MPD2    C413746   1.951   0.314  12.821 -0.0580  0.3332  0.0885
  940MPD2    C513747   1.862   0.291  12.923  0.4040  1.0423 -0.3264
  940MPD2     H13748   2.227   0.267  13.009  0.2017  1.3480 -1.6991
  940MPD2    H113749   1.910   0.330  12.723  0.0914 -0.5006 -0.1116
  940MPD2    H213750   1.817   0.246  13.122  0.2272 -1.5656 -0.3668
  940MPD2    H313751   1.756   0.310  12.906 -0.1595 -1.4614  0.4344
  940MPD2     N13752   2.178   0.355  12.751  0.2949 -0.1281 -0.0974
  940MPD2    H513753   2.138   0.403  12.671 -2.4952 -1.3559  0.5669
  940MPD2    N113754   2.063   0.214  13.213 -0.9214  0.2031  0.0166
  940MPD2    H713755   2.163   0.210  13.231 -1.2026 -0.4585  1.3575
  941MPD2     C13756   1.535   3.683   8.975  0.1015  0.4356  0.1484
  941MPD2    C113757   1.537   3.667   9.115 -0.0648  0.1126  0.2491
  941MPD2    C213758   1.445   3.583   9.172  0.3738 -0.7399 -0.4482
  941MPD2    C313759   1.359   3.503   9.089  0.1876 -0.3037  0.1062
  941MPD2    C413760   1.365   3.521   8.957  0.2542 -0.0123  0.2496
  941MPD2    C513761   1.446   3.615   8.901  1.1657  0.0804 -0.0549
  941MPD2     H13762   1.435   3.575   9.279 -2.9738  1.3299 -0.6087
  941MPD2    H113763   1.307   3.460   8.889  1.4836  0.1085 -0.9275
  941MPD2    H213764   1.604   3.744   8.920  0.1804 -0.2239 -0.4841
  941MPD2    H313765   1.449   3.631   8.794  2.4442  2.3077  0.3041
  941MPD2     N13766   1.280   3.397   9.126  0.0728 -0.3678  0.2700
  941MPD2    H513767   1.234   3.338   9.058  0.5412 -0.7350  0.2707
  941MPD2    N113768   1.630   3.734   9.192 -0.1892  0.2653  0.7071
  941MPD2    H713769   1.628   3.702   9.289 -0.2443 -0.4156  0.4826
  942MPD2     C13770   1.648   0.595   8.609  0.2941  0.5847 -0.3093
  942MPD2    C113771   1.742   0.545   8.699 -0.6824  0.4682 -0.2119
  942MPD2    C213772   1.818   0.632   8.768 -0.3291 -0.4295 -0.3437
  942MPD2    C313773   1.811   0.768   8.749 -0.2843 -0.2233  0.1586
  942MPD2    C413774   1.724   0.821   8.653  0.1650  0.0449  0.4805
  942MPD2    C513775   1.647   0.733   8.583  0.0347  0.0094 -1.1938
  942MPD2     H13776   1.885   0.591   8.843 -0.7153 -1.7352 -0.7094
  942MPD2    H113777   1.725   0.929   8.640 -0.9043 -0.2495 -2.0512
  942MPD2    H213778   1.578   0.538   8.549  0.3065  1.4063 -1.1018
  942MPD2    H313779   1.566   0.760   8.516  0.0013  0.7005 -0.8762
  942MPD2     N13780   1.888   0.863   8.820  0.3364 -0.7029  0.2711
  942MPD2    H513781   1.879   0.959   8.787  0.0147 -1.1221 -0.8496
  942MPD2    N113782   1.766   0.408   8.722  0.4614 -0.4072 -0.6749
  942MPD2    H713783   1.844   0.380   8.780  0.1352  1.8626  0.8559
  943MPD2     C13784   4.706   4.516   9.433  0.1526 -0.7438 -0.0237
  943MPD2    C113785   4.709   4.436   9.542  0.7686  0.0645 -0.3377
  943MPD2    C213786   0.055   4.477   9.656 -0.4484  0.7146  0.0453
  943MPD2    C313787   0.129   4.591   9.662  0.3388 -0.5239  0.0071
  943MPD2    C413788   0.126   4.679   9.548  0.0992  0.6201  0.1401
  943MPD2    C513789   0.062   4.635   9.434 -0.0303 -0.7396  0.7335
  943MPD2     H13790   0.033   4.423   9.748 -1.2065 -1.7257 -1.5666
  943MPD2    H113791   0.173   0.052   9.545  1.7285 -0.2417 -1.8909
  943MPD2    H213792   4.647   4.491   9.345 -0.4272 -0.8711  0.3971
  943MPD2    H313793   0.058   4.700   9.347  0.7412 -0.2889  1.0404
  943MPD2     N13794   0.198   4.630   9.780  0.6555  0.5051 -0.2765
  943MPD2    H513795   0.238   4.724   9.776  0.8470  0.3672 -1.7310
  943MPD2    N113796   4.648   4.311   9.531 -0.3139  0.1381 -0.2592
  943MPD2    H713797   4.598   4.287   9.446 -4.1888 -0.5787  2.1891
  944MPD2     C13798   0.337   3.793  10.878  0.3003  0.2622 -0.4684
  944MPD2    C113799   0.286   3.669  10.842  0.1508 -0.3319  0.2677
  944MPD2    C213800   0.203   3.613  10.931 -0.7342  0.2652 -0.3936
  944MPD2    C313801   0.178   3.669  11.057 -0.5428 -0.6184 -0.0383
  944MPD2    C413802   0.221   3.793  11.091 -0.4732  0.5359 -0.2532
  944MPD2    C513803   0.299   3.856  10.997  1.1116  0.2974  0.2222
  944MPD2     H13804   0.152   3.518  10.916 -0.2878  0.0887 -0.7758
  944MPD2    H113805   0.186   3.842  11.181  1.6745 -0.8949  1.3767
  944MPD2    H213806   0.409   3.853  10.823 -0.8889  0.0560 -2.2455
  944MPD2    H313807   0.345   3.953  11.015 -0.9219  1.7036 -2.1459
  944MPD2     N13808   0.091   3.591  11.143  0.3679  0.4854  0.4195
  944MPD2    H513809   0.064   3.503  11.101  0.5681  0.7781 -0.3223
  944MPD2    N113810   0.312   3.609  10.711 -0.2557 -0.2615  0.1658
  944MPD2    H713811   0.381   3.657  10.654 -2.8886  1.9617 -1.1217
    1TCq1    O113812   3.198   4.115  14.345  0.8629  0.8999 -0.1238
    1TCq1    C113813   3.150   4.065  14.460  0.5826 -0.5320 -0.0638
    1TCq1    O213814   3.171   3.952  14.491 -0.0191  0.3377  0.0867
    1TCq1    C213815   3.024   4.130  14.463  0.0481  0.0127 -0.4069
    1TCq1    C313816   2.917   4.092  14.382 -0.1217 -0.7289  0.5999
    1TCq1    C413817   2.805   4.167  14.383  0.1368 -0.4706 -0.1018
    1TCq1    C513818   2.797   4.284  14.454 -0.1053 -0.3371 -0.6189
    1TCq1    C613819   2.904   4.316  14.533  0.5515 -0.0260 -0.0140
    1TCq1    C713820   3.014   4.239  14.545 -0.5305 -0.4295  0.6256
    1TCq1    C813821   2.907   4.443  14.609 -0.2098  0.3097  0.6785
    1TCq1    O413822   3.007   4.472  14.677  0.2669  0.0571  0.1597
    1TCq1    C913823   2.692   4.125  14.306 -0.0206 -0.6248 -0.9802
    1TCq1    O513824   2.717   4.033  14.217  0.0694 -0.7245  0.9610
    1TCq1    O613825   2.587   4.197  14.315 -0.2074 -0.4519 -0.5699
    1TCq1    H113826   3.191   4.213  14.343 -0.7993  0.8271  2.4020
    1TCq1    H213827   2.923   4.002  14.322 -3.1258 -1.3125  1.2124
    1TCq1    H313828   2.708   4.345  14.449  0.0646 -0.1829 -1.9291
    1TCq1    H413829   3.096   4.275  14.606  0.0548  0.3163 -0.5942
    2MPD2     C13830   2.811   0.217  14.671 -0.6385  0.0282  0.4999
    2MPD2    C113831   2.707   0.165  14.589 -1.1043 -0.1755  1.4413
    2MPD2    C213832   2.712   0.030  14.558 -0.3296 -0.5409 -0.9223
    2MPD2    C313833   2.807   4.674  14.611  0.6808 -0.0445  0.0420
    2MPD2    C413834   2.894   0.001  14.705 -0.7649 -0.1053 -0.1409
    2MPD2    C513835   2.903   0.135  14.726  0.0811  0.2121  0.1780
    2MPD2     H13836   2.642   4.707  14.490 -0.7031 -0.5486 -0.5350
    2MPD2    H113837   2.966   4.666  14.759 -1.3347 -0.8968 -0.2525
    2MPD2    H213838   2.811   0.319  14.708  2.2366  0.1543  0.0795
    2MPD2    H313839   2.976   0.169  14.799  1.9855 -1.2354 -1.0645
    2MPD2     N13840   2.817   4.540  14.563  0.6090  0.2004  0.1645
    2MPD2    H513841   2.738   4.516  14.505 -0.2460  0.0688  1.3995
    2MPD2    N113842   2.602   0.251  14.539  0.3222  0.4823 -0.3065
    2MPD2    H713843   2.619   0.350  14.555  1.5775 -0.1299  2.0598
    3TMC2    C113844   2.411   0.300  14.399  0.4796 -1.0953  0.1288
    3TMC2    C213845   2.298   0.240  14.339 -0.2810 -0.2123  0.3190
    3TMC2    C313846   2.269   0.282  14.212  0.2629  0.4448 -0.5352
    3TMC2    C413847   2.481   0.406  14.344 -0.0093  0.6442  0.5946
    3TMC2    C513848   2.435   0.455  14.223 -0.5748  0.2347  0.0326
    3TMC2    C613849   2.325   0.396  14.160 -0.1916 -0.0256 -0.2743
    3TMC2     C13850   2.488   0.202  14.470  0.0811 -0.3444  0.3148
    3TMC2     O13851   2.454   0.086  14.452 -0.0421 -0.1554 -0.3657
    3TMC2     H13852   2.248   0.150  14.374  3.0428 -2.7131 -1.3550
    3TMC2    H113853   2.570   0.447  14.389 -1.4069  1.7750  2.3243
    3TMC2    H213854   2.295   0.421  14.059  2.3503  1.5356 -0.6544
    3TMC2    C713855   2.483   0.583  14.177  0.2313  0.2402 -0.4367
    3TMC2    C813856   2.159   0.236  14.141  0.7041 -0.6386  0.0065
    3TMC2    O113857   2.600   0.615  14.197  0.5453  0.0364 -0.6457
    3TMC2    O213858   2.105   0.297  14.047  0.0451  0.1056  0.2247
    3TMC2    O513859   2.166   0.095  14.141 -0.6167 -0.3552 -0.2527
    3TMC2    H513860   2.249   0.058  14.179 -0.8974 -0.5054  0.2099
    4MPD2     C13861   1.234   0.651  13.276  0.3365 -0.3362 -0.1755
    4MPD2    C113862   1.318   0.713  13.182 -0.1525 -0.4299 -0.2731
    4MPD2    C213863   1.455   0.725  13.220 -0.5975 -0.2318 -0.7049
    4MPD2    C313864   1.489   0.707  13.353 -0.5790  0.3177 -0.1800
    4MPD2    C413865   1.402   0.644  13.444 -0.1227 -0.2540  0.2287
    4MPD2    C513866   1.278   0.605  13.401 -0.7686 -0.1336 -0.3424
    4MPD2     H13867   1.525   0.773  13.153 -1.6505  1.7000 -0.4005
    4MPD2    H113868   1.431   0.621  13.546 -2.7260  0.5310  1.1490
    4MPD2    H213869   1.127   0.640  13.268  0.6903 -3.5812 -0.2646
    4MPD2    H313870   1.216   0.550  13.471 -1.3453 -1.0461 -1.5578
    4MPD2     N13871   1.604   0.771  13.402  0.2829  0.3243 -0.3497
    4MPD2    H513872   1.657   0.822  13.332 -1.8168  0.3880 -1.9167
    4MPD2    N113873   1.263   0.755  13.059  0.3898  0.3026 -0.3062
    4MPD2    H713874   1.169   0.724  13.033 -0.2821  1.2596  0.9663
    5TCq2    C113875   1.647   0.787  13.533 -0.2891  0.2048  0.0776
    5TCq2    O213876   1.591   0.746  13.634 -0.8716  0.6978  0.4587
    5TCq2    C213877   1.773   0.859  13.547 -0.2915  0.3032 -0.5613
    5TCq2    C313878   1.828   0.910  13.432 -0.0454  0.3008 -0.4051
    5TCq2    C413879   1.959   0.942  13.427  0.7101  0.2797 -0.8740
    5TCq2    C513880   2.035   0.917  13.534 -0.0937  0.2114 -0.4974
    5TCq2    C613881   1.982   0.864  13.645  0.3694  0.5902  0.9699
    5TCq2    C713882   1.850   0.826  13.653  0.8470 -0.7441 -0.1401
    5TCq2    C813883   2.068   0.836  13.756  0.2004 -0.4477 -0.1567
    5TCq2    O413884   2.028   0.746  13.831 -0.6106 -0.5134  0.6313
    5TCq2    C913885   2.017   0.994  13.308 -0.2086  0.2249  0.6432
    5TCq2    O513886   1.950   0.989  13.205  0.2838 -0.2228 -0.5772
    5TCq2    O613887   2.131   1.049  13.325  0.3374  0.5332 -0.3505
    5TCq2    H213888   1.759   0.935  13.352  0.4306  1.1650 -0.5458
    5TCq2    H313889   2.142   0.927  13.519  0.3411 -0.9646  1.8276
    5TCq2    H413890   1.809   0.771  13.737  0.5378  0.7746  0.7050
    6MPD1     C13891   0.623   2.481  13.231 -0.2819 -0.0136 -0.4788
    6MPD1    C113892   0.714   2.509  13.129 -0.6828 -0.1426 -0.1076
    6MPD1    C213893   0.764   2.401  13.061  0.3843  0.4479 -0.2384
    6MPD1    C313894   0.741   2.272  13.102 -0.0123  0.5567  0.3698
    6MPD1    C413895   0.661   2.249  13.218  0.2796 -0.5529  0.5726
    6MPD1    C513896   0.602   2.354  13.274  0.1414 -0.1383 -0.2541
    6MPD1     H13897   0.818   2.420  12.969 -1.9773 -1.2391 -1.9714
    6MPD1    H113898   0.632   2.152  13.254  2.1792 -1.1456  0.4859
    6MPD1    H213899   0.566   2.561  13.278 -0.2202  0.0036 -0.4328
    6MPD1    H313900   0.524   2.331  13.346  0.0860 -0.9594 -0.5697
    6MPD1     N13901   0.797   2.156  13.044  0.1262  0.2882  0.7448
    6MPD1    H513902   0.780   2.068  13.092  0.3327 -0.6281 -0.8711
    6MPD1    N113903   0.737   2.641  13.089  0.1330  0.5406  0.2540
    6MPD1    H613904   0.710   2.702  13.166  0.5293  2.0595 -0.8029
    6MPD1    H713905   0.826   2.654  13.041 -0.1881 -1.9627 -1.0397
    7MPD2     C13906   0.597   1.422  12.904 -0.2541  0.3649  0.2027
    7MPD2    C113907   0.731   1.451  12.888  0.1264 -0.3099 -0.2075
    7MPD2    C213908   0.819   1.346  12.866  0.2748 -0.9258 -0.2675
    7MPD2    C313909   0.774   1.218  12.857 -0.4231  0.4746  0.3493
    7MPD2    C413910   0.641   1.190  12.866  0.1224  0.3073 -0.3571
    7MPD2    C513911   0.558   1.292  12.896 -0.3213 -0.3678 -0.1526
    7MPD2     H13912   0.924   1.372  12.859 -0.2927  1.6725  0.8374
    7MPD2    H113913   0.600   1.090  12.864 -1.2907  0.8850 -0.0737
    7MPD2    H213914   0.521   1.497  12.925 -0.6527  0.2825 -0.9179
    7MPD2    H313915   0.453   1.274  12.918 -0.8485  1.4093 -1.2410
    7MPD2     N13916   0.861   1.104  12.831 -0.0568 -0.1896 -0.3068
    7MPD2    H513917   0.817   1.017  12.804 -0.9341 -0.5304  2.2494
    7MPD2    N113918   0.789   1.579  12.880 -0.0178  0.2850 -0.1818
    7MPD2    H713919   0.889   1.578  12.860  0.2133  1.5442  0.8984
    8TMC3    C113920   1.062   1.005  12.754 -0.0618 -0.0463 -0.1861
    8TMC3    C213921   1.116   0.922  12.855 -0.0006 -0.7275  0.4520
    8TMC3    C313922   1.251   0.896  12.861  0.9563 -0.6690  0.5078
    8TMC3    C413923   1.147   1.060  12.660  0.1535 -0.0812  0.1836
    8TMC3    C513924   1.280   1.036  12.669  0.2354 -0.1571 -0.3527
    8TMC3    C613925   1.330   0.957  12.765  1.0034 -0.1085  0.1988
    8TMC3     C13926   0.997   1.112  12.823 -0.2486  0.2270 -0.5499
    8TMC3     O13927   1.073   1.196  12.865  0.0157 -0.1707  0.0783
    8TMC3     H13928   1.058   0.881  12.936  2.3158 -2.8332  1.0421
    8TMC3    H113929   1.107   1.123  12.580  1.8918 -0.2713 -0.8474
    8TMC3    H213930   1.439   0.950  12.767  1.0553  0.6474 -0.0351
    8TMC3    C713931   1.357   1.150  12.631  0.1361  0.6538  0.5181
    8TMC3    C813932   1.325   0.840  12.969  0.0316 -0.6016  0.6773
    8TMC3    O113933   1.445   1.124  12.557  0.3066 -0.1298 -0.0270
    8TMC3    O213934   1.434   0.897  12.982  0.0734  0.0247  0.6009
    9TMC3    C113935   0.892   2.026  12.884 -0.3448 -0.8171 -0.4034
    9TMC3    C213936   1.001   2.010  12.795 -0.6783 -0.2983  0.3341
    9TMC3    C313937   1.015   1.886  12.741 -0.4423  0.2246 -0.0116
    9TMC3    C413938   0.800   1.931  12.915  0.5024  0.3698  0.0372
    9TMC3    C513939   0.818   1.807  12.856 -0.4336 -0.2258 -0.2707
    9TMC3    C613940   0.924   1.788  12.769  0.5425  0.8795 -0.4881
    9TMC3     C13941   0.885   2.159  12.942  0.4962  0.8196  0.5900
    9TMC3     O13942   0.942   2.250  12.885  0.0716 -0.2915  0.0815
    9TMC3     H13943   1.077   2.084  12.773 -1.3030  1.1213  2.9454
    9TMC3    H113944   0.716   1.940  12.983 -0.6205  1.7014 -1.5084
    9TMC3    H213945   0.927   1.692  12.717  0.4259  0.1562  0.8443
    9TMC3    C713946   0.722   1.697  12.873  0.1159 -0.0153  0.6160
    9TMC3    C813947   1.133   1.847  12.674 -0.0897  0.0957 -0.3341
    9TMC3    O113948   0.607   1.718  12.904 -0.2925 -0.5826 -0.3350
    9TMC3    O213949   1.179   1.927  12.597 -0.0364  0.1917 -0.0956
   10MPD2     C13950   1.415   1.441  12.524 -0.4143 -0.2436  0.1113
   10MPD2    C113951   1.315   1.395  12.619  0.4148 -0.6308  0.5119
   10MPD2    C213952   1.236   1.493  12.676 -0.2271  0.9656  0.4814
   10MPD2    C313953   1.240   1.625  12.632  0.3415  0.2028 -0.1150
   10MPD2    C413954   1.330   1.659  12.531 -0.3276 -0.4841  0.2994
   10MPD2    C513955   1.421   1.567  12.483 -0.3762  0.0880 -0.0645
   10MPD2     H13956   1.173   1.460  12.758 -0.6146 -0.5830 -0.4313
   10MPD2    H113957   1.335   1.760  12.492 -0.8870 -0.3746  0.5240
   10MPD2    H213958   1.479   1.363  12.484 -0.7469 -0.0567 -0.7853
   10MPD2    H313959   1.489   1.605  12.408 -1.7240  2.7050  0.0345
   10MPD2     N13960   1.158   1.714  12.703 -0.4966 -0.0514  0.0097
   10MPD2    H513961   1.109   1.667  12.779 -1.4988  0.0894 -0.5505
   10MPD2    N113962   1.285   1.262  12.659 -0.6329  0.4315  0.5173
   10MPD2    H713963   1.204   1.250  12.718 -0.8402 -1.4975 -0.1830
   11MPD2     C13964   2.520   0.824  13.988  1.2135  0.5403  0.0171
   11MPD2    C113965   2.409   0.743  14.005 -0.4318  0.0390 -0.5623
   11MPD2    C213966   2.302   0.766  13.926  0.0089 -0.2603 -0.7281
   11MPD2    C313967   2.298   0.870  13.831 -0.4134  0.4355 -0.2489
   11MPD2    C413968   2.413   0.934  13.803 -0.1756 -0.0359  0.2917
   11MPD2    C513969   2.523   0.913  13.883  0.1692 -0.3449 -0.4582
   11MPD2     H13970   2.226   0.689  13.936  1.8554 -1.8029  1.3934
   11MPD2    H113971   2.414   1.004  13.720  0.7053  0.8739  1.0669
   11MPD2    H213972   2.615   0.807  14.038  0.1383  0.7159  2.1236
   11MPD2    H313973   2.617   0.965  13.871  0.8058 -1.4880 -0.5094
   11MPD2     N13974   2.186   0.898  13.757  0.0343 -0.6633 -0.3983
   11MPD2    H513975   2.210   0.963  13.683  0.8369  1.5573  1.7673
   11MPD2    N113976   2.386   0.638  14.100 -0.0679 -0.1912  0.8862
   11MPD2    H713977   2.296   0.590  14.105  1.4801 -3.5042 -3.5611
    1MPD1     C13978   4.551   1.514  16.785 -0.3061 -0.2464 -0.2050
    1MPD1    C113979   4.614   1.591  16.878  0.7083  0.3923 -0.1592
    1MPD1    C213980   0.009   1.650  16.848  0.1801 -0.1650  0.2209
    1MPD1    C313981   0.071   1.635  16.723  0.0628  0.4427  0.0864
    1MPD1    C413982   0.002   1.563  16.626  0.1718 -0.8518 -0.0626
    1MPD1    C513983   4.604   1.509  16.657 -0.3934  0.1785 -0.9397
    1MPD1     H13984   0.061   1.702  16.927  0.0018 -0.4782  0.5450
    1MPD1    H113985   0.047   1.566  16.528 -2.3436 -1.8612 -1.2498
    1MPD1    H213986   4.460   1.461  16.811 -0.3871 -0.0493 -0.0796
    1MPD1    H313987   4.552   1.469  16.571 -2.6522  0.1492  0.4527
    1MPD1     N13988   0.195   1.701  16.697 -0.2579 -0.6820  0.5686
    1MPD1    H513989   0.234   1.684  16.604  1.0059  0.9362  0.8039
    1MPD1    N113990   4.545   1.613  16.999  0.3435  0.2951  0.5325
    1MPD1    H613991   4.484   1.537  17.025  1.0351  0.0596  1.4714
    1MPD1    H713992   4.605   1.642  17.077 -2.4115 -0.9093  3.1054
    2MPD1     C13993   0.931   2.456  16.952  0.0179  0.4735 -0.2227
    2MPD1    C113994   0.981   2.399  16.835 -0.4211  0.5545  0.0639
    2MPD1    C213995   0.918   2.293  16.778 -0.0275  0.2609  0.2033
    2MPD1    C313996   0.816   2.224  16.832 -0.5777  0.4590 -0.2036
    2MPD1    C413997   0.770   2.278  16.955 -0.0952 -0.2167  0.1142
    2MPD1    C513998   0.830   2.386  17.017  0.1636 -0.0816  0.3787
    2MPD1     H13999   0.949   2.258  16.680  0.8424  0.3814  0.4406
    2MPD1    H114000   0.680   2.232  16.996 -0.9198  1.3233  0.0479
    2MPD1    H214001   0.980   2.542  16.996 -1.2484  1.6978 -1.2124
    2MPD1    H314002   0.776   2.414  17.106 -0.0417  2.9120 -0.6661
    2MPD1     N14003   0.748   2.123  16.758 -0.1097 -0.6053  0.0327
    2MPD1    H514004   0.771   2.113  16.659  2.8750 -1.5763  0.8268
    2MPD1    N114005   1.078   2.469  16.762  0.2276 -0.0133 -0.2454
    2MPD1    H614006   1.142   2.406  16.713  0.4065 -0.1252  0.1295
    2MPD1    H714007   1.141   2.523  16.820  2.3634 -1.8484 -0.8323
    3TMC3    C114008   0.594   1.954  16.731 -1.2668  0.3700 -0.6496
    3TMC3    C214009   0.586   1.993  16.596  0.4047  0.1273  0.3305
    3TMC3    C314010   0.471   1.955  16.525 -0.1209  0.6738  0.1884
    3TMC3    C414011   0.495   1.877  16.784 -0.1561 -0.6095 -0.7445
    3TMC3    C514012   0.389   1.833  16.706  0.0348 -0.0579  0.9727
    3TMC3    C614013   0.368   1.875  16.581 -0.7896  0.6225 -0.2284
    3TMC3     C14014   0.660   2.037  16.818 -0.4077 -0.2274  0.3584
    3TMC3     O14015   0.637   2.029  16.938  0.1525  0.2216 -0.2315
    3TMC3     H14016   0.661   2.052  16.544  0.1371 -2.5580 -3.0978
    3TMC3    H114017   0.501   1.846  16.887  1.4940 -1.0409 -0.9757
    3TMC3    H214018   0.278   1.854  16.525 -0.1332 -1.3965 -0.5404
    3TMC3    C714019   0.270   1.778  16.775  0.1756  0.3924  0.2637
    3TMC3    C814020   0.443   2.021  16.398  0.1692  0.3006 -1.0953
    3TMC3    O114021   0.267   1.794  16.895 -0.4162 -0.9419  0.0869
    3TMC3    O214022   0.327   2.016  16.361 -0.7675  0.2081 -0.3084
    4MPD1     C14023   0.530   2.272  15.966  0.2033 -0.4019  0.2115
    4MPD1    C114024   0.651   2.258  16.034  0.2320  0.0043  0.2190
    4MPD1    C214025   0.651   2.204  16.163  0.0935 -0.1327  0.4748
    4MPD1    C314026   0.533   2.152  16.213 -0.2356 -0.3324  0.4109
    4MPD1    C414027   0.418   2.184  16.152 -0.1320 -0.0546 -0.3965
    4MPD1    C514028   0.412   2.244  16.034 -0.3516  0.2820  0.0843
    4MPD1     H14029   0.741   2.197  16.223  1.4107 -0.2609 -1.5229
    4MPD1    H114030   0.317   2.159  16.183 -0.4290  1.8926  0.2107
    4MPD1    H214031   0.522   2.310  15.865  1.4723  0.1703  0.3227
    4MPD1    H314032   0.315   2.264  15.988 -0.1718 -0.3185 -0.5571
    4MPD1     N14033   0.547   2.089  16.342  0.1223 -0.4407  1.2501
    4MPD1    H514034   0.638   2.071  16.383  0.9955  0.5560 -0.2821
    4MPD1    N114035   0.761   2.314  15.971  0.5771 -0.4025 -0.3325
    4MPD1    H614036   0.761   2.304  15.870  0.2463  0.8774 -0.4612
    4MPD1    H714037   0.850   2.306  16.018  0.0258 -1.3928  0.5332
    1TCq1    O114038   1.489   2.386  10.701  0.5954 -0.4601  0.6652
    1TCq1    C114039   1.426   2.328  10.601 -0.0339 -0.3991  0.0082
    1TCq1    O214040   1.450   2.339  10.480  0.3670  0.1911 -0.0610
    1TCq1    C214041   1.342   2.226  10.662  0.0471  0.6317 -0.3327
    1TCq1    C314042   1.289   2.247  10.785  0.0689 -0.0557 -0.3982
    1TCq1    C414043   1.192   2.152  10.820  0.7163 -0.3471  0.1904
    1TCq1    C514044   1.138   2.068  10.734 -0.3375  0.8136  0.6658
    1TCq1    C614045   1.196   2.048  10.608 -0.4065  0.1857 -0.7060
    1TCq1    C714046   1.300   2.129  10.569  0.1608  0.3022  0.7382
    1TCq1    C814047   1.130   1.968  10.502  0.2611  0.2558 -0.1513
    1TCq1    O414048   1.168   1.986  10.388  0.6946  0.8631 -0.0700
    1TCq1    C914049   1.096   2.182  10.927  0.6749 -0.1644  0.1985
    1TCq1    O514050   1.031   2.090  10.986 -0.3541  0.2272 -0.1115
    1TCq1    O614051   1.098   2.302  10.969 -0.1131 -0.5615 -0.1942
    1TCq1    H114052   1.471   2.339  10.785 -2.8983  1.1816  0.8385
    1TCq1    H214053   1.294   2.339  10.842 -0.5775  1.3125 -2.5740
    1TCq1    H314054   1.045   2.026  10.771  0.0270 -0.0249  0.6215
    1TCq1    H414055   1.338   2.126  10.467  1.6713  1.0566  1.2869
    2MPD1     C14056   0.791   1.623  10.355  0.4065 -0.2330 -0.0437
    2MPD1    C114057   0.806   1.615  10.492 -0.2456 -0.0196 -0.0716
    2MPD1    C214058   0.878   1.714  10.556 -0.1510 -0.3095  0.2445
    2MPD1    C314059   0.955   1.797  10.476  0.6429  1.0472 -0.5988
    2MPD1    C414060   0.942   1.808  10.339 -0.8580 -0.2254 -0.3190
    2MPD1    C514061   0.859   1.715  10.279  0.1099  0.3095  0.4787
    2MPD1     H14062   0.893   1.714  10.663 -0.9550  0.6442  0.3523
    2MPD1    H114063   0.992   1.881  10.275 -0.6555 -0.2909 -0.2362
    2MPD1    H214064   0.717   1.563  10.302 -0.8349  2.1792 -1.0413
    2MPD1    H314065   0.850   1.710  10.171 -0.8663  3.6462  0.4088
    2MPD1     N14066   1.042   1.875  10.557 -0.3908  0.0054 -0.1038
    2MPD1    H514067   1.035   1.873  10.659 -0.1465  4.6407 -0.0159
    2MPD1    N114068   0.728   1.529  10.573 -0.1372  0.0286  0.2676
    2MPD1    H614069   0.689   1.448  10.524 -1.6859  1.1285 -0.3101
    2MPD1    H714070   0.780   1.498  10.655  0.6899 -0.1376 -0.3125
    1TCq1    O114071   3.785   2.450   0.965 -0.3365  0.2814  0.0554
    1TCq1    C114072   3.698   2.476   1.062  0.1178 -0.0656  0.2386
    1TCq1    O214073   3.614   2.392   1.100  0.4021 -0.3209 -0.0880
    1TCq1    C214074   3.774   2.560   1.158 -0.0091 -0.1484  0.5424
    1TCq1    C314075   3.697   2.637   1.242 -0.7771 -0.2624 -0.5679
    1TCq1    C414076   3.755   2.714   1.336  0.3522 -0.3919 -0.2234
    1TCq1    C514077   3.889   2.739   1.328 -0.3277  0.1618 -0.2793
    1TCq1    C614078   3.969   2.663   1.252  0.3581  0.0578 -0.1863
    1TCq1    C714079   3.913   2.571   1.167 -0.1095  0.1722  0.0164
    1TCq1    C814080   4.088   2.721   1.188 -0.3817  0.1451 -0.0441
    1TCq1    O414081   4.141   2.665   1.094 -0.5493  0.9015  0.1422
    1TCq1    C914082   3.681   2.820   1.400 -0.6582 -0.1440 -1.2852
    1TCq1    O514083   3.754   2.904   1.460  0.1585 -0.1253 -0.0397
    1TCq1    O614084   3.556   2.826   1.403 -0.0512  0.0069 -0.5510
    1TCq1    H114085   3.851   2.517   0.939 -1.3741  1.1131 -0.4116
    1TCq1    H214086   3.589   2.630   1.244 -0.7972 -0.1744 -1.2947
    1TCq1    H314087   3.936   2.818   1.387  2.9372 -1.7466 -0.3063
    1TCq1    H414088   3.981   2.500   1.121 -0.1846  1.2431 -1.7521
    2MPD1     C14089   4.327   3.149   1.019  0.8744 -0.1514  0.4056
    2MPD1    C114090   4.284   3.173   1.142  0.3225  0.7416  0.0791
    2MPD1    C214091   4.222   3.067   1.203 -0.1438  0.8456  0.1452
    2MPD1    C314092   4.194   2.947   1.143  0.0905 -0.0912 -0.5367
    2MPD1    C414093   4.251   2.924   1.018  0.1228 -0.5113  0.0705
    2MPD1    C514094   4.322   3.023   0.957  0.3059  0.1112  0.3287
    2MPD1     H14095   4.177   3.083   1.300 -0.9789 -0.0757 -0.0964
    2MPD1    H114096   4.227   2.833   0.965  2.0919 -1.1148  0.1968
    2MPD1    H214097   4.367   3.227   0.955 -1.1332  1.6069  1.2811
    2MPD1    H314098   4.356   3.025   0.854 -1.1533  0.3610 -0.1516
    2MPD1     N14099   4.109   2.859   1.218 -0.1564  0.1750  0.3895
    2MPD1    H514100   4.065   2.893   1.302 -2.2704 -0.3317 -0.5072
    2MPD1    N114101   4.324   3.280   1.223  0.0329 -0.5197  0.3561
    2MPD1    H614102   4.336   3.366   1.170 -0.6834  0.0477  1.1126
    2MPD1    H714103   4.258   3.297   1.298  1.1057  1.0464  0.9393
    1MPD1     C14104   2.740   1.900  10.699 -0.1046  0.0406  1.1933
    1MPD1    C114105   2.734   1.795  10.791  0.4959  0.1112 -0.3834
    1MPD1    C214106   2.807   1.815  10.912  0.3481 -0.1525 -0.5267
    1MPD1    C314107   2.895   1.918  10.931  0.7018 -0.2661 -0.5414
    1MPD1    C414108   2.906   2.007  10.831  0.6443 -0.5118  0.1713
    1MPD1    C514109   2.835   2.003  10.714 -0.3400  0.0541  0.2787
    1MPD1     H14110   2.793   1.743  10.992  0.7038  2.4596  1.8587
    1MPD1    H114111   2.972   2.093  10.842 -1.4504  1.2405 -1.0587
    1MPD1    H214112   2.672   1.899  10.615  1.9528 -2.6062 -0.4390
    1MPD1    H314113   2.845   2.086  10.645 -1.1353 -2.2065 -2.5386
    1MPD1     N14114   2.963   1.943  11.051  0.4089  0.3343 -0.0254
    1MPD1    H514115   3.015   2.029  11.061 -0.5073  1.2011 -2.6618
    1MPD1    N114116   2.636   1.697  10.774 -0.0636 -0.2725  0.0778
    1MPD1    H614117   2.685   1.609  10.788 -0.4426 -0.7043 -1.2955
    1MPD1    H714118   2.592   1.701  10.682 -2.9218  0.3433  1.4727
    2MPD1     C14119   2.965   2.613  10.202  0.1970 -0.3073 -0.1713
    2MPD1    C114120   2.882   2.502  10.185 -0.3269 -0.3310 -0.2019
    2MPD1    C214121   2.942   2.378  10.180  0.7293 -0.5427  0.3765
    2MPD1    C314122   3.073   2.361  10.220  0.3614  0.1329 -1.2084
    2MPD1    C414123   3.150   2.469  10.249  0.0147 -0.3210  1.1355
    2MPD1    C514124   3.095   2.590  10.229  0.8161 -0.2744 -0.0836
    2MPD1     H14125   2.876   2.299  10.147  1.1164 -0.2149 -1.2051
    2MPD1    H114126   3.249   2.461  10.292  0.1905  0.6344  0.9207
    2MPD1    H214127   2.932   2.713  10.180  1.1650 -0.2230 -1.2207
    2MPD1    H314128   3.170   2.664  10.256  0.5079 -0.3917  1.1237
    2MPD1     N14129   3.114   2.233  10.262 -0.2367  0.2943 -0.2417
    2MPD1    H514130   3.211   2.221  10.290 -1.0797 -3.4186  1.0161
    2MPD1    N114131   2.756   2.526  10.130 -0.0437 -0.2422  0.0119
    2MPD1    H614132   2.689   2.452  10.147  0.2687 -0.8649 -1.4658
    2MPD1    H714133   2.722   2.617  10.161 -0.3690 -0.0484 -0.9329
    3MPD1     C14134   2.740   1.322  10.599  0.8230  0.3227  0.5674
    3MPD1    C114135   2.801   1.420  10.677 -0.4661 -0.2189 -0.2393
    3MPD1    C214136   2.873   1.514  10.608 -0.0398  0.0586 -0.0899
    3MPD1    C314137   2.908   1.506  10.476 -0.5479 -0.4715 -0.1941
    3MPD1    C414138   2.860   1.402  10.397 -0.4104 -0.0002 -0.3588
    3MPD1    C514139   2.772   1.308  10.467 -0.4209 -0.0973  0.1977
    3MPD1     H14140   2.918   1.597  10.662 -0.6464 -0.0288  0.5510
    3MPD1    H114141   2.871   1.403  10.289  0.3422 -0.1672 -0.2861
    3MPD1    H214142   2.683   1.241  10.642  0.5587 -0.3398 -1.0187
    3MPD1    H314143   2.728   1.234  10.401 -0.1800 -1.4940  1.6264
    3MPD1     N14144   2.981   1.614  10.430  0.4990 -0.1185  0.4620
    3MPD1    H514145   3.000   1.692  10.492  2.3024  0.9699 -1.4471
    3MPD1    N114146   2.760   1.439  10.811  0.5478  0.0497 -0.2350
    3MPD1    H614147   2.758   1.350  10.859 -0.1612  0.2045  0.0204
    3MPD1    H714148   2.826   1.491  10.868 -0.7390  0.7374  0.6184
    4MPD2     C14149   3.402   2.340  11.167  0.7037  0.3075  0.1320
    4MPD2    C114150   3.419   2.206  11.195  0.2878  0.1776  0.2780
    4MPD2    C214151   3.515   2.133  11.138  0.2761  0.2037  0.3517
    4MPD2    C314152   3.598   2.188  11.037 -0.2308 -0.2080 -0.3576
    4MPD2    C414153   3.576   2.321  11.003 -0.3356 -1.0843  0.5396
    4MPD2    C514154   3.489   2.398  11.074  0.3400  0.2855 -0.2328
    4MPD2     H14155   3.537   2.031  11.168 -1.2685  0.1566  1.3253
    4MPD2    H114156   3.640   2.361  10.925 -0.2047 -0.5357  0.9218
    4MPD2    H214157   3.327   2.395  11.222  0.5943 -0.6410  0.9238
    4MPD2    H314158   3.477   2.500  11.041 -2.0749  0.3470  0.7881
    4MPD2     N14159   3.688   2.102  10.975  0.5429  0.7788  0.2949
    4MPD2    H514160   3.692   2.006  11.010  2.5148  0.7116 -0.1197
    4MPD2    N114161   3.333   2.148  11.290 -0.3868 -0.4237 -0.9933
    4MPD2    H714162   3.370   2.057  11.317  2.0052  0.6024 -0.7690
    5TMC3    C114163   3.136   2.069  11.375  0.1197 -0.2297  0.1446
    5TMC3    C214164   3.044   2.028  11.287 -0.7342 -0.4335  0.7318
    5TMC3    C314165   3.043   1.894  11.271  0.3594  0.1548  1.1309
    5TMC3    C414166   3.221   1.977  11.436  0.0091  0.2264 -0.2180
    5TMC3    C514167   3.219   1.845  11.410  0.3649  0.1567 -0.1929
    5TMC3    C614168   3.122   1.804  11.323 -0.3404 -0.0159  0.2725
    5TMC3     C14169   3.200   2.186  11.326 -0.0146  0.0997 -0.0527
    5TMC3     O14170   3.129   2.265  11.262 -0.2115 -0.0812  0.2315
    5TMC3     H14171   2.971   2.096  11.245  0.4313  1.8383  2.3528
    5TMC3    H114172   3.292   2.021  11.505  1.0494 -0.1245 -1.0480
    5TMC3    H214173   3.116   1.699  11.296 -0.9628  0.6556 -2.1607
    5TMC3    C714174   3.346   1.802  11.360  0.3481  0.3552 -1.0483
    5TMC3    C814175   2.966   1.848  11.160  0.3783  0.1518 -0.3461
    5TMC3    O114176   3.435   1.887  11.348 -0.2250  0.3415 -0.6441
    5TMC3    O214177   2.933   1.730  11.170 -0.3312  0.6207  0.4255
    6TMC3    C114178   3.116   1.986  10.274  0.1063  0.5390 -0.9721
    6TMC3    C214179   3.051   1.869  10.312 -0.2530 -0.7329  0.5365
    6TMC3    C314180   3.100   1.754  10.272 -0.6574  0.4139 -0.0866
    6TMC3    C414181   3.231   1.982  10.198 -0.2813  0.2092  0.0587
    6TMC3    C514182   3.280   1.857  10.159 -0.1376  0.9262  0.4944
    6TMC3    C614183   3.208   1.742  10.189  0.1399 -0.7029  0.0729
    6TMC3     C14184   3.039   2.109  10.261  0.0840 -0.1232 -0.1536
    6TMC3     O14185   2.918   2.101  10.272  0.0213 -0.1535 -0.3173
    6TMC3     H14186   2.957   1.861  10.365  0.2331 -0.2875  1.4611
    6TMC3    H114187   3.291   2.064  10.161 -0.4530 -0.8312 -2.5277
    6TMC3    H214188   3.249   1.646  10.159  0.0467  0.0008 -2.3331
    6TMC3    C714189   3.425   1.857  10.158 -0.6707 -0.5456 -0.5583
    6TMC3    C814190   3.032   1.628  10.301 -0.3858  0.2688  0.7563
    6TMC3    O114191   3.482   1.954  10.208 -0.6773  0.0308 -0.5892
    6TMC3    O214192   3.048   1.538  10.217  0.1744  0.0941  0.7230
    7MPD2     C14193   3.652   1.463  11.111  0.0323 -0.2466  0.3714
    7MPD2    C114194   3.627   1.603  11.088 -0.3877 -0.5984 -0.4633
    7MPD2    C214195   3.533   1.672  11.162  0.2052  0.1806 -0.0181
    7MPD2    C314196   3.458   1.605  11.258  0.2731  0.3953  0.3463
    7MPD2    C414197   3.466   1.467  11.265  0.0632  0.3079 -0.8151
    7MPD2    C514198   3.560   1.401  11.194 -0.7442  0.2063  0.0914
    7MPD2     H14199   3.503   1.775  11.148 -0.4475 -0.1884 -1.2981
    7MPD2    H114200   3.421   1.411  11.347  0.1671  1.2838 -0.0808
    7MPD2    H214201   3.732   1.402  11.070  1.9626  2.1938  0.5110
    7MPD2    H314202   3.572   1.294  11.199  1.9896  0.4864 -0.5056
    7MPD2     N14203   3.358   1.665  11.333  0.0844  0.4915 -0.3846
    7MPD2    H514204   3.291   1.604  11.378 -1.8899  1.8282 -1.5048
    7MPD2    N114205   3.706   1.686  11.009 -0.5496 -0.2052  0.0640
    7MPD2    H714206   3.660   1.775  10.995  1.4368  1.0416  1.3733
    8TMC3    C114207   3.866   1.772  10.864 -0.7583 -0.7639  0.2667
    8TMC3    C214208   3.875   1.746  10.730 -1.0123 -0.1251  0.3599
    8TMC3    C314209   3.845   1.852  10.649  0.3480  0.4170  0.2838
    8TMC3    C414210   3.851   1.902  10.914 -0.9851  0.0646  0.3760
    8TMC3    C514211   3.831   2.006  10.823  0.0182 -0.2650 -0.5776
    8TMC3    C614212   3.827   1.983  10.686  0.4610  0.3356  0.4494
    8TMC3     C14213   3.825   1.659  10.949  0.5067  0.6369  0.2925
    8TMC3     O14214   3.862   1.543  10.921  0.6286 -0.5473 -0.4077
    8TMC3     H14215   3.887   1.643  10.695 -0.0674 -0.0182  0.3642
    8TMC3    H114216   3.834   1.913  11.020 -2.4697 -0.6689  0.2111
    8TMC3    H214217   3.807   2.069  10.623 -1.1153 -0.0403  0.4277
    8TMC3    C714218   3.762   2.133  10.862  0.0932  1.2922  0.1998
    8TMC3    C814219   3.769   1.836  10.525  0.2449  0.2104  0.5867
    8TMC3    O114220   3.778   2.236  10.801 -0.1599 -0.3422 -0.0432
    8TMC3    O214221   3.694   1.923  10.486 -0.0877 -0.3062  0.4194
    9MPD2     C14222   3.830   1.577  10.260 -0.9468  0.8488  0.0796
    9MPD2    C114223   3.761   1.672  10.332  0.6834  0.3101  0.1656
    9MPD2    C214224   3.643   1.721  10.283 -0.6541 -0.3684  0.8745
    9MPD2    C314225   3.595   1.685  10.158 -0.4514 -0.2443  0.0551
    9MPD2    C414226   3.664   1.592  10.086 -0.0747  0.1257  0.9641
    9MPD2    C514227   3.779   1.538  10.140 -0.7585 -0.9638  0.2286
    9MPD2     H14228   3.587   1.791  10.345  0.1320  0.8933  0.1733
    9MPD2    H114229   3.632   1.558   9.988  5.4498  0.9150 -1.1323
    9MPD2    H214230   3.924   1.539  10.300 -1.7442 -1.4130 -0.1822
    9MPD2    H314231   3.825   1.458  10.084 -3.1247 -1.2007 -1.3932
    9MPD2     N14232   3.474   1.740  10.116 -0.2772  0.4134 -0.1848
    9MPD2    H514233   3.433   1.697  10.033 -1.3329 -1.6981  1.4331
    9MPD2    N114234   3.813   1.723  10.456  0.1813 -0.6315 -0.3692
    9MPD2    H714235   3.891   1.672  10.496  0.7404  0.3317 -0.2155
    1MPD1     C14236   3.341   1.077  16.590  0.3364  0.5417 -0.0099
    1MPD1    C114237   3.357   0.966  16.675 -0.6988 -0.3079  0.6247
    1MPD1    C214238   3.242   0.882  16.688 -0.1375 -0.2633  0.3327
    1MPD1    C314239   3.125   0.905  16.613 -0.1926  0.0749  0.0974
    1MPD1    C414240   3.115   1.015  16.534 -0.1160 -0.1542  0.7496
    1MPD1    C514241   3.222   1.100  16.517 -0.0449 -0.3928 -0.3235
    1MPD1     H14242   3.250   0.792  16.747  0.4491 -0.2223  0.3123
    1MPD1    H114243   3.026   1.029  16.474  0.3300  0.3085  0.1829
    1MPD1    H214244   3.425   1.142  16.569  1.3518 -0.4988  0.8212
    1MPD1    H314245   3.196   1.194  16.470 -0.2001 -1.1654 -1.7822
    1MPD1     N14246   3.009   0.821  16.622 -0.7535  0.3835  0.1387
    1MPD1    H514247   2.930   0.845  16.564  0.6725 -2.1519 -2.8288
    1MPD1    N114248   3.474   0.946  16.751 -0.4803  0.1636 -0.2874
    1MPD1    H614249   3.542   0.996  16.694 -0.7044  2.0313  1.0753
    1MPD1    H714250   3.498   0.848  16.766  3.8802  1.5308  1.5494
    2MPD1     C14251   2.775   0.576  15.908  0.1292 -0.4473  0.6368
    2MPD1    C114252   2.755   0.704  15.953 -0.5305 -0.2991  0.4110
    2MPD1    C214253   2.724   0.719  16.089 -0.1551 -0.6791  0.0623
    2MPD1    C314254   2.720   0.615  16.175  0.3602 -0.5868 -0.5624
    2MPD1    C414255   2.750   0.487  16.128 -0.2589  0.2599  0.2956
    2MPD1    C514256   2.765   0.466  15.992  0.4485 -0.0426  0.4335
    2MPD1     H14257   2.696   0.815  16.130  0.6550  0.0741 -1.1374
    2MPD1    H114258   2.758   0.408  16.202  0.8304 -1.6543 -1.8816
    2MPD1    H214259   2.782   0.555  15.802  3.5687 -1.0787  1.0026
    2MPD1    H314260   2.773   0.366  15.952  0.7646 -0.3969  1.3890
    2MPD1     N14261   2.701   0.643  16.312 -0.0051  0.5647 -0.5924
    2MPD1    H514262   2.727   0.736  16.345  0.3548 -0.3330  1.6962
    2MPD1    N114263   2.736   0.810  15.867  0.1591 -0.5593 -0.1048
    2MPD1    H614264   2.722   0.900  15.912 -0.7626 -0.3502 -0.8004
    2MPD1    H714265   2.806   0.812  15.793  1.1064 -4.3333  0.7150
    3TCq2    C114266   2.671   0.549  16.406  0.0170 -0.1425  0.3743
    3TCq2    O214267   2.615   0.441  16.385  0.3057  0.7305  0.6690
    3TCq2    C214268   2.699   0.594  16.539  0.2521 -0.0016 -0.5419
    3TCq2    C314269   2.622   0.538  16.640  1.1649 -0.1098 -0.1255
    3TCq2    C414270   2.679   0.540  16.767 -0.2932 -0.6950 -0.4838
    3TCq2    C514271   2.802   0.599  16.797 -0.1173 -0.3142  0.2147
    3TCq2    C614272   2.871   0.647  16.693  0.4689 -0.5254  0.2481
    3TCq2    C714273   2.822   0.644  16.565 -0.5398 -0.2256  0.2150
    3TCq2    C814274   2.999   0.710  16.702 -0.9590 -0.4699 -0.2762
    3TCq2    O414275   3.074   0.652  16.776  0.2552 -0.4822  0.5012
    3TCq2    C914276   2.608   0.481  16.878 -0.6639 -0.2627  0.1265
    3TCq2    O514277   2.651   0.515  16.991 -0.1848  0.0260  0.0399
    3TCq2    O614278   2.496   0.423  16.866  0.3151 -0.2333  0.6676
    3TCq2    H214279   2.531   0.482  16.626  1.2238 -0.1182 -0.4589
    3TCq2    H314280   2.836   0.605  16.899  0.7433  3.5568 -0.3066
    3TCq2    H414281   2.891   0.664  16.484  0.7837 -0.5332  1.2722
    1TCq1    O114282   0.938   3.630  12.908  0.9875  0.2989  0.5698
    1TCq1    C114283   0.840   3.552  12.866  0.5570 -0.4145  0.8002
    1TCq1    O214284   0.842   3.429  12.856 -0.1723 -0.3011  0.1619
    1TCq1    C214285   0.739   3.629  12.805 -1.0894 -0.0464 -0.3466
    1TCq1    C314286   0.618   3.569  12.796  0.4203 -0.1950 -0.3412
    1TCq1    C414287   0.504   3.635  12.758 -0.4042 -0.6749 -0.1078
    1TCq1    C514288   0.511   3.768  12.720 -0.4173 -0.4398  0.4648
    1TCq1    C614289   0.635   3.827  12.719  0.5017  0.3286 -0.3077
    1TCq1    C714290   0.744   3.758  12.765 -0.2318 -0.0295 -0.1114
    1TCq1    C814291   0.636   3.972  12.722 -0.2664  0.4402 -0.3665
    1TCq1    O414292   0.531   4.030  12.683 -0.9823  0.7761  0.3521
    1TCq1    C914293   0.382   3.569  12.742  0.3217  0.4204  0.2326
    1TCq1    O514294   0.280   3.633  12.710 -0.5025 -0.8289  0.8816
    1TCq1    O614295   0.379   3.451  12.790 -0.4910  0.3862  0.6559
    1TCq1    H114296   0.925   3.727  12.900  1.5568  0.2359 -1.1401
    1TCq1    H214297   0.614   3.464  12.824 -0.2992 -0.4423 -1.3832
    1TCq1    H314298   0.414   3.812  12.700  0.0394  0.4116  0.1424
    1TCq1    H414299   0.843   3.798  12.745  0.2972 -1.8657 -1.1670
    2MPD2     C14300   0.687   4.255  12.781  0.5171 -0.7229  0.2896
    2MPD2    C114301   0.792   4.160  12.764  0.5541 -0.2466  0.4261
    2MPD2    C214302   0.922   4.211  12.747  0.6596  0.0481  0.3387
    2MPD2    C314303   0.946   4.349  12.733  0.2551 -0.2237  0.9118
    2MPD2    C414304   0.836   4.435  12.737 -0.1448  0.5317 -0.6306
    2MPD2    C514305   0.714   4.389  12.768  0.1051  1.1092 -0.1173
    2MPD2     H14306   1.001   4.142  12.722  0.5539 -0.3980  1.2303
    2MPD2    H114307   0.852   4.541  12.723  0.3026  0.5403 -0.0620
    2MPD2    H214308   0.583   4.228  12.797  0.0061  0.7506 -0.5317
    2MPD2    H314309   0.625   4.451  12.770  0.4228  1.5501  0.4831
    2MPD2     N14310   1.085   4.382  12.716  0.5133  0.4158 -0.0797
    2MPD2    H514311   1.146   4.301  12.711  0.0839  0.0894 -0.0733
    2MPD2    N114312   0.766   4.020  12.744 -1.0183  0.1043  0.2007
    2MPD2    H714313   0.846   3.958  12.745  0.9282  2.6303  2.2267
    3TCq1    O114314   1.705   4.418  12.848 -0.1762 -0.0262  0.1398
    3TCq1    C114315   1.583   4.371  12.862  0.2323  0.7906  0.2343
    3TCq1    O214316   1.556   4.262  12.906 -0.1175  0.2017 -0.1099
    3TCq1    C214317   1.479   4.466  12.815 -0.3371 -0.0658 -0.6167
    3TCq1    C314318   1.522   4.601  12.819 -0.0002 -0.4545 -0.2984
    3TCq1    C414319   1.442   4.689  12.751  0.0287 -0.5383 -0.1073
    3TCq1    C514320   1.320   4.656  12.691 -0.2868 -0.7218 -0.0585
    3TCq1    C614321   1.272   4.526  12.710 -0.1927 -0.4207 -1.5034
    3TCq1    C714322   1.351   4.429  12.765 -0.5467  0.1912  0.2486
    3TCq1    C814323   1.128   4.517  12.706 -1.0737  0.5251 -0.7481
    3TCq1    O414324   1.061   4.616  12.725 -0.8557  0.2090 -0.3601
    3TCq1    C914325   1.490   0.100  12.747 -0.1165 -0.1766 -0.2332
    3TCq1    O514326   1.609   0.123  12.783 -0.0148  0.2292  0.2496
    3TCq1    O614327   1.428   0.173  12.664 -0.4557  0.1323  0.3348
    3TCq1    H114328   1.704   4.507  12.806 -1.5071 -0.2369 -0.3064
    3TCq1    H214329   1.616   4.635  12.860  0.3810 -2.7073  0.6860
    3TCq1    H314330   1.246   0.000  12.651  0.0004 -0.1383  0.4008
    3TCq1    H414331   1.321   4.325  12.773 -1.9024  0.4156 -2.1476
    1MPD2     C14332   0.954   0.329  14.748  0.0731  0.3930  0.1453
    1MPD2    C114333   0.820   0.308  14.722 -0.4894 -0.0170 -0.0299
    1MPD2    C214334   0.770   0.268  14.592 -0.2517  0.4203 -0.4396
    1MPD2    C314335   0.862   0.229  14.504  0.1756 -0.0621  0.1088
    1MPD2    C414336   0.996   0.247  14.524  0.3951 -0.2291 -0.6167
    1MPD2    C514337   1.038   0.304  14.644  0.2510  0.1552 -0.0971
    1MPD2     H14338   0.664   0.262  14.569 -0.1803  1.5402 -1.0442
    1MPD2    H114339   1.073   0.219  14.452  0.0346 -1.6752 -0.4432
    1MPD2    H214340   0.985   0.385  14.835  1.3925  0.3134 -0.2744
    1MPD2    H314341   1.142   0.331  14.658  0.3919 -0.1351 -0.6060
    1MPD2     N14342   0.828   0.162  14.389  0.1798  0.0236  0.8362
    1MPD2    H514343   0.889   0.092  14.348 -1.0658 -0.3285 -0.4081
    1MPD2    N114344   0.730   0.323  14.832  0.8849 -0.1106 -0.7226
    1MPD2    H714345   0.769   0.358  14.919  1.7026  1.1950 -1.6254
    2TMC3    C114346   0.523   0.298  14.953 -0.3374  0.1080 -0.1269
    2TMC3    C214347   0.408   0.223  14.969  0.1730  0.9218  0.2485
    2TMC3    C314348   0.288   0.282  14.987  0.6816  0.5346 -0.1461
    2TMC3    C414349   0.513   0.435  14.980 -0.3008  0.9384  0.6819
    2TMC3    C514350   0.395   0.491  15.018 -0.7554  0.0171  0.4075
    2TMC3    C614351   0.278   0.413  15.022 -0.0654  0.4938  0.1058
    2TMC3     C14352   0.601   0.268  14.840  0.0747 -0.2131 -0.4437
    2TMC3     O14353   0.553   0.182  14.762 -0.2486  0.2102  0.1792
    2TMC3     H14354   0.407   0.121  14.935  1.4252  0.5816  1.2313
    2TMC3    H114355   0.601   0.498  14.971 -0.2902  0.5812 -1.6632
    2TMC3    H214356   0.176   0.448  15.038 -1.2507 -2.2603 -1.2983
    2TMC3    C714357   0.383   0.631  15.065 -0.6184 -0.2489 -0.0504
    2TMC3    C814358   0.196   0.249  14.891  0.4483  0.0636 -0.3557
    2TMC3    O114359   0.301   0.661  15.149  0.0226  1.0897  0.6298
    2TMC3    O214360   0.076   0.279  14.902  0.4566 -0.0086  0.0710
    3TCq1    O114361   0.607   1.633  14.359 -0.5530 -0.3098  0.3197
    3TCq1    C114362   0.560   1.600  14.481 -0.5705 -0.1058 -0.1069
    3TCq1    O214363   0.468   1.655  14.543 -0.3748 -0.4053  0.0779
    3TCq1    C214364   0.646   1.486  14.525 -0.2188 -0.0891 -0.3466
    3TCq1    C314365   0.730   1.408  14.451 -0.5984  0.0707 -0.3515
    3TCq1    C414366   0.794   1.300  14.512 -0.3184 -0.1021  0.3432
    3TCq1    C514367   0.777   1.266  14.645  0.0954 -0.5286  0.9152
    3TCq1    C614368   0.690   1.342  14.717  0.3249  0.2820  0.0660
    3TCq1    C714369   0.619   1.447  14.661 -0.6292  0.0632 -0.0038
    3TCq1    C814370   0.608   1.287  14.827 -0.0598  0.3554  0.0697
    3TCq1    O414371   0.540   1.365  14.887  0.2453 -0.4852 -0.0503
    3TCq1    C914372   0.874   1.205  14.433 -0.0970  0.0401  0.9599
    3TCq1    O514373   0.926   1.111  14.496  0.1157 -0.6230  0.2742
    3TCq1    O614374   0.856   1.217  14.309  0.2929 -0.4456 -0.5370
    3TCq1    H114375   0.692   1.593  14.331  0.6229  2.3795  0.0343
    3TCq1    H214376   0.742   1.429  14.346 -0.3322  3.0130  0.2751
    3TCq1    H314377   0.818   1.175  14.688 -0.6637 -1.6100 -0.6196
    3TCq1    H414378   0.546   1.502  14.719 -0.7947  0.0771 -0.2240
    4MPD2     C14379   0.503   1.129  15.068  1.0626 -0.1660 -0.0789
    4MPD2    C114380   0.534   1.081  14.938 -0.0433 -0.0849 -0.2210
    4MPD2    C214381   0.529   0.939  14.917  0.0896  0.4650 -0.4172
    4MPD2    C314382   0.466   0.853  15.007  0.3870 -0.2650  1.0286
    4MPD2    C414383   0.438   0.912  15.129 -0.4732  0.2527 -0.1987
    4MPD2    C514384   0.452   1.044  15.160 -0.4639  0.4187  0.7139
    4MPD2     H14385   0.540   0.904  14.815  1.6794  1.6729 -0.6405
    4MPD2    H114386   0.395   0.857  15.212 -0.9283  0.4850 -0.2817
    4MPD2    H214387   0.518   1.236  15.078 -1.1050  0.3611 -2.5602
    4MPD2    H314388   0.448   1.086  15.260 -0.6444  1.9006  0.0802
    4MPD2     N14389   0.459   0.713  14.984  0.0337 -0.4605  0.0346
    4MPD2    H514390   0.510   0.673  14.906  1.0438  0.5511  0.1649
    4MPD2    N114391   0.598   1.147  14.839 -0.7605 -0.1711 -0.5847
    4MPD2    H714392   0.640   1.090  14.768 -1.1520 -0.8315 -0.2873
    5TMC2    C114393   0.458   0.004  14.155 -0.0227 -0.1889  0.5002
    5TMC2    C214394   0.487   4.607  14.217  0.2562  0.4359  0.3497
    5TMC2    C314395   0.613   4.582  14.269 -0.2274  1.0260  0.3351
    5TMC2    C414396   0.559   0.103  14.165  0.7371 -0.3851 -0.6155
    5TMC2    C514397   0.678   0.079  14.230  0.2350 -0.0487  0.5037
    5TMC2    C614398   0.710   4.681  14.280 -0.1753  0.6130  0.0360
    5TMC2     C14399   0.333   0.040  14.210 -0.3232  0.9077 -1.2686
    5TMC2     O14400   0.237   4.702  14.174 -0.2365  0.1960 -0.2353
    5TMC2     H14401   0.410   4.531  14.212  2.0324 -1.3337  0.1205
    5TMC2    H114402   0.541   0.196  14.112 -2.6537 -1.1590 -0.7960
    5TMC2    H214403   0.811   4.658  14.313 -0.0224  1.2911  0.0440
    5TMC2    C714404   0.712   0.183  14.324 -0.8400  0.3243  0.6391
    5TMC2    C814405   0.632   4.444  14.328  0.3692 -0.1303  0.6134
    5TMC2    O114406   0.634   0.272  14.344 -0.7514 -0.0297  0.0738
    5TMC2    O214407   0.739   4.384  14.330  0.4721  0.1614  0.2358
    5TMC2    O514408   0.531   4.410  14.402 -0.2411 -0.0917  0.3820
    5TMC2    H514409   0.453   4.468  14.411 -0.0030 -0.0803  2.3882
    6MPD2     C14410   0.062   0.167  14.623  0.3790  0.8034 -0.1193
    6MPD2    C114411   0.194   0.180  14.649  0.2016 -0.5414  0.1593
    6MPD2    C214412   0.286   0.156  14.550 -0.3341  0.6124  0.5843
    6MPD2    C314413   0.251   0.114  14.424  0.7532 -0.5772  0.3932
    6MPD2    C414414   0.115   0.084  14.407 -0.2293  0.0665 -0.4519
    6MPD2    C514415   0.027   0.115  14.501 -0.1054 -0.0137  0.2473
    6MPD2     H14416   0.389   0.180  14.573 -0.3439  0.5817  0.6609
    6MPD2    H114417   0.078   0.055  14.309  3.6962  0.3879 -2.0425
    6MPD2    H214418   4.709   0.202  14.692 -0.8390 -0.7950 -0.6691
    6MPD2    H314419   4.646   0.103  14.477 -0.1762 -3.7588  2.5103
    6MPD2     N14420   0.354   0.099  14.331  0.3290  0.1318  0.5174
    6MPD2    H514421   0.448   0.134  14.348 -0.7600  2.4044  1.8438
    6MPD2    N114422   0.257   0.216  14.774  0.2288  0.6241  0.1563
    6MPD2    H714423   0.358   0.213  14.781  0.3279  1.0320 -1.0027
  945NH3     N114424   2.174   1.838  17.010 -0.4507 -0.0427  0.7927
  945NH3     H214425   2.096   1.781  16.978 -1.4167  0.7700  1.7065
  945NH3     H314426   2.220   1.873  16.927 -0.1929  0.0011  0.9525
  945NH3     H414427   2.246   1.774  17.042 -1.1615 -0.0675  2.3147
  946SOD     NA14428   2.413   4.599  14.395 -0.3261 -0.6382 -0.0829
  947SOD     NA14429   3.012   0.522  14.135 -0.0002 -0.4200  0.2356
  948SOD     NA14430   0.943   3.204  10.038 -0.5170  0.2750 -0.1156
  949SOD     NA14431   0.665   0.122  10.398 -0.0075  0.3001  0.3557
  950SOD     NA14432   0.473   0.627   0.800 -0.2077  0.3833  0.2211
  951SOD     NA14433   3.510   3.823   2.880 -0.2458  0.1604  0.1995
  952SOD     NA14434   0.470   1.842   1.391  0.2596  0.2696  0.3000
  953SOD     NA14435   2.211   1.860  11.424 -0.2094 -0.3325 -0.3056
  954SOD     NA14436   1.569   4.033  12.103  0.1058 -0.4562 -0.4566
  955SOD     NA14437   4.031   1.224   1.415 -0.0347 -0.1546 -0.2296
  956SOD     NA14438   3.543   0.525   2.579  0.0410 -0.5963 -0.6871
  957SOD     NA14439   3.615   3.064   1.490  0.1469  0.8500 -0.0907
  958SOD     NA14440   1.785   1.484   6.606  0.0917  0.1113  0.5805
  959SOD     NA14441   2.304   0.083  14.981  0.1560 -0.0145 -0.2150
  960SOD     NA14442   3.965   0.964   1.876 -0.2699 -0.2228  0.0747
  961SOD     NA14443   0.834   1.968  10.001  0.5134 -0.7872  0.2623
  962SOD     NA14444   3.535   4.487   9.958  0.0318 -0.0353  0.6278
  963SOD     NA14445   4.652   2.535   6.020  0.1079 -0.0931 -0.1441
  964SOD     NA14446   0.234   3.761  12.536 -0.3906  0.8510 -0.0756
  965SOD     NA14447   3.443   1.753   5.875  0.4666  0.7331 -0.0752
  966SOD     NA14448   4.225   0.118  14.536 -0.0001  0.0623 -0.3601
  967SOD     NA14449   2.156   0.618  11.382  0.4080  0.0042  0.8388
  968SOD     NA14450   1.541   0.195   0.440  0.3176  0.3194 -0.5640
  969SOD     NA14451   3.588   3.492  11.705  0.1107  0.1820  0.2399
  970SOD     NA14452   0.054   0.566   9.592  0.1156  0.0196 -0.0696
  971SOD     NA14453   1.963   3.905  12.781  0.2083 -0.2580 -0.4535
  972SOD     NA14454   0.829   3.093   7.191 -0.1135  0.3843 -0.0482
  973SOD     NA14455   4.484   1.568   0.060  0.0875 -0.1279  0.2956
  974SOD     NA14456   0.463   1.908  15.577 -0.8125  0.1944  0.2402
  975SOD     NA14457   4.041   4.384   6.237 -0.1972 -0.1510 -0.0729
  976SOD     NA14458   3.214   0.546  12.803 -0.1825 -0.5792  0.2124
  977SOD     NA14459   3.240   3.496   3.206 -0.0504 -0.0262  0.1159
  978SOD     NA14460   2.070   1.818   0.355 -0.6290 -0.0599 -0.2390
  979SOD     NA14461   0.435   3.243  12.787  0.2650 -0.2126  0.4703
  980SOD     NA14462   1.013   0.968  14.351  0.2058 -0.4957  0.4458
  981SOD     NA14463   2.978   3.352   8.899 -0.0236  0.4736 -0.4874
  982SOD     NA14464   3.508   4.011  17.186 -0.0923 -0.8184 -0.0455
  983SOD     NA14465   1.082   3.507  10.012 -0.1136  0.2570 -0.1406
  984SOD     NA14466   0.962   2.294  11.390 -0.0062 -0.3811  0.6252
  985SOD     NA14467   0.655   4.316  12.307  0.3079 -0.0919  0.1069
  986SOD     NA14468   1.467   3.222  11.080 -0.3933  0.2231  0.2653
  987SOD     NA14469   2.321   1.993  16.318  0.5971  0.0092  0.2548
  988SOD     NA14470   1.612   0.270  12.592  0.1234  0.3092  0.1138
  989SOD     NA14471   1.316   2.612   2.306  0.2249  0.3532  0.5308
  990SOD     NA14472   2.199   4.232  11.034 -0.1788  0.0609 -0.8729
  991SOD     NA14473   3.058   3.015  13.252 -0.7774 -0.4798  0.4547
  992SOD     NA14474   0.657   0.823  14.424  0.0707 -0.2086  0.1327
  993SOD     NA14475   3.201   3.832   0.396  0.4503 -0.4847 -0.2918
  994SOD     NA14476   0.506   1.978  10.543  0.0141 -0.1130  0.4061
  995SOD     NA14477   3.473   0.811  14.807  0.1298  0.0482 -0.1289
  996SOD     NA14478   1.655   2.991   1.649  0.3041 -0.2651 -0.1520
  997SOD     NA14479   4.612   0.148  10.833 -0.0011 -0.1070 -0.2879
  998SOD     NA14480   0.420   4.355   9.678  0.1164  0.1119 -0.7790
  999SOD     NA14481   4.198   3.026  11.294 -0.0742 -0.7742 -0.6639
 1000SOD     NA14482   2.774   2.748   9.719 -0.1767 -0.0984  0.2184
 1001SOD     NA14483   2.869   2.283  12.373 -0.1563  0.3404 -0.0039
 1002SOD     NA14484   2.477   0.520  13.470 -0.1179  0.0508  0.2882
 1003SOD     NA14485   2.859   4.476   3.182 -0.2636  0.2275 -0.1604
 1004SOD     NA14486   3.409   2.837   1.575  0.0232  0.3615  0.2605
 1005SOD     NA14487   3.756   2.713  14.825 -0.0739  0.7308  0.2487
 1006SOD     NA14488   2.106   3.858   9.784  0.3934  0.3602 -0.4186
 1007SOD     NA14489   4.620   2.275  14.734  0.4724 -0.4218  0.2056
 1008SOD     NA14490   2.460   0.385  17.072  0.3177 -0.0055  0.4317
 1009SOD     NA14491   2.754   0.557  13.295 -0.0864 -0.5875  0.6397
 1010SOD     NA14492   1.128   0.466   9.340 -0.1919  0.0054 -0.1554
 1011SOD     NA14493   1.177   1.020  16.583  0.1097 -0.1468 -0.9747
 1012SOL     OW14494   2.189   2.983   7.834  0.3193  0.4681  0.2573
 1012SOL    HW114495   2.202   3.040   7.910 -1.1696  2.5437 -1.0496
 1012SOL    HW214496   2.106   2.944   7.861  1.5902 -2.5012 -0.1157
 1013SOL     OW14497   4.512   3.727   3.052  0.3917 -0.1554  0.1893
 1013SOL    HW114498   4.560   3.644   3.049  1.4777  0.4970 -0.4294
 1013SOL    HW214499   4.494   3.739   3.145 -0.4322 -2.0895  0.2836
 1014SOL     OW14500   3.568   0.890   8.281 -0.0792  0.2303 -0.7675
 1014SOL    HW114501   3.497   0.873   8.219 -1.3498  1.9153  0.2029
 1014SOL    HW214502   3.588   0.800   8.304  0.4803  1.1032  2.1254
 1015SOL     OW14503   4.124   0.960   2.050 -0.2479 -0.0181 -0.1707
 1015SOL    HW114504   4.216   0.938   2.032  1.0349  4.3041  1.0645
 1015SOL    HW214505   4.134   0.948   2.144 -1.1444  0.5779 -0.0018
 1016SOL     OW14506   3.018   3.843   9.643 -0.2006 -0.1406  0.5542
 1016SOL    HW114507   3.068   3.900   9.702  0.5664  0.8696 -1.0739
 1016SOL    HW214508   2.961   3.900   9.592  0.4079 -1.5257 -1.6951
 1017SOL     OW14509   1.782   1.473  15.544  0.3140 -0.4196 -0.0817
 1017SOL    HW114510   1.736   1.485  15.627 -1.7304 -1.2062 -1.1006
 1017SOL    HW214511   1.805   1.560  15.511 -1.3539 -0.0886 -0.3535
 1018SOL     OW14512   2.324   0.572  10.845 -0.3608  0.2246 -0.2482
 1018SOL    HW114513   2.246   0.556  10.792 -0.3616  0.0975 -0.2088
 1018SOL    HW214514   2.351   0.493  10.892 -0.2462 -0.7401 -1.9351
 1019SOL     OW14515   2.835   0.991  10.699  0.1450 -0.2414 -0.1628
 1019SOL    HW114516   2.867   0.917  10.648  1.3013  1.5436 -1.9940
 1019SOL    HW214517   2.743   0.978  10.677 -0.0342  0.7054  0.0192
 1020SOL     OW14518   0.083   1.351   7.290  0.1401 -0.1091 -0.7222
 1020SOL    HW114519   0.025   1.332   7.217 -0.4007 -0.6690 -0.1485
 1020SOL    HW214520   0.121   1.267   7.314  1.5393  0.5819 -0.5443
 1021SOL     OW14521   0.511   0.104   7.921 -0.0673 -0.9654  0.0586
 1021SOL    HW114522   0.575   0.173   7.900 -0.8294 -0.0366  0.8118
 1021SOL    HW214523   0.573   0.039   7.953  0.0327  0.3136  2.4841
 1022SOL     OW14524   3.694   1.797  16.090 -0.0059  0.1205  0.0762
 1022SOL    HW114525   3.635   1.872  16.084 -0.8440 -0.8606 -3.9446
 1022SOL    HW214526   3.695   1.785  16.185  0.0523 -0.0033  0.0603
 1023SOL     OW14527   2.952   2.602   2.177  0.0274 -0.2306 -0.0618
 1023SOL    HW114528   2.995   2.530   2.225  1.5789  0.8631  0.1800
 1023SOL    HW214529   2.903   2.642   2.249 -0.7985 -0.5715 -0.4399
 1024SOL     OW14530   1.682   0.710   5.303  0.8860 -0.1882  0.5445
 1024SOL    HW114531   1.707   0.620   5.325 -1.6002 -1.4243 -1.7161
 1024SOL    HW214532   1.589   0.705   5.281  1.5888 -1.3284 -2.1140
 1025SOL     OW14533   1.100   3.869  16.652 -0.4271 -0.5061 -0.1958
 1025SOL    HW114534   1.038   3.917  16.597 -1.7716 -1.1291  0.7627
 1025SOL    HW214535   1.186   3.886  16.613 -0.6473 -0.5778 -0.7109
 1026SOL     OW14536   4.362   0.381   8.543 -0.4474  0.1197 -0.0516
 1026SOL    HW114537   4.332   0.380   8.633  0.0652 -1.1550  0.1063
 1026SOL    HW214538   4.453   0.363   8.567  0.0674 -0.4914 -2.4445
 1027SOL     OW14539   3.233   3.542   0.710 -0.6153 -0.1074 -0.5138
 1027SOL    HW114540   3.190   3.501   0.635  0.5026 -1.1739 -0.5610
 1027SOL    HW214541   3.261   3.622   0.666 -3.7861  0.8967 -0.7689
 1028SOL     OW14542   2.153   1.937   9.880  0.0343 -0.4516 -0.2663
 1028SOL    HW114543   2.153   2.024   9.921  1.9772 -0.6594  0.1579
 1028SOL    HW214544   2.210   1.897   9.945  2.3275  0.2478 -1.8397
 1029SOL     OW14545   1.201   3.393   6.543 -0.5316  0.2826 -0.1269
 1029SOL    HW114546   1.136   3.334   6.507  0.8790  0.4083 -2.8602
 1029SOL    HW214547   1.222   3.342   6.622  0.5349  1.3948  0.3257
 1030SOL     OW14548   3.079   1.008  14.753 -0.1865  0.1424  0.1718
 1030SOL    HW114549   3.150   1.057  14.794 -0.4569  1.3018 -0.7718
 1030SOL    HW214550   3.004   1.005  14.813  0.2913  0.4089  0.7754
 1031SOL     OW14551   3.912   3.375   6.542  0.1803  0.7298  0.0415
 1031SOL    HW114552   3.988   3.427   6.567 -0.7826  2.3076 -0.3121
 1031SOL    HW214553   3.847   3.444   6.532  0.2953  0.7693 -0.4403
 1032SOL     OW14554   2.963   1.739   8.695  0.1120 -1.0570 -0.1615
 1032SOL    HW114555   3.026   1.779   8.635 -1.4986  1.2506 -0.3293
 1032SOL    HW214556   2.987   1.646   8.702 -0.0479 -1.0671  0.2223
 1033SOL     OW14557   0.212   2.991   6.656 -0.2900 -0.6901  0.6598
 1033SOL    HW114558   0.178   3.078   6.637  1.0277 -0.8392 -2.3712
 1033SOL    HW214559   0.143   2.958   6.714 -0.0466  0.1102  1.4019
 1034SOL     OW14560   0.685   3.396   3.998 -0.6784  0.2105  0.2139
 1034SOL    HW114561   0.619   3.440   4.052 -1.9219 -0.9171 -0.3819
 1034SOL    HW214562   0.633   3.386   3.918 -0.7213  3.4163 -0.1792
 1035SOL     OW14563   2.903   4.196   9.593 -0.7229  0.4974 -0.0445
 1035SOL    HW114564   2.832   4.254   9.621 -1.1601  1.2539 -2.6918
 1035SOL    HW214565   2.973   4.227   9.651  0.3433 -2.0448  0.0367
 1036SOL     OW14566   1.589   1.144   8.627 -0.2337  0.0870 -0.4251
 1036SOL    HW114567   1.583   1.065   8.680 -0.0149 -0.1890 -0.8102
 1036SOL    HW214568   1.624   1.203   8.693 -1.2543 -0.4899  0.6348
 1037SOL     OW14569   1.888   1.078   5.073 -0.2768 -0.2935  0.3626
 1037SOL    HW114570   1.804   1.031   5.067 -0.9702  1.1515 -1.3182
 1037SOL    HW214571   1.944   1.012   5.033  0.7233  0.8518 -0.1194
 1038SOL     OW14572   2.789   4.681   9.116 -0.4236  0.9014 -0.1059
 1038SOL    HW114573   2.787   4.648   9.206  3.1261  0.3608 -0.2537
 1038SOL    HW214574   2.834   0.036   9.147  2.8754 -0.4750 -1.4077
 1039SOL     OW14575   1.239   2.238  13.486  0.7357 -0.4420  0.1520
 1039SOL    HW114576   1.185   2.300  13.535  0.5976 -0.3778 -0.0778
 1039SOL    HW214577   1.311   2.232  13.548  0.7864  1.5900  0.3040
 1040SOL     OW14578   3.583   0.825  14.552 -0.4992 -0.2880 -0.2395
 1040SOL    HW114579   3.505   0.876  14.531  0.1417  1.8562  2.6650
 1040SOL    HW214580   3.644   0.899  14.550 -0.9736  0.0621 -1.7684
 1041SOL     OW14581   1.771   4.127   1.982  0.3397  0.0684  0.2638
 1041SOL    HW114582   1.763   4.045   1.933  0.6381 -0.5759  1.2798
 1041SOL    HW214583   1.734   4.197   1.928  3.4984  0.2479 -1.6915
 1042SOL     OW14584   0.321   4.606   3.761 -0.3943  0.6349 -0.4203
 1042SOL    HW114585   0.249   4.666   3.781 -0.4955  0.4761 -0.3065
 1042SOL    HW214586   0.395   4.666   3.752 -2.6700  3.9873  2.9347
 1043SOL     OW14587   2.641   3.203  12.448  0.3776 -0.4208 -0.3012
 1043SOL    HW114588   2.735   3.189  12.447  0.5210  0.5192  0.3767
 1043SOL    HW214589   2.650   3.299  12.445 -1.3982 -0.2340  0.2917
 1044SOL     OW14590   2.958   0.581   8.274 -0.2747 -0.1565 -0.0375
 1044SOL    HW114591   2.972   0.627   8.357  0.6507 -0.1567 -0.1916
 1044SOL    HW214592   3.049   0.577   8.247 -0.2551 -0.5678  0.0939
 1045SOL     OW14593   2.729   3.318   3.534  0.2635 -0.1180  0.2567
 1045SOL    HW114594   2.690   3.237   3.566 -0.6285  0.4547  0.6053
 1045SOL    HW214595   2.700   3.324   3.443  2.6829  0.5710 -0.4910
 1046SOL     OW14596   2.151   4.242  11.796  0.2081 -0.0716  0.2642
 1046SOL    HW114597   2.194   4.190  11.864 -1.8652 -0.0102  1.6118
 1046SOL    HW214598   2.193   4.195  11.724 -0.4096  0.6660 -0.5800
 1047SOL     OW14599   0.043   4.046   3.407 -0.4256  0.7642 -0.1406
 1047SOL    HW114600   4.705   3.973   3.413 -0.2135  0.4372 -1.8830
 1047SOL    HW214601   0.012   4.099   3.480  1.5161 -0.7547  1.7703
 1048SOL     OW14602   2.187   2.365   5.270  0.0870  0.1720  0.2324
 1048SOL    HW114603   2.108   2.380   5.218 -0.3792  1.0917  1.1979
 1048SOL    HW214604   2.187   2.271   5.256 -1.6911  0.2153 -0.0559
 1049SOL     OW14605   1.427   3.823   5.811 -0.5973 -0.6652  0.1008
 1049SOL    HW114606   1.367   3.887   5.773 -0.6066 -0.0853  1.1003
 1049SOL    HW214607   1.499   3.812   5.750 -0.4065 -0.1599  0.2373
 1050SOL     OW14608   0.992   1.259  12.068 -0.0592 -0.2326 -0.7124
 1050SOL    HW114609   1.048   1.184  12.087  0.3696  0.7934  2.1688
 1050SOL    HW214610   1.011   1.276  11.976 -1.3547 -1.0632 -1.1278
 1051SOL     OW14611   3.283   0.033   4.804  0.3063  0.3005  0.1566
 1051SOL    HW114612   3.362   4.711   4.833 -0.4873 -0.6494  0.8112
 1051SOL    HW214613   3.218   0.000   4.866  0.1860  1.0008  0.4022
 1052SOL     OW14614   0.936   3.027   6.990  0.9022  0.7365  0.1746
 1052SOL    HW114615   0.916   2.935   7.004 -0.7169  1.0915  0.2471
 1052SOL    HW214616   0.957   3.037   6.897 -2.4041  1.5558 -0.4904
 1053SOL     OW14617   4.575   0.953   2.291 -0.2995  0.4608  0.3592
 1053SOL    HW114618   4.569   1.042   2.256 -2.7921 -0.6136 -2.0091
 1053SOL    HW214619   4.653   0.956   2.346 -0.8126 -0.6208  1.1553
 1054SOL     OW14620   3.606   0.289   7.502  0.0610  0.0651  0.2690
 1054SOL    HW114621   3.650   0.205   7.520 -1.2071 -0.2965  1.7078
 1054SOL    HW214622   3.522   0.276   7.546 -0.7701  1.1490 -1.0065
 1055SOL     OW14623   2.608   0.351   8.308 -0.0088 -0.1126  0.0248
 1055SOL    HW114624   2.641   0.326   8.222  1.0404  1.1101  0.0723
 1055SOL    HW214625   2.677   0.325   8.369 -0.5931 -1.2578  0.1838
 1056SOL     OW14626   1.968   1.066   6.953  0.5881  0.2536 -0.1057
 1056SOL    HW114627   1.880   1.053   6.916  1.0160  1.3991 -1.5399
 1056SOL    HW214628   1.972   0.987   7.007 -0.8306  1.3462  1.6074
 1057SOL     OW14629   2.661   3.067   5.799 -0.3454 -0.0047 -0.7456
 1057SOL    HW114630   2.581   3.120   5.793 -1.0238 -0.9673 -0.1809
 1057SOL    HW214631   2.636   2.976   5.782  1.9381 -0.6269 -0.7085
 1058SOL     OW14632   1.698   3.992  11.324 -0.2230  0.0230  0.3120
 1058SOL    HW114633   1.706   3.993  11.419  1.2335  0.3999  0.1869
 1058SOL    HW214634   1.708   3.900  11.299  1.5296  1.1235 -3.0447
 1059SOL     OW14635   0.637   0.541   2.821  0.2145 -0.4730 -0.8916
 1059SOL    HW114636   0.684   0.567   2.742 -0.2502 -0.6688 -1.2348
 1059SOL    HW214637   0.617   0.452   2.792  0.0081 -0.7401  0.0900
 1060SOL     OW14638   3.540   1.866  10.874 -0.0624  0.4617  0.2570
 1060SOL    HW114639   3.528   1.825  10.788  0.9786  0.2835  0.1934
 1060SOL    HW214640   3.453   1.904  10.881  0.1810  1.2403 -0.9509
 1061SOL     OW14641   3.967   0.463   6.703 -0.1776  0.1070 -1.0741
 1061SOL    HW114642   3.994   0.423   6.786  2.4599 -1.3208 -2.6587
 1061SOL    HW214643   4.049   0.502   6.673  0.3908 -0.4818 -0.2799
 1062SOL     OW14644   2.649   3.606   7.535  0.2076  0.0505  0.8976
 1062SOL    HW114645   2.743   3.614   7.549  0.1748 -2.6621  2.6777
 1062SOL    HW214646   2.614   3.643   7.616 -0.1070  2.0319 -0.1373
 1063SOL     OW14647   0.776   3.771   9.626  0.0868  0.2119 -0.3548
 1063SOL    HW114648   0.766   3.795   9.719 -1.2615  3.5674 -1.3635
 1063SOL    HW214649   0.800   3.679   9.636 -0.6854  0.0159 -0.2328
 1064SOL     OW14650   4.520   3.296  12.729 -0.1392 -0.5733 -0.1467
 1064SOL    HW114651   4.470   3.239  12.670  1.2708 -0.2238 -1.6680
 1064SOL    HW214652   4.506   3.380  12.685  0.3919 -0.5286 -0.2268
 1065SOL     OW14653   2.668   0.051  13.000  0.3828  0.3564 -0.7401
 1065SOL    HW114654   2.696   4.689  13.031  0.1645 -1.0421 -4.4952
 1065SOL    HW214655   2.698   0.057  12.910  1.1455  0.2257 -0.4934
 1066SOL     OW14656   3.172   1.798   4.456 -0.1443  0.3982  0.1385
 1066SOL    HW114657   3.205   1.883   4.429 -0.4682  0.9812  1.6018
 1066SOL    HW214658   3.173   1.799   4.552 -2.9583  1.4443  0.1518
 1067SOL     OW14659   3.291   0.443   8.407  0.1728 -0.1093  0.0027
 1067SOL    HW114660   3.318   0.529   8.440  1.8323 -0.8750  0.6301
 1067SOL    HW214661   3.358   0.390   8.450  2.1050  1.1367 -1.4985
 1068SOL     OW14662   2.314   0.316   6.545 -0.2136 -0.1943  0.2637
 1068SOL    HW114663   2.327   0.378   6.473 -0.7140  1.8250  1.9181
 1068SOL    HW214664   2.271   0.372   6.609 -1.8349  0.3965 -1.3541
 1069SOL     OW14665   1.111   4.614   9.743  0.5760  0.2698 -0.2972
 1069SOL    HW114666   1.149   4.673   9.677  1.1437  0.4569  0.1953
 1069SOL    HW214667   1.047   4.672   9.784  0.4685 -0.2929  0.3320
 1070SOL     OW14668   2.216   0.228   2.470  0.6609  0.9278 -0.3378
 1070SOL    HW114669   2.128   0.260   2.489  0.3808 -0.1802  0.2080
 1070SOL    HW214670   2.197   0.136   2.454  2.8872  0.7894 -2.2083
 1071SOL     OW14671   3.587   4.458   2.263  0.6931  0.3901 -0.3578
 1071SOL    HW114672   3.542   4.386   2.219  0.4616  0.5806 -0.4366
 1071SOL    HW214673   3.620   4.407   2.337 -0.0985  0.5115  0.0707
 1072SOL     OW14674   2.249   3.941   4.819 -0.1475  0.2333  0.2411
 1072SOL    HW114675   2.194   3.880   4.768 -0.6417  2.7572 -2.2174
 1072SOL    HW214676   2.192   3.991   4.877 -0.8203  1.1821 -1.2338
 1073SOL     OW14677   1.140   0.099   6.411  0.0296  0.8890 -0.2739
 1073SOL    HW114678   1.136   0.067   6.321 -0.4304 -0.2895  0.1692
 1073SOL    HW214679   1.235   0.106   6.419  0.0999  1.1854 -1.2397
 1074SOL     OW14680   4.233   3.996   3.905  0.3281 -0.4319 -0.2972
 1074SOL    HW114681   4.164   3.930   3.894  1.6372 -2.0634  1.3100
 1074SOL    HW214682   4.182   4.076   3.919 -1.0569 -0.7234 -3.6756
 1075SOL     OW14683   3.957   0.270   4.163  0.6527 -0.0090  0.1258
 1075SOL    HW114684   3.930   0.206   4.229  1.6886 -0.6740 -0.1016
 1075SOL    HW214685   3.958   0.211   4.088 -0.3809  1.0131 -0.6881
 1076SOL     OW14686   0.059   1.816   4.419 -0.3720 -0.1916 -0.1983
 1076SOL    HW114687   0.112   1.754   4.469  0.5051  0.7928  0.0970
 1076SOL    HW214688   4.693   1.795   4.442 -1.0481  2.3691 -0.5046
 1077SOL     OW14689   1.641   2.025   8.101 -0.0958  0.1658 -0.1417
 1077SOL    HW114690   1.555   2.020   8.144 -0.3382 -2.7600 -0.9898
 1077SOL    HW214691   1.621   1.950   8.045  1.8583 -0.0841 -0.5046
 1078SOL     OW14692   0.201   4.277   6.186  0.1033 -0.3552  0.2930
 1078SOL    HW114693   0.126   4.224   6.212  1.0407 -0.7796  2.1763
 1078SOL    HW214694   0.165   4.298   6.100  2.0206 -0.2568 -0.4900
 1079SOL     OW14695   1.122   1.310  10.605 -0.4332  0.3404  0.0389
 1079SOL    HW114696   1.090   1.288  10.518  0.8077  0.6772 -0.5109
 1079SOL    HW214697   1.044   1.341  10.652 -0.7125 -0.3919  0.0506
 1080SOL     OW14698   2.167   0.097  11.004 -0.4181  0.0350 -0.2004
 1080SOL    HW114699   2.120   0.168  11.046  1.3547  0.7787  0.5393
 1080SOL    HW214700   2.231   0.090  11.075  0.9949  1.8538 -1.2715
 1081SOL     OW14701   4.302   0.779   3.446  0.1052  0.0488 -0.6349
 1081SOL    HW114702   4.356   0.766   3.367  1.2969  2.3121 -0.2129
 1081SOL    HW214703   4.360   0.833   3.499  0.1800 -1.1565  0.4947
 1082SOL     OW14704   4.577   3.371  13.679 -0.0236  0.0291 -0.0148
 1082SOL    HW114705   4.628   3.416  13.611  2.4975  0.2003  1.9739
 1082SOL    HW214706   4.495   3.375  13.630 -0.2182 -2.8152  0.0901
 1083SOL     OW14707   3.380   3.660   6.917 -0.4026 -0.4592 -0.2291
 1083SOL    HW114708   3.371   3.700   6.830 -0.3343  2.1997  0.9920
 1083SOL    HW214709   3.414   3.576   6.888  0.1214  0.1112 -1.2727
 1084SOL     OW14710   1.269   2.502  13.571  0.3268  0.2151  0.3902
 1084SOL    HW114711   1.363   2.517  13.561  0.6414 -0.3095  2.5332
 1084SOL    HW214712   1.259   2.537  13.660  0.4946  2.4306 -0.4835
 1085SOL     OW14713   2.867   0.593   5.083 -0.2485  0.0829  0.1086
 1085SOL    HW114714   2.802   0.542   5.035  1.1241 -1.0065 -0.5983
 1085SOL    HW214715   2.953   0.563   5.052  0.0744 -0.3732  1.4636
 1086SOL     OW14716   1.796   0.638   5.888 -0.3546  0.1771 -0.4323
 1086SOL    HW114717   1.723   0.576   5.889  0.2046 -0.4693 -0.1936
 1086SOL    HW214718   1.808   0.640   5.793 -0.0865 -0.0710 -0.4020
 1087SOL     OW14719   3.524   2.284   0.210 -0.3505  0.4681  0.2420
 1087SOL    HW114720   3.430   2.269   0.206 -0.4140  0.7589  0.7049
 1087SOL    HW214721   3.549   2.192   0.223 -1.1738  0.2103  0.0195
 1088SOL     OW14722   4.144   1.651   3.724 -0.1272  0.6277  0.1549
 1088SOL    HW114723   4.192   1.675   3.645  2.0162 -0.2068  1.2045
 1088SOL    HW214724   4.053   1.641   3.696  0.6949 -1.8469 -1.7308
 1089SOL     OW14725   3.512   3.444  16.210  0.5040 -0.5117 -0.5045
 1089SOL    HW114726   3.448   3.411  16.147 -0.5323  1.6255 -0.5952
 1089SOL    HW214727   3.580   3.468  16.147  1.4458 -2.0418 -0.0555
 1090SOL     OW14728   3.935   0.829   8.256  0.1141 -0.3074 -0.1721
 1090SOL    HW114729   3.947   0.737   8.279 -0.9239 -0.8870 -2.0142
 1090SOL    HW214730   4.019   0.866   8.287  0.1052  0.1422 -0.6837
 1091SOL     OW14731   2.954   1.189   4.897  0.1138  0.2732 -0.3090
 1091SOL    HW114732   2.968   1.096   4.913  0.3756  0.3529 -0.0700
 1091SOL    HW214733   2.901   1.186   4.817 -0.0335 -0.0862 -0.1962
 1092SOL     OW14734   1.648   3.864   8.133  0.2536  0.1135  0.4330
 1092SOL    HW114735   1.563   3.829   8.159  0.9143 -2.4622 -0.8109
 1092SOL    HW214736   1.674   3.796   8.070  0.4063  1.2335 -0.6991
 1093SOL     OW14737   0.262   0.077  10.792 -0.1756 -0.2759  0.4016
 1093SOL    HW114738   0.271   0.168  10.822 -2.4997 -0.2260  1.0040
 1093SOL    HW214739   0.179   0.042  10.825  0.1642 -1.0299  0.4511
 1094SOL     OW14740   0.078   3.776  12.782  0.1265  0.0023 -0.1120
 1094SOL    HW114741   0.154   3.718  12.777  0.7450  0.9032 -1.2714
 1094SOL    HW214742   0.014   3.715  12.746  0.6017  0.1827 -1.2470
 1095SOL     OW14743   3.576   1.812   9.014  0.6949 -0.1870 -0.3897
 1095SOL    HW114744   3.610   1.724   9.001 -0.3867 -0.6694  0.0568
 1095SOL    HW214745   3.638   1.841   9.081  0.0730 -1.8816  0.9257
 1096SOL     OW14746   0.116   4.686  14.957 -0.3718 -0.3013 -0.5258
 1096SOL    HW114747   0.188   4.623  14.951  0.9743  1.3239 -1.2246
 1096SOL    HW214748   0.090   4.677  15.049 -1.0340 -0.9031 -0.7741
 1097SOL     OW14749   3.551   3.960   4.489 -0.4704 -0.4926  0.0036
 1097SOL    HW114750   3.623   4.014   4.522 -1.2224 -1.1335  2.7438
 1097SOL    HW214751   3.491   3.959   4.563 -0.6828 -2.5630 -0.1995
 1098SOL     OW14752   3.023   1.164   8.461  0.4691 -0.3703 -0.0724
 1098SOL    HW114753   2.978   1.239   8.420 -1.4624 -1.1520  0.6084
 1098SOL    HW214754   2.989   1.170   8.550  0.3422  0.1956 -0.1584
 1099SOL     OW14755   4.300   1.718   8.073  0.0379  0.4275 -0.3540
 1099SOL    HW114756   4.269   1.780   8.139 -0.2923  0.0867 -0.1885
 1099SOL    HW214757   4.375   1.672   8.111  1.2797  2.1948 -0.6634
 1100SOL     OW14758   1.277   3.110  11.002  0.0256 -0.2784 -0.3636
 1100SOL    HW114759   1.204   3.164  10.972  0.8420  0.1738 -1.5315
 1100SOL    HW214760   1.230   3.026  11.002  0.1440 -0.3384 -1.4623
 1101SOL     OW14761   3.023   4.043   8.911  0.0312 -0.3976  0.1305
 1101SOL    HW114762   3.034   3.968   8.969 -0.3384 -0.4372  0.1545
 1101SOL    HW214763   3.085   4.110   8.939  1.6505 -1.5973 -0.6300
 1102SOL     OW14764   3.280   2.083   9.264 -0.5138  0.0812 -0.2662
 1102SOL    HW114765   3.277   2.139   9.187 -1.5186  0.6707  0.2032
 1102SOL    HW214766   3.328   2.008   9.230  0.4099  0.7784 -0.4944
 1103SOL     OW14767   0.647   2.611   2.183 -0.3378  0.7457 -0.2008
 1103SOL    HW114768   0.686   2.616   2.270  3.9765 -1.4818 -2.0033
 1103SOL    HW214769   0.720   2.638   2.127 -1.7352  3.5678 -0.7110
 1104SOL     OW14770   2.378   0.361  11.014  0.1866  0.3728  0.0106
 1104SOL    HW114771   2.391   0.310  11.094 -0.8279  0.1101  0.0081
 1104SOL    HW214772   2.365   0.295  10.946  2.2114  0.0368 -0.0522
 1105SOL     OW14773   4.290   2.731   5.269 -0.3304  0.7529  0.1750
 1105SOL    HW114774   4.288   2.772   5.355  1.4989  0.9457  0.1137
 1105SOL    HW214775   4.341   2.789   5.213 -1.8715  2.4556  0.5292
 1106SOL     OW14776   0.040   2.406  11.350 -0.0429  0.1901 -0.1624
 1106SOL    HW114777   4.706   2.333  11.376 -0.8215  1.1885  0.9056
 1106SOL    HW214778   0.009   2.411  11.260  0.8987  0.0451 -0.4942
 1107SOL     OW14779   0.779   2.228   4.928 -0.0377 -0.6305  0.2811
 1107SOL    HW114780   0.709   2.212   4.864 -1.0231 -1.0233  1.4648
 1107SOL    HW214781   0.796   2.321   4.911  2.0862 -1.1832 -0.6072
 1108SOL     OW14782   3.471   1.523  17.543  1.2261 -0.2680  0.7414
 1108SOL    HW114783   3.402   1.490  17.487 -0.7164  0.2744  2.8233
 1108SOL    HW214784   3.520   1.442  17.557  1.3005 -0.0459  1.7448
 1109SOL     OW14785   1.231   2.223  17.043 -1.0805  0.0613  0.0170
 1109SOL    HW114786   1.187   2.144  17.013 -1.4003  0.3174 -0.1807
 1109SOL    HW214787   1.217   2.273  16.963  0.2173 -1.2038 -0.9969
 1110SOL     OW14788   0.218   1.350  12.154  0.3984  0.6096 -0.3977
 1110SOL    HW114789   0.287   1.349  12.220 -0.9712 -1.4208  1.0243
 1110SOL    HW214790   0.221   1.262  12.114 -0.8504  0.3863 -0.0212
 1111SOL     OW14791   2.063   1.200   3.432  0.4751 -0.0897  0.3570
 1111SOL    HW114792   2.016   1.240   3.505  2.3067  2.2836  0.2122
 1111SOL    HW214793   1.988   1.193   3.371  1.3467  0.0111 -0.7280
 1112SOL     OW14794   3.271   3.098   8.445 -0.2796 -0.4548 -0.2009
 1112SOL    HW114795   3.320   3.026   8.485  1.5720  1.2296  0.6020
 1112SOL    HW214796   3.297   3.093   8.353 -1.9607  0.0164 -0.6871
 1113SOL     OW14797   1.577   2.233   3.823 -0.1077 -0.0287  0.2761
 1113SOL    HW114798   1.497   2.274   3.855 -0.2809  0.5122 -0.8328
 1113SOL    HW214799   1.613   2.306   3.771 -1.2722  1.1241  1.0921
 1114SOL     OW14800   1.062   3.724   2.499  0.1361 -0.1962 -0.5593
 1114SOL    HW114801   1.070   3.636   2.462 -1.3220 -0.6798  0.2810
 1114SOL    HW214802   1.141   3.763   2.462  1.5350 -2.2175  0.3469
 1115SOL     OW14803   0.430   2.129   7.336  0.6072 -0.3635  0.0963
 1115SOL    HW114804   0.422   2.178   7.418 -0.3075 -0.1964 -0.0850
 1115SOL    HW214805   0.436   2.202   7.275 -0.4149  0.9361  1.5429
 1116SOL     OW14806   2.374   4.206  10.374 -0.0684  0.4457 -0.4794
 1116SOL    HW114807   2.339   4.294  10.360  0.9156  0.8920 -0.1054
 1116SOL    HW214808   2.362   4.204  10.469 -0.0529 -0.8696 -0.5093
 1117SOL     OW14809   4.114   0.642   5.986 -0.0463 -0.2431 -1.0308
 1117SOL    HW114810   4.174   0.635   6.060 -1.3244 -2.2357 -0.2006
 1117SOL    HW214811   4.107   0.738   5.982 -3.6790 -0.2756  4.3167
 1118SOL     OW14812   0.155   4.604  14.684 -1.0234 -0.5011  0.5564
 1118SOL    HW114813   0.122   4.662  14.616  0.9637  0.3036  0.2635
 1118SOL    HW214814   0.131   4.653  14.762 -2.2371 -1.2901  0.6803
 1119SOL     OW14815   0.501   1.645   6.789 -0.0065  0.0607 -1.0145
 1119SOL    HW114816   0.519   1.554   6.814  0.9227  0.1121 -1.4889
 1119SOL    HW214817   0.519   1.678   6.877 -0.7514 -0.3611 -0.7030
 1120SOL     OW14818   2.507   4.145   1.849 -0.2151  0.6452 -0.8774
 1120SOL    HW114819   2.561   4.172   1.775  1.6687 -1.1387 -0.1666
 1120SOL    HW214820   2.424   4.188   1.827 -0.5356  0.2013 -0.5291
 1121SOL     OW14821   4.527   1.412   7.218  0.2944 -0.2317 -0.0726
 1121SOL    HW114822   4.610   1.438   7.260  0.0078  2.6284 -1.2678
 1121SOL    HW214823   4.475   1.411   7.299  0.3649  1.9103  0.0078
 1122SOL     OW14824   3.246   3.442   1.022 -0.2344 -0.1098  0.3011
 1122SOL    HW114825   3.242   3.380   0.949  1.9634 -0.1142  0.1850
 1122SOL    HW214826   3.340   3.445   1.040 -0.2676 -0.5362  0.5460
 1123SOL     OW14827   1.126   4.229   1.329 -0.1873 -0.3644  0.3155
 1123SOL    HW114828   1.145   4.183   1.411  2.5511  1.2700  0.6202
 1123SOL    HW214829   1.114   4.158   1.267 -2.7209 -1.6838  2.3160
 1124SOL     OW14830   4.474   2.448  13.185 -0.3261  0.1356 -0.2908
 1124SOL    HW114831   4.472   2.491  13.100 -1.6556  1.3947  0.3779
 1124SOL    HW214832   4.405   2.495  13.233  0.5401  0.5949  0.5138
 1125SOL     OW14833   1.634   2.119  15.181  0.1758 -0.4417  0.2805
 1125SOL    HW114834   1.557   2.073  15.147  0.3483 -0.6364  0.1564
 1125SOL    HW214835   1.606   2.211  15.175 -1.3671 -1.0743 -2.1498
 1126SOL     OW14836   0.671   1.917   7.546 -0.4730  0.3035  0.2976
 1126SOL    HW114837   0.600   1.872   7.591 -1.4192  0.5620 -0.9121
 1126SOL    HW214838   0.713   1.966   7.616  0.3479  2.2324 -1.5354
 1127SOL     OW14839   1.328   3.805  10.756  0.1153  0.7319 -0.7379
 1127SOL    HW114840   1.317   3.890  10.715  0.4404  1.1199 -0.0311
 1127SOL    HW214841   1.363   3.748  10.688  1.6022 -1.0061  1.4634
 1128SOL     OW14842   4.585   4.500   0.687  0.1412 -0.4441  0.4953
 1128SOL    HW114843   4.674   4.469   0.672  0.1256 -0.8150  1.1635
 1128SOL    HW214844   4.599   4.558   0.762 -0.0117 -0.7059  0.7281
 1129SOL     OW14845   2.699   1.040   8.766  0.2157  0.3371 -0.1011
 1129SOL    HW114846   2.728   1.020   8.855  2.3676 -1.2993 -1.1723
 1129SOL    HW214847   2.617   1.086   8.782  0.5945  1.4976 -1.4207
 1130SOL     OW14848   0.009   0.304   9.496 -0.1562  0.2114  0.3370
 1130SOL    HW114849   0.053   0.275   9.576 -0.6650 -1.2780  0.0661
 1130SOL    HW214850   4.646   0.314   9.535 -0.7883  0.8895 -1.2515
 1131SOL     OW14851   0.311   0.026   2.224 -0.6743  0.4272 -0.3708
 1131SOL    HW114852   0.242   0.080   2.186 -1.6366 -0.3758  0.2374
 1131SOL    HW214853   0.253   4.692   2.274  0.3474 -1.8046 -1.7431
 1132SOL     OW14854   0.275   3.932   2.949  0.4286 -0.1315 -0.1666
 1132SOL    HW114855   0.229   3.929   3.034 -0.7679 -0.8499 -0.8346
 1132SOL    HW214856   0.204   3.940   2.885  0.7182 -0.0449 -0.4708
 1133SOL     OW14857   3.740   0.233   6.077  0.1582  0.0805 -0.0384
 1133SOL    HW114858   3.774   0.323   6.080  1.2728 -0.3716  0.8868
 1133SOL    HW214859   3.666   0.245   6.018 -2.5182 -0.7698  3.1053
 1134SOL     OW14860   0.987   0.383  13.692 -0.3625 -0.1577 -0.3289
 1134SOL    HW114861   1.057   0.436  13.730 -0.2415  0.3146 -1.2071
 1134SOL    HW214862   0.971   0.320  13.761 -0.3100 -1.1193 -1.1962
 1135SOL     OW14863   2.972   3.851   4.944 -0.1164 -0.5712  0.9053
 1135SOL    HW114864   2.945   3.864   4.853  0.9135 -0.7861  0.5632
 1135SOL    HW214865   2.955   3.757   4.943 -1.2441 -0.3724  1.0620
 1136SOL     OW14866   2.227   1.702  14.468  0.2973  0.6160  0.6424
 1136SOL    HW114867   2.259   1.618  14.502 -0.1683 -0.5403 -1.7803
 1136SOL    HW214868   2.246   1.678  14.377  0.9560  1.2205  0.6158
 1137SOL     OW14869   3.955   3.094   0.232  0.3791  0.4215  0.4507
 1137SOL    HW114870   3.902   3.144   0.171 -0.6674 -2.5546 -1.0368
 1137SOL    HW214871   3.961   3.160   0.302 -1.3295 -0.9538  1.8818
 1138SOL     OW14872   2.332   3.989  11.798  0.1198  0.8299 -0.3002
 1138SOL    HW114873   2.329   3.896  11.776 -0.6442  0.5938  0.8055
 1138SOL    HW214874   2.293   3.993  11.885 -0.3923  0.1354 -0.4993
 1139SOL     OW14875   0.940   0.650   4.622 -0.3139  0.2797 -0.3270
 1139SOL    HW114876   0.927   0.628   4.530 -0.9814  0.0375 -0.1764
 1139SOL    HW214877   0.867   0.711   4.637 -1.2145 -0.2931 -2.4645
 1140SOL     OW14878   2.828   3.979   4.331  0.3897 -0.0859  0.6878
 1140SOL    HW114879   2.839   3.886   4.311  0.8694  0.1139  0.0196
 1140SOL    HW214880   2.774   3.983   4.410  0.7785  1.1446  0.8970
 1141SOL     OW14881   2.159   2.497   6.415 -0.2313 -0.4079 -0.1922
 1141SOL    HW114882   2.126   2.515   6.503  0.4545  0.2299 -0.0566
 1141SOL    HW214883   2.254   2.510   6.423 -0.2192 -0.2886 -0.5261
 1142SOL     OW14884   0.140   3.490   3.947 -0.6072  0.6262  0.6197
 1142SOL    HW114885   0.168   3.582   3.953  0.5212  0.4834 -2.4005
 1142SOL    HW214886   0.050   3.506   3.974 -1.6425 -0.2546 -2.3480
 1143SOL     OW14887   0.602   2.048   3.004  0.4253 -0.6314  0.3294
 1143SOL    HW114888   0.521   2.039   2.955  0.9356 -1.5433 -0.3421
 1143SOL    HW214889   0.661   1.984   2.965 -0.0858 -0.0922 -1.3132
 1144SOL     OW14890   2.878   2.008   5.713  0.1648  0.7053 -0.0867
 1144SOL    HW114891   2.884   1.964   5.629  0.1957 -0.1769  0.3753
 1144SOL    HW214892   2.950   2.071   5.718  1.5443 -0.9570  0.7823
 1145SOL     OW14893   4.321   4.280   5.745  0.1553 -0.3549  0.0342
 1145SOL    HW114894   4.312   4.373   5.727 -0.3610 -0.0027  2.1001
 1145SOL    HW214895   4.233   4.252   5.771  0.6327 -1.0258  0.9380
 1146SOL     OW14896   0.590   4.211   9.331 -0.2797  0.2465  0.3451
 1146SOL    HW114897   0.534   4.190   9.406  1.1216 -1.0339  1.0350
 1146SOL    HW214898   0.638   4.129   9.319  1.5801  1.6217 -1.6660
 1147SOL     OW14899   4.139   2.238  13.021 -0.1474  0.0772  0.3689
 1147SOL    HW114900   4.045   2.232  13.004 -0.0515 -1.2459  0.3230
 1147SOL    HW214901   4.164   2.148  13.042  1.7234  1.2694  3.2480
 1148SOL     OW14902   2.949   0.883   4.415 -0.9689  0.1519  0.6920
 1148SOL    HW114903   2.921   0.795   4.441  1.6728 -1.2224 -1.1472
 1148SOL    HW214904   3.043   0.881   4.431 -0.8793 -2.5875 -0.2063
 1149SOL     OW14905   3.294   2.779  10.501 -0.1276 -0.2016 -0.4579
 1149SOL    HW114906   3.308   2.685  10.513  2.9571  0.4308  0.8689
 1149SOL    HW214907   3.349   2.820  10.567  1.2167  0.4933 -2.0291
 1150SOL     OW14908   3.751   2.867   2.067 -0.0099 -0.3531 -0.2398
 1150SOL    HW114909   3.811   2.794   2.079  1.3656  0.6432 -1.0609
 1150SOL    HW214910   3.668   2.822   2.057  1.1170 -2.3061 -0.6824
 1151SOL     OW14911   3.469   3.245   2.790 -0.0340 -0.3189  0.3706
 1151SOL    HW114912   3.514   3.161   2.795  0.3321 -0.1062  0.6362
 1151SOL    HW214913   3.532   3.311   2.761  0.4679  0.2200  2.6627
 1152SOL     OW14914   2.787   3.639   6.213 -0.2803  0.2952  0.1252
 1152SOL    HW114915   2.831   3.680   6.287 -0.6304  1.9084 -0.5471
 1152SOL    HW214916   2.764   3.714   6.157  2.4220  0.1742 -1.1481
 1153SOL     OW14917   0.648   1.260  10.557 -0.5475  0.3670  0.0959
 1153SOL    HW114918   0.581   1.230  10.619  0.2339 -0.2517  0.6517
 1153SOL    HW214919   0.722   1.205  10.583 -0.2098  0.4350 -0.7332
 1154SOL     OW14920   3.879   2.599   4.066 -0.3579 -0.0219  0.4608
 1154SOL    HW114921   3.864   2.667   4.132 -0.4085 -0.6157  1.0649
 1154SOL    HW214922   3.828   2.529   4.107  1.7224 -2.3103 -0.8743
 1155SOL     OW14923   2.438   3.594   7.086 -0.4188 -0.3120 -0.1269
 1155SOL    HW114924   2.525   3.616   7.118  0.5248 -1.7122 -1.7714
 1155SOL    HW214925   2.429   3.506   7.123 -0.5093 -0.8058 -1.3117
 1156SOL     OW14926   0.485   2.659   6.577  0.1384 -0.6762 -0.4640
 1156SOL    HW114927   0.462   2.578   6.532  0.2042 -1.8101  1.5666
 1156SOL    HW214928   0.438   2.730   6.532 -0.2783 -1.0504 -0.6167
 1157SOL     OW14929   3.048   1.033   9.557  0.6857  0.5185 -0.6454
 1157SOL    HW114930   3.056   1.096   9.484  3.4429 -3.4434 -3.7483
 1157SOL    HW214931   3.134   1.042   9.598  0.4363 -1.5014  0.2794
 1158SOL     OW14932   1.730   3.451   3.756  0.1464  0.8948  0.1875
 1158SOL    HW114933   1.771   3.511   3.818 -1.7553  1.5025  0.8571
 1158SOL    HW214934   1.697   3.384   3.815  1.1836 -0.4395 -0.7480
 1159SOL     OW14935   3.096   0.612  11.801 -0.2812  0.7171  0.0339
 1159SOL    HW114936   3.017   0.645  11.843  1.7293  4.0053  1.2505
 1159SOL    HW214937   3.141   0.559  11.866  0.6212  1.3013 -0.1047
 1160SOL     OW14938   3.962   0.586   2.139 -0.4272  0.5009  0.2668
 1160SOL    HW114939   3.946   0.505   2.189 -0.4031 -0.0002 -0.5399
 1160SOL    HW214940   4.032   0.625   2.192  0.5932 -0.0959 -0.6294
 1161SOL     OW14941   1.510   2.554   6.681 -0.3300 -0.0926  0.2192
 1161SOL    HW114942   1.458   2.480   6.649  0.4069 -0.3262 -0.4192
 1161SOL    HW214943   1.463   2.624   6.634  1.0173  0.9659  0.4549
 1162SOL     OW14944   2.769   4.415   8.723 -0.0971  0.3754 -0.2761
 1162SOL    HW114945   2.739   4.491   8.772 -1.2901  0.0716 -0.5522
 1162SOL    HW214946   2.813   4.454   8.648  0.6784  3.0884  1.5846
 1163SOL     OW14947   3.329   0.580   2.730 -0.3543  0.4089 -0.5955
 1163SOL    HW114948   3.312   0.666   2.769 -1.8189 -0.6218  1.0596
 1163SOL    HW214949   3.295   0.602   2.644 -1.5159 -0.1565 -0.2814
 1164SOL     OW14950   1.491   0.125   1.543 -0.1373 -0.4553  0.0227
 1164SOL    HW114951   1.464   0.033   1.540 -0.6610 -0.2669 -1.0683
 1164SOL    HW214952   1.567   0.129   1.485 -1.3636 -2.3879 -1.7410
 1165SOL     OW14953   1.779   4.703  17.484  0.2620 -0.2100 -0.0845
 1165SOL    HW114954   1.745   4.628  17.434 -0.4242 -0.1206  0.2430
 1165SOL    HW214955   1.755   4.692  17.576  0.5440  1.0028  0.1257
 1166SOL     OW14956   4.556   2.666  10.225 -0.2191 -0.3211 -0.4531
 1166SOL    HW114957   4.511   2.583  10.209 -3.2071  1.1218  0.6151
 1166SOL    HW214958   4.630   2.634  10.278 -0.6434 -1.2461 -0.4187
 1167SOL     OW14959   2.011   3.664   7.584  0.0954 -0.2473 -0.1537
 1167SOL    HW114960   1.998   3.587   7.640 -1.4195  0.4174  0.3878
 1167SOL    HW214961   2.104   3.664   7.561 -0.3205  0.0632 -1.8436
 1168SOL     OW14962   4.630   3.906   6.238  0.3970 -0.2727  0.0997
 1168SOL    HW114963   4.580   3.921   6.319  0.4488  1.0123 -0.1037
 1168SOL    HW214964   4.703   3.848   6.257 -0.9740 -1.1228  2.7861
 1169SOL     OW14965   0.535   0.086   2.352  0.4570  0.2024 -0.4289
 1169SOL    HW114966   0.559   0.005   2.397  0.9554 -0.0765 -1.1852
 1169SOL    HW214967   0.453   0.057   2.311  0.6676  0.2780 -0.9085
 1170SOL     OW14968   3.698   4.041   3.908 -0.1869  0.1726 -0.5327
 1170SOL    HW114969   3.708   4.067   4.000  1.5076  0.5082 -0.8138
 1170SOL    HW214970   3.715   4.122   3.860  1.5006  0.6900  0.9404
 1171SOL     OW14971   3.479   2.512  16.563 -0.1841  0.4721  0.9140
 1171SOL    HW114972   3.505   2.517  16.471 -1.4415 -3.8020  0.3117
 1171SOL    HW214973   3.447   2.422  16.561  0.6558  0.2210 -1.7295
 1172SOL     OW14974   0.593   4.407   8.960 -0.3571 -0.1968 -0.5383
 1172SOL    HW114975   0.657   4.450   8.903 -0.2918  1.1508  0.5506
 1172SOL    HW214976   0.643   4.333   8.995  0.9021  0.1705 -1.5658
 1173SOL     OW14977   1.405   0.665   3.830  0.4251 -0.2196  0.3522
 1173SOL    HW114978   1.437   0.637   3.744  0.6146  1.1549 -0.0231
 1173SOL    HW214979   1.329   0.607   3.834  0.2107  0.0366 -0.0453
 1174SOL     OW14980   1.453   4.541  13.693  0.0103 -0.0234  0.1708
 1174SOL    HW114981   1.539   4.504  13.677 -0.1040 -0.3113  0.2104
 1174SOL    HW214982   1.398   4.482  13.642 -0.0070  2.6491 -2.8616
 1175SOL     OW14983   3.410   1.888   0.102 -0.2001 -0.2764 -0.1199
 1175SOL    HW114984   3.378   1.925   0.184  1.6397  2.6400 -0.7185
 1175SOL    HW214985   3.459   1.811   0.131  0.8137  0.7228  0.8306
 1176SOL     OW14986   2.995   3.346  13.446  0.2282 -0.9222  0.6468
 1176SOL    HW114987   2.932   3.390  13.389  0.0823 -1.2264  0.5734
 1176SOL    HW214988   3.055   3.414  13.476  1.2094 -0.5170 -2.2560
 1177SOL     OW14989   1.453   3.819   7.643  0.8557  0.8333  0.3589
 1177SOL    HW114990   1.494   3.746   7.691 -2.7975 -1.1980  0.3772
 1177SOL    HW214991   1.476   3.885   7.710  2.2341 -0.7962  1.5109
 1178SOL     OW14992   1.101   0.993   2.022 -0.6875 -0.6094 -0.2183
 1178SOL    HW114993   1.117   1.024   1.933 -2.7705  1.7044  0.2095
 1178SOL    HW214994   1.080   0.900   2.014 -1.3959 -0.6706  2.2574
 1179SOL     OW14995   1.150   3.357   5.784  0.0158  0.1692  0.4144
 1179SOL    HW114996   1.172   3.444   5.816  0.7718  0.2709 -0.3975
 1179SOL    HW214997   1.073   3.335   5.837  1.4756 -1.0128  2.0496
 1180SOL     OW14998   3.059   1.403   6.609  0.0693  0.2000 -0.0520
 1180SOL    HW114999   3.052   1.313   6.579 -0.5340  0.1996  0.0933
 1180SOL    HW215000   3.042   1.449   6.527  0.8520  0.5196 -0.0319
 1181SOL     OW15001   3.413   3.957   3.965  0.0326  0.1493  0.1286
 1181SOL    HW115002   3.425   3.984   4.056 -0.1606  0.2382  0.1266
 1181SOL    HW215003   3.322   3.930   3.960  0.2242 -0.2812 -0.9659
 1182SOL     OW15004   2.741   2.048   2.051 -0.2329  0.3524 -0.1423
 1182SOL    HW115005   2.729   2.110   2.122 -0.6707 -0.2421  0.3055
 1182SOL    HW215006   2.705   2.095   1.976 -0.2821  0.7200  0.1160
 1183SOL     OW15007   2.483   2.572   5.205  0.3511  0.4503 -0.3952
 1183SOL    HW115008   2.555   2.509   5.198 -0.5554 -0.7240  0.7800
 1183SOL    HW215009   2.525   2.640   5.257 -2.0119  0.6088  1.3324
 1184SOL     OW15010   1.342   1.410   7.309  0.3764  0.3581 -0.0803
 1184SOL    HW115011   1.346   1.499   7.275 -1.2711  0.7180  0.6333
 1184SOL    HW215012   1.358   1.358   7.230 -3.2785  0.6441 -1.0096
 1185SOL     OW15013   1.580   2.255   5.173 -0.5925 -0.3985 -0.1152
 1185SOL    HW115014   1.585   2.159   5.173 -0.9900 -0.4193 -3.6739
 1185SOL    HW215015   1.621   2.277   5.257  1.1087 -0.1229 -1.0189
 1186SOL     OW15016   1.039   4.455   1.163 -0.6093 -0.4464  1.3146
 1186SOL    HW115017   0.958   4.478   1.208 -0.7423 -0.9228  1.3223
 1186SOL    HW215018   1.042   4.363   1.191 -1.2392 -0.3555  1.6795
 1187SOL     OW15019   0.469   2.139   3.211  0.3561 -0.7366  0.0493
 1187SOL    HW115020   0.532   2.104   3.147  1.5778 -1.9803  1.9251
 1187SOL    HW215021   0.492   2.078   3.281 -1.2983  0.6250  1.7697
 1188SOL     OW15022   4.541   4.163   4.464  0.9925  0.3746 -0.6256
 1188SOL    HW115023   4.574   4.077   4.441 -1.3288 -0.9576  1.0070
 1188SOL    HW215024   4.556   4.158   4.559 -1.0672  0.6346 -0.2758
 1189SOL     OW15025   0.409   3.636   8.284  0.0628 -0.4567 -0.1187
 1189SOL    HW115026   0.482   3.683   8.242  0.7058 -2.8704 -1.6826
 1189SOL    HW215027   0.424   3.664   8.374  0.4495  3.1071 -1.2935
 1190SOL     OW15028   4.436   0.289   5.997  1.2951  0.1323 -0.4439
 1190SOL    HW115029   4.502   0.357   5.985  0.4011  0.7913 -1.5368
 1190SOL    HW215030   4.444   0.237   5.917  0.1863 -1.7409  0.6518
 1191SOL     OW15031   3.177   4.423   3.403 -0.1866  0.1515 -0.5043
 1191SOL    HW115032   3.235   4.381   3.339  0.1563 -0.9555  0.5430
 1191SOL    HW215033   3.204   4.515   3.409 -0.7723  0.3060 -0.2673
 1192SOL     OW15034   1.584   3.469   7.088  0.0164 -0.3032  0.0869
 1192SOL    HW115035   1.655   3.501   7.031 -1.7984  1.5400 -1.1268
 1192SOL    HW215036   1.571   3.381   7.053 -2.6286 -0.6462  1.9373
 1193SOL     OW15037   3.184   4.210   5.678 -0.4361  0.5085  0.3063
 1193SOL    HW115038   3.128   4.273   5.633 -0.0758 -0.0778 -0.9450
 1193SOL    HW215039   3.199   4.241   5.768  0.1613  0.3375  0.2687
 1194SOL     OW15040   1.371   3.230   4.755 -0.7710 -0.6813 -0.2015
 1194SOL    HW115041   1.359   3.135   4.763  0.3210 -0.4500  3.8782
 1194SOL    HW215042   1.430   3.241   4.681 -0.5716 -1.1617 -0.1192
 1195SOL     OW15043   0.212   2.647  10.416  0.5424  1.3226 -0.3564
 1195SOL    HW115044   0.128   2.601  10.410  1.3671 -0.2941  0.7377
 1195SOL    HW215045   0.187   2.734  10.385 -1.6532 -0.0278 -2.4130
 1196SOL     OW15046   0.174   3.658   3.354 -0.0944  0.3083  0.3298
 1196SOL    HW115047   0.160   3.563   3.348  0.5154  0.1914  0.8120
 1196SOL    HW215048   0.150   3.669   3.446  2.8207 -0.2923  1.1497
 1197SOL     OW15049   4.403   3.614  10.701 -0.0636 -0.1297  0.4863
 1197SOL    HW115050   4.369   3.614  10.611  0.4918 -1.4735  0.2650
 1197SOL    HW215051   4.447   3.529  10.703 -1.6768 -1.0163 -1.0342
 1198SOL     OW15052   0.259   1.235   6.750  0.4285  0.8586 -0.3131
 1198SOL    HW115053   0.188   1.229   6.813  1.4931  2.3460  1.0216
 1198SOL    HW215054   0.219   1.193   6.673 -1.6927 -1.6636  2.1725
 1199SOL     OW15055   1.298   2.678   2.969  0.2903 -0.0250  0.2211
 1199SOL    HW115056   1.355   2.747   3.001 -0.7344  0.3990  1.1180
 1199SOL    HW215057   1.308   2.604   3.029  0.6727 -1.1420 -1.2196
 1200SOL     OW15058   3.258   0.272   1.690  0.0939  0.0222 -0.3842
 1200SOL    HW115059   3.262   0.222   1.771  1.8765 -1.0109 -1.1156
 1200SOL    HW215060   3.164   0.261   1.677 -0.3428  0.2192  2.7071
 1201SOL     OW15061   3.412   4.028  12.528  0.3801 -0.2730 -0.5121
 1201SOL    HW115062   3.439   3.946  12.487  0.9810 -0.9221  1.1810
 1201SOL    HW215063   3.500   4.062  12.544  0.8334 -0.8762 -1.7824
 1202SOL     OW15064   0.287   1.814   8.474  0.2416  0.6318  0.0170
 1202SOL    HW115065   0.346   1.775   8.410  0.3225  0.5585  0.1362
 1202SOL    HW215066   0.213   1.753   8.470 -1.0616  2.2548 -0.5874
 1203SOL     OW15067   1.344   3.363   6.019  0.4574 -0.6157  0.3853
 1203SOL    HW115068   1.346   3.296   5.950 -1.7919 -1.3485  1.0314
 1203SOL    HW215069   1.351   3.445   5.970 -0.4337  0.9908  2.9653
 1204SOL     OW15070   4.278   4.332   1.109  0.0611 -0.6284  0.3656
 1204SOL    HW115071   4.341   4.339   1.037  1.3912  0.9051  1.6687
 1204SOL    HW215072   4.207   4.392   1.084  1.7236  0.9251 -0.6170
 1205SOL     OW15073   4.422   1.810   5.202 -0.2117  0.1628  0.4354
 1205SOL    HW115074   4.391   1.882   5.146  0.6167 -1.4026 -2.0050
 1205SOL    HW215075   4.514   1.803   5.180 -0.1787 -1.9674  1.2904
 1206SOL     OW15076   1.963   0.290   1.505  0.6292 -0.0072  0.6530
 1206SOL    HW115077   2.013   0.221   1.462 -1.3221 -1.7359  1.1561
 1206SOL    HW215078   2.004   0.371   1.476  0.5820  0.1095  0.9083
 1207SOL     OW15079   2.406   0.405  10.376  0.0556 -0.4131 -0.8750
 1207SOL    HW115080   2.418   0.397  10.471 -0.8264  0.0993 -0.7294
 1207SOL    HW215081   2.467   0.335  10.350 -2.4706 -2.4795 -1.1806
 1208SOL     OW15082   1.732   2.306  17.095  0.3246  0.0482  0.1213
 1208SOL    HW115083   1.725   2.330  17.003  2.1856 -0.2556 -0.0989
 1208SOL    HW215084   1.639   2.324  17.111 -0.1509 -2.4522  0.2438
 1209SOL     OW15085   2.349   0.781   4.883  0.0281  0.3930  0.6101
 1209SOL    HW115086   2.314   0.805   4.968 -0.8991 -0.0097  0.3382
 1209SOL    HW215087   2.379   0.690   4.892  1.7110  0.6971 -1.9442
 1210SOL     OW15088   4.352   2.548   0.940 -0.3120 -0.3056  0.2594
 1210SOL    HW115089   4.445   2.570   0.937 -0.0791 -1.1938  1.0907
 1210SOL    HW215090   4.324   2.597   1.018 -1.0285  0.6293 -0.5782
 1211SOL     OW15091   2.518   0.600  12.912  0.7625  0.6867 -0.3224
 1211SOL    HW115092   2.558   0.515  12.932 -0.0389 -0.3687 -3.2405
 1211SOL    HW215093   2.433   0.584  12.952  0.6048  1.3394 -0.3918
 1212SOL     OW15094   0.132   2.399   6.625  0.3611 -0.1335  0.2654
 1212SOL    HW115095   0.173   2.339   6.687  1.4517 -0.8499 -1.1422
 1212SOL    HW215096   0.126   2.474   6.684 -0.0918  1.0341 -1.2558
 1213SOL     OW15097   3.494   1.454   4.525 -0.0540 -0.1484 -0.0381
 1213SOL    HW115098   3.414   1.494   4.558  0.2720 -1.7544  2.7071
 1213SOL    HW215099   3.513   1.501   4.444 -0.7606 -0.1546 -0.2058
 1214SOL     OW15100   2.249   1.159   5.913  0.5440 -0.3489 -0.2044
 1214SOL    HW115101   2.336   1.190   5.887  0.9818 -1.5978 -0.2372
 1214SOL    HW215102   2.279   1.117   5.994 -1.2959  0.4774  0.8914
 1215SOL     OW15103   4.192   3.644  13.490  0.4574  0.3112  0.6976
 1215SOL    HW115104   4.187   3.739  13.504 -1.3412  0.2216  0.6174
 1215SOL    HW215105   4.133   3.616  13.560  0.4714  0.3188  0.7124
 1216SOL     OW15106   3.943   2.066   8.276  0.1620 -0.2657  0.1796
 1216SOL    HW115107   3.857   2.029   8.295 -0.2409  0.7505  0.3410
 1216SOL    HW215108   3.955   2.144   8.330 -1.1725  0.9114 -1.2341
 1217SOL     OW15109   4.481   2.904   4.744 -0.1375  0.6184  0.1776
 1217SOL    HW115110   4.389   2.879   4.757  1.1773 -2.7250  3.0773
 1217SOL    HW215111   4.497   2.870   4.656  3.7131  1.5833  0.5228
 1218SOL     OW15112   0.396   4.290   9.152  0.1257 -0.2469  0.1462
 1218SOL    HW115113   0.447   4.256   9.226  0.6074  0.3780  0.1036
 1218SOL    HW215114   0.470   4.336   9.112  0.2853 -0.5424  0.1005
 1219SOL     OW15115   2.327   0.981   7.362 -0.8010  0.0780 -0.0768
 1219SOL    HW115116   2.326   1.071   7.394  1.3392 -0.0516  0.3605
 1219SOL    HW215117   2.291   0.927   7.433  0.2760 -1.6897 -0.8832
 1220SOL     OW15118   3.556   3.212   5.967 -0.6928  0.0867  0.4520
 1220SOL    HW115119   3.569   3.271   5.893 -1.7323 -0.0913  0.1213
 1220SOL    HW215120   3.540   3.271   6.041  2.3286 -0.3417  1.4261
 1221SOL     OW15121   0.755   3.614   8.696 -0.2171 -0.3446  0.2082
 1221SOL    HW115122   0.721   3.582   8.780  1.8289 -1.5864  0.5647
 1221SOL    HW215123   0.764   3.707   8.717  1.6774 -0.4426 -0.1162
 1222SOL     OW15124   0.280   3.355   2.817  0.1701 -0.5652 -0.1258
 1222SOL    HW115125   0.350   3.359   2.882  1.1618 -0.7057 -1.1898
 1222SOL    HW215126   0.229   3.435   2.831  1.0604 -0.4228  2.1859
 1223SOL     OW15127   2.344   0.759  11.790 -0.4657 -0.2819  0.0840
 1223SOL    HW115128   2.407   0.795  11.728 -0.1775  1.7592  1.5881
 1223SOL    HW215129   2.341   0.829  11.855 -1.0194  1.1817 -1.5136
 1224SOL     OW15130   2.277   2.260   2.005 -0.0302  0.2533 -0.2522
 1224SOL    HW115131   2.353   2.257   2.064 -0.6679 -0.5563  0.5455
 1224SOL    HW215132   2.302   2.268   1.913  0.3350  1.2296 -0.0682
 1225SOL     OW15133   3.361   3.034   5.309 -0.0310  0.6304  0.1540
 1225SOL    HW115134   3.291   3.019   5.373  1.5257 -3.1081  0.9651
 1225SOL    HW215135   3.320   2.995   5.232  0.7772 -0.7715  0.4386
 1226SOL     OW15136   2.732   0.910   1.838 -0.7130 -0.3346 -0.0773
 1226SOL    HW115137   2.674   0.835   1.856  2.2234 -2.6190 -0.2373
 1226SOL    HW215138   2.676   0.981   1.868  0.6477  0.8655 -0.4011
 1227SOL     OW15139   0.527   3.284   6.434  0.2184 -0.8632  0.1790
 1227SOL    HW115140   0.510   3.219   6.366  2.4824 -1.3420  0.0610
 1227SOL    HW215141   0.526   3.366   6.384  1.0227 -1.3479 -0.6487
 1228SOL     OW15142   4.343   1.341  14.996 -0.1729  0.1043  0.1898
 1228SOL    HW115143   4.439   1.339  14.993 -0.1288  2.5502  0.3274
 1228SOL    HW215144   4.313   1.265  14.946  0.8984 -0.9990  1.2416
 1229SOL     OW15145   1.407   4.239   4.875  0.5386 -0.2094  0.2136
 1229SOL    HW115146   1.420   4.328   4.906 -1.5944  0.4086 -0.6050
 1229SOL    HW215147   1.362   4.260   4.793  2.7485  1.6470 -0.5094
 1230SOL     OW15148   0.290   1.137   7.423  0.0436 -1.0109  0.2046
 1230SOL    HW115149   0.244   1.166   7.502 -2.2122  1.0841 -1.9102
 1230SOL    HW215150   0.361   1.082   7.458  2.3779  0.3211 -2.4677
 1231SOL     OW15151   2.575   0.582   7.302  0.3168  0.0828 -0.5873
 1231SOL    HW115152   2.657   0.548   7.337  0.0525  1.3426  1.2599
 1231SOL    HW215153   2.540   0.515   7.244  2.2667  0.2348 -1.9549
 1232SOL     OW15154   0.410   2.454   5.066 -0.3852 -0.1252 -0.0124
 1232SOL    HW115155   0.401   2.360   5.079  1.1865  0.0297  2.2784
 1232SOL    HW215156   0.382   2.458   4.975  0.3587 -1.0920 -0.2816
 1233SOL     OW15157   0.376   3.598   9.546  0.0827  0.0041  0.2637
 1233SOL    HW115158   0.283   3.614   9.532  0.5534  0.5591 -2.2314
 1233SOL    HW215159   0.392   3.668   9.610  0.1211  0.0180  0.2389
 1234SOL     OW15160   2.545   0.523   7.652 -0.1077 -0.6963 -0.3878
 1234SOL    HW115161   2.469   0.537   7.595 -0.5851 -2.7067 -0.2433
 1234SOL    HW215162   2.531   0.589   7.720 -0.9912 -1.6065  0.3037
 1235SOL     OW15163   0.980   0.202   3.294  0.2792 -0.8319 -0.0959
 1235SOL    HW115164   1.016   0.173   3.210  2.4053  0.5889  0.3407
 1235SOL    HW215165   0.888   0.180   3.278 -0.1908 -0.5171  2.2133
 1236SOL     OW15166   4.201   4.060   2.185  0.0118  0.8071 -0.3550
 1236SOL    HW115167   4.169   4.105   2.107  1.3845 -2.1506 -2.6112
 1236SOL    HW215168   4.236   3.982   2.142 -1.4600 -0.3484  0.5392
 1237SOL     OW15169   2.665   1.802   1.541 -0.1261 -0.2693 -0.1265
 1237SOL    HW115170   2.728   1.871   1.524 -1.1625  0.5917 -0.4658
 1237SOL    HW215171   2.695   1.764   1.623  0.2656 -1.1114 -0.6577
 1238SOL     OW15172   0.334   1.052  10.226 -0.3567  0.4517  0.4547
 1238SOL    HW115173   0.399   1.122  10.223 -0.0961  0.2572  1.9890
 1238SOL    HW215174   0.297   1.050  10.137  1.1574  0.8270 -0.1808
 1239SOL     OW15175   4.358   2.046   5.308 -0.9924  0.0603  0.0557
 1239SOL    HW115176   4.384   1.956   5.291  0.2734  0.1648  1.4015
 1239SOL    HW215177   4.407   2.093   5.241  2.3615 -2.0393  1.0583
 1240SOL     OW15178   0.374   0.174   1.096 -0.2081  0.1861 -0.1038
 1240SOL    HW115179   0.440   0.223   1.048  0.0848  1.3201  1.4540
 1240SOL    HW215180   0.349   0.099   1.043 -2.1756  0.9724 -0.3217
 1241SOL     OW15181   2.032   2.966   3.176 -0.0473 -0.2913 -0.4127
 1241SOL    HW115182   2.062   2.951   3.266  0.5589 -0.0498 -0.5730
 1241SOL    HW215183   2.115   2.939   3.137  1.2860  0.4134  1.9289
 1242SOL     OW15184   1.374   0.030   1.169 -0.0114 -0.0907  0.1548
 1242SOL    HW115185   1.334   0.074   1.244 -0.9953  1.6181 -1.3789
 1242SOL    HW215186   1.294   0.017   1.119 -0.4052  1.1525  0.4536
 1243SOL     OW15187   3.612   3.212  13.679  0.6833  0.2532 -1.0031
 1243SOL    HW115188   3.694   3.203  13.631  0.0283 -4.2083 -1.3097
 1243SOL    HW215189   3.619   3.300  13.716  0.1068 -0.0935 -0.0784
 1244SOL     OW15190   2.977   0.458  14.347 -0.0131 -0.1831 -1.0016
 1244SOL    HW115191   2.967   0.514  14.424  0.8786 -0.9561 -0.3280
 1244SOL    HW215192   3.039   0.396  14.385 -2.0179 -1.3227  0.4174
 1245SOL     OW15193   3.534   3.672  12.602 -0.4876 -0.4699  0.4365
 1245SOL    HW115194   3.525   3.720  12.520  1.1539  0.3503  0.7305
 1245SOL    HW215195   3.554   3.586  12.568  2.5209 -0.1765  1.4472
 1246SOL     OW15196   4.496   3.340   6.202 -0.4615  0.0024 -0.4042
 1246SOL    HW115197   4.542   3.272   6.252  0.2292 -0.0468 -1.1062
 1246SOL    HW215198   4.420   3.301   6.244 -1.1805  1.5488 -0.2751
 1247SOL     OW15199   1.790   3.315  17.576  0.3460 -0.0295 -0.7805
 1247SOL    HW115200   1.785   3.260  17.654  0.7875  0.0440 -0.6985
 1247SOL    HW215201   1.880   3.348  17.573  0.1753  0.5443  0.3122
 1248SOL     OW15202   3.685   4.501   5.945  0.3988  0.2329  0.4193
 1248SOL    HW115203   3.692   4.569   6.012 -0.6194  0.2039  0.5523
 1248SOL    HW215204   3.593   4.476   5.949  1.3421 -3.3044  0.4856
 1249SOL     OW15205   4.597   0.106   2.613 -0.2048 -0.0191 -0.0508
 1249SOL    HW115206   4.598   0.055   2.694 -1.5785  1.9777  1.2158
 1249SOL    HW215207   4.686   0.104   2.578  0.5187 -0.5912  1.8143
 1250SOL     OW15208   1.655   0.328  13.330  0.0858  0.1788  0.5223
 1250SOL    HW115209   1.684   0.239  13.314  0.5756  0.2211  1.1896
 1250SOL    HW215210   1.565   0.309  13.357 -0.1380 -1.5649 -1.4823
 1251SOL     OW15211   0.600   1.967   6.315 -0.2522 -0.6966  0.4670
 1251SOL    HW115212   0.606   2.036   6.248  0.1434 -0.7945  0.4016
 1251SOL    HW215213   0.584   1.896   6.253  2.4766  1.1993 -2.4833
 1252SOL     OW15214   4.168   2.994   9.217  0.1594  0.4773 -0.0699
 1252SOL    HW115215   4.228   3.052   9.169  0.2852 -0.1833 -0.7230
 1252SOL    HW215216   4.101   3.058   9.239 -0.1484 -0.6981  2.3322
 1253SOL     OW15217   3.865   0.649   7.707 -0.0915  0.2332 -0.0358
 1253SOL    HW115218   3.935   0.652   7.641  0.1301  1.8485  0.2675
 1253SOL    HW215219   3.827   0.736   7.695  3.9391  1.6531 -2.5618
 1254SOL     OW15220   2.268   1.911   9.359  0.5377  0.3102  0.0791
 1254SOL    HW115221   2.244   1.903   9.452  0.1834  0.0401 -0.0374
 1254SOL    HW215222   2.341   1.973   9.361  1.6826 -1.0694  1.1223
 1255SOL     OW15223   1.983   3.775  12.183 -0.0858  0.1883  0.9373
 1255SOL    HW115224   1.902   3.754  12.138  1.7214 -0.8301 -1.8784
 1255SOL    HW215225   1.956   3.855  12.229 -0.0560  0.7975 -0.1195
 1256SOL     OW15226   2.702   2.093   6.029 -0.3851 -0.5927 -0.4459
 1256SOL    HW115227   2.782   2.144   6.019  0.2537 -1.3677  0.6997
 1256SOL    HW215228   2.731   2.026   6.091 -2.4544 -0.0111  1.1563
 1257SOL     OW15229   2.250   4.718  10.447 -0.1825  0.4553  0.1593
 1257SOL    HW115230   2.169   0.037  10.477 -0.8848 -0.5184 -0.3666
 1257SOL    HW215231   2.254   0.042  10.364 -1.4820  1.3350  0.6021
 1258SOL     OW15232   4.707   3.312   6.022  0.6509 -0.2582 -0.1442
 1258SOL    HW115233   4.625   3.310   6.071  0.3556  0.7775 -0.5906
 1258SOL    HW215234   4.712   3.230   5.973 -0.3252  0.5121 -1.5346
 1259SOL     OW15235   3.343   4.273   2.240  0.3868  0.3509 -0.2140
 1259SOL    HW115236   3.361   4.195   2.187  1.0991  0.0173  0.5287
 1259SOL    HW215237   3.276   4.244   2.302  0.3092 -1.2924 -1.0627
 1260SOL     OW15238   0.839   0.049   4.226 -0.1391 -0.4915 -0.1233
 1260SOL    HW115239   0.922   0.001   4.224 -0.4527 -0.9907 -1.5761
 1260SOL    HW215240   0.837   0.057   4.321  0.0130  0.8150 -0.2253
 1261SOL     OW15241   1.415   1.468   5.125  0.0990  0.1440 -0.5406
 1261SOL    HW115242   1.483   1.531   5.147  0.1008 -0.3783  0.9478
 1261SOL    HW215243   1.448   1.402   5.187 -0.7684  1.3490  1.2042
 1262SOL     OW15244   3.349   0.509   1.905  0.9145  0.2855  0.0330
 1262SOL    HW115245   3.369   0.438   1.845 -0.5959 -0.2759  0.1751
 1262SOL    HW215246   3.256   0.491   1.922  0.9694  0.7791  0.8416
 1263SOL     OW15247   3.714   2.878   6.342 -0.6594  0.3159  0.1606
 1263SOL    HW115248   3.646   2.893   6.276 -1.3779  2.2119  1.3328
 1263SOL    HW215249   3.789   2.855   6.286 -1.4689 -0.8254 -0.4585
 1264SOL     OW15250   1.640   1.079   1.904  0.3990 -0.2567 -0.0827
 1264SOL    HW115251   1.716   1.073   1.847 -2.1612 -2.5714 -3.2169
 1264SOL    HW215252   1.570   1.048   1.846  0.8300  0.9587 -1.2458
 1265SOL     OW15253   2.014   2.932  13.446 -0.0927 -0.1492  0.5787
 1265SOL    HW115254   1.993   3.026  13.440 -0.2948 -0.1856  0.7539
 1265SOL    HW215255   2.065   2.918  13.366 -0.2628  1.9255  0.0959
 1266SOL     OW15256   3.771   3.057   5.378 -0.1758  0.2736 -0.4206
 1266SOL    HW115257   3.805   3.146   5.367 -0.9824  0.5883 -0.3645
 1266SOL    HW215258   3.848   3.018   5.337 -0.7200  0.0432 -1.2025
 1267SOL     OW15259   4.340   3.193   0.343  0.1046 -0.0180  0.2676
 1267SOL    HW115260   4.248   3.207   0.367 -0.0078  0.2085 -0.2969
 1267SOL    HW215261   4.345   3.098   0.338 -0.8584  0.0396 -1.7862
 1268SOL     OW15262   0.765   3.459  15.259  0.5331 -0.6123 -0.4344
 1268SOL    HW115263   0.806   3.493  15.338  2.1100 -1.1829 -1.0108
 1268SOL    HW215264   0.819   3.387  15.227  0.6268 -0.4669 -0.6041
 1269SOL     OW15265   1.116   4.536   7.388  0.4305  0.3520 -0.0653
 1269SOL    HW115266   1.180   4.545   7.318 -1.1475  1.7407 -1.3322
 1269SOL    HW215267   1.037   4.538   7.333 -0.4426  1.7975  1.2627
 1270SOL     OW15268   2.006   4.157   4.721  0.5937 -0.3046 -0.8635
 1270SOL    HW115269   1.969   4.114   4.644 -2.1235 -0.2712  0.4191
 1270SOL    HW215270   2.071   4.210   4.676 -0.0423  0.7988 -0.4836
 1271SOL     OW15271   1.567   4.253  15.924 -0.1460 -0.2428  0.1591
 1271SOL    HW115272   1.567   4.280  16.015 -1.0250  0.5045 -0.0636
 1271SOL    HW215273   1.628   4.180  15.926  0.7352  0.4706 -0.3791
 1272SOL     OW15274   1.945   0.687  12.115 -0.1142 -0.1868 -0.0085
 1272SOL    HW115275   1.950   0.607  12.168  1.9343 -0.0930 -0.0446
 1272SOL    HW215276   1.864   0.724  12.150 -0.4420 -1.4633  0.6092
 1273SOL     OW15277   0.537   2.526   2.810 -0.2567  0.2490  0.0336
 1273SOL    HW115278   0.521   2.492   2.722  2.4483  0.4385 -0.5301
 1273SOL    HW215279   0.457   2.576   2.825  0.6089  2.1095 -1.4874
 1274SOL     OW15280   3.117   2.371   9.132 -0.0038 -0.5246 -0.0075
 1274SOL    HW115281   3.095   2.422   9.210 -0.1499  0.6541 -0.8218
 1274SOL    HW215282   3.028   2.338   9.118  0.1670 -2.1533  2.8225
 1275SOL     OW15283   0.698   2.085   4.540  0.1830  0.4141  0.4173
 1275SOL    HW115284   0.673   2.168   4.582 -2.4444  0.5317 -1.4144
 1275SOL    HW215285   0.642   2.085   4.463  0.2187 -2.4754  0.4022
 1276SOL     OW15286   0.339   1.487   5.054  0.5031 -0.1359  0.8007
 1276SOL    HW115287   0.262   1.539   5.033  0.4492 -0.6234 -0.2058
 1276SOL    HW215288   0.417   1.541   5.044  0.8843 -0.9814 -0.8671
 1277SOL     OW15289   1.124   3.982   7.424 -0.5808  0.1127  0.6245
 1277SOL    HW115290   1.100   4.074   7.412 -2.3606 -0.4500 -0.1794
 1277SOL    HW215291   1.113   3.950   7.334  0.2361  2.6180 -0.3665
 1278SOL     OW15292   4.189   3.540   7.721  0.4312  0.1964  0.7441
 1278SOL    HW115293   4.103   3.502   7.736 -0.0186 -0.0203 -2.4142
 1278SOL    HW215294   4.182   3.626   7.761 -2.1234  0.0279  0.6513
 1279SOL     OW15295   0.801   3.057   8.013 -0.2284  0.3288 -0.1467
 1279SOL    HW115296   0.789   3.152   8.016 -0.4833  0.3188 -0.7767
 1279SOL    HW215297   0.726   3.030   8.066  2.6321 -0.2295  3.5155
 1280SOL     OW15298   2.264   1.219   4.428 -0.2657  0.1295  0.4264
 1280SOL    HW115299   2.181   1.250   4.393 -0.2990 -0.7653 -0.3023
 1280SOL    HW215300   2.308   1.299   4.455  0.2764 -0.4408  1.2380
 1281SOL     OW15301   2.354   3.595  16.884  0.4426 -0.3314 -0.0435
 1281SOL    HW115302   2.363   3.542  16.805  1.3748 -1.1032  0.5881
 1281SOL    HW215303   2.345   3.682  16.845 -0.0919  0.6206  2.2226
 1282SOL     OW15304   4.034   1.281   6.347  0.6533 -0.2265 -0.1925
 1282SOL    HW115305   3.974   1.236   6.407  0.8664  1.9250  1.6846
 1282SOL    HW215306   4.011   1.237   6.265  0.2784  0.0065 -0.2143
 1283SOL     OW15307   1.293   4.560   0.528 -0.1726  0.3192 -0.2351
 1283SOL    HW115308   1.355   4.536   0.597  0.1181 -0.7711 -0.8814
 1283SOL    HW215309   1.224   4.494   0.538  0.5422 -0.1992  1.3776
 1284SOL     OW15310   1.899   2.556   2.941 -0.0599 -0.7298 -0.0735
 1284SOL    HW115311   1.982   2.537   2.985 -0.0629 -1.1893 -0.2666
 1284SOL    HW215312   1.860   2.469   2.943  2.1547 -1.7423 -0.4401
 1285SOL     OW15313   3.948   1.061  15.628 -0.1250  0.3748 -0.2851
 1285SOL    HW115314   3.958   1.070  15.533  1.4436 -0.1513 -0.1753
 1285SOL    HW215315   4.033   1.094  15.657  0.0863 -1.5272  1.2917
 1286SOL     OW15316   4.552   4.653   3.457 -0.0209  0.1300  0.5902
 1286SOL    HW115317   4.529   0.009   3.503 -0.0842 -0.8372  2.2606
 1286SOL    HW215318   4.569   4.682   3.368 -0.8055  0.7960  0.6617
 1287SOL     OW15319   1.588   2.477   3.026 -0.2832 -0.5698 -0.2582
 1287SOL    HW115320   1.515   2.520   3.071  0.7623 -1.6164  2.4123
 1287SOL    HW215321   1.644   2.549   2.998  0.2801 -1.0995 -0.5062
 1288SOL     OW15322   0.318   2.945  15.650  0.5064 -1.0497  0.5356
 1288SOL    HW115323   0.306   2.934  15.744 -1.2258  4.2915  0.9049
 1288SOL    HW215324   0.349   3.035  15.648 -2.5892 -0.0406 -0.8167
 1289SOL     OW15325   1.860   0.535   8.053  0.3941  0.2004  0.2375
 1289SOL    HW115326   1.827   0.449   8.027 -1.2229  0.5994  0.9787
 1289SOL    HW215327   1.785   0.553   8.109  0.0393 -1.0696  0.1680
 1290SOL     OW15328   3.469   3.562   6.496  0.1077 -1.1261  0.5123
 1290SOL    HW115329   3.456   3.469   6.479  3.0356 -1.0507 -2.0895
 1290SOL    HW215330   3.399   3.583   6.558  1.4995  0.8854  1.3785
 1291SOL     OW15331   0.499   1.179   1.141 -0.0433 -0.4873 -0.0947
 1291SOL    HW115332   0.580   1.132   1.121  0.2836  1.6880 -3.7434
 1291SOL    HW215333   0.454   1.123   1.205  1.7458 -0.6148  1.0604
 1292SOL     OW15334   4.314   2.394  16.355  0.0104 -0.2182  0.0409
 1292SOL    HW115335   4.302   2.404  16.260 -2.2412 -1.6232  0.1895
 1292SOL    HW215336   4.259   2.321  16.384  0.3932 -1.6597 -2.8279
 1293SOL     OW15337   1.296   3.852   5.225  0.6648 -0.2741  0.0945
 1293SOL    HW115338   1.204   3.872   5.240  0.4002 -0.3491 -1.4539
 1293SOL    HW215339   1.309   3.763   5.258  1.2745  0.0767  0.7996
 1294SOL     OW15340   3.153   0.375   7.295 -0.2194 -0.5199 -0.6130
 1294SOL    HW115341   3.104   0.425   7.360  2.5328  0.8739  0.3985
 1294SOL    HW215342   3.138   0.287   7.330 -0.5571 -0.1042  0.2821
 1295SOL     OW15343   2.007   0.296   2.875  0.1247  0.5906  0.2736
 1295SOL    HW115344   2.089   0.316   2.921  0.7367  0.5925 -0.8122
 1295SOL    HW215345   2.032   0.217   2.827  0.2501  0.1721  1.0381
 1296SOL     OW15346   0.782   0.659  17.341  0.2696 -0.1532 -0.4472
 1296SOL    HW115347   0.690   0.684  17.331 -0.0862 -0.1967  2.9140
 1296SOL    HW215348   0.811   0.624  17.257  0.7288  1.5385 -1.0061
 1297SOL     OW15349   3.490   3.058  14.625  0.0909 -0.0766 -0.0755
 1297SOL    HW115350   3.555   2.990  14.613  1.7109  1.1181  1.9255
 1297SOL    HW215351   3.482   3.068  14.720  0.6552 -0.3629  0.0031
 1298SOL     OW15352   2.585   2.256   2.947  0.4245  0.3251  0.1318
 1298SOL    HW115353   2.505   2.241   2.897  0.8330  1.7191 -0.9296
 1298SOL    HW215354   2.655   2.258   2.883  0.1006 -0.2287 -0.2334
 1299SOL     OW15355   1.570   0.260   4.418 -0.8343 -0.5056 -0.0572
 1299SOL    HW115356   1.563   0.252   4.323  0.8125 -2.7143  0.0351
 1299SOL    HW215357   1.642   0.202   4.441 -1.3863 -0.0625  2.7585
 1300SOL     OW15358   2.888   2.314   5.837  0.3288  0.2390 -0.4172
 1300SOL    HW115359   2.981   2.291   5.838  0.2799  0.1214  1.6528
 1300SOL    HW215360   2.874   2.322   5.932  2.7128 -1.0416  0.0400
 1301SOL     OW15361   3.213   2.056   2.738  0.5634  0.6104 -0.3159
 1301SOL    HW115362   3.217   2.093   2.827 -0.5546 -1.2517  0.5242
 1301SOL    HW215363   3.127   2.013   2.742  0.4009  0.8528 -1.4017
 1302SOL     OW15364   3.986   1.867  11.437  0.8453  0.4724 -0.7453
 1302SOL    HW115365   4.076   1.891  11.415  0.1915 -0.2987 -4.2170
 1302SOL    HW215366   3.985   1.905  11.525 -0.4819 -1.1026 -0.0904
 1303SOL     OW15367   2.762   2.215   2.750 -0.2693  0.1869  0.1503
 1303SOL    HW115368   2.828   2.275   2.716 -1.0751 -0.3132 -2.2574
 1303SOL    HW215369   2.708   2.219   2.671  0.8116 -1.0110 -0.6438
 1304SOL     OW15370   2.621   3.189  13.684  0.0213 -0.4971 -0.1923
 1304SOL    HW115371   2.554   3.161  13.621 -0.7410  2.6518 -0.7950
 1304SOL    HW215372   2.573   3.255  13.734  0.2762 -0.7979  0.4463
 1305SOL     OW15373   2.986   1.205   6.909 -0.2396 -0.7115  0.0942
 1305SOL    HW115374   2.912   1.251   6.868  0.2887  0.0014 -0.0664
 1305SOL    HW215375   3.034   1.275   6.953 -0.5251 -1.5856  1.7797
 1306SOL     OW15376   0.751   2.367  14.365 -0.1648  0.5033  0.3567
 1306SOL    HW115377   0.776   2.457  14.387  1.5358  0.7912 -2.6977
 1306SOL    HW215378   0.783   2.317  14.439 -0.3836  0.3441  0.3410
 1307SOL     OW15379   0.344   3.332   2.309 -0.3255  0.2496  0.4800
 1307SOL    HW115380   0.330   3.350   2.402 -2.7920  2.2385 -0.2963
 1307SOL    HW215381   0.256   3.320   2.273 -1.2525  0.8385  2.5595
 1308SOL     OW15382   0.505   1.551   2.831  0.1937 -0.2129  0.0791
 1308SOL    HW115383   0.500   1.462   2.866 -0.7006 -0.4147 -0.5768
 1308SOL    HW215384   0.596   1.579   2.842  0.2633 -1.1157  1.8263
 1309SOL     OW15385   1.531   2.532  13.492  1.0945  0.7079  0.4474
 1309SOL    HW115386   1.565   2.463  13.434  1.7837  2.5758 -1.3529
 1309SOL    HW215387   1.589   2.603  13.464 -0.5368  0.9365 -2.3630
 1310SOL     OW15388   1.158   0.510   2.228  0.2410  0.1600  0.4132
 1310SOL    HW115389   1.222   0.532   2.295 -0.4058  1.5330  0.5951
 1310SOL    HW215390   1.112   0.594   2.231  0.7068  0.5250 -2.2036
 1311SOL     OW15391   0.211   1.033   3.651  0.0251  0.5276 -0.1357
 1311SOL    HW115392   0.167   1.106   3.694 -1.4084  0.9445 -2.2921
 1311SOL    HW215393   0.140   1.000   3.596 -0.8758 -1.3668  2.1711
 1312SOL     OW15394   4.081   1.720   6.569 -0.1084  0.7547  0.2555
 1312SOL    HW115395   4.138   1.793   6.594  0.2477 -0.5292  3.3060
 1312SOL    HW215396   4.027   1.774   6.512 -1.9383 -0.9623  0.3503
 1313SOL     OW15397   2.634   1.742   7.790 -0.1750  0.7670 -0.2296
 1313SOL    HW115398   2.687   1.737   7.710 -2.7762 -1.1750 -1.8308
 1313SOL    HW215399   2.688   1.685   7.844 -1.6924  0.1568  0.6433
 1314SOL     OW15400   2.097   1.628   5.950  0.2037 -0.0447  0.1591
 1314SOL    HW115401   2.148   1.692   6.001 -1.3341  0.4116  1.1547
 1314SOL    HW215402   2.093   1.550   6.005  0.2995 -0.0648  0.1377
 1315SOL     OW15403   0.040   1.802  14.733  0.3282 -0.2942 -0.9163
 1315SOL    HW115404   0.090   1.731  14.773 -0.2547 -0.7705 -1.0449
 1315SOL    HW215405   0.079   1.811  14.646  2.8738 -2.9177 -0.0336
 1316SOL     OW15406   0.227   0.481   0.465 -0.1814 -0.3652 -0.5813
 1316SOL    HW115407   0.268   0.400   0.493  3.3360  1.6730  0.2007
 1316SOL    HW215408   0.278   0.555   0.500 -0.8794 -0.8344  1.4401
 1317SOL     OW15409   0.319   0.599   3.134 -0.3690 -0.2227  0.0427
 1317SOL    HW115410   0.346   0.644   3.053  0.2986  0.1057  0.4551
 1317SOL    HW215411   0.236   0.560   3.109  0.3285 -1.0442 -0.9890
 1318SOL     OW15412   2.987   3.450  13.074 -0.1466  0.2766  0.3592
 1318SOL    HW115413   2.993   3.521  13.010  0.5240 -2.1266 -2.2271
 1318SOL    HW215414   2.983   3.511  13.147 -0.9372  1.3628 -0.5857
 1319SOL     OW15415   0.429   3.979   3.321 -0.4237  0.0064 -0.4557
 1319SOL    HW115416   0.364   4.041   3.288 -0.0444  0.4385 -0.3875
 1319SOL    HW215417   0.404   3.983   3.413  2.7976 -0.5908  0.4452
 1320SOL     OW15418   4.081   1.302   4.394  0.0859 -0.2564 -0.0728
 1320SOL    HW115419   4.137   1.369   4.433 -1.1673  0.8165 -0.0984
 1320SOL    HW215420   4.142   1.229   4.386  0.3387 -0.2376  1.6081
 1321SOL     OW15421   2.696   3.242  15.168 -0.5401 -0.3064  0.0063
 1321SOL    HW115422   2.770   3.234  15.108 -1.7236 -0.3694 -1.4486
 1321SOL    HW215423   2.747   3.265  15.246  0.7466 -0.0618 -0.9092
 1322SOL     OW15424   1.822   3.451   8.297  0.0325  0.1065 -0.3216
 1322SOL    HW115425   1.890   3.518   8.296  1.6946 -1.5601  1.6243
 1322SOL    HW215426   1.813   3.433   8.203  0.1367  3.8945 -1.0752
 1323SOL     OW15427   0.654   4.277   5.933  0.4657 -0.0091 -0.3895
 1323SOL    HW115428   0.748   4.289   5.923  0.6347 -2.6804 -1.9652
 1323SOL    HW215429   0.643   4.340   6.004 -0.3275  1.2447 -1.6245
 1324SOL     OW15430   4.107   4.437   9.161  0.2370  0.4383  0.1748
 1324SOL    HW115431   4.096   4.505   9.227  2.4692  1.1190 -0.1496
 1324SOL    HW215432   4.165   4.370   9.198  1.1958  1.8971  1.2725
 1325SOL     OW15433   3.013   4.557   4.462  0.8459  0.6919  0.4274
 1325SOL    HW115434   2.931   4.511   4.482  1.3942 -0.0358  1.0132
 1325SOL    HW215435   3.079   4.494   4.493  3.8060  2.2720 -2.5948
 1326SOL     OW15436   4.405   4.533  10.936  0.3197  0.0721  0.6007
 1326SOL    HW115437   4.493   4.563  10.958 -0.4489  1.7023  1.4064
 1326SOL    HW215438   4.355   4.611  10.959 -0.6517  0.1804 -1.8779
 1327SOL     OW15439   1.277   3.966   9.358  0.1249  0.1073  0.2612
 1327SOL    HW115440   1.350   4.013   9.319  0.6049  1.1808  2.4634
 1327SOL    HW215441   1.243   3.926   9.278 -0.1198 -1.8056  1.3232
 1328SOL     OW15442   2.057   1.981  15.727  0.1898 -0.6574 -0.5305
 1328SOL    HW115443   2.011   2.058  15.761 -0.9445 -1.5337 -0.0874
 1328SOL    HW215444   2.061   2.004  15.635  1.2176 -1.8435 -0.7844
 1329SOL     OW15445   4.500   2.304   9.915 -0.1247 -0.0472 -0.1444
 1329SOL    HW115446   4.557   2.236   9.879 -0.3601 -0.2206 -0.1872
 1329SOL    HW215447   4.570   2.345   9.966  1.4141 -4.0270  0.9146
 1330SOL     OW15448   2.838   0.457   3.272  0.4082 -0.0999  0.0710
 1330SOL    HW115449   2.790   0.539   3.260 -0.0556 -0.8794 -3.4858
 1330SOL    HW215450   2.900   0.486   3.338 -0.3272 -0.2527  0.8231
 1331SOL     OW15451   1.230   2.210   1.235  0.1132 -0.1192 -0.2447
 1331SOL    HW115452   1.277   2.205   1.318 -0.9668  2.1934  0.4851
 1331SOL    HW215453   1.186   2.295   1.235 -0.2492 -0.3229  1.6253
 1332SOL     OW15454   1.941   2.499   8.305  0.4994  0.3115 -0.9495
 1332SOL    HW115455   1.960   2.541   8.221 -1.2914  3.5997  0.3051
 1332SOL    HW215456   1.864   2.444   8.294 -0.9562  2.2584 -0.3809
 1333SOL     OW15457   4.242   3.432  13.091 -1.0580  0.2135 -0.2178
 1333SOL    HW115458   4.288   3.350  13.075  0.5648  1.3255 -1.3560
 1333SOL    HW215459   4.161   3.412  13.043 -0.7446 -0.5982 -0.4018
 1334SOL     OW15460   1.487   0.933   4.657  0.1449 -0.0188  0.4586
 1334SOL    HW115461   1.522   0.848   4.628 -0.7787 -0.4681  0.6823
 1334SOL    HW215462   1.535   0.985   4.593 -0.1310 -1.5087 -0.9604
 1335SOL     OW15463   4.579   0.031  14.844  0.4734  0.1440  0.4663
 1335SOL    HW115464   4.662   0.005  14.885  0.8243  1.3089  0.5090
 1335SOL    HW215465   4.517   4.711  14.901  4.1326 -0.0187  4.3028
 1336SOL     OW15466   3.105   3.767  17.097 -0.1397  1.1285 -0.1798
 1336SOL    HW115467   3.089   3.704  17.168 -2.6924  0.7208 -1.1176
 1336SOL    HW215468   3.029   3.741  17.045  0.2400  0.8510 -0.5976
 1337SOL     OW15469   1.907   0.271   0.334  0.4396  0.1510 -0.7091
 1337SOL    HW115470   1.820   0.251   0.300 -0.6048 -2.2064  3.4285
 1337SOL    HW215471   1.894   0.351   0.385 -0.6779 -0.3383 -0.2312
 1338SOL     OW15472   3.785   4.063  10.791  0.0007 -0.8729  0.2383
 1338SOL    HW115473   3.723   4.063  10.864 -1.0839 -0.2494 -0.6932
 1338SOL    HW215474   3.780   3.969  10.775  1.9532 -0.6866 -1.5269
 1339SOL     OW15475   0.951   2.300   4.034  0.5982  0.3678 -0.6586
 1339SOL    HW115476   0.865   2.337   4.014 -0.5568 -1.4282  1.0157
 1339SOL    HW215477   0.963   2.223   3.978  1.5683  1.0217 -1.3552
 1340SOL     OW15478   4.155   0.393  16.045 -0.0563  0.0695 -0.8333
 1340SOL    HW115479   4.138   0.486  16.062 -0.6108 -0.4827  1.4893
 1340SOL    HW215480   4.076   0.348  16.073  0.7318 -0.6475  0.2553
 1341SOL     OW15481   1.289   3.660   1.381 -0.3889  0.2566  0.4486
 1341SOL    HW115482   1.376   3.626   1.401 -0.1547  0.5582 -0.0662
 1341SOL    HW215483   1.301   3.709   1.300  0.1201  0.2695  0.5356
 1342SOL     OW15484   4.420   3.374   5.881 -0.2673 -0.0220 -0.0446
 1342SOL    HW115485   4.333   3.415   5.879 -0.1174  0.4006  1.6705
 1342SOL    HW215486   4.487   3.438   5.905  0.6847 -0.1794 -2.2458
 1343SOL     OW15487   4.167   1.757   9.421  0.2062  0.1495  0.5168
 1343SOL    HW115488   4.216   1.690   9.469 -0.4435 -0.5930  0.1408
 1343SOL    HW215489   4.158   1.727   9.331 -2.5853  0.3686  0.7289
 1344SOL     OW15490   3.486   4.094   4.260  0.0659 -0.0741  0.4332
 1344SOL    HW115491   3.517   4.033   4.327  0.4405  0.1122  0.4351
 1344SOL    HW215492   3.567   4.130   4.223 -0.4937  1.6018  0.8753
 1345SOL     OW15493   1.084   2.180  11.559  0.3498  0.1187 -0.4504
 1345SOL    HW115494   1.065   2.164  11.651 -0.2899 -1.9806 -0.9247
 1345SOL    HW215495   1.164   2.128  11.555  2.2209  2.9844  0.3205
 1346SOL     OW15496   1.883   1.886   3.111  0.0415 -0.4868 -0.4884
 1346SOL    HW115497   1.973   1.907   3.136 -0.3474  2.0291 -1.2235
 1346SOL    HW215498   1.872   1.805   3.161 -0.1788 -0.1046  0.0835
 1347SOL     OW15499   3.072   4.631  16.222  0.4972 -0.3314 -0.3717
 1347SOL    HW115500   2.978   4.648  16.233  0.5181 -0.0979 -0.5617
 1347SOL    HW215501   3.066   4.593  16.134 -2.1231  2.1123 -1.2290
 1348SOL     OW15502   0.756   3.964   6.423 -0.3191 -0.9428  0.4837
 1348SOL    HW115503   0.731   3.881   6.382 -0.9081 -0.2356 -0.5705
 1348SOL    HW215504   0.851   3.948   6.429  0.0058  0.2572 -1.6282
 1349SOL     OW15505   4.023   1.972  16.602 -0.1649  0.5965 -0.6754
 1349SOL    HW115506   4.006   2.028  16.678 -0.7409 -2.0931  1.1473
 1349SOL    HW215507   4.117   1.954  16.603 -0.1447  0.6654 -1.1642
 1350SOL     OW15508   1.253   2.338   7.879 -0.1627 -0.5441  0.2037
 1350SOL    HW115509   1.272   2.373   7.966  1.3889  0.0467 -0.3706
 1350SOL    HW215510   1.159   2.327   7.872 -0.7501  3.7063  1.2778
 1351SOL     OW15511   1.294   1.074   2.519  0.3611  0.0720 -0.3327
 1351SOL    HW115512   1.370   1.059   2.575  1.4632  0.0371 -1.8542
 1351SOL    HW215513   1.293   1.169   2.507  1.9552  0.5195  2.8382
 1352SOL     OW15514   1.247   2.944  17.399  0.1268 -0.1803  0.3188
 1352SOL    HW115515   1.324   2.935  17.455 -0.9580 -0.8237  1.7127
 1352SOL    HW215516   1.288   2.969  17.316  2.4614 -3.1823  0.5437
 1353SOL     OW15517   2.292   3.052  11.920  0.2609  0.4553 -0.2423
 1353SOL    HW115518   2.318   2.976  11.972  0.3096  0.5812 -0.0841
 1353SOL    HW215519   2.280   3.112  11.994 -1.4944  0.2916 -0.3958
 1354SOL     OW15520   0.266   1.536   7.491  0.3779 -0.1544 -0.3794
 1354SOL    HW115521   0.354   1.570   7.506  0.6916 -0.8187 -0.7045
 1354SOL    HW215522   0.265   1.522   7.396 -1.8550 -0.3040 -0.3243
 1355SOL     OW15523   2.088   0.925   5.515 -0.1148  0.4941 -0.1670
 1355SOL    HW115524   2.037   1.003   5.496  1.1362  1.2099 -0.6011
 1355SOL    HW215525   2.160   0.969   5.560  0.1026 -0.0505  0.0150
 1356SOL     OW15526   3.338   0.827  15.016 -0.5648 -0.4449  0.9683
 1356SOL    HW115527   3.275   0.887  15.056  0.5386  0.5493  1.1952
 1356SOL    HW215528   3.286   0.747  15.026 -1.9521  0.3984  0.4609
 1357SOL     OW15529   0.957   2.194   8.365 -0.9068  0.0861  0.1726
 1357SOL    HW115530   0.875   2.243   8.372 -1.1479 -0.5589  2.1039
 1357SOL    HW215531   0.963   2.195   8.270  0.1888 -1.6497  0.2100
 1358SOL     OW15532   4.177   1.576   3.967 -0.4731 -0.3260  0.6283
 1358SOL    HW115533   4.173   1.601   3.875  0.3738 -1.3763  0.3057
 1358SOL    HW215534   4.179   1.664   4.005 -1.5610  0.3456 -0.8787
 1359SOL     OW15535   1.791   0.127  10.354  0.2420  0.3531 -0.2406
 1359SOL    HW115536   1.858   0.147  10.289 -0.0227  0.0179 -0.6142
 1359SOL    HW215537   1.719   0.120  10.291  0.5270 -1.8044 -0.3235
 1360SOL     OW15538   3.354   0.079   1.895  0.1102 -0.0165 -0.5082
 1360SOL    HW115539   3.441   0.099   1.931  0.4110 -0.9657 -0.7024
 1360SOL    HW215540   3.361   4.707   1.891  2.2748  0.1224 -0.1917
 1361SOL     OW15541   4.034   3.853   8.064  0.2083  0.2339  0.0380
 1361SOL    HW115542   3.946   3.817   8.076 -0.4155  1.8442  0.2390
 1361SOL    HW215543   4.005   3.942   8.048  1.1088  0.6006  0.4361
 1362SOL     OW15544   4.093   2.717   3.908  0.1974 -0.7411  0.1628
 1362SOL    HW115545   4.155   2.653   3.942  0.0500 -0.8355  0.2567
 1362SOL    HW215546   4.014   2.681   3.949 -0.3738  1.3204  0.8876
 1363SOL     OW15547   3.517   3.880  11.883 -0.5038 -0.1986  0.1314
 1363SOL    HW115548   3.541   3.879  11.976 -0.1363  1.1582  0.0511
 1363SOL    HW215549   3.462   3.959  11.883 -2.4998 -1.5854 -0.1012
 1364SOL     OW15550   2.747   3.279  15.899 -0.0296  0.4486  0.2895
 1364SOL    HW115551   2.676   3.305  15.957 -0.1144  2.0724 -0.5566
 1364SOL    HW215552   2.797   3.226  15.962  0.5865 -1.9688 -2.2152
 1365SOL     OW15553   0.859   1.321   3.420 -0.2546 -0.0709 -0.2051
 1365SOL    HW115554   0.839   1.236   3.381  0.0472 -0.0823 -0.3321
 1365SOL    HW215555   0.786   1.313   3.481 -0.5074  0.0670 -0.4904
 1366SOL     OW15556   0.961   0.331   2.000 -0.0109 -0.0850 -0.7629
 1366SOL    HW115557   0.933   0.392   1.931 -1.3002  1.3801  1.0523
 1366SOL    HW215558   1.005   0.260   1.953 -0.1083 -1.9379  1.9896
 1367SOL     OW15559   0.239   4.683  11.806 -0.4824 -0.3629  0.2290
 1367SOL    HW115560   0.163   4.681  11.865 -1.7830  1.7009 -1.3987
 1367SOL    HW215561   0.312   4.656  11.863 -1.3034 -1.4212  0.7924
 1368SOL     OW15562   4.577   4.525   5.975 -0.5246  0.2661 -0.2572
 1368SOL    HW115563   4.584   4.545   5.881  1.3757 -1.6757 -0.5313
 1368SOL    HW215564   4.664   4.485   5.984  0.1771  1.4278 -1.8717
 1369SOL     OW15565   1.721   0.529   7.620  0.9253 -0.3399 -0.3673
 1369SOL    HW115566   1.813   0.554   7.616  1.5015 -2.3378 -0.0837
 1369SOL    HW215567   1.704   0.563   7.708  4.1507 -1.1588  0.5680
 1370SOL     OW15568   0.288   0.508   5.109  0.1085  0.5260 -0.4199
 1370SOL    HW115569   0.211   0.552   5.146 -1.1861 -2.6800  0.6635
 1370SOL    HW215570   0.308   0.461   5.190 -0.8117  1.2734  0.2462
 1371SOL     OW15571   0.531   3.117   5.078  0.1406 -0.4465 -0.2219
 1371SOL    HW115572   0.580   3.041   5.046 -0.5091 -0.7674 -0.4500
 1371SOL    HW215573   0.590   3.190   5.060  0.0415 -0.4555 -0.5852
 1372SOL     OW15574   2.445   2.642   8.025  0.3657 -0.1384  0.0116
 1372SOL    HW115575   2.443   2.728   8.067 -0.1432 -0.0284 -0.2365
 1372SOL    HW215576   2.534   2.609   8.030  0.4825 -0.2493 -2.5466
 1373SOL     OW15577   0.313   3.864   6.526  0.3706  0.0322  0.5557
 1373SOL    HW115578   0.385   3.899   6.473 -0.2126 -0.6324 -0.6732
 1373SOL    HW215579   0.347   3.852   6.615  1.6187  2.8359  0.4401
 1374SOL     OW15580   2.630   2.933   4.439 -0.1901 -0.9545 -1.2588
 1374SOL    HW115581   2.569   3.006   4.437 -1.8011 -2.2566 -0.2222
 1374SOL    HW215582   2.607   2.880   4.515  0.9992 -0.0902 -0.2967
 1375SOL     OW15583   0.854   1.982  17.092 -0.1967  0.8313 -0.3273
 1375SOL    HW115584   0.799   2.018  17.022 -0.5829 -2.3920 -1.6886
 1375SOL    HW215585   0.797   1.925  17.143 -2.2915  1.0716 -2.3675
 1376SOL     OW15586   3.538   1.458   3.882 -0.0566  0.4415  0.2352
 1376SOL    HW115587   3.627   1.476   3.913  0.0160 -1.5320  1.1733
 1376SOL    HW215588   3.533   1.364   3.866 -1.6767  0.5018  0.4088
 1377SOL     OW15589   0.029   4.296   7.956 -0.3729  0.0663  0.3067
 1377SOL    HW115590   0.081   4.369   7.988 -0.1730 -0.5926  1.4974
 1377SOL    HW215591   4.702   4.258   8.028  1.4593 -1.1607  0.9596
 1378SOL     OW15592   0.742   2.303  17.540  0.4212  0.7355 -0.9246
 1378SOL    HW115593   0.746   2.288  17.445 -2.6885  1.5660 -1.1620
 1378SOL    HW215594   0.735   2.398  17.538 -2.7962  0.4961 -1.0163
 1379SOL     OW15595   3.392   4.494   5.479 -0.8566  0.1933  0.4911
 1379SOL    HW115596   3.400   4.530   5.568  1.4379 -1.8632  1.1221
 1379SOL    HW215597   3.445   4.414   5.481 -0.9328  0.1006 -1.3016
 1380SOL     OW15598   4.535   1.816   6.493  0.1233 -0.6149 -0.3201
 1380SOL    HW115599   4.598   1.856   6.553  0.4412 -1.3635 -0.1618
 1380SOL    HW215600   4.595   1.761   6.443  0.0343 -0.7052 -0.3279
 1381SOL     OW15601   3.230   0.294   3.406  0.2030  0.0742 -0.1258
 1381SOL    HW115602   3.281   0.219   3.376  0.6187  0.2704  0.0914
 1381SOL    HW215603   3.281   0.327   3.480  1.3340  0.1536 -0.9395
 1382SOL     OW15604   0.367   1.277  12.378 -0.1388 -0.3078  0.1009
 1382SOL    HW115605   0.431   1.280  12.448 -0.2540 -0.5206  0.2163
 1382SOL    HW215606   0.366   1.184  12.354  1.6636 -0.4440  0.5725
 1383SOL     OW15607   1.531   2.851   7.031  0.2408 -0.2160  0.3760
 1383SOL    HW115608   1.466   2.786   7.007 -1.4204  1.5233  0.1663
 1383SOL    HW215609   1.573   2.868   6.947 -1.7147  2.2055 -0.1147
 1384SOL     OW15610   2.927   2.754   5.868 -0.2460 -0.1959  0.2881
 1384SOL    HW115611   2.986   2.693   5.912  0.6116  0.9664  0.7440
 1384SOL    HW215612   2.990   2.819   5.837 -0.4834  1.2149  2.8140
 1385SOL     OW15613   0.175   2.385   6.238 -0.5845  0.2215 -0.4345
 1385SOL    HW115614   0.168   2.419   6.149  0.3360 -0.3557 -0.7139
 1385SOL    HW215615   0.253   2.333   6.220 -1.6587 -1.0288 -1.4569
 1386SOL     OW15616   0.310   4.032   3.571  0.0990  0.1481 -0.2685
 1386SOL    HW115617   0.218   4.018   3.549  0.6201 -0.1456 -2.2701
 1386SOL    HW215618   0.314   4.031   3.666 -2.9667  0.6058 -0.1280
 1387SOL     OW15619   4.465   2.935   7.984 -0.1454  0.1342 -0.5613
 1387SOL    HW115620   4.514   2.863   7.945  0.7618  0.3818  0.1348
 1387SOL    HW215621   4.539   2.987   8.014  0.5927 -0.3894 -1.4869
 1388SOL     OW15622   2.909   2.280   8.390  0.0867 -0.2115 -0.1929
 1388SOL    HW115623   2.889   2.346   8.456  0.1165  0.1576 -0.5549
 1388SOL    HW215624   2.921   2.208   8.453 -1.7727 -1.1463 -0.8775
 1389SOL     OW15625   1.588   1.891   2.785  0.7917  0.1433 -0.0796
 1389SOL    HW115626   1.518   1.903   2.849  0.5068  0.6091 -0.4811
 1389SOL    HW215627   1.555   1.917   2.699  0.3452  2.5942  0.8421
 1390SOL     OW15628   1.254   4.501   0.828 -0.8730 -0.5002  0.6197
 1390SOL    HW115629   1.313   4.495   0.903  0.4616 -0.2123 -0.3932
 1390SOL    HW215630   1.227   4.593   0.834 -0.4825 -0.3105 -0.3697
 1391SOL     OW15631   4.483   0.362  10.820  0.0768  0.2043  0.3109
 1391SOL    HW115632   4.504   0.453  10.839 -0.1063  0.5268 -0.9903
 1391SOL    HW215633   4.398   0.372  10.776 -0.4269  1.2084  1.5349
 1392SOL     OW15634   4.697   3.053  10.575 -0.1717  0.0397 -0.3841
 1392SOL    HW115635   4.604   3.049  10.598 -0.4248  0.8134 -1.2507
 1392SOL    HW215636   0.020   3.086  10.652 -3.4852 -2.6373  2.8298
 1393SOL     OW15637   2.647   2.726   8.626  0.3823  0.4489 -0.4490
 1393SOL    HW115638   2.616   2.636   8.637 -1.1801  1.3298  2.1183
 1393SOL    HW215639   2.712   2.718   8.556 -1.2770 -0.2751 -1.8922
 1394SOL     OW15640   2.120   0.007  12.615  0.3466  0.2159 -0.6885
 1394SOL    HW115641   2.032   0.028  12.646  0.8844  1.5267 -0.0665
 1394SOL    HW215642   2.133   0.072  12.547 -1.3374  1.8109  0.5229
 1395SOL     OW15643   2.724   1.320   4.108 -0.4680  0.3369  0.1863
 1395SOL    HW115644   2.812   1.318   4.072 -1.0304 -1.4385 -1.0839
 1395SOL    HW215645   2.730   1.413   4.127 -1.4357  0.9352 -2.4130
 1396SOL     OW15646   4.258   0.828   6.342  0.1616 -0.0684 -0.2022
 1396SOL    HW115647   4.255   0.893   6.411  0.3072 -0.1186 -0.1483
 1396SOL    HW215648   4.280   0.887   6.270  1.6941  2.0398  2.0154
 1397SOL     OW15649   4.408   4.438   4.449  0.1962  0.3787  0.2318
 1397SOL    HW115650   4.458   4.508   4.405  3.5284 -0.9611  1.8891
 1397SOL    HW215651   4.468   4.366   4.432 -0.7126  0.1847 -2.1691
 1398SOL     OW15652   4.029   3.299   8.950  0.2457  0.5188 -0.5173
 1398SOL    HW115653   4.089   3.258   8.887  0.7056  0.1875  0.1383
 1398SOL    HW215654   3.975   3.358   8.897  0.7638 -0.6585 -2.3511
 1399SOL     OW15655   2.280   2.651   2.170  0.4042 -0.1638 -0.0323
 1399SOL    HW115656   2.244   2.719   2.112  0.8121  0.9769  1.0439
 1399SOL    HW215657   2.339   2.605   2.110 -2.0419  0.3928 -2.8925
 1400SOL     OW15658   0.751   2.343   5.420 -0.0128  0.2789  0.4726
 1400SOL    HW115659   0.750   2.433   5.386  0.7300 -0.1810 -0.7740
 1400SOL    HW215660   0.819   2.303   5.366 -0.6874 -0.3587  0.0870
 1401SOL     OW15661   2.988   0.785  14.185 -0.4630 -0.3500  0.0608
 1401SOL    HW115662   3.081   0.787  14.208 -1.0768 -1.4773  2.5766
 1401SOL    HW215663   2.979   0.864  14.130 -1.1234  0.6751  1.6422
 1402SOL     OW15664   4.167   4.445  13.768  0.5244 -0.0035  0.5708
 1402SOL    HW115665   4.155   4.350  13.773 -1.3566  0.2401  0.3895
 1402SOL    HW215666   4.250   4.453  13.720 -0.8165  0.7700 -1.5940
 1403SOL     OW15667   2.318   1.676   6.390 -0.2336 -0.2226 -0.8525
 1403SOL    HW115668   2.253   1.745   6.378  0.7792  1.0954  1.3705
 1403SOL    HW215669   2.253   1.607   6.378  1.1207 -2.1523  3.0405
 1404SOL     OW15670   0.923   3.074   1.644  0.4638  0.1843 -0.1669
 1404SOL    HW115671   1.011   3.112   1.641  0.0212  1.1795 -0.6857
 1404SOL    HW215672   0.882   3.124   1.574 -0.8510  1.6035  1.5937
 1405SOL     OW15673   3.320   1.406   2.002  0.6206 -0.0302  0.5195
 1405SOL    HW115674   3.281   1.404   1.915 -1.0623  1.6786  1.2443
 1405SOL    HW215675   3.285   1.326   2.040 -0.8705  0.9476  1.1808
 1406SOL     OW15676   0.924   0.384   9.386  0.2592  0.4148 -0.6086
 1406SOL    HW115677   0.859   0.420   9.446 -1.0226 -0.2137 -1.6374
 1406SOL    HW215678   0.874   0.305   9.366  1.3263 -0.0749 -1.3649
 1407SOL     OW15679   1.280   4.299  14.705 -1.1394 -0.0063  0.0372
 1407SOL    HW115680   1.243   4.290  14.617 -2.7720  3.2666  0.3882
 1407SOL    HW215681   1.277   4.395  14.704 -1.8621 -0.0346 -0.0437
 1408SOL     OW15682   1.749   3.147  10.712 -0.1033  0.8324  0.3091
 1408SOL    HW115683   1.718   3.237  10.705 -0.4963  0.8201  1.7538
 1408SOL    HW215684   1.777   3.152  10.804 -3.2838  0.2553  1.3314
 1409SOL     OW15685   3.178   2.478   5.351  0.6473 -0.0006  0.4806
 1409SOL    HW115686   3.180   2.547   5.417  0.1473 -0.3305  0.8423
 1409SOL    HW215687   3.090   2.482   5.315  0.9475 -1.5134 -0.4450
 1410SOL     OW15688   1.344   2.699   6.918 -0.0560 -0.2853  1.0565
 1410SOL    HW115689   1.253   2.688   6.945  0.0501  0.2760  1.6290
 1410SOL    HW215690   1.354   2.622   6.862 -1.4586 -0.6131  1.2417
 1411SOL     OW15691   1.721   1.782   1.902 -0.7037 -0.2077 -0.0907
 1411SOL    HW115692   1.803   1.823   1.873 -1.4833  0.2845 -1.6176
 1411SOL    HW215693   1.692   1.745   1.819 -0.7209 -1.8983  0.6758
 1412SOL     OW15694   2.442   2.394  14.803 -0.1166 -0.2722 -0.7894
 1412SOL    HW115695   2.531   2.422  14.779  0.4636 -0.7342  0.7851
 1412SOL    HW215696   2.446   2.300  14.783  0.3705 -0.7754  1.5764
 1413SOL     OW15697   4.352   4.010   6.059  0.4082 -0.3859 -0.1300
 1413SOL    HW115698   4.388   4.089   6.018 -2.3395  1.1194  0.3663
 1413SOL    HW215699   4.389   4.008   6.147  0.4064  0.6984 -0.0934
 1414SOL     OW15700   0.657   4.017   1.969 -0.4221  0.3967 -0.8235
 1414SOL    HW115701   0.677   3.932   1.931  0.8866  0.0792  0.5485
 1414SOL    HW215702   0.715   4.014   2.045  2.0558 -3.8837 -2.9088
 1415SOL     OW15703   2.538   3.829   4.830  0.7346  0.2272  0.6878
 1415SOL    HW115704   2.445   3.842   4.850  0.0574 -2.0161 -1.1220
 1415SOL    HW215705   2.546   3.741   4.867  0.9735 -0.5889 -1.3329
 1416SOL     OW15706   2.535   0.177   8.632  0.0510  0.2852 -0.2873
 1416SOL    HW115707   2.464   0.233   8.664  0.2313 -0.1862  0.9041
 1416SOL    HW215708   2.489   0.095   8.649 -0.7669  0.5131 -1.4113
 1417SOL     OW15709   4.198   2.883   8.917 -0.1956 -0.4397 -0.0922
 1417SOL    HW115710   4.228   2.807   8.967  1.6120  1.1440  1.2504
 1417SOL    HW215711   4.138   2.917   8.983  1.0160 -1.3351  1.4687
 1418SOL     OW15712   4.263   1.015   1.300 -0.0878 -0.0811  0.2088
 1418SOL    HW115713   4.206   1.022   1.376  0.2450 -3.4402  0.7297
 1418SOL    HW215714   4.200   1.043   1.233 -0.6697 -1.0360  0.3628
 1419SOL     OW15715   4.317   1.105   4.329  0.3693  0.3981 -0.5900
 1419SOL    HW115716   4.390   1.090   4.389  0.3943  1.3364 -0.3959
 1419SOL    HW215717   4.354   1.081   4.244  4.8212 -0.3540  1.5138
 1420SOL     OW15718   1.452   1.995   3.288 -0.6093 -0.3668  0.4728
 1420SOL    HW115719   1.405   1.997   3.205  0.0850 -0.7549  0.0623
 1420SOL    HW215720   1.411   1.922   3.335 -0.2049 -0.5216  0.5857
 1421SOL     OW15721   1.278   0.706   8.084  0.0185  0.5851  0.7126
 1421SOL    HW115722   1.338   0.763   8.037  0.9290  0.6500  1.9516
 1421SOL    HW215723   1.217   0.676   8.016  0.5515  1.8283 -0.3069
 1422SOL     OW15724   2.231   3.524   3.046 -0.1648 -0.5902 -0.4627
 1422SOL    HW115725   2.218   3.603   2.993  0.5617 -0.6547 -0.7282
 1422SOL    HW215726   2.183   3.460   2.993  0.3226 -0.3065 -1.2304
 1423SOL     OW15727   0.042   0.728   2.613 -0.1716  0.8768  0.1439
 1423SOL    HW115728   0.128   0.701   2.644 -1.2995 -1.8065  0.9404
 1423SOL    HW215729   4.713   0.671   2.669 -0.8979  0.8522 -0.5612
 1424SOL     OW15730   0.750   3.545  16.840  0.2471 -0.6013 -0.2996
 1424SOL    HW115731   0.810   3.498  16.782  1.4685  0.2336  0.2809
 1424SOL    HW215732   0.733   3.480  16.908  1.9461  1.2762  1.9121
 1425SOL     OW15733   0.108   2.128   5.509 -0.0277 -0.2951 -0.1161
 1425SOL    HW115734   0.154   2.191   5.453 -0.4645 -0.4034 -0.5998
 1425SOL    HW215735   0.072   2.177   5.582  0.3712 -0.0619 -0.0756
 1426SOL     OW15736   3.099   2.585   8.599 -0.4015 -0.1849  0.0825
 1426SOL    HW115737   3.179   2.563   8.646 -1.1902 -0.9131  1.0961
 1426SOL    HW215738   3.077   2.671   8.635  3.1966  1.2456 -1.2309
 1427SOL     OW15739   3.420   1.861  14.876  0.8993  0.3843  0.0791
 1427SOL    HW115740   3.515   1.866  14.892  1.0727  0.9903 -1.1448
 1427SOL    HW215741   3.384   1.836  14.961 -1.0072 -0.8374 -1.0754
 1428SOL     OW15742   3.648   1.434  12.427  0.0226  0.2300 -0.2080
 1428SOL    HW115743   3.603   1.393  12.501  0.6989  1.7320  1.0233
 1428SOL    HW215744   3.668   1.357  12.374  0.6883 -0.1540  0.6134
 1429SOL     OW15745   3.899   0.032   6.945  0.4450  0.0886 -0.1720
 1429SOL    HW115746   3.910   0.043   7.039  0.8330  1.0489 -0.3315
 1429SOL    HW215747   3.825   0.091   6.932  2.5883  2.5882 -0.8139
 1430SOL     OW15748   2.340   0.200  15.409 -0.4559 -0.4593 -0.0801
 1430SOL    HW115749   2.290   0.146  15.348 -0.4798 -2.0287  1.3063
 1430SOL    HW215750   2.381   0.265  15.353  0.9379 -1.1271  0.1553
 1431SOL     OW15751   1.343   2.498   5.467 -0.2540  0.2670  0.0731
 1431SOL    HW115752   1.318   2.436   5.399 -0.3213  0.6777 -0.2783
 1431SOL    HW215753   1.260   2.544   5.483  0.9375  1.5868  2.5325
 1432SOL     OW15754   0.216   4.500   8.993  0.0074  0.4963  0.0714
 1432SOL    HW115755   0.139   4.445   9.006  1.7659 -2.0830 -0.3266
 1432SOL    HW215756   0.289   4.455   9.035  0.3933 -0.3152 -1.4729
 1433SOL     OW15757   2.937   3.081  13.457 -0.6266  1.0335 -0.1344
 1433SOL    HW115758   2.922   3.054  13.547  3.1851  0.5028  0.3349
 1433SOL    HW215759   2.983   3.165  13.464  2.0297 -0.5222  1.2948
 1434SOL     OW15760   2.581   0.512   1.179 -0.0366  0.3679 -0.1569
 1434SOL    HW115761   2.534   0.489   1.099 -1.4722  0.4808  0.6625
 1434SOL    HW215762   2.577   0.607   1.171  1.6146  0.4600  0.0750
 1435SOL     OW15763   0.156   1.720   1.172 -0.0640 -0.1210  0.6634
 1435SOL    HW115764   0.099   1.791   1.141 -0.7776 -0.7389  0.5727
 1435SOL    HW215765   0.226   1.722   1.107 -1.3084 -1.3137 -0.6994
 1436SOL     OW15766   0.800   1.452   6.362  0.1093 -0.5501  0.1827
 1436SOL    HW115767   0.734   1.438   6.430 -0.1000  1.2195  0.3400
 1436SOL    HW215768   0.877   1.454   6.418  1.3797  3.4008 -1.7353
 1437SOL     OW15769   0.019   1.750   2.631  0.1536 -0.2204  0.5442
 1437SOL    HW115770   0.053   1.675   2.678  1.3103 -0.6446 -0.9780
 1437SOL    HW215771   4.648   1.738   2.640 -0.0325  0.7049 -0.0692
 1438SOL     OW15772   3.189   3.286   2.692  0.0086  0.1451 -0.5194
 1438SOL    HW115773   3.218   3.279   2.601  2.3929 -3.1696  0.4941
 1438SOL    HW215774   3.268   3.262   2.739 -0.4086  0.9819  0.6103
 1439SOL     OW15775   4.551   3.927   0.411 -0.6624  0.2492  0.2454
 1439SOL    HW115776   4.580   3.876   0.487 -1.5468  0.1746  0.5394
 1439SOL    HW215777   4.558   4.017   0.443  0.7145 -0.2350  1.2853
 1440SOL     OW15778   0.544   0.869   0.102  0.0864  0.2005  0.1187
 1440SOL    HW115779   0.588   0.954   0.108  1.4508 -0.5507  0.7162
 1440SOL    HW215780   0.606   0.815   0.150  1.3022 -0.0357 -1.6997
 1441SOL     OW15781   3.578   1.541   5.140  0.3170 -0.1433 -0.0637
 1441SOL    HW115782   3.600   1.478   5.209  0.0051 -0.2456 -0.0615
 1441SOL    HW215783   3.581   1.482   5.065 -0.0609 -0.6277  0.3092
 1442SOL     OW15784   3.977   2.443   9.286  0.1560 -0.0342  1.0418
 1442SOL    HW115785   3.937   2.526   9.311  0.7958 -0.9895  5.1502
 1442SOL    HW215786   3.942   2.391   9.358 -4.4267  1.4513 -0.0763
 1443SOL     OW15787   4.370   2.034   3.844  0.0029 -0.6069  0.1437
 1443SOL    HW115788   4.386   2.006   3.754  0.1364 -1.2189  0.3561
 1443SOL    HW215789   4.275   2.023   3.852 -0.0273  0.0823  0.6609
 1444SOL     OW15790   3.892   4.248  15.121  0.0564 -0.1038  0.5665
 1444SOL    HW115791   3.829   4.272  15.053 -0.4531 -0.8608  0.7674
 1444SOL    HW215792   3.862   4.158  15.136 -0.1046  0.3391  2.9457
 1445SOL     OW15793   1.960   3.035   2.911  0.4920  0.1719  0.2125
 1445SOL    HW115794   1.972   2.988   2.994  0.7323  0.8215  0.5467
 1445SOL    HW215795   1.972   3.124   2.945 -1.6466  0.2563  0.7235
 1446SOL     OW15796   0.740   0.188   9.312  0.3517 -0.4452  0.0622
 1446SOL    HW115797   0.760   0.215   9.222  1.7876 -0.8643  0.2608
 1446SOL    HW215798   0.725   0.094   9.299  0.7942 -0.8817  2.8840
 1447SOL     OW15799   2.394   3.423  12.131 -0.6009 -0.6983 -0.1137
 1447SOL    HW115800   2.430   3.460  12.050  0.3654  1.2491  1.2354
 1447SOL    HW215801   2.337   3.496  12.154  2.0554  1.5965 -0.7369
 1448SOL     OW15802   1.067   3.776  17.571  1.0891 -0.0532 -0.1115
 1448SOL    HW115803   1.067   3.713  17.643 -2.5359 -0.1821 -0.2386
 1448SOL    HW215804   1.142   3.834  17.585  1.4349 -0.6744  0.5917
 1449SOL     OW15805   4.586   4.567   6.759  0.1130  0.0039 -0.7714
 1449SOL    HW115806   4.580   4.625   6.683 -0.4626  0.4231 -0.4018
 1449SOL    HW215807   4.494   4.559   6.782 -0.1337 -0.9392 -2.0806
 1450SOL     OW15808   1.018   3.664   9.852 -0.1186 -0.4399  0.0872
 1450SOL    HW115809   1.021   3.759   9.861  0.8993 -0.4952  0.3109
 1450SOL    HW215810   1.054   3.656   9.764  2.0981 -0.6151  1.0030
 1451SOL     OW15811   2.069   3.280   5.410  0.5888 -0.1136  1.2333
 1451SOL    HW115812   2.080   3.374   5.397  1.1928 -0.0037  2.5378
 1451SOL    HW215813   2.020   3.268   5.491 -0.7976  2.1542  0.7119
 1452SOL     OW15814   2.965   0.165  13.466 -0.3102  0.7084 -0.8397
 1452SOL    HW115815   2.899   0.139  13.403  1.7395 -2.4035 -1.6612
 1452SOL    HW215816   3.026   0.092  13.467 -0.0539  0.9329  0.0850
 1453SOL     OW15817   0.311   3.431   5.213  0.2711  0.0281  0.1629
 1453SOL    HW115818   0.262   3.512   5.225 -0.0628  0.1245 -1.7974
 1453SOL    HW215819   0.273   3.405   5.129  1.7046 -1.4250 -0.0296
 1454SOL     OW15820   0.502   0.372  13.212 -0.0712 -0.0254 -0.1328
 1454SOL    HW115821   0.575   0.327  13.170  0.3334  2.1780 -1.7390
 1454SOL    HW215822   0.547   0.392  13.294  1.9545  0.3860 -1.3538
 1455SOL     OW15823   0.613   3.664   4.730 -0.0051  0.1462  0.5301
 1455SOL    HW115824   0.694   3.681   4.779 -0.2214 -0.0906  0.9686
 1455SOL    HW215825   0.550   3.727   4.765 -2.4455 -1.1195 -1.6030
 1456SOL     OW15826   2.333   1.281   2.803 -0.4955 -0.2813  0.2069
 1456SOL    HW115827   2.388   1.294   2.726 -1.3899  1.6437 -0.1064
 1456SOL    HW215828   2.262   1.226   2.768 -3.0078  3.3654 -0.4185
 1457SOL     OW15829   2.755   4.570   6.190  0.1145 -0.3768 -0.7151
 1457SOL    HW115830   2.787   4.506   6.254  0.7102 -0.3446 -0.9749
 1457SOL    HW215831   2.787   4.645   6.239  0.1930 -0.0468 -1.2708
 1458SOL     OW15832   0.113   4.212  12.563 -0.2139  0.1034 -0.6809
 1458SOL    HW115833   0.028   4.190  12.523 -0.7956  1.3064 -0.0943
 1458SOL    HW215834   0.092   4.300  12.594  1.8992  0.2612  0.2703
 1459SOL     OW15835   3.196   2.393  10.883 -0.4849  0.6185  0.2399
 1459SOL    HW115836   3.116   2.438  10.909 -2.7896 -2.1584 -1.9924
 1459SOL    HW215837   3.266   2.453  10.908 -0.3391  0.3629  0.4416
 1460SOL     OW15838   0.146   3.715  14.128  0.3514  0.4633  0.0870
 1460SOL    HW115839   0.071   3.758  14.086  0.1114  2.1746  2.2823
 1460SOL    HW215840   0.115   3.696  14.217 -1.1190  1.4143 -0.2218
 1461SOL     OW15841   4.458   0.890   7.714 -0.7658 -0.0525 -0.2550
 1461SOL    HW115842   4.444   0.871   7.807  2.2919 -3.3555 -0.4795
 1461SOL    HW215843   4.553   0.894   7.714 -0.7869  0.4973 -0.3909
 1462SOL     OW15844   4.379   0.238   7.856 -0.0138 -0.5613 -0.4425
 1462SOL    HW115845   4.424   0.208   7.935  0.7010  0.0636 -0.6076
 1462SOL    HW215846   4.331   0.314   7.890 -0.3123 -2.2231  2.8534
 1463SOL     OW15847   2.751   1.522   2.310  0.4124  0.2247 -0.0274
 1463SOL    HW115848   2.840   1.536   2.278  1.1609 -0.8631  1.5755
 1463SOL    HW215849   2.735   1.429   2.291  2.1708 -0.1563  0.3850
 1464SOL     OW15850   0.577   0.646   4.367  0.6035 -0.0996  0.0728
 1464SOL    HW115851   0.523   0.724   4.356 -0.4954 -0.9772 -0.8368
 1464SOL    HW215852   0.651   0.666   4.311 -0.9645  0.8405 -1.6727
 1465SOL     OW15853   2.299   4.068  14.949 -1.1397 -0.0721  0.4586
 1465SOL    HW115854   2.294   4.066  14.853 -1.1514  0.6674  0.4476
 1465SOL    HW215855   2.354   3.989  14.957 -2.0625 -0.7005  0.6230
 1466SOL     OW15856   0.453   2.374   8.370  0.4051 -0.3280  0.4994
 1466SOL    HW115857   0.472   2.418   8.287  0.3497 -1.5504 -0.1643
 1466SOL    HW215858   0.376   2.429   8.386  0.1655 -0.3063 -0.7061
 1467SOL     OW15859   2.984   1.155   6.520 -0.0935 -0.3942  0.5392
 1467SOL    HW115860   2.897   1.168   6.482 -0.3934  1.5890  1.9239
 1467SOL    HW215861   2.984   1.059   6.520  0.7349 -0.3885 -0.0475
 1468SOL     OW15862   2.903   3.242  15.002  0.0511  0.5262  1.1887
 1468SOL    HW115863   2.869   3.167  14.953  0.0485  0.8545  0.6912
 1468SOL    HW215864   2.941   3.300  14.936 -2.4715 -1.2821 -1.8450
 1469SOL     OW15865   2.634   3.780   4.492  0.2499  0.4585  0.0254
 1469SOL    HW115866   2.649   3.873   4.508  0.2323  0.6291 -0.9629
 1469SOL    HW215867   2.654   3.734   4.574 -0.9546  2.3884  1.4159
 1470SOL     OW15868   3.672   2.015   0.672 -0.0153  0.3305 -0.3338
 1470SOL    HW115869   3.622   2.085   0.714 -0.1098  0.4374 -0.6193
 1470SOL    HW215870   3.722   2.054   0.599 -0.1322  1.0229 -0.0428
 1471SOL     OW15871   3.882   4.333   2.736  0.0450 -0.1239  0.1055
 1471SOL    HW115872   3.960   4.279   2.747  0.6195  1.0478  1.8281
 1471SOL    HW215873   3.866   4.311   2.645  1.2696  2.5675 -0.7932
 1472SOL     OW15874   4.013   0.289  11.236  0.5491 -0.4894 -0.1249
 1472SOL    HW115875   4.036   0.322  11.150  3.0618 -0.9628  0.3681
 1472SOL    HW215876   4.065   0.351  11.287  2.6857 -1.7613 -0.7823
 1473SOL     OW15877   2.303   0.421   4.785 -0.1148  0.6412  0.1720
 1473SOL    HW115878   2.250   0.499   4.774 -0.0164  0.6112 -0.4752
 1473SOL    HW215879   2.232   0.357   4.794 -1.1301  1.6061 -1.0968
 1474SOL     OW15880   1.704   0.649   9.801 -0.1548  0.6966 -0.2061
 1474SOL    HW115881   1.699   0.740   9.771 -2.6292  0.4937 -0.3722
 1474SOL    HW215882   1.755   0.661   9.881 -1.0929  0.4536  0.4247
 1475SOL     OW15883   2.391   1.916  13.099 -0.3543  0.1317 -0.4065
 1475SOL    HW115884   2.358   1.915  13.009 -0.4173 -1.8655 -0.3657
 1475SOL    HW215885   2.317   1.882  13.149 -0.8141  0.3525 -0.9415
 1476SOL     OW15886   3.717   0.140   0.677 -0.5362 -0.3276 -0.1034
 1476SOL    HW115887   3.667   0.058   0.678  1.3942 -1.4892  0.2461
 1476SOL    HW215888   3.657   0.196   0.727 -0.2443 -0.1285  0.0258
 1477SOL     OW15889   0.075   1.767   8.210  0.0181  0.2444  0.3037
 1477SOL    HW115890   0.059   1.847   8.260  0.6464  0.4755  0.1315
 1477SOL    HW215891   0.044   1.699   8.271  0.7567 -0.2171  0.1644
 1478SOL     OW15892   4.372   2.618   7.567 -0.3186 -0.4006 -0.5432
 1478SOL    HW115893   4.374   2.696   7.622 -4.4119  0.0825 -1.0507
 1478SOL    HW215894   4.403   2.546   7.622 -1.8217 -1.1830 -0.6960
 1479SOL     OW15895   0.025   2.845   2.343 -0.3888 -0.1505 -0.1519
 1479SOL    HW115896   0.114   2.880   2.339 -0.3319 -0.2075  0.6090
 1479SOL    HW215897   0.043   2.754   2.317  0.8625  0.5399 -1.6956
 1480SOL     OW15898   1.239   1.828   6.291 -0.3079 -0.2970 -0.0484
 1480SOL    HW115899   1.184   1.887   6.343  1.0823  0.3288  0.7209
 1480SOL    HW215900   1.274   1.885   6.222  1.0594 -2.1182 -0.8693
 1481SOL     OW15901   2.087   0.852  11.815 -0.0512  0.3450  0.0444
 1481SOL    HW115902   2.053   0.771  11.852  0.8954 -0.3672 -0.6256
 1481SOL    HW215903   2.168   0.811  11.784 -0.2169 -0.4357  0.6500
 1482SOL     OW15904   2.541   0.312  13.016 -0.0364 -0.0302 -0.0221
 1482SOL    HW115905   2.575   0.226  13.039 -1.3422 -0.0904  1.7374
 1482SOL    HW215906   2.480   0.302  12.943  0.7323  2.4118 -0.9814
 1483SOL     OW15907   2.910   3.656   3.342  0.3870 -0.3435 -0.1846
 1483SOL    HW115908   2.948   3.569   3.329  1.4710  0.1195 -0.0829
 1483SOL    HW215909   2.969   3.686   3.411  0.9949 -0.0076 -0.8630
 1484SOL     OW15910   0.893   1.818   5.109  0.5119  0.3990  0.6643
 1484SOL    HW115911   0.968   1.877   5.107 -1.0905  2.4106  0.3277
 1484SOL    HW215912   0.915   1.742   5.054 -0.1890  0.9290 -0.3445
 1485SOL     OW15913   3.489   1.032  13.962  0.5548 -0.2234 -0.3223
 1485SOL    HW115914   3.411   0.982  13.986 -1.5092  2.9909 -0.3839
 1485SOL    HW215915   3.551   0.965  13.992 -2.3972 -2.3713  0.9290
 1486SOL     OW15916   2.699   2.193  10.380  0.0850  0.3125 -0.2701
 1486SOL    HW115917   2.748   2.248  10.441 -0.7805  0.9986 -0.1886
 1486SOL    HW215918   2.770   2.136  10.351 -0.5866 -1.0396  0.7187
 1487SOL     OW15919   0.637   2.836   5.839  0.1064 -0.6373  0.3315
 1487SOL    HW115920   0.688   2.861   5.915  0.0974 -1.8279  0.7269
 1487SOL    HW215921   0.568   2.903   5.834  1.1101  0.4579  1.1956
 1488SOL     OW15922   2.525   3.180  12.104 -0.7000 -0.5986 -0.6070
 1488SOL    HW115923   2.506   3.271  12.124 -2.1667 -0.9038 -0.5960
 1488SOL    HW215924   2.472   3.139  12.172 -0.6690  1.5466  0.7195
 1489SOL     OW15925   2.628   4.339   8.020 -0.5947 -0.0654  0.4938
 1489SOL    HW115926   2.573   4.403   7.974 -1.0732 -0.6526  0.2540
 1489SOL    HW215927   2.705   4.338   7.964 -1.5671  0.8728 -0.8851
 1490SOL     OW15928   1.157   3.040  11.325  0.2635  0.1935  0.0928
 1490SOL    HW115929   1.135   3.006  11.238  1.0689  1.5740 -0.6457
 1490SOL    HW215930   1.086   3.009  11.381 -1.9507  1.4968 -2.0319
 1491SOL     OW15931   2.790   1.014   0.206  0.1422 -0.5038 -0.0078
 1491SOL    HW115932   2.816   1.104   0.184 -0.5546 -0.6784 -1.5747
 1491SOL    HW215933   2.694   1.020   0.201  0.4297  0.9942 -3.6324
 1492SOL     OW15934   4.302   3.717   6.876 -0.5511  0.2009 -0.5608
 1492SOL    HW115935   4.210   3.729   6.903 -0.2239  0.1053  0.6040
 1492SOL    HW215936   4.339   3.660   6.944  0.8941  1.8844  0.0625
 1493SOL     OW15937   0.821   1.046   4.249  0.2601 -0.0400 -0.7594
 1493SOL    HW115938   0.878   1.066   4.175  1.2875 -1.8455 -0.4774
 1493SOL    HW215939   0.859   0.961   4.273 -1.2054 -0.1603  1.1069
 1494SOL     OW15940   1.109   0.430  16.934  0.1857  0.7216 -0.4551
 1494SOL    HW115941   1.175   0.497  16.951  0.1982  0.3589  0.9170
 1494SOL    HW215942   1.099   0.398  17.023  1.8495  0.0892 -0.4860
 1495SOL     OW15943   1.812   3.487   5.950 -0.6447  0.1228  0.6232
 1495SOL    HW115944   1.903   3.467   5.968 -1.0373 -0.9692  1.3784
 1495SOL    HW215945   1.799   3.411   5.892 -0.8001  0.9717 -0.4517
 1496SOL     OW15946   2.099   1.335   6.152  0.2512  0.3644  0.5047
 1496SOL    HW115947   2.036   1.273   6.116 -0.1610  1.5943 -0.8922
 1496SOL    HW215948   2.183   1.288   6.150  0.5183  1.0019 -3.3750
 1497SOL     OW15949   1.613   0.102  13.084  0.4527 -0.6837  0.1558
 1497SOL    HW115950   1.699   0.062  13.096  1.7172  2.0704  0.3781
 1497SOL    HW215951   1.628   0.122  12.991 -0.0527  2.1370  0.6663
 1498SOL     OW15952   1.520   1.354   1.866 -0.4765 -0.4321 -0.3917
 1498SOL    HW115953   1.599   1.301   1.854 -0.1043  0.5227 -2.1460
 1498SOL    HW215954   1.490   1.349   1.775  0.0644  2.2687 -0.7038
 1499SOL     OW15955   0.179   4.054   2.591 -0.1414  0.3933  0.4191
 1499SOL    HW115956   0.151   3.967   2.621 -0.0519  1.0406  2.3482
 1499SOL    HW215957   0.249   4.045   2.526  0.7174 -1.9673  1.6515
 1500SOL     OW15958   3.057   0.484   7.060  0.4093  0.8796  0.3704
 1500SOL    HW115959   3.084   0.445   7.144 -0.3522  0.7301  0.5449
 1500SOL    HW215960   3.118   0.448   6.996 -1.2716  0.9078 -1.2552
 1501SOL     OW15961   4.022   1.429   5.126  0.0816 -0.0849  0.4362
 1501SOL    HW115962   3.971   1.429   5.045 -0.0105  1.6205  0.4992
 1501SOL    HW215963   4.063   1.514   5.108 -0.7554  0.0079 -1.0559
 1502SOL     OW15964   4.614   4.096  16.746  0.0288  0.4659 -0.2191
 1502SOL    HW115965   4.687   4.126  16.802 -2.3475  0.2554  2.9860
 1502SOL    HW215966   4.558   4.173  16.738 -2.8973 -1.5016  1.2445
 1503SOL     OW15967   1.991   4.074   3.640 -0.6107  0.3021 -0.2984
 1503SOL    HW115968   2.008   4.002   3.580 -0.0776 -0.7586  1.1313
 1503SOL    HW215969   1.905   4.104   3.613 -1.6935 -0.1490  2.6244
 1504SOL     OW15970   2.125   3.076   5.878  0.4386 -0.0338 -0.3958
 1504SOL    HW115971   2.137   3.035   5.963 -1.4414  3.6935  1.6408
 1504SOL    HW215972   2.197   3.042   5.824  0.6137 -1.7441  0.9192
 1505SOL     OW15973   0.289   3.634   6.228  0.5497 -0.0214 -0.0488
 1505SOL    HW115974   0.218   3.646   6.290  0.8377 -0.7642  0.4285
 1505SOL    HW215975   0.284   3.718   6.182 -3.2767  0.1342  0.6434
 1506SOL     OW15976   1.704   2.419   4.968 -0.2695  0.5044  0.0898
 1506SOL    HW115977   1.712   2.513   4.981  0.9484  0.4911 -0.5998
 1506SOL    HW215978   1.662   2.389   5.048  0.9847 -0.1155  0.5214
 1507SOL     OW15979   1.755   4.428   0.135  0.2363  0.5161 -0.3141
 1507SOL    HW115980   1.708   4.443   0.218 -0.5485 -2.2969 -0.2659
 1507SOL    HW215981   1.705   4.357   0.095  2.1847  0.1292 -2.0224
 1508SOL     OW15982   3.964   1.733  16.031  0.3196 -0.1984 -0.2168
 1508SOL    HW115983   4.013   1.783  16.097 -1.8947 -0.0590  1.3354
 1508SOL    HW215984   3.875   1.746  16.064 -0.2019  2.5189 -2.6931
 1509SOL     OW15985   1.357   3.390  17.131  0.2346 -0.2348 -0.1432
 1509SOL    HW115986   1.385   3.409  17.221  0.6583 -0.1698 -0.2866
 1509SOL    HW215987   1.429   3.424  17.078 -0.2281 -2.1334 -1.9551
 1510SOL     OW15988   3.119   2.487   8.175  0.1205  0.0203 -0.2656
 1510SOL    HW115989   3.104   2.408   8.226  0.4976 -0.2758 -0.6173
 1510SOL    HW215990   3.132   2.452   8.087 -1.5507 -1.4463  0.0818
 1511SOL     OW15991   4.104   2.423   9.023 -0.0836 -0.2012 -0.2900
 1511SOL    HW115992   4.188   2.410   9.066 -0.3315  0.6357  0.4626
 1511SOL    HW215993   4.050   2.446   9.099 -0.6707  1.4140 -1.1938
 1512SOL     OW15994   1.443   1.813   7.462  0.3213  0.4324 -0.5833
 1512SOL    HW115995   1.468   1.904   7.449  1.4660  0.5260  2.3327
 1512SOL    HW215996   1.509   1.787   7.526 -1.7352  3.1741  2.6788
 1513SOL     OW15997   0.027   1.924   7.773 -0.2724 -0.2524 -0.0338
 1513SOL    HW115998   0.119   1.908   7.753 -0.1271  1.0233 -0.4038
 1513SOL    HW215999   0.019   1.861   7.844 -0.3641  0.0890  0.2618
 1514SOL     OW16000   2.511   3.436   1.973 -0.0133 -0.2902 -0.4098
 1514SOL    HW116001   2.461   3.472   2.046  1.8873 -1.9624  1.7069
 1514SOL    HW216002   2.518   3.344   2.000 -0.9576 -0.4221 -0.5956
 1515SOL     OW16003   1.490   3.827   2.223 -0.1462  0.5425 -0.2745
 1515SOL    HW116004   1.498   3.830   2.128 -0.1484 -2.0140 -0.3590
 1515SOL    HW216005   1.563   3.884   2.245 -0.2080 -0.1304  1.6241
 1516SOL     OW16006   0.355   4.261   6.879  0.9906 -0.3213  0.4140
 1516SOL    HW116007   0.327   4.327   6.815  0.5327 -2.4964 -1.6303
 1516SOL    HW216008   0.450   4.273   6.869  0.5837  0.8776 -1.9988
 1517SOL     OW16009   2.134   0.139  11.430 -0.2094  0.1598 -0.3312
 1517SOL    HW116010   2.042   0.112  11.425 -0.0803 -0.0924 -1.2525
 1517SOL    HW216011   2.167   0.111  11.345 -0.5168 -0.8166 -0.1233
 1518SOL     OW16012   1.440   2.974  13.124  0.4681 -0.6269  0.4385
 1518SOL    HW116013   1.371   2.934  13.177 -1.2619 -0.5521 -1.7942
 1518SOL    HW216014   1.406   2.962  13.036 -3.2683 -1.2812  1.9866
 1519SOL     OW16015   3.392   1.333  17.335  0.1123  0.1691 -0.1180
 1519SOL    HW116016   3.313   1.280  17.325  0.3567  0.3509 -3.0536
 1519SOL    HW216017   3.425   1.338  17.245 -1.3634 -1.8018 -0.7607
 1520SOL     OW16018   2.487   2.439  10.618 -0.0258 -0.7649 -0.3578
 1520SOL    HW116019   2.443   2.459  10.700 -2.1763 -1.0980 -1.4316
 1520SOL    HW216020   2.532   2.520  10.593  0.4210 -0.9003  0.0079
 1521SOL     OW16021   2.618   2.798   4.710 -0.2397 -0.0834  0.0033
 1521SOL    HW116022   2.689   2.733   4.710 -0.6103 -0.4891 -1.3041
 1521SOL    HW216023   2.607   2.815   4.803 -2.5558 -1.7783  0.0479
 1522SOL     OW16024   3.146   0.865  11.986 -0.3814  0.3167  0.2372
 1522SOL    HW116025   3.058   0.831  11.998 -0.2226 -0.1667  0.0789
 1522SOL    HW216026   3.158   0.851  11.891  3.0312  2.6974  0.3251
 1523SOL     OW16027   4.073   0.683  13.048 -0.1100 -0.1515 -0.5037
 1523SOL    HW116028   4.158   0.682  13.004 -0.5498 -0.1560 -1.3555
 1523SOL    HW216029   4.044   0.774  13.054 -2.5231 -0.9725  0.4176
 1524SOL     OW16030   1.405   2.807   0.221  0.4316 -0.0322  0.7956
 1524SOL    HW116031   1.388   2.731   0.277  0.2059  1.0202  2.1598
 1524SOL    HW216032   1.418   2.770   0.133  0.0739  1.0835  0.2759
 1525SOL     OW16033   2.559   0.688  11.405 -0.5198  0.2972  0.1389
 1525SOL    HW116034   2.574   0.721  11.316  0.5844  3.7626  1.6566
 1525SOL    HW216035   2.560   0.593  11.390  0.8615  0.5009 -1.0138
 1526SOL     OW16036   1.764   3.324  13.151  0.2131  0.0225  0.0942
 1526SOL    HW116037   1.749   3.377  13.229  1.6861  1.8678 -0.8923
 1526SOL    HW216038   1.819   3.385  13.103  0.2440 -0.9893 -1.1697
 1527SOL     OW16039   1.333   3.227  12.183  0.9928 -0.4846  0.4164
 1527SOL    HW116040   1.329   3.296  12.116  0.6297 -0.5831  0.3368
 1527SOL    HW216041   1.342   3.291  12.253  1.2030 -0.2084  0.1353
 1528SOL     OW16042   0.390   0.503  14.685 -0.3589  0.1238  0.6611
 1528SOL    HW116043   0.427   0.486  14.598 -0.2142  2.5975  0.2308
 1528SOL    HW216044   0.453   0.563  14.724 -0.8086  0.3010  1.1149
 1529SOL     OW16045   4.264   2.514   3.312 -0.0710 -0.3057  0.2453
 1529SOL    HW116046   4.273   2.441   3.250 -0.2409 -0.7702  0.7682
 1529SOL    HW216047   4.168   2.514   3.316 -0.0220 -1.0282  1.6342
 1530SOL     OW16048   2.935   3.344  11.082  0.7544 -0.1706 -0.4474
 1530SOL    HW116049   2.902   3.433  11.069 -1.2881 -1.1427 -1.9946
 1530SOL    HW216050   2.903   3.332  11.171  0.2574  3.7409 -0.0745
 1531SOL     OW16051   1.084   0.908   6.045  0.1881  0.0912  0.2227
 1531SOL    HW116052   0.989   0.916   6.057  0.1334  1.4258 -1.0557
 1531SOL    HW216053   1.090   0.813   6.035 -1.2878 -0.0405  0.5645
 1532SOL     OW16054   1.295   4.461  13.895 -0.0567 -0.0913  0.4080
 1532SOL    HW116055   1.354   4.484  13.823 -0.9317 -2.6086 -1.1323
 1532SOL    HW216056   1.243   4.387  13.864 -0.1574  0.3650 -0.5017
 1533SOL     OW16057   4.073   4.648  16.437 -0.1294 -0.4855  0.1429
 1533SOL    HW116058   4.154   4.684  16.401 -0.1479  0.8317  1.4069
 1533SOL    HW216059   4.012   4.708  16.395  0.9165 -1.7150 -3.0725
 1534SOL     OW16060   3.533   1.328  10.847  0.4717  0.2946 -1.0517
 1534SOL    HW116061   3.452   1.362  10.883  1.6552  3.1000 -1.0785
 1534SOL    HW216062   3.532   1.238  10.881 -2.8730  0.0903 -1.7208
 1535SOL     OW16063   2.250   0.797   3.596  0.7171 -0.9916  0.0509
 1535SOL    HW116064   2.340   0.806   3.628 -0.1032  0.7647  1.8961
 1535SOL    HW216065   2.199   0.821   3.673  1.5519  1.7766 -0.2548
 1536SOL     OW16066   2.811   4.399   4.549  0.1909 -0.0888  0.0632
 1536SOL    HW116067   2.859   4.324   4.585  0.0345 -1.3038 -2.2167
 1536SOL    HW216068   2.805   4.379   4.455 -3.8215 -0.3484  0.3838
 1537SOL     OW16069   4.277   0.543   3.599 -0.1820  0.2458  0.4179
 1537SOL    HW116070   4.313   0.499   3.522 -2.2587  0.1227 -0.4794
 1537SOL    HW216071   4.289   0.626   3.553  1.0043 -1.1281 -1.7525
 1538SOL     OW16072   4.662   2.709  13.928 -0.8069  0.3356 -0.0896
 1538SOL    HW116073   4.619   2.781  13.973  1.1917 -1.5127  4.7502
 1538SOL    HW216074   4.632   2.725  13.838  2.4286  1.5773 -0.9826
 1539SOL     OW16075   3.968   1.178   1.951  0.0931  0.5820  0.6485
 1539SOL    HW116076   3.960   1.271   1.928 -1.0885  0.3060 -0.0183
 1539SOL    HW216077   4.012   1.179   2.036  1.3085 -0.8676  0.0327
 1540SOL     OW16078   3.510   3.131   4.708  0.1407 -0.6837 -0.8352
 1540SOL    HW116079   3.444   3.125   4.639  0.9484  0.1392 -1.6878
 1540SOL    HW216080   3.463   3.182   4.774  0.9810 -2.1902  0.9187
 1541SOL     OW16081   1.891   3.879   7.394 -0.2876 -0.8749  0.0151
 1541SOL    HW116082   1.873   3.793   7.356 -1.7532 -0.7133  0.3597
 1541SOL    HW216083   1.802   3.915   7.399 -0.0002 -0.0705 -0.6538
 1542SOL     OW16084   2.544   4.719  17.184 -0.2217  0.3045  0.0050
 1542SOL    HW116085   2.590   4.636  17.169 -0.6040  0.1422 -0.2806
 1542SOL    HW216086   2.455   4.685  17.173  0.0837 -1.1657  2.1865
 1543SOL     OW16087   1.017   3.267   7.718 -0.1919  0.2839 -0.1562
 1543SOL    HW116088   1.066   3.344   7.689  0.2250  1.0573  2.6195
 1543SOL    HW216089   1.061   3.254   7.802 -0.5572  1.2745  0.1852
 1544SOL     OW16090   3.063   2.977   5.918 -0.2888 -0.1926 -0.1135
 1544SOL    HW116091   3.140   2.923   5.938 -0.5146 -0.1593  0.8170
 1544SOL    HW216092   3.117   3.054   5.899 -2.0067  0.6719 -1.5585
 1545SOL     OW16093   3.962   0.682   9.662  0.4032 -0.6849  0.8012
 1545SOL    HW116094   4.021   0.613   9.691  0.4093 -0.9556  0.1483
 1545SOL    HW216095   3.940   0.726   9.745 -0.7263 -1.9798  1.1992
 1546SOL     OW16096   2.057   2.510   6.987 -0.3736  0.0528  0.5542
 1546SOL    HW116097   1.984   2.538   7.041 -0.4438 -0.0975  0.5357
 1546SOL    HW216098   2.114   2.584   7.009 -1.8325  1.1317  0.7000
 1547SOL     OW16099   1.972   0.981   4.497  0.0684  1.2103 -0.2763
 1547SOL    HW116100   2.016   1.047   4.551 -0.8589  1.7859 -0.2139
 1547SOL    HW216101   2.022   0.954   4.420 -1.2786 -0.3079 -0.6096
 1548SOL     OW16102   1.581   4.719  11.342  0.0819 -0.0878  0.7077
 1548SOL    HW116103   1.599   4.716  11.436 -2.3118 -2.8278  1.0587
 1548SOL    HW216104   1.490   0.025  11.339  0.1991  0.2885  0.9972
 1549SOL     OW16105   0.391   1.035   0.917 -0.6688 -0.1533  1.2838
 1549SOL    HW116106   0.445   1.111   0.938 -2.7221  1.7524 -0.2937
 1549SOL    HW216107   0.315   1.065   0.966 -0.6068  0.7405  0.8448
 1550SOL     OW16108   4.085   1.672  12.690 -0.2537  0.1610  0.7963
 1550SOL    HW116109   4.023   1.630  12.750 -0.9986  2.7115  1.8265
 1550SOL    HW216110   4.126   1.735  12.749  1.4526 -0.9181  0.7448
 1551SOL     OW16111   1.266   0.921   0.491  0.0154 -0.1686  0.1977
 1551SOL    HW116112   1.309   0.908   0.575 -0.0703 -0.3348  0.2165
 1551SOL    HW216113   1.171   0.914   0.501  0.3554 -2.3557  1.8087
 1552SOL     OW16114   3.334   4.678   4.464 -0.0958  0.2246 -0.4569
 1552SOL    HW116115   3.286   4.596   4.454  0.6943 -0.3922  0.8594
 1552SOL    HW216116   3.270   0.019   4.495  0.4993  0.7283 -0.2671
 1553SOL     OW16117   0.536   0.711   5.372 -0.0975 -0.0235 -0.1236
 1553SOL    HW116118   0.499   0.737   5.456 -0.3870  1.0067 -0.5589
 1553SOL    HW216119   0.576   0.790   5.334  0.5512  0.3746  1.3907
 1554SOL     OW16120   3.422   2.914   9.134 -0.1041 -0.0908 -0.3413
 1554SOL    HW116121   3.488   2.975   9.167 -0.2840  0.1505 -0.4230
 1554SOL    HW216122   3.341   2.962   9.147  0.0437  0.0107  0.1720
 1555SOL     OW16123   2.497   2.393   6.152  0.5218 -0.2826  0.0367
 1555SOL    HW116124   2.452   2.472   6.183  1.6450 -0.8993  3.2072
 1555SOL    HW216125   2.427   2.333   6.128  1.4477 -1.3135 -0.1110
 1556SOL     OW16126   1.289   1.044   8.866  0.0945 -0.0411 -0.0658
 1556SOL    HW116127   1.282   1.036   8.771  1.2901 -1.7413 -0.0191
 1556SOL    HW216128   1.218   1.101   8.897  1.0871  2.1258 -1.7665
 1557SOL     OW16129   3.307   3.962  11.209 -0.3120 -0.2826  0.6501
 1557SOL    HW116130   3.343   4.011  11.283 -0.1942  0.1704  0.2944
 1557SOL    HW216131   3.240   4.021  11.174 -0.6655 -0.5454  0.8710
 1558SOL     OW16132   3.535   2.678   1.715 -0.3631  0.2213 -0.0494
 1558SOL    HW116133   3.571   2.589   1.710  0.3282  0.5565 -1.0470
 1558SOL    HW216134   3.536   2.698   1.809 -1.6588  1.3254 -0.2767
 1559SOL     OW16135   0.974   3.078   2.786 -0.3007  0.6118 -0.0785
 1559SOL    HW116136   1.037   3.009   2.766 -1.4080 -0.1878 -0.8312
 1559SOL    HW216137   1.013   3.154   2.743  1.8103 -1.6615 -2.2069
 1560SOL     OW16138   2.205   4.014  12.017  0.3252  0.3370 -0.4001
 1560SOL    HW116139   2.139   3.948  11.995  2.7632 -1.6271 -1.9017
 1560SOL    HW216140   2.180   4.028  12.108  1.2134 -0.2801 -0.0619
 1561SOL     OW16141   2.190   3.988  14.365  0.0727  0.4535  0.5109
 1561SOL    HW116142   2.102   3.952  14.355  1.0804 -2.1784  1.0581
 1561SOL    HW216143   2.234   3.908  14.393 -1.1473 -0.2657  0.3685
 1562SOL     OW16144   2.795   1.497   6.196  0.1485  0.0115 -0.1015
 1562SOL    HW116145   2.775   1.555   6.123 -0.2043  0.3208  0.2393
 1562SOL    HW216146   2.732   1.528   6.262  0.1249  1.5939 -0.8933
 1563SOL     OW16147   1.793   3.621   1.307 -0.5764 -0.2172 -0.2998
 1563SOL    HW116148   1.836   3.627   1.393 -1.2166 -0.3711  0.0333
 1563SOL    HW216149   1.866   3.624   1.246 -3.0536  1.7335 -3.1630
 1564SOL     OW16150   0.361   2.811   1.932  0.4112 -0.2176  0.3365
 1564SOL    HW116151   0.358   2.884   1.994 -0.7165  0.6901 -0.7861
 1564SOL    HW216152   0.301   2.748   1.970 -1.3482  0.4826 -1.2842
 1565SOL     OW16153   1.374   4.037  16.072  0.1126  0.8420  0.2779
 1565SOL    HW116154   1.371   4.108  16.009  0.8811 -0.1795 -0.9087
 1565SOL    HW216155   1.296   4.070  16.117 -0.7771 -1.0769  0.1397
 1566SOL     OW16156   3.649   2.827  17.424 -0.1765  0.7095  0.0705
 1566SOL    HW116157   3.718   2.810  17.360  0.4032  2.6654  0.1778
 1566SOL    HW216158   3.623   2.911  17.387  1.3834  1.2470  0.2215
 1567SOL     OW16159   3.065   3.804   3.549  0.2267 -0.0997  0.0552
 1567SOL    HW116160   3.007   3.852   3.608  0.3977 -0.6823  0.6956
 1567SOL    HW216161   3.088   3.734   3.610 -1.0199 -0.7895 -0.2626
 1568SOL     OW16162   2.838   0.469   2.904 -0.2337  0.3633 -0.4290
 1568SOL    HW116163   2.756   0.516   2.918 -0.8689 -1.1833  1.0417
 1568SOL    HW216164   2.899   0.518   2.960  0.4165  0.4772 -1.2402
 1569SOL     OW16165   2.490   0.437  10.654  0.4058 -0.3854 -0.4129
 1569SOL    HW116166   2.558   0.501  10.676 -0.3114  1.1474 -2.6096
 1569SOL    HW216167   2.426   0.466  10.719 -1.3958 -2.1916 -1.3910
 1570SOL     OW16168   0.909   0.579   0.041  0.2349  0.2548  0.0609
 1570SOL    HW116169   1.004   0.583   0.052  0.0517  0.5558  1.4572
 1570SOL    HW216170   0.901   0.516  17.667 -2.5818  1.6418 -0.8532
 1571SOL     OW16171   0.565   3.132   2.359 -0.3150 -0.1092  0.1253
 1571SOL    HW116172   0.518   3.193   2.302 -1.4845 -0.3244  0.8655
 1571SOL    HW216173   0.639   3.181   2.396  0.0494 -1.3156  0.9776
 1572SOL     OW16174   3.181   1.213   7.795  0.0370  0.2106  0.2595
 1572SOL    HW116175   3.128   1.190   7.871 -0.8260  1.2061 -0.0495
 1572SOL    HW216176   3.212   1.130   7.757  1.5765  0.2084  1.4956
 1573SOL     OW16177   0.096   3.962   0.288 -0.2806 -0.4279  0.6070
 1573SOL    HW116178   0.016   3.940   0.335  0.9463 -2.0070  1.9644
 1573SOL    HW216179   0.064   3.999   0.206 -0.2354  2.3238  1.8533
 1574SOL     OW16180   3.235   2.047   4.376 -0.5181  0.0887  0.0147
 1574SOL    HW116181   3.243   2.142   4.384 -0.5591  0.1089 -0.1727
 1574SOL    HW216182   3.207   2.038   4.284 -2.9235 -2.8339  1.0392
 1575SOL     OW16183   3.150   3.647   0.289 -0.5849 -0.1498  0.4557
 1575SOL    HW116184   3.106   3.606   0.363 -0.6137 -1.7106 -0.4074
 1575SOL    HW216185   3.171   3.577   0.226  0.2823 -0.1511  0.7346
 1576SOL     OW16186   2.207   0.430   7.944  0.5570  0.2184  0.5520
 1576SOL    HW116187   2.295   0.447   7.978  0.4528 -0.5295  1.2010
 1576SOL    HW216188   2.191   0.338   7.967 -1.9100  0.4737 -0.1608
 1577SOL     OW16189   2.962   4.332   7.223 -0.4027  0.2211 -0.6453
 1577SOL    HW116190   2.995   4.303   7.307 -0.8101  2.1004  0.1716
 1577SOL    HW216191   3.035   4.375   7.178  0.5018 -0.6223  0.0061
 1578SOL     OW16192   3.039   0.921   2.525 -0.1255  0.0210 -0.1947
 1578SOL    HW116193   3.026   0.881   2.611 -0.8050  1.8629  0.5658
 1578SOL    HW216194   3.061   0.844   2.473  2.0244  0.3203  0.2685
 1579SOL     OW16195   3.146   4.565   8.859 -0.3003 -0.1091  0.1582
 1579SOL    HW116196   3.137   4.592   8.768 -2.5028  0.7957  0.6527
 1579SOL    HW216197   3.241   4.550   8.857 -0.3172 -0.0801 -0.9472
 1580SOL     OW16198   0.744   0.286   4.789  0.1711  0.5885 -0.2806
 1580SOL    HW116199   0.674   0.237   4.747  0.9344 -0.0110 -0.8505
 1580SOL    HW216200   0.809   0.285   4.719 -3.1459 -2.0094 -3.3647
 1581SOL     OW16201   4.617   3.244   7.184 -0.3060  0.4010  0.1353
 1581SOL    HW116202   4.660   3.223   7.267  1.3836  1.1394 -0.5527
 1581SOL    HW216203   4.630   3.338   7.180 -1.1575  0.4461 -1.5326
 1582SOL     OW16204   0.060   2.626   7.371  0.5236 -0.1259  0.5772
 1582SOL    HW116205   4.703   2.667   7.343  1.0906 -0.9846 -2.2690
 1582SOL    HW216206   0.091   2.582   7.292  0.8199  0.9115  0.1148
 1583SOL     OW16207   0.416   0.075   6.329 -0.2642 -0.2387  0.3106
 1583SOL    HW116208   0.367   0.146   6.288 -2.0232 -1.0989  0.9009
 1583SOL    HW216209   0.445   0.120   6.409 -1.0069 -1.0204  1.0241
 1584SOL     OW16210   2.424   1.939   8.283  0.0972 -0.0034  0.1608
 1584SOL    HW116211   2.463   2.025   8.297  0.3084 -0.4271  2.0828
 1584SOL    HW216212   2.493   1.879   8.312  1.2682  0.1611 -2.3025
 1585SOL     OW16213   0.783   4.323   7.934 -0.3406 -0.0366  0.3761
 1585SOL    HW116214   0.771   4.248   7.992  0.9157 -0.3842  0.1957
 1585SOL    HW216215   0.873   4.346   7.960  0.7734 -3.6496 -0.3285
 1586SOL     OW16216   3.701   1.237   4.704  0.2864  0.5499 -0.3173
 1586SOL    HW116217   3.657   1.247   4.619  0.8294  2.2941 -0.4001
 1586SOL    HW216218   3.790   1.215   4.677  0.0294  0.2193 -0.8967
 1587SOL     OW16219   0.305   1.332   9.192 -0.0966  0.8866 -0.0526
 1587SOL    HW116220   0.254   1.413   9.192 -3.5332 -1.2675  0.6375
 1587SOL    HW216221   0.305   1.307   9.100 -0.3691  0.4118  0.0729
 1588SOL     OW16222   0.972   1.211   4.054 -0.2027 -0.3124  0.4243
 1588SOL    HW116223   0.916   1.249   3.987  1.7448  0.1010 -0.9487
 1588SOL    HW216224   1.028   1.283   4.083 -0.2400  0.1710 -0.7292
 1589SOL     OW16225   2.409   1.102  11.605  0.4491  0.3051  0.5192
 1589SOL    HW116226   2.375   1.094  11.516  1.8488  0.9048 -0.0728
 1589SOL    HW216227   2.459   1.022  11.618 -0.9037 -0.6532 -0.2926
 1590SOL     OW16228   3.999   1.695   8.054  0.4746  0.8298 -0.4922
 1590SOL    HW116229   4.092   1.719   8.056  0.7390 -0.3927  1.2568
 1590SOL    HW216230   3.971   1.690   8.145  1.9616  2.3956  0.0506
 1591SOL     OW16231   0.308   0.040   8.567 -0.8255 -0.1040  0.0761
 1591SOL    HW116232   0.332   4.686   8.518 -1.4359 -0.9626  1.1560
 1591SOL    HW216233   0.328   0.025   8.659  0.9291 -1.5211 -0.5452
 1592SOL     OW16234   1.473   3.751   4.938  0.4464 -0.2819 -0.5876
 1592SOL    HW116235   1.509   3.810   4.871 -0.5241 -0.5073 -1.3036
 1592SOL    HW216236   1.507   3.803   5.011 -1.2696  0.9811 -0.6780
 1593SOL     OW16237   2.962   4.566   4.812  0.0020 -0.1844 -0.5958
 1593SOL    HW116238   2.866   4.562   4.812 -0.0663  1.4438 -1.8837
 1593SOL    HW216239   2.989   4.479   4.782 -0.2101  0.0091 -1.3407
 1594SOL     OW16240   2.526   2.418   4.616  0.3956  0.0288 -0.2629
 1594SOL    HW116241   2.542   2.323   4.611 -0.8998 -0.3144  2.1660
 1594SOL    HW216242   2.466   2.440   4.545 -1.7684  1.8863  2.1231
 1595SOL     OW16243   2.033   1.916  12.335 -0.5931  0.0362 -0.8035
 1595SOL    HW116244   1.973   1.901  12.408 -0.0678 -0.9828 -0.5871
 1595SOL    HW216245   2.106   1.966  12.371  0.4033 -1.7360 -0.3400
 1596SOL     OW16246   0.420   0.983   1.315  0.1689 -0.3029  0.6531
 1596SOL    HW116247   0.334   0.941   1.312  0.7636 -1.6368  2.3220
 1596SOL    HW216248   0.465   0.931   1.248 -0.0518  1.2968 -0.7260
 1597SOL     OW16249   0.846   1.078  10.582 -0.0455  0.3524 -0.1545
 1597SOL    HW116250   0.814   1.001  10.534 -1.7742  0.2216  1.2092
 1597SOL    HW216251   0.923   1.103  10.530  0.3037 -0.6053 -0.0907
 1598SOL     OW16252   0.995   1.969  17.416 -0.0240 -0.1249  0.2388
 1598SOL    HW116253   1.002   2.060  17.390  1.5376 -0.3498 -0.1245
 1598SOL    HW216254   0.945   1.932  17.343  0.5861  0.7572 -0.6240
 1599SOL     OW16255   1.274   3.982   9.793  0.0398  0.2582 -0.6312
 1599SOL    HW116256   1.281   4.070   9.830  0.5090  0.4879 -1.2545
 1599SOL    HW216257   1.299   3.934   9.872  0.2456 -0.2765 -1.0180
 1600SOL     OW16258   3.938   3.731   3.027  0.0769 -0.1461 -0.2306
 1600SOL    HW116259   3.942   3.825   3.044 -1.4798  0.2466 -2.1521
 1600SOL    HW216260   4.026   3.704   3.053  0.7163  1.3729 -0.7744
 1601SOL     OW16261   2.946   4.192  13.395  0.0001 -0.4522  0.1213
 1601SOL    HW116262   2.851   4.191  13.385  0.0081 -2.5667  0.2128
 1601SOL    HW216263   2.962   4.219  13.305 -0.0406  0.7556  0.4825
 1602SOL     OW16264   1.631   0.187   0.238  0.1860  0.4059 -0.2441
 1602SOL    HW116265   1.645   0.113   0.180  0.9488  0.9019 -0.6917
 1602SOL    HW216266   1.568   0.231   0.180  1.6154 -0.0006 -2.0941
 1603SOL     OW16267   1.098   0.920  16.752 -0.3985  0.2305 -0.1355
 1603SOL    HW116268   1.113   0.951  16.841 -0.7969 -1.2500  0.4525
 1603SOL    HW216269   1.025   0.859  16.768  0.0378 -0.3186 -0.2286
 1604SOL     OW16270   1.369   1.593   0.349 -0.2739 -0.3073  0.7424
 1604SOL    HW116271   1.326   1.606   0.434  0.3629 -1.9211  1.3113
 1604SOL    HW216272   1.317   1.519   0.320 -2.9872  0.7576  2.9275
 1605SOL     OW16273   3.536   2.142   5.269 -0.4594  0.4549  0.2738
 1605SOL    HW116274   3.574   2.189   5.195  0.4828  1.0598  1.1216
 1605SOL    HW216275   3.556   2.194   5.347  3.8202 -2.2528  1.0105
 1606SOL     OW16276   3.636   3.090   3.928  0.1994  0.4791  0.3054
 1606SOL    HW116277   3.560   3.130   3.886 -0.4308 -1.5773 -0.5405
 1606SOL    HW216278   3.703   3.140   3.881 -1.4089  0.7158 -1.7144
 1607SOL     OW16279   0.764   1.672   6.914  0.3914 -0.3505  0.2923
 1607SOL    HW116280   0.774   1.764   6.941  3.4280 -0.2977 -0.9607
 1607SOL    HW216281   0.771   1.678   6.819 -0.3350 -2.5232  0.1085
 1608SOL     OW16282   2.810   0.602  13.057 -0.3238 -0.1246 -0.0433
 1608SOL    HW116283   2.859   0.673  13.014  1.1409 -0.6755  0.7130
 1608SOL    HW216284   2.836   0.531  12.998 -1.4442  0.0966 -0.8145
 1609SOL     OW16285   0.658   1.088   9.182 -0.0487 -0.3629 -0.4734
 1609SOL    HW116286   0.562   1.085   9.178 -0.1061 -0.4340  1.0042
 1609SOL    HW216287   0.680   1.054   9.269 -0.3098  1.1194  0.1658
 1610SOL     OW16288   1.331   0.042   9.994 -0.9655  0.6941  0.3127
 1610SOL    HW116289   1.301   0.113   9.937  0.1724  0.5224 -0.4949
 1610SOL    HW216290   1.290   0.070  10.076 -2.2228 -2.0276  0.6234
 1611SOL     OW16291   0.617   2.565  14.751  0.3605  0.1788 -0.2838
 1611SOL    HW116292   0.646   2.519  14.672  0.3247 -1.8640  0.8875
 1611SOL    HW216293   0.546   2.618  14.715  1.1841 -0.4372 -2.8436
 1612SOL     OW16294   2.478   0.687   5.761 -0.3974  0.2861  0.4628
 1612SOL    HW116295   2.482   0.682   5.857 -1.8406  1.3560  0.5754
 1612SOL    HW216296   2.443   0.600   5.738 -0.0117  0.2163  0.1369
 1613SOL     OW16297   0.910   2.285   4.337 -0.3261  0.0171 -0.4654
 1613SOL    HW116298   0.925   2.217   4.272 -1.3083 -2.7760  2.2257
 1613SOL    HW216299   0.972   2.264   4.407 -1.8038  0.4778  1.0020
 1614SOL     OW16300   2.331   0.598  11.523  0.2072  0.1371  0.1260
 1614SOL    HW116301   2.411   0.638  11.490 -0.0033  0.5009  0.0556
 1614SOL    HW216302   2.325   0.642  11.607  0.4533  1.5415 -0.6029
 1615SOL     OW16303   1.027   4.645   7.915 -0.3613 -0.3056 -0.2216
 1615SOL    HW116304   1.121   4.635   7.902  0.1344  1.5497  1.9376
 1615SOL    HW216305   0.987   4.620   7.832  1.3283  0.8188 -1.3671
 1616SOL     OW16306   3.637   1.371   7.627 -0.1122  0.0491 -0.0053
 1616SOL    HW116307   3.654   1.462   7.652 -1.4762  0.5934 -1.0770
 1616SOL    HW216308   3.548   1.383   7.594 -0.6201 -0.8452  1.0227
 1617SOL     OW16309   0.992   1.841   3.792 -0.1723  0.4470 -0.2082
 1617SOL    HW116310   0.935   1.770   3.763 -0.3283  0.0367  1.1170
 1617SOL    HW216311   1.079   1.825   3.755 -0.4186  1.7453 -1.3492
 1618SOL     OW16312   1.927   2.559   6.311 -0.0832 -0.2925 -0.2506
 1618SOL    HW116313   1.888   2.472   6.324  0.2239 -0.1797  1.4747
 1618SOL    HW216314   2.018   2.533   6.328 -0.5533 -0.9941  1.2522
 1619SOL     OW16315   3.638   2.538   2.185 -0.0620 -0.0704 -0.3586
 1619SOL    HW116316   3.582   2.555   2.260 -0.8797  0.2629 -1.0412
 1619SOL    HW216317   3.573   2.509   2.121 -0.4086  2.0184 -0.9386
 1620SOL     OW16318   3.405   1.421  13.279 -0.0251  0.1023  0.0338
 1620SOL    HW116319   3.323   1.449  13.319  0.0922 -0.1602  0.4569
 1620SOL    HW216320   3.434   1.365  13.351 -0.7871 -0.5121 -0.1377
 1621SOL     OW16321   2.159   2.469   4.874  0.1332 -0.9565  0.1729
 1621SOL    HW116322   2.236   2.521   4.850 -2.1102  1.9022 -0.8580
 1621SOL    HW216323   2.092   2.530   4.843  2.3312  1.9067  1.0628
 1622SOL     OW16324   2.323   3.144   0.703  0.3561  0.1373 -0.3004
 1622SOL    HW116325   2.290   3.055   0.691  2.3894 -0.5082 -1.2290
 1622SOL    HW216326   2.356   3.158   0.614  0.4100  1.5095 -0.0653
 1623SOL     OW16327   1.449   3.652   9.933 -0.1483 -0.1295 -0.0736
 1623SOL    HW116328   1.374   3.705   9.960  2.3155  1.9751  2.5859
 1623SOL    HW216329   1.505   3.725   9.909  0.1467 -0.4375 -0.3262
 1624SOL     OW16330   0.833   4.509   5.525  0.1405 -0.0789  0.0504
 1624SOL    HW116331   0.740   4.519   5.546  0.8206  0.6407  2.7019
 1624SOL    HW216332   0.833   4.564   5.447  0.3231 -3.5870 -2.4121
 1625SOL     OW16333   2.157   3.105   4.319 -0.5617  0.0740 -0.3517
 1625SOL    HW116334   2.204   3.160   4.381 -0.7920  2.0099 -1.8767
 1625SOL    HW216335   2.063   3.097   4.338 -0.6802  1.0621 -0.5079
 1626SOL     OW16336   3.396   2.580  14.581  0.2169  0.4184 -0.0193
 1626SOL    HW116337   3.443   2.497  14.592 -1.4145 -1.1008 -4.2127
 1626SOL    HW216338   3.467   2.643  14.588 -0.7801  1.4309  0.8606
 1627SOL     OW16339   2.419   0.405   0.083 -0.0216  0.5196  0.2389
 1627SOL    HW116340   2.344   0.346   0.088 -0.8795  1.6108  0.0179
 1627SOL    HW216341   2.458   0.383  17.695  0.8490  2.4314  0.1599
 1628SOL     OW16342   2.896   0.612   3.576 -0.0561 -0.6891  0.2914
 1628SOL    HW116343   2.926   0.676   3.642 -0.7854  0.0135 -0.0507
 1628SOL    HW216344   2.807   0.598   3.608 -0.6989  1.5915 -0.4851
 1629SOL     OW16345   0.657   0.606  16.963 -0.2881  0.2757  0.1684
 1629SOL    HW116346   0.584   0.628  17.022 -1.7030 -0.4001 -1.3645
 1629SOL    HW216347   0.697   0.533  17.011  1.6129  0.1079 -1.6446
 1630SOL     OW16348   0.533   4.545   1.808  0.1263 -0.0396  0.5403
 1630SOL    HW116349   0.601   4.483   1.834 -0.2491 -0.4977  0.4175
 1630SOL    HW216350   0.517   4.594   1.889  2.9225 -1.9611  2.2276
 1631SOL     OW16351   3.014   3.794   5.401  0.1107 -0.1426  0.1065
 1631SOL    HW116352   2.957   3.732   5.355  0.1849  0.7707 -1.2337
 1631SOL    HW216353   3.017   3.859   5.330  0.1458  0.7027  0.8840
 1632SOL     OW16354   4.291   2.248   6.076  0.3225  0.0980 -0.2693
 1632SOL    HW116355   4.371   2.300   6.084 -0.8280  2.0035 -1.0381
 1632SOL    HW216356   4.233   2.294   6.137 -1.0719 -0.1517 -1.4019
 1633SOL     OW16357   0.963   2.864   5.336 -0.0543 -0.4768  0.1618
 1633SOL    HW116358   1.031   2.901   5.393 -2.2235  0.3143  2.2299
 1633SOL    HW216359   1.020   2.811   5.280 -1.0640 -0.4075 -0.9187
 1634SOL     OW16360   3.232   4.397   4.492  0.5069  0.3450  0.4089
 1634SOL    HW116361   3.308   4.395   4.550  0.3192 -0.3876  0.6218
 1634SOL    HW216362   3.232   4.308   4.458  1.0281 -0.2463  1.9707
 1635SOL     OW16363   2.813   3.066   4.210 -0.0227  0.8739  0.2207
 1635SOL    HW116364   2.755   3.081   4.284 -0.9432  0.0207 -0.3313
 1635SOL    HW216365   2.794   2.980   4.172  2.1740  0.5883 -0.2573
 1636SOL     OW16366   1.579   2.544   7.252  0.0752  0.1892  0.7658
 1636SOL    HW116367   1.608   2.468   7.201  0.0819 -1.2497  2.9173
 1636SOL    HW216368   1.492   2.558   7.214  0.4175  2.9900  1.0554
 1637SOL     OW16369   1.092   3.154   5.239  0.3299  0.4520 -0.4413
 1637SOL    HW116370   1.135   3.136   5.155 -0.0542 -1.0263 -0.3166
 1637SOL    HW216371   1.160   3.136   5.303  0.7770 -1.7610 -1.5407
 1638SOL     OW16372   0.174   2.897  16.247  0.5658  0.5104 -0.0188
 1638SOL    HW116373   0.147   2.813  16.284  1.4782 -0.4780 -1.5883
 1638SOL    HW216374   0.236   2.926  16.314  2.1897 -0.9902 -0.8684
 1639SOL     OW16375   1.963   1.278   8.500  0.1639 -0.3190  0.0493
 1639SOL    HW116376   1.961   1.183   8.495 -1.3792 -0.1546 -2.2794
 1639SOL    HW216377   1.899   1.301   8.569 -1.3660 -1.3986 -1.0104
 1640SOL     OW16378   3.095   3.771   9.008  0.6163 -0.1330  0.6543
 1640SOL    HW116379   3.103   3.796   9.100 -0.0695  0.8689  0.4389
 1640SOL    HW216380   3.164   3.705   9.008 -1.3930 -2.1978 -1.4163
 1641SOL     OW16381   1.009   4.345   4.783 -0.4170  0.0526 -0.3816
 1641SOL    HW116382   0.947   4.331   4.711 -1.0550  0.3800  0.0992
 1641SOL    HW216383   1.092   4.307   4.757 -0.9458 -2.1422  1.0939
 1642SOL     OW16384   1.406   1.185  13.016  0.0121  0.0997  0.0532
 1642SOL    HW116385   1.493   1.225  13.019 -1.1446  2.6243  0.2352
 1642SOL    HW216386   1.434   1.097  12.989  0.0080 -0.2922  1.3331
 1643SOL     OW16387   0.987   2.787   5.754  0.0367 -0.5868 -0.8715
 1643SOL    HW116388   0.944   2.717   5.804 -0.4660  0.2596 -0.1115
 1643SOL    HW216389   0.928   2.788   5.678  2.0035 -1.8563 -2.3961
 1644SOL     OW16390   4.053   3.220   3.625  1.1405 -0.2504 -0.1221
 1644SOL    HW116391   4.127   3.253   3.574  0.6191 -1.8153 -1.8970
 1644SOL    HW216392   4.096   3.189   3.705 -1.5824 -2.0433  0.6232
 1645SOL     OW16393   3.541   2.481   3.206 -0.4485 -0.2149  0.0623
 1645SOL    HW116394   3.459   2.530   3.193  0.0092 -0.3638 -3.4773
 1645SOL    HW216395   3.503   2.396   3.184  0.3082 -0.8868  1.3593
 1646SOL     OW16396   4.143   4.051  14.172 -0.2395 -0.0160 -0.1107
 1646SOL    HW116397   4.062   4.001  14.184 -1.0138  1.2240 -0.1992
 1646SOL    HW216398   4.100   4.120  14.122  1.2053 -0.6375 -2.2244
 1647SOL     OW16399   4.627   3.929  11.209 -0.3983  0.1124  0.0009
 1647SOL    HW116400   4.683   3.953  11.282 -0.1556  1.4986 -0.6312
 1647SOL    HW216401   4.617   4.008  11.155 -0.2882 -1.0174 -1.6858
 1648SOL     OW16402   3.494   4.340   2.688  0.2413  0.4766  0.0554
 1648SOL    HW116403   3.508   4.249   2.663  1.4020  0.2829  1.4252
 1648SOL    HW216404   3.399   4.347   2.690 -0.0087 -2.2534 -2.2279
 1649SOL     OW16405   0.415   1.556   2.473 -0.4547  0.8659 -0.3778
 1649SOL    HW116406   0.367   1.638   2.467 -1.9800 -0.2418 -3.0585
 1649SOL    HW216407   0.485   1.571   2.411 -0.6015 -0.9562 -0.9814
 1650SOL     OW16408   4.065   3.897   8.795  0.1263 -0.3135 -0.7186
 1650SOL    HW116409   4.141   3.956   8.793 -0.9274  1.1181  2.8426
 1650SOL    HW216410   4.011   3.939   8.728 -0.5731 -0.3218 -0.1500
 1651SOL     OW16411   4.099   2.125   9.289 -0.1576 -0.2167  0.4502
 1651SOL    HW116412   4.191   2.108   9.273 -0.3371  0.6767 -1.4592
 1651SOL    HW216413   4.104   2.208   9.336  1.0323 -0.0611  0.0292
 1652SOL     OW16414   2.180   3.845   7.871 -0.1041  0.0894  0.9527
 1652SOL    HW116415   2.136   3.915   7.920  0.1471  1.3323 -0.6330
 1652SOL    HW216416   2.218   3.794   7.943 -0.1599  1.1620  1.7353
 1653SOL     OW16417   2.450   3.139  15.122 -0.3945 -0.6054  0.2822
 1653SOL    HW116418   2.538   3.175  15.132 -0.2016 -0.6443 -1.2371
 1653SOL    HW216419   2.419   3.172  15.038  0.1058  0.2540  0.4277
 1654SOL     OW16420   2.142   3.966   8.264  0.0027  0.1271 -0.1733
 1654SOL    HW116421   2.238   3.968   8.263  0.0457 -1.6000 -0.2679
 1654SOL    HW216422   2.131   3.943   8.356  0.7652  0.5497  0.0225
 1655SOL     OW16423   3.764   3.774   3.967 -0.0469  0.0079  0.1662
 1655SOL    HW116424   3.805   3.766   3.880 -0.2943  2.1572 -0.1577
 1655SOL    HW216425   3.718   3.858   3.958 -0.3313  0.1428  2.8192
 1656SOL     OW16426   3.900   1.067  13.300  0.1291 -0.0442  0.2029
 1656SOL    HW116427   3.962   1.116  13.355 -0.1359  1.7461 -1.0946
 1656SOL    HW216428   3.961   1.007  13.257  2.1457  3.0862 -1.3255
 1657SOL     OW16429   0.420   1.753  13.939 -0.7661 -0.4011  0.8372
 1657SOL    HW116430   0.325   1.755  13.943 -0.8616 -2.0593 -0.3700
 1657SOL    HW216431   0.433   1.667  13.898 -0.2949 -0.8572  1.9540
 1658SOL     OW16432   3.158   2.391   2.676 -0.7470 -0.4886 -0.1269
 1658SOL    HW116433   3.211   2.343   2.613 -0.3195 -0.4661  0.2126
 1658SOL    HW216434   3.210   2.366   2.752  0.4870 -0.2589 -0.8912
 1659SOL     OW16435   2.628   4.380  14.105 -0.5523 -0.3775  0.1245
 1659SOL    HW116436   2.606   4.306  14.160  0.1780 -1.8632 -1.5937
 1659SOL    HW216437   2.723   4.381  14.091 -0.5709 -1.4030 -0.0642
 1660SOL     OW16438   2.075   1.298   5.098  0.8016  0.7222  0.0910
 1660SOL    HW116439   2.078   1.218   5.046 -2.1000  1.6586 -1.5279
 1660SOL    HW216440   2.150   1.294   5.157  0.5500  0.2905  0.3698
 1661SOL     OW16441   2.764   1.712   9.748 -0.1492  0.3432 -0.0604
 1661SOL    HW116442   2.685   1.765   9.755  0.5333  1.7215 -2.7498
 1661SOL    HW216443   2.817   1.740   9.673  2.1504  0.9260  1.7569
 1662SOL     OW16444   4.707   0.701  17.642  0.3885 -0.1106 -0.5605
 1662SOL    HW116445   4.716   0.793  17.616 -3.1300  0.0487 -1.1155
 1662SOL    HW216446   4.696   0.656  17.559  1.1516 -1.3244 -0.0092
 1663SOL     OW16447   0.814   0.438   3.896  0.0157  0.2768 -0.6868
 1663SOL    HW116448   0.878   0.509   3.907 -0.9139  1.0091 -0.0539
 1663SOL    HW216449   0.880   0.368   3.896 -1.7236 -1.3696  0.9022
 1664SOL     OW16450   1.799   0.824   0.165  0.2335  0.6599 -0.0194
 1664SOL    HW116451   1.800   0.826   0.261  0.4655 -1.1804  0.0107
 1664SOL    HW216452   1.894   0.812   0.156 -0.1066 -1.7439 -0.3419
 1665SOL     OW16453   2.471   0.462  15.758 -0.8437  0.3928 -0.5264
 1665SOL    HW116454   2.418   0.396  15.713 -3.1444  1.7535  0.1921
 1665SOL    HW216455   2.556   0.419  15.749 -0.1717  1.6453 -0.1301
 1666SOL     OW16456   3.169   2.341  13.569  0.3083  0.5268 -0.1766
 1666SOL    HW116457   3.121   2.269  13.609  0.4521 -0.0073 -0.9761
 1666SOL    HW216458   3.097   2.405  13.567  0.3941  0.7435  2.9818
 1667SOL     OW16459   3.494   3.403  17.449 -0.5310 -0.1127 -0.4203
 1667SOL    HW116460   3.459   3.492  17.453 -0.0783  0.0209  0.5992
 1667SOL    HW216461   3.563   3.419  17.514  0.1233  1.2908 -1.4545
 1668SOL     OW16462   1.240   2.269  13.216  0.1546  0.0571 -0.1682
 1668SOL    HW116463   1.308   2.202  13.207 -1.1563 -1.2128 -0.6444
 1668SOL    HW216464   1.241   2.265  13.311  1.4077  0.2343 -0.1623
 1669SOL     OW16465   0.789   1.573   4.043  0.1512  0.5284 -0.0263
 1669SOL    HW116466   0.871   1.619   4.062  0.1503 -0.4256  2.2606
 1669SOL    HW216467   0.743   1.569   4.127 -1.0838 -0.5069 -0.7428
 1670SOL     OW16468   3.297   1.692   2.138 -0.6147 -0.1919  0.0388
 1670SOL    HW116469   3.284   1.628   2.068 -0.9673 -1.2459  1.0587
 1670SOL    HW216470   3.233   1.760   2.118  0.4593  0.2384 -1.8664
 1671SOL     OW16471   4.679   3.832   3.541 -0.5755 -0.6710 -0.3246
 1671SOL    HW116472   4.697   3.876   3.624 -1.4488 -0.5305 -0.2028
 1671SOL    HW216473   4.652   3.747   3.576  0.4497  0.1332  2.3948
 1672SOL     OW16474   3.512   0.798   6.965 -0.3111  0.7133  0.5208
 1672SOL    HW116475   3.583   0.735   6.952 -0.0885  1.1375 -0.2861
 1672SOL    HW216476   3.434   0.742   6.970 -0.1284  0.2380 -2.2137
 1673SOL     OW16477   0.807   4.483   2.204  0.1365 -0.5046 -0.1750
 1673SOL    HW116478   0.712   4.481   2.207  0.1266 -0.0165 -0.1274
 1673SOL    HW216479   0.824   4.490   2.298  1.9425 -1.6261 -0.4242
 1674SOL     OW16480   4.680   3.717   4.511  0.3561 -0.3296  0.1591
 1674SOL    HW116481   0.018   3.716   4.437 -0.0298 -2.4290 -0.1385
 1674SOL    HW216482   4.693   3.802   4.554  0.3498 -0.1150 -0.2616
 1675SOL     OW16483   0.467   2.572   5.983 -0.1599  0.1826 -0.0986
 1675SOL    HW116484   0.433   2.488   6.013 -1.1243  0.9223  0.8829
 1675SOL    HW216485   0.499   2.600   6.068  0.7560  1.1039 -0.7444
 1676SOL     OW16486   0.573   1.082   7.414  0.3164 -0.4273  0.1132
 1676SOL    HW116487   0.558   1.153   7.476  1.0412 -0.6732  0.5738
 1676SOL    HW216488   0.668   1.071   7.413  0.2460 -1.0510  0.5169
 1677SOL     OW16489   4.353   1.943  16.268  0.3748  0.3329 -0.4050
 1677SOL    HW116490   4.400   1.896  16.336 -0.9038 -0.1754  0.1356
 1677SOL    HW216491   4.415   2.013  16.251 -1.3491  1.1386 -3.4860
 1678SOL     OW16492   4.149   4.628  14.529  0.4070  0.0729 -0.2649
 1678SOL    HW116493   4.129   4.570  14.602 -1.8499 -0.7561 -1.5439
 1678SOL    HW216494   4.213   4.568  14.492 -0.1441 -0.7942  0.2069
 1679SOL     OW16495   1.213   0.599   4.687 -0.0902 -0.5622  0.0728
 1679SOL    HW116496   1.121   0.609   4.660 -0.0684  0.9690  0.5604
 1679SOL    HW216497   1.226   0.506   4.672  2.8184  0.0188 -0.8851
 1680SOL     OW16498   2.558   4.584   2.419 -0.1243  0.4413 -0.1397
 1680SOL    HW116499   2.548   4.551   2.330  0.5180 -2.9014  1.0443
 1680SOL    HW216500   2.629   4.648   2.415  0.2558  0.0955  1.0591
 1681SOL     OW16501   3.977   4.271   8.284  0.7341  0.7052 -0.2434
 1681SOL    HW116502   3.956   4.221   8.363 -1.4858  0.4297 -0.9919
 1681SOL    HW216503   3.996   4.361   8.309 -1.3423  1.1341 -0.1888
 1682SOL     OW16504   4.346   2.858   5.499  0.3099 -0.6460  0.3956
 1682SOL    HW116505   4.291   2.916   5.551 -0.2407 -1.0036  0.2111
 1682SOL    HW216506   4.432   2.899   5.501 -0.9561  2.0695 -1.5666
 1683SOL     OW16507   1.657   1.388  11.076  0.2069  0.4519 -0.2227
 1683SOL    HW116508   1.656   1.481  11.052 -0.4251  0.7696  1.0513
 1683SOL    HW216509   1.707   1.347  11.006  0.1706  0.6284 -0.3535
 1684SOL     OW16510   0.517   3.724   8.498  0.1893  0.1994  0.3576
 1684SOL    HW116511   0.587   3.666   8.529 -2.6499 -1.1460  4.2260
 1684SOL    HW216512   0.550   3.810   8.525  1.4368 -0.5358  1.1758
 1685SOL     OW16513   1.248   2.222   3.296  0.2040  0.3076 -0.1715
 1685SOL    HW116514   1.271   2.140   3.252  0.0695 -0.5413  1.3422
 1685SOL    HW216515   1.276   2.204   3.385 -2.0252 -0.6604  0.3192
 1686SOL     OW16516   4.573   3.326   8.123  0.5081 -0.1021 -0.0277
 1686SOL    HW116517   4.496   3.351   8.072  0.9473 -1.0237 -1.1351
 1686SOL    HW216518   4.543   3.246   8.167 -0.3164  0.7203  0.8962
 1687SOL     OW16519   0.185   1.568   5.658 -0.1577  0.1750  0.2463
 1687SOL    HW116520   0.103   1.594   5.617  0.5876  2.2027  0.0359
 1687SOL    HW216521   0.244   1.564   5.582  1.5532 -0.6977  1.6294
 1688SOL     OW16522   2.376   0.902   2.602  0.2002 -0.4294 -0.0944
 1688SOL    HW116523   2.443   0.935   2.542 -0.1807  0.5919  0.0379
 1688SOL    HW216524   2.309   0.866   2.545 -0.7394  0.1665  0.6259
 1689SOL     OW16525   3.152   1.279   2.463 -0.4514 -0.3170  0.0739
 1689SOL    HW116526   3.211   1.354   2.453 -0.9497 -0.1577 -1.7505
 1689SOL    HW216527   3.117   1.279   2.552  0.0679  3.7555  0.2852
 1690SOL     OW16528   1.849   2.624   7.131  0.1506  0.2206  0.9753
 1690SOL    HW116529   1.836   2.670   7.048  0.2790 -0.6366  0.4742
 1690SOL    HW216530   1.771   2.648   7.180  1.5453  1.4790  2.5961
 1691SOL     OW16531   4.423   2.623   0.499  0.3412 -0.0432 -0.4093
 1691SOL    HW116532   4.452   2.671   0.576  0.9160  0.6187 -1.0348
 1691SOL    HW216533   4.350   2.569   0.531 -0.1497  1.3714  0.8379
 1692SOL     OW16534   2.351   4.704   1.811 -0.0450  0.1924 -0.5544
 1692SOL    HW116535   2.362   0.051   1.748  0.7890 -1.3108 -2.1082
 1692SOL    HW216536   2.371   4.639   1.743 -2.2835 -0.8495 -0.2260
 1693SOL     OW16537   2.218   3.655  17.426 -0.0996  0.1834  0.5959
 1693SOL    HW116538   2.227   3.571  17.470 -0.0961 -0.4502 -0.5928
 1693SOL    HW216539   2.296   3.703  17.454 -0.6301  2.2681 -1.5072
 1694SOL     OW16540   3.849   3.855   1.078  0.6306 -0.4156 -0.1830
 1694SOL    HW116541   3.855   3.823   1.168 -1.4073 -0.5772 -0.1033
 1694SOL    HW216542   3.763   3.894   1.066  0.6234 -0.9890 -2.0857
 1695SOL     OW16543   2.263   1.181   0.222 -0.2182 -0.0735  0.0946
 1695SOL    HW116544   2.195   1.148   0.164 -0.2467 -1.1018  0.7152
 1695SOL    HW216545   2.210   1.214   0.294  0.9895 -0.3736  1.1259
 1696SOL     OW16546   4.108   0.277   8.463  0.0350  0.3958  0.2921
 1696SOL    HW116547   4.196   0.314   8.470  0.7509 -1.3669  0.6658
 1696SOL    HW216548   4.129   0.184   8.473 -1.4789  0.0658  0.3672
 1697SOL     OW16549   2.224   3.382  14.034  0.2351 -0.0216  0.8097
 1697SOL    HW116550   2.255   3.372  14.124 -0.7368 -2.7084  0.8276
 1697SOL    HW216551   2.246   3.309  13.977  0.7245  1.4475 -0.9082
 1698SOL     OW16552   2.772   4.196   5.479 -0.6992  0.6530  0.1823
 1698SOL    HW116553   2.807   4.110   5.499  2.0261  1.5956 -0.5708
 1698SOL    HW216554   2.848   4.245   5.512  0.1972 -0.9823  0.5103
 1699SOL     OW16555   0.841   2.968   4.309  0.1025 -0.3093 -0.0206
 1699SOL    HW116556   0.837   2.873   4.300  0.0883 -0.4229  1.1376
 1699SOL    HW216557   0.858   2.995   4.219  0.3052  0.9590  0.3946
 1700SOL     OW16558   3.494   4.570  16.438 -0.0953 -0.0115  0.1684
 1700SOL    HW116559   3.545   4.539  16.513 -0.7740  3.4105  2.0235
 1700SOL    HW216560   3.420   4.511  16.430  0.1023 -0.3173  0.6149
 1701SOL     OW16561   1.517   2.943  17.510 -0.1110  0.4954  0.0326
 1701SOL    HW116562   1.525   3.039  17.506  1.6505  0.4262  1.7214
 1701SOL    HW216563   1.602   2.912  17.540 -1.2662 -3.1629 -0.4571
 1702SOL     OW16564   1.528   4.226   1.722 -0.4134 -0.0874  0.1845
 1702SOL    HW116565   1.622   4.235   1.705 -0.5690 -0.7605 -1.0528
 1702SOL    HW216566   1.505   4.313   1.754  0.7825  0.6791 -1.0402
 1703SOL     OW16567   0.710   2.830  14.349 -0.0339  0.1531 -0.5928
 1703SOL    HW116568   0.757   2.878  14.417  0.1370  1.4293 -1.6126
 1703SOL    HW216569   0.732   2.738  14.367  0.5657  0.6435  1.2062
 1704SOL     OW16570   1.486   2.236   5.520 -0.2123 -0.4352  0.4841
 1704SOL    HW116571   1.430   2.187   5.460 -0.4868 -0.4514  0.7541
 1704SOL    HW216572   1.444   2.323   5.519 -0.1333 -0.4669 -4.5060
 1705SOL     OW16573   4.144   3.111   5.331  0.1346  0.7173  0.4749
 1705SOL    HW116574   4.106   3.027   5.303  1.1120  0.6968 -0.7902
 1705SOL    HW216575   4.212   3.128   5.266  0.4285  1.0142  0.8580
 1706SOL     OW16576   1.230   4.571   3.649 -0.0820  0.0727 -0.4979
 1706SOL    HW116577   1.309   4.555   3.598  0.9916  2.3472  0.4912
 1706SOL    HW216578   1.265   4.570   3.738 -0.6615 -1.7829 -0.2933
 1707SOL     OW16579   2.014   2.907   5.357  0.2908  0.0875  0.3991
 1707SOL    HW116580   1.968   2.842   5.303  1.4562  0.8312 -1.4613
 1707SOL    HW216581   1.952   2.910   5.430 -0.2526  1.1341 -0.1131
 1708SOL     OW16582   2.913   3.768   6.440 -0.2460  0.7691  0.3440
 1708SOL    HW116583   2.983   3.761   6.375 -1.4501 -3.2904 -0.5058
 1708SOL    HW216584   2.959   3.782   6.522  1.3310 -0.3443 -0.3511
 1709SOL     OW16585   4.595   4.257   8.736 -0.1291  0.0975 -0.0642
 1709SOL    HW116586   4.666   4.198   8.712 -0.1536  0.1164 -0.1834
 1709SOL    HW216587   4.537   4.199   8.784 -0.1945 -0.5716 -0.9513
 1710SOL     OW16588   2.155   0.498   3.207  0.5424  0.6849 -0.8063
 1710SOL    HW116589   2.074   0.548   3.196 -0.6335 -0.9635  0.3928
 1710SOL    HW216590   2.151   0.490   3.303 -2.3655 -1.2514 -1.0779
 1711SOL     OW16591   1.073   4.250   7.440  0.1023  0.2849  0.1141
 1711SOL    HW116592   1.128   4.262   7.363 -0.3075  0.3187 -0.1743
 1711SOL    HW216593   1.100   4.326   7.492 -2.1364  0.7497  0.6353
 1712SOL     OW16594   3.647   3.718   3.020 -0.6422  0.4092 -0.1575
 1712SOL    HW116595   3.660   3.744   3.111  2.3040 -2.0600  0.1071
 1712SOL    HW216596   3.740   3.705   3.004 -1.0454 -0.6003 -1.6472
 1713SOL     OW16597   4.629   0.934   9.323  0.8269  0.0230  0.0231
 1713SOL    HW116598   4.672   0.876   9.261  0.6033 -0.0892 -0.0288
 1713SOL    HW216599   4.555   0.879   9.351  1.0304  0.0679  0.6410
 1714SOL     OW16600   2.901   1.092  12.004  0.4060 -0.5039 -0.2431
 1714SOL    HW116601   2.949   1.174  12.016  0.9684 -0.3048 -4.0527
 1714SOL    HW216602   2.854   1.104  12.087 -0.3732  1.3282 -0.9580
 1715SOL     OW16603   4.635   0.320   8.126 -0.0371  0.2663 -0.4695
 1715SOL    HW116604   4.578   0.377   8.179  0.9101  0.5173  0.2886
 1715SOL    HW216605   4.720   0.338   8.168  0.1235  3.5246 -2.1782
 1716SOL     OW16606   1.400   1.563   9.866  0.2840  0.3323 -0.1938
 1716SOL    HW116607   1.404   1.586   9.773 -1.3095 -0.1723 -0.3812
 1716SOL    HW216608   1.493   1.546   9.881  0.2557  0.0020 -0.3887
 1717SOL     OW16609   4.397   1.346   7.476  0.0615  0.1380  0.7303
 1717SOL    HW116610   4.431   1.353   7.565 -0.5594  0.6144  0.9254
 1717SOL    HW216611   4.372   1.253   7.477  1.1797 -0.1731  0.0381
 1718SOL     OW16612   1.138   4.018  17.145  0.1591  0.1668 -0.0413
 1718SOL    HW116613   1.177   3.951  17.200 -0.2093  0.5688  0.7140
 1718SOL    HW216614   1.090   3.956  17.090 -0.0981  0.9211 -0.6860
 1719SOL     OW16615   1.168   2.582  13.341  0.2762 -0.4080  0.0351
 1719SOL    HW116616   1.149   2.496  13.305 -2.1725 -1.4870  3.9485
 1719SOL    HW216617   1.185   2.554  13.431 -0.6201  0.2808  0.4222
 1720SOL     OW16618   2.410   3.140   8.863  0.4483 -0.3022 -0.1387
 1720SOL    HW116619   2.477   3.073   8.848 -1.0694 -1.9354  0.4334
 1720SOL    HW216620   2.392   3.124   8.955  0.7799  1.0529  0.1637
 1721SOL     OW16621   4.341   4.293   9.257  0.2278 -0.1596 -0.0541
 1721SOL    HW116622   4.373   4.202   9.260 -0.2538 -0.2583  2.1922
 1721SOL    HW216623   4.411   4.329   9.202  0.6833  0.3622  0.8695
 1722SOL     OW16624   0.898   4.361   0.312  0.3067  0.1673  0.4716
 1722SOL    HW116625   0.964   4.359   0.243 -2.0722  1.0579 -1.7953
 1722SOL    HW216626   0.817   4.339   0.266  0.8693 -3.4619  1.2367
 1723SOL     OW16627   3.205   0.807  17.619 -0.2331  0.0745  0.0690
 1723SOL    HW116628   3.204   0.898  17.591 -0.9535  0.5066  1.4909
 1723SOL    HW216629   3.295   0.794  17.590  0.3060  2.7460  0.5547
 1724SOL     OW16630   2.234   2.669   5.186  0.1651 -0.2562 -0.6167
 1724SOL    HW116631   2.264   2.704   5.102 -1.6136  0.2159 -1.0385
 1724SOL    HW216632   2.305   2.605   5.185  0.9534  0.6280 -1.2088
 1725SOL     OW16633   3.316   2.340   5.610  0.3169  0.1311 -0.6869
 1725SOL    HW116634   3.272   2.259   5.639  1.4474 -0.5721 -0.9561
 1725SOL    HW216635   3.333   2.374   5.698 -3.5753  1.2350 -0.3534
 1726SOL     OW16636   1.698   3.684  12.121 -0.0008 -0.5336  0.4906
 1726SOL    HW116637   1.648   3.731  12.189 -0.5030 -0.2458 -0.0765
 1726SOL    HW216638   1.633   3.681  12.051 -1.4309 -2.7681  1.8986
 1727SOL     OW16639   2.868   2.343   7.996  0.1586 -0.0007 -0.6583
 1727SOL    HW116640   2.960   2.362   7.980 -0.2448  1.0333 -1.7294
 1727SOL    HW216641   2.860   2.249   7.982 -0.1259  0.0628 -0.9436
 1728SOL     OW16642   1.990   0.590   1.229  0.7936  0.1238 -0.1191
 1728SOL    HW116643   2.066   0.647   1.237 -0.7426  2.4651 -2.2839
 1728SOL    HW216644   2.021   0.500   1.240 -2.7874 -1.0760  0.0690
 1729SOL     OW16645   1.426   1.726   2.567  0.3466  0.3955 -0.0224
 1729SOL    HW116646   1.432   1.690   2.655 -0.0784  1.7884  0.5679
 1729SOL    HW216647   1.521   1.737   2.560  0.1653  2.2261  0.3122
 1730SOL     OW16648   0.281   4.124  16.436 -0.3821  0.3029  0.5079
 1730SOL    HW116649   0.249   4.050  16.487 -1.1312 -1.2603 -2.2075
 1730SOL    HW216650   0.217   4.194  16.450 -0.3804 -0.1063  2.6040
 1731SOL     OW16651   2.897   4.699   3.257  0.0212 -0.0207  0.0432
 1731SOL    HW116652   2.901   0.061   3.215 -1.8958 -0.4596 -1.0148
 1731SOL    HW216653   2.854   4.722   3.339 -1.2200  3.0293 -1.4797
 1732SOL     OW16654   1.046   1.903   1.819 -0.1386  0.3091  0.0425
 1732SOL    HW116655   1.035   1.863   1.733 -0.6415  0.1353  0.1855
 1732SOL    HW216656   1.138   1.927   1.816  0.2399 -0.8210  3.2745
 1733SOL     OW16657   1.647   3.102   8.273  0.2782  0.2716  0.1526
 1733SOL    HW116658   1.738   3.094   8.246 -0.0365 -0.5010 -0.6950
 1733SOL    HW216659   1.662   3.127   8.364  2.0424  2.5675 -0.7863
 1734SOL     OW16660   2.089   0.724   6.833 -0.4239 -0.3098  0.2317
 1734SOL    HW116661   2.139   0.755   6.757  3.4709 -0.0926  2.8646
 1734SOL    HW216662   2.146   0.753   6.905  1.3759 -1.0603 -0.8746
 1735SOL     OW16663   2.909   3.201   4.463  0.5175 -0.0967  0.4495
 1735SOL    HW116664   2.839   3.264   4.479  0.0835 -0.2318 -0.8769
 1735SOL    HW216665   2.893   3.141   4.536 -1.2940  1.2995  1.2131
 1736SOL     OW16666   1.480   3.851   5.497  0.4675  0.2800  0.1266
 1736SOL    HW116667   1.441   3.936   5.519  2.6637  1.0909  0.8983
 1736SOL    HW216668   1.402   3.822   5.449 -0.9029  1.0482  1.8624
 1737SOL     OW16669   0.385   2.979   7.483  0.0925  0.0530  1.2706
 1737SOL    HW116670   0.305   2.992   7.534 -0.4300 -1.2585  0.7747
 1737SOL    HW216671   0.347   2.968   7.396  1.3092  2.3778  0.4391
 1738SOL     OW16672   2.679   3.172  14.301 -0.0270  0.2734 -0.0281
 1738SOL    HW116673   2.743   3.234  14.336  0.5044  0.8804 -2.0535
 1738SOL    HW216674   2.664   3.102  14.363  2.2596 -2.8257 -2.9397
 1739SOL     OW16675   2.182   4.484   2.799 -0.1448  0.5497 -0.1689
 1739SOL    HW116676   2.203   4.558   2.855 -0.9241 -0.4338  1.4237
 1739SOL    HW216677   2.242   4.498   2.726 -0.4407  0.5782 -0.4110
 1740SOL     OW16678   4.495   2.601   4.821 -0.6286  0.3278 -0.3225
 1740SOL    HW116679   4.541   2.619   4.739  0.1111  1.9241  0.4393
 1740SOL    HW216680   4.466   2.684   4.859  0.8430  0.5884  0.2300
 1741SOL     OW16681   3.581   4.058   1.039 -0.3701  0.0562  0.6072
 1741SOL    HW116682   3.655   4.089   1.091  1.0019 -1.4546 -0.4056
 1741SOL    HW216683   3.512   4.101   1.088 -1.1849 -1.2976  0.6464
 1742SOL     OW16684   3.721   1.263   9.331  0.0175  0.2286  0.0055
 1742SOL    HW116685   3.758   1.334   9.384  0.7154  0.6594 -1.0572
 1742SOL    HW216686   3.739   1.186   9.384  3.1208 -0.3147 -1.8682
 1743SOL     OW16687   2.370   1.862  11.264 -0.0443 -0.7410  0.6932
 1743SOL    HW116688   2.357   1.885  11.172  0.2225 -1.2497  0.5301
 1743SOL    HW216689   2.465   1.876  11.269 -0.2680  0.6052  1.1343
 1744SOL     OW16690   2.085   0.572  10.727 -0.1911  0.1718  0.3153
 1744SOL    HW116691   2.034   0.640  10.682  0.3234 -0.3849 -1.1257
 1744SOL    HW216692   2.047   0.495  10.683  1.8439 -0.5949 -0.1046
 1745SOL     OW16693   0.146   2.897  14.474  0.5089  0.3151 -0.0732
 1745SOL    HW116694   0.107   2.983  14.459  0.6369  0.4996  0.6755
 1745SOL    HW216695   0.231   2.925  14.509  0.1098  1.6388 -0.1864
 1746SOL     OW16696   0.560   1.630   2.003  0.2121 -0.8223 -0.5839
 1746SOL    HW116697   0.543   1.577   1.925  1.0639 -1.4767 -0.3309
 1746SOL    HW216698   0.620   1.692   1.962  0.8344  0.4820  2.3096
 1747SOL     OW16699   4.613   2.134  11.792  0.2352 -0.2461  0.0446
 1747SOL    HW116700   4.709   2.131  11.798  0.4213  1.2523 -2.3384
 1747SOL    HW216701   4.597   2.224  11.764 -1.5848 -0.5305  0.2092
 1748SOL     OW16702   2.888   0.322   4.995 -0.1205  0.2112 -0.4338
 1748SOL    HW116703   2.904   0.230   4.978 -0.7913 -0.0274  0.1966
 1748SOL    HW216704   2.977   0.358   4.995  0.2186 -0.6044 -2.9952
 1749SOL     OW16705   2.705   3.576   5.598 -0.5444 -0.2910 -0.3513
 1749SOL    HW116706   2.637   3.549   5.660  0.9543 -1.4649  0.7625
 1749SOL    HW216707   2.670   3.652   5.551  1.6132  0.7425 -0.3063
 1750SOL     OW16708   4.658   1.722  13.456 -0.3250 -0.0145 -0.1705
 1750SOL    HW116709   4.619   1.736  13.543 -1.2046  0.4214 -0.6376
 1750SOL    HW216710   4.671   1.811  13.426  0.3864  0.0339  0.2641
 1751SOL     OW16711   1.498   2.534   6.093  0.3526 -0.6701  0.0804
 1751SOL    HW116712   1.511   2.457   6.148 -0.6109  0.4754  1.8864
 1751SOL    HW216713   1.423   2.503   6.041 -0.3882  0.4506  0.4931
 1752SOL     OW16714   1.196   0.104  10.253 -0.1262  0.0276 -0.4963
 1752SOL    HW116715   1.205   0.061  10.338 -0.9044  0.0185 -0.4219
 1752SOL    HW216716   1.147   0.182  10.277 -1.0209 -0.6514 -0.1094
 1753SOL     OW16717   1.783   2.777   2.432 -0.2573 -0.3832  0.3734
 1753SOL    HW116718   1.810   2.746   2.518  0.2143 -1.3835 -0.1380
 1753SOL    HW216719   1.766   2.867   2.462 -2.8518  0.4247 -3.3580
 1754SOL     OW16720   3.395   1.745   1.840  0.3931  0.4993  0.1918
 1754SOL    HW116721   3.383   1.715   1.750  0.8000  1.3880 -0.1650
 1754SOL    HW216722   3.302   1.756   1.860  0.2809  0.6098 -0.3991
 1755SOL     OW16723   4.506   1.423  14.205  0.1349 -0.4107  0.3834
 1755SOL    HW116724   4.518   1.382  14.291 -0.3744  0.0219  0.6640
 1755SOL    HW216725   4.421   1.382  14.191  0.3309 -1.2670  1.7172
 1756SOL     OW16726   4.540   0.855  17.103  0.2613  0.3838 -0.0855
 1756SOL    HW116727   4.491   0.796  17.159  3.0594  0.1521  2.1227
 1756SOL    HW216728   4.609   0.868  17.169  1.2580 -0.7870 -0.9023
 1757SOL     OW16729   2.686   0.071  14.210  0.3351  0.4592 -0.0301
 1757SOL    HW116730   2.680   0.134  14.138 -1.4832  0.0609 -0.2479
 1757SOL    HW216731   2.763   0.101  14.257 -0.6390  1.2985  1.0293
 1758SOL     OW16732   3.390   0.599  14.808  0.2623 -0.6268 -0.2134
 1758SOL    HW116733   3.335   0.572  14.734 -1.4148 -1.2641  1.2862
 1758SOL    HW216734   3.313   0.602  14.865  1.3208 -0.1403  1.1781
 1759SOL     OW16735   2.429   3.177   5.728  0.0054  0.0360  0.0278
 1759SOL    HW116736   2.354   3.231   5.704 -0.1431  0.2791  1.0342
 1759SOL    HW216737   2.397   3.096   5.688 -0.7610  0.7567 -0.8202
 1760SOL     OW16738   2.633   1.961   2.842 -0.1807 -0.0855  0.3735
 1760SOL    HW116739   2.678   2.045   2.832  1.0260 -0.9092 -1.0206
 1760SOL    HW216740   2.584   1.959   2.760  0.6520 -0.8328 -0.1057
 1761SOL     OW16741   2.001   2.944   6.900  0.2569  0.0330 -0.2895
 1761SOL    HW116742   2.018   3.003   6.974  4.8062 -0.3678 -0.9926
 1761SOL    HW216743   2.076   2.886   6.913  0.7355  1.0264  1.4912
 1762SOL     OW16744   0.815   4.594   6.804 -0.3224 -0.2905 -0.3168
 1762SOL    HW116745   0.894   4.557   6.843 -1.0543 -1.2235  0.2747
 1762SOL    HW216746   0.833   4.688   6.812  0.2250 -0.3637 -0.7078
 1763SOL     OW16747   2.015   1.057   7.707  0.0318  0.6049  0.1415
 1763SOL    HW116748   2.005   1.136   7.759 -2.0421  0.4438 -0.0398
 1763SOL    HW216749   1.997   1.090   7.619 -0.2588  0.4339  0.1357
 1764SOL     OW16750   3.675   0.963   5.272  0.1340 -0.1181 -0.0471
 1764SOL    HW116751   3.672   0.883   5.325  2.1429 -1.1621 -1.5323
 1764SOL    HW216752   3.685   1.030   5.340 -1.7530 -2.2112  2.3168
 1765SOL     OW16753   0.010   1.083   7.435  0.0799 -0.4320  0.5517
 1765SOL    HW116754   0.064   1.150   7.477  0.2758  0.4216 -1.0303
 1765SOL    HW216755   0.068   1.010   7.453 -1.6756 -2.4594 -1.9948
 1766SOL     OW16756   0.644   0.202  10.642  0.3070  0.3427  1.1937
 1766SOL    HW116757   0.561   0.250  10.645 -0.7112 -1.1971 -1.1768
 1766SOL    HW216758   0.679   0.198  10.730  0.1440 -2.7376  1.1173
 1767SOL     OW16759   2.537   0.612   3.936  0.2117 -0.1222 -0.0986
 1767SOL    HW116760   2.525   0.680   4.003 -1.5110  0.6734 -1.2153
 1767SOL    HW216761   2.618   0.575   3.971  0.0646  0.2743  0.6528
 1768SOL     OW16762   4.213   1.598   5.038  0.2006  0.5180  0.7844
 1768SOL    HW116763   4.288   1.614   5.096  0.4922 -0.1492  0.5925
 1768SOL    HW216764   4.248   1.529   4.982 -1.0876  2.2757 -2.1881
 1769SOL     OW16765   1.998   0.261   9.214  0.0650 -0.6260  0.4165
 1769SOL    HW116766   1.992   0.330   9.281 -2.1839  1.5919 -2.0414
 1769SOL    HW216767   2.083   0.222   9.231  0.2315  0.3872  1.9506
 1770SOL     OW16768   3.535   2.453   8.639 -0.2989 -0.0023  0.6403
 1770SOL    HW116769   3.607   2.478   8.698  0.4801 -1.2197  0.1825
 1770SOL    HW216770   3.544   2.496   8.554 -0.6049  0.2295  0.7241
 1771SOL     OW16771   3.765   1.319  15.215 -0.2655 -0.0063  0.4052
 1771SOL    HW116772   3.697   1.384  15.197  1.7945  2.1606  0.5247
 1771SOL    HW216773   3.702   1.264  15.261  1.8770  0.0495  3.3955
 1772SOL     OW16774   1.367   4.169   3.765  0.2435 -0.1674 -0.1397
 1772SOL    HW116775   1.334   4.183   3.676  2.0246  0.2125 -0.7468
 1772SOL    HW216776   1.331   4.085   3.792 -2.3122  1.1104  0.4799
 1773SOL     OW16777   2.554   1.004  13.441 -0.1913 -0.1558  0.4096
 1773SOL    HW116778   2.526   1.046  13.359 -0.3606 -0.0335  0.5306
 1773SOL    HW216779   2.488   1.050  13.493  0.6341  0.8150  0.5934
 1774SOL     OW16780   2.258   4.685   9.715 -0.7174  0.0178 -0.2610
 1774SOL    HW116781   2.277   4.598   9.677 -2.2465  0.9468 -3.1624
 1774SOL    HW216782   2.304   4.674   9.798  0.0162  0.7040 -0.5762
 1775SOL     OW16783   3.310   3.692   9.355 -0.4565  0.3634  0.0963
 1775SOL    HW116784   3.304   3.786   9.340  1.6053  0.7368  1.6396
 1775SOL    HW216785   3.397   3.686   9.395 -0.8573 -0.9662  0.7564
 1776SOL     OW16786   4.277   0.772   4.243 -0.4034 -0.5506  0.0797
 1776SOL    HW116787   4.302   0.863   4.226  1.0441 -0.9560  0.0095
 1776SOL    HW216788   4.197   0.772   4.191 -0.7812 -1.3189  0.6533
 1777SOL     OW16789   4.550   3.942   0.150 -0.5727  0.7994  0.1946
 1777SOL    HW116790   4.538   3.933   0.244 -2.5848  0.2262 -0.1126
 1777SOL    HW216791   4.471   3.898   0.118  1.0743 -2.0064  0.0530
 1778SOL     OW16792   0.790   2.034  11.721 -0.5251  0.3584  0.6563
 1778SOL    HW116793   0.871   2.034  11.773 -0.4808 -2.1455  0.5838
 1778SOL    HW216794   0.741   1.963  11.763 -0.2445 -0.3129 -0.1517
 1779SOL     OW16795   4.476   4.249  16.197 -0.3377  0.2281 -0.3443
 1779SOL    HW116796   4.546   4.305  16.163  0.9262 -0.7175  0.7014
 1779SOL    HW216797   4.405   4.312  16.208 -1.0350 -0.8774  1.5539
 1780SOL     OW16798   3.694   3.773  10.261 -0.2773  0.1885 -0.2503
 1780SOL    HW116799   3.788   3.780  10.247 -0.2662 -2.5943 -1.6823
 1780SOL    HW216800   3.672   3.825  10.184 -1.0095 -0.6584 -0.6237
 1781SOL     OW16801   0.582   4.476   5.123  0.9243 -0.6606  0.0366
 1781SOL    HW116802   0.551   4.552   5.075  0.2868 -0.3972  0.8594
 1781SOL    HW216803   0.662   4.467   5.071  2.2422  0.7856  1.7911
 1782SOL     OW16804   1.288   0.282   9.337 -0.0295  0.3190  0.1280
 1782SOL    HW116805   1.383   0.291   9.331  0.0542 -1.4406 -1.3651
 1782SOL    HW216806   1.274   0.211   9.275  2.4197 -2.4839  2.7949
 1783SOL     OW16807   2.093   4.641   4.247  0.9173 -0.1602 -0.0784
 1783SOL    HW116808   2.097   4.547   4.265  1.2079  0.1252  1.3570
 1783SOL    HW216809   2.060   4.677   4.329  1.6471 -0.8938  0.5310
 1784SOL     OW16810   0.896   0.654   6.689 -0.2254  0.2112 -0.2069
 1784SOL    HW116811   0.838   0.722   6.655  0.3127  0.4414 -0.6566
 1784SOL    HW216812   0.831   0.591   6.720 -2.1170  1.8392 -0.8620
 1785SOL     OW16813   3.328   3.632   5.888  0.0133 -0.3561  0.1925
 1785SOL    HW116814   3.411   3.608   5.929  0.3594 -0.4695 -0.5735
 1785SOL    HW216815   3.333   3.727   5.876 -1.2087 -0.4576 -1.1125
 1786SOL     OW16816   3.102   1.299   5.797  0.3374  0.5619  0.0576
 1786SOL    HW116817   3.129   1.230   5.858  1.2157  0.7322 -0.1361
 1786SOL    HW216818   3.047   1.247   5.738 -0.9176  1.9096  0.0294
 1787SOL     OW16819   2.690   3.421   2.755 -0.1914  0.2586 -0.1002
 1787SOL    HW116820   2.781   3.443   2.734 -0.3854 -1.1114 -2.2923
 1787SOL    HW216821   2.670   3.340   2.709 -0.2956  0.7679 -0.9355
 1788SOL     OW16822   1.733   0.682   1.187  0.1377  0.0171  0.3176
 1788SOL    HW116823   1.814   0.645   1.223 -0.7514 -2.1849  0.0811
 1788SOL    HW216824   1.685   0.606   1.151 -0.0513 -0.0206  0.6447
 1789SOL     OW16825   0.350   4.310   2.847 -0.5981  0.4167 -0.4223
 1789SOL    HW116826   0.396   4.235   2.886 -0.6963 -0.3942 -1.8640
 1789SOL    HW216827   0.263   4.279   2.870 -0.1383  0.8171  1.8712
 1790SOL     OW16828   0.640   3.780   3.968  0.0655 -0.1350  0.4088
 1790SOL    HW116829   0.711   3.718   3.951  0.9700  0.4185  2.1594
 1790SOL    HW216830   0.666   3.848   3.906 -1.3971 -0.4514 -0.5571
 1791SOL     OW16831   1.883   3.921  13.238 -0.2837 -0.5110  0.4139
 1791SOL    HW116832   1.931   4.003  13.245 -1.3222 -0.1497  3.1869
 1791SOL    HW216833   1.816   3.930  13.305  1.8887  2.6158  2.1745
 1792SOL     OW16834   2.446   0.321  12.229  0.0109  0.2571 -0.4275
 1792SOL    HW116835   2.410   0.408  12.210 -0.9856  0.1898  1.2044
 1792SOL    HW216836   2.405   0.273  12.157 -1.5893 -0.6611  1.0936
 1793SOL     OW16837   2.381   3.277   9.918  0.3726 -0.2240 -0.2931
 1793SOL    HW116838   2.355   3.251   9.830  0.6005  2.6651 -1.2437
 1793SOL    HW216839   2.304   3.294   9.972 -0.5074 -1.7053 -1.0885
 1794SOL     OW16840   2.596   4.343   5.296  0.3923 -0.3168  0.1709
 1794SOL    HW116841   2.683   4.332   5.333 -0.3525 -1.4664  1.5740
 1794SOL    HW216842   2.543   4.309   5.368  1.0499 -0.9621  0.3491
 1795SOL     OW16843   4.549   0.117   7.425  0.2309  0.0720  0.0055
 1795SOL    HW116844   4.463   0.080   7.406 -0.1175  0.4703  0.7993
 1795SOL    HW216845   4.544   0.167   7.506  1.7404  0.0233  0.1211
 1796SOL     OW16846   4.174   2.025  14.757 -0.0399 -0.6562 -0.0716
 1796SOL    HW116847   4.189   1.975  14.677 -1.6676 -3.3596  1.2801
 1796SOL    HW216848   4.140   2.109  14.728  1.8859 -1.0073 -3.2540
 1797SOL     OW16849   1.432   3.620   6.899 -0.2078 -0.0275  0.1643
 1797SOL    HW116850   1.361   3.556   6.890  0.2031 -0.1762 -2.0572
 1797SOL    HW216851   1.446   3.602   6.992  0.1163 -1.5564 -0.1721
 1798SOL     OW16852   4.412   2.160  16.517  0.3002 -0.1048  0.0277
 1798SOL    HW116853   4.492   2.152  16.465  0.8225 -0.3840  0.8698
 1798SOL    HW216854   4.346   2.167  16.449  3.9201  1.1905 -3.3653
 1799SOL     OW16855   0.491   0.102   5.847  0.5258 -0.2527 -0.4933
 1799SOL    HW116856   0.569   0.061   5.883  0.6905  0.2475 -0.2826
 1799SOL    HW216857   0.456   0.029   5.796  0.9807 -0.6644 -0.2167
 1800SOL     OW16858   3.088   1.882   2.177  0.5213 -0.5024 -0.0736
 1800SOL    HW116859   3.085   1.883   2.272  1.7276  0.6359 -0.0440
 1800SOL    HW216860   3.112   1.972   2.155  1.5351 -0.7003  0.2157
 1801SOL     OW16861   2.805   4.533   8.110 -0.2580  0.2817  0.0905
 1801SOL    HW116862   2.860   4.493   8.177  1.4196  0.1587 -1.3611
 1801SOL    HW216863   2.724   4.481   8.112 -0.6895  1.0410  1.9453
 1802SOL     OW16864   1.421   1.621   3.080  0.4690 -0.0488 -0.1061
 1802SOL    HW116865   1.463   1.582   3.156 -1.4855  0.0379  1.0162
 1802SOL    HW216866   1.335   1.637   3.118  0.2706  2.8063 -1.7260
 1803SOL     OW16867   2.549   0.853  11.605  0.0810 -0.1374  0.0244
 1803SOL    HW116868   2.638   0.887  11.617  0.5396 -1.6327  0.9887
 1803SOL    HW216869   2.576   0.803  11.528 -0.5401 -0.3598 -0.0440
 1804SOL     OW16870   1.297   4.236  15.871 -0.4637 -0.0726 -0.0901
 1804SOL    HW116871   1.295   4.263  15.963  1.0652 -0.9556  0.2041
 1804SOL    HW216872   1.392   4.241  15.860 -0.5333 -0.9887 -1.0884
 1805SOL     OW16873   0.345   4.091   3.835 -0.8799  0.0870 -0.8348
 1805SOL    HW116874   0.377   4.096   3.925  1.6665  3.0380 -1.8688
 1805SOL    HW216875   0.426   4.125   3.796 -1.1419  0.7628 -0.7965
 1806SOL     OW16876   0.538   2.608   5.731 -0.4512 -0.1770  0.0823
 1806SOL    HW116877   0.515   2.586   5.821  0.6263  1.6826  0.8194
 1806SOL    HW216878   0.569   2.694   5.760  1.2175 -0.8245  0.2159
 1807SOL     OW16879   0.254   4.095   4.960  0.0538  0.1680  0.4880
 1807SOL    HW116880   0.308   4.033   4.911 -1.5766 -0.6747 -0.2369
 1807SOL    HW216881   0.318   4.135   5.019 -2.7738  1.2838  2.7796
 1808SOL     OW16882   1.935   0.933   3.562  0.5221  0.2207 -0.1516
 1808SOL    HW116883   1.955   0.887   3.481 -0.2680 -1.4866  0.6239
 1808SOL    HW216884   2.010   0.904   3.614 -0.9582  1.5878  2.7805
 1809SOL     OW16885   2.565   3.085   3.558 -1.1072 -0.6000 -0.2913
 1809SOL    HW116886   2.599   2.996   3.569 -2.6480 -1.4908 -2.7663
 1809SOL    HW216887   2.525   3.076   3.472  2.1077  4.3250 -2.3263
 1810SOL     OW16888   3.109   1.945   2.995 -0.0716  0.3793  0.4051
 1810SOL    HW116889   3.106   1.894   3.076 -0.7724 -0.0817  0.0816
 1810SOL    HW216890   3.017   1.938   2.969  0.4775 -2.9137 -0.6454
 1811SOL     OW16891   4.509   1.172   3.037  0.6246 -0.3976  0.4432
 1811SOL    HW116892   4.580   1.143   2.980  0.7247  0.8471 -0.0600
 1811SOL    HW216893   4.556   1.196   3.117  0.2571  1.5759  0.0463
 1812SOL     OW16894   1.832   2.029   2.709  0.6229  0.0560  0.1867
 1812SOL    HW116895   1.781   2.109   2.715 -0.0702 -0.3900  0.2047
 1812SOL    HW216896   1.774   1.966   2.752 -0.9733  1.0095 -0.6082
 1813SOL     OW16897   0.286   3.194   3.159 -0.1295  0.9850  0.1195
 1813SOL    HW116898   0.343   3.132   3.203  1.5208  1.8362 -0.8142
 1813SOL    HW216899   0.196   3.184   3.190 -0.0341 -1.0138 -0.2168
 1814SOL     OW16900   1.498   2.827   6.529 -0.0649 -0.0090 -0.2024
 1814SOL    HW116901   1.570   2.801   6.472  0.1564  0.0550  0.0526
 1814SOL    HW216902   1.428   2.856   6.470 -0.3806 -0.2340  0.0615
 1815SOL     OW16903   4.064   3.488  13.304 -0.1804 -0.0370 -0.2464
 1815SOL    HW116904   4.112   3.496  13.221 -0.1373 -1.0239 -0.3224
 1815SOL    HW216905   4.108   3.561  13.348 -1.9011  0.3388  0.8393
 1816SOL     OW16906   4.444   0.197   7.127  0.0172  0.2458  0.5267
 1816SOL    HW116907   4.407   0.153   7.204 -1.3300 -1.6454 -1.2106
 1816SOL    HW216908   4.447   0.118   7.073  0.8322  1.6588 -1.4833
 1817SOL     OW16909   2.628   4.497   4.190 -0.3349  0.0505 -0.1689
 1817SOL    HW116910   2.577   4.417   4.177 -2.0006  0.8241  1.4998
 1817SOL    HW216911   2.569   4.573   4.190  0.2057  0.4604  2.5092
 1818SOL     OW16912   2.838   0.816  13.265  0.3499 -0.6135  0.0246
 1818SOL    HW116913   2.897   0.867  13.209 -0.7450  1.0123  0.3262
 1818SOL    HW216914   2.897   0.766  13.321 -0.0781 -0.3240  0.7430
 1819SOL     OW16915   2.841   0.177   6.866  0.3401  1.0354  0.1159
 1819SOL    HW116916   2.772   0.123   6.905  2.1011  0.1668  2.0892
 1819SOL    HW216917   2.899   0.154   6.939 -1.2108 -1.5968  0.5248
 1820SOL     OW16918   1.817   3.071   7.748  0.3336  0.1484 -0.4285
 1820SOL    HW116919   1.744   3.113   7.794  1.3573  1.6889 -0.2022
 1820SOL    HW216920   1.833   3.127   7.672  1.2023 -1.9961 -1.8237
 1821SOL     OW16921   2.097   0.371   2.214 -0.2659  0.1563 -0.5870
 1821SOL    HW116922   2.124   0.361   2.305  0.5104  0.8271 -0.7426
 1821SOL    HW216923   2.027   0.306   2.218 -0.0826  0.1026  2.3634
 1822SOL     OW16924   3.715   4.394   7.607 -0.2960  0.4694  0.1843
 1822SOL    HW116925   3.670   4.441   7.678  0.5435  0.8229  0.4869
 1822SOL    HW216926   3.783   4.357   7.664 -1.3413 -1.6154  0.0657
 1823SOL     OW16927   2.641   3.695   3.319 -0.4586  0.1255 -0.1588
 1823SOL    HW116928   2.737   3.703   3.319 -0.1688 -3.2492  0.6216
 1823SOL    HW216929   2.622   3.748   3.242  0.8571 -1.2542 -1.4231
 1824SOL     OW16930   4.559   0.591   9.873  0.0148  0.2711  0.3993
 1824SOL    HW116931   4.555   0.586   9.777 -0.9690 -0.9562  0.5039
 1824SOL    HW216932   4.655   0.597   9.875 -0.1272  3.2435 -1.6266
 1825SOL     OW16933   0.799   1.884   2.894 -0.7245  0.2426  0.3580
 1825SOL    HW116934   0.764   1.803   2.929 -1.2609  0.1692 -0.3544
 1825SOL    HW216935   0.893   1.871   2.883 -0.7012  0.5997  0.1339
 1826SOL     OW16936   0.557   0.169   4.656 -0.1193  0.5187  0.0449
 1826SOL    HW116937   0.466   0.140   4.653 -0.1602  0.6868 -0.3545
 1826SOL    HW216938   0.546   0.250   4.605 -2.6558 -0.3391 -0.7801
 1827SOL     OW16939   3.514   1.105   0.687  0.2123 -0.0201  0.0441
 1827SOL    HW116940   3.460   1.051   0.629 -1.0241  1.0425  0.2173
 1827SOL    HW216941   3.473   1.187   0.659 -0.4044 -0.4516 -0.3213
 1828SOL     OW16942   2.769   1.962   2.458 -0.7982  0.7244  0.0464
 1828SOL    HW116943   2.695   2.016   2.486 -0.9301 -1.2435  3.5338
 1828SOL    HW216944   2.723   1.878   2.456  0.3315  0.0958  1.0320
 1829SOL     OW16945   3.529   4.204   9.092  0.0726 -0.3146  0.4908
 1829SOL    HW116946   3.542   4.297   9.072 -0.9487  0.3351  2.8509
 1829SOL    HW216947   3.618   4.181   9.119 -0.2043 -0.9067  0.9059
 1830SOL     OW16948   1.968   1.279   7.842  0.2569  0.5286 -0.2620
 1830SOL    HW116949   2.058   1.314   7.845  0.4633  0.0520 -0.9738
 1830SOL    HW216950   1.984   1.223   7.918  0.1807 -0.2596 -0.8200
 1831SOL     OW16951   0.541   3.322  15.310 -0.2476 -0.6146  0.0476
 1831SOL    HW116952   0.571   3.233  15.330  2.4361  0.5398  1.1492
 1831SOL    HW216953   0.621   3.375  15.311 -0.4372 -0.2913 -2.0608
 1832SOL     OW16954   4.532   3.179   3.517  0.3666  0.1827 -0.4024
 1832SOL    HW116955   4.477   3.247   3.479 -0.8126 -0.1125  0.7538
 1832SOL    HW216956   4.459   3.129   3.556  0.7743  1.4009  1.9155
 1833SOL     OW16957   2.946   4.036   3.006 -0.1998 -0.4393 -0.1164
 1833SOL    HW116958   2.984   4.080   2.930 -2.4052  1.8066  0.1006
 1833SOL    HW216959   2.941   3.943   2.985 -1.1853  0.1011 -2.2018
 1834SOL     OW16960   2.383   1.844   3.967  0.3335 -0.7457  0.6615
 1834SOL    HW116961   2.343   1.875   4.049 -4.5534  2.5661 -2.9806
 1834SOL    HW216962   2.310   1.854   3.906 -1.9831 -2.5211  3.1209
 1835SOL     OW16963   1.505   4.011   4.120  0.1848  0.0934 -0.3090
 1835SOL    HW116964   1.463   3.959   4.052  0.8853  1.7970 -2.0330
 1835SOL    HW216965   1.437   4.079   4.117  0.8921  0.7913 -0.4931
 1836SOL     OW16966   4.331   3.335  13.557  0.2640 -0.6536  0.0277
 1836SOL    HW116967   4.263   3.307  13.495 -0.0666  1.2124 -0.4545
 1836SOL    HW216968   4.326   3.267  13.625 -0.1072  0.4473  1.1156
 1837SOL     OW16969   1.165   2.053   5.689 -0.0299  0.4293 -0.4767
 1837SOL    HW116970   1.084   2.055   5.638  0.0864 -0.5916 -0.6814
 1837SOL    HW216971   1.222   1.994   5.640  0.9316 -0.3626  1.5980
 1838SOL     OW16972   2.549   1.525   5.621  0.2220 -1.3145  0.2850
 1838SOL    HW116973   2.634   1.555   5.591 -0.0740  0.3675  1.1726
 1838SOL    HW216974   2.513   1.603   5.663  0.2001  0.6166 -3.3545
 1839SOL     OW16975   1.797   1.656  16.327 -0.1895 -0.4689  0.4034
 1839SOL    HW116976   1.774   1.699  16.244 -0.4800  0.2280  0.8415
 1839SOL    HW216977   1.793   1.720  16.398  2.5706  0.8608 -0.6493
 1840SOL     OW16978   2.033   3.869   3.454 -0.0172  0.2523 -0.2187
 1840SOL    HW116979   2.119   3.852   3.414 -0.0362  2.3909 -1.1802
 1840SOL    HW216980   1.980   3.796   3.423  1.5965 -1.7960  1.8846
 1841SOL     OW16981   3.358   3.327   8.632 -0.0190 -0.0632  0.6671
 1841SOL    HW116982   3.351   3.247   8.581  2.7725 -1.1961  2.0379
 1841SOL    HW216983   3.435   3.359   8.584  1.8611 -0.3866  3.4445
 1842SOL     OW16984   0.464   4.414   7.280 -0.0906  0.3596  0.2422
 1842SOL    HW116985   0.518   4.416   7.359  0.8168 -1.5566 -0.3353
 1842SOL    HW216986   0.499   4.344   7.226  0.3959 -1.3499  2.7921
 1843SOL     OW16987   0.757   0.302   6.049 -0.0746  1.2322 -0.4778
 1843SOL    HW116988   0.777   0.318   6.141 -1.7036 -0.0665  0.0977
 1843SOL    HW216989   0.738   0.208   6.046 -1.0413  1.3634  1.8981
 1844SOL     OW16990   4.190   0.601   8.581 -0.0086 -0.2491 -0.1616
 1844SOL    HW116991   4.147   0.622   8.664  1.0378 -1.0006  0.5652
 1844SOL    HW216992   4.237   0.519   8.595 -2.4282 -1.5743  0.1793
 1845SOL     OW16993   1.031   0.681   7.196  0.8230  0.2003  0.2437
 1845SOL    HW116994   1.108   0.625   7.182  0.5725  0.1791 -0.9955
 1845SOL    HW216995   0.983   0.684   7.113  0.9704  1.0629  0.1895
 1846SOL     OW16996   3.298   0.598  11.312  0.0056  0.1547  0.0070
 1846SOL    HW116997   3.265   0.679  11.349  0.7317  0.5027 -0.1023
 1846SOL    HW216998   3.309   0.548  11.393  0.7611  1.7669  0.8923
 1847SOL     OW16999   2.671   2.743   5.756  0.0039 -0.3014  0.0108
 1847SOL    HW117000   2.615   2.689   5.812 -2.4629  1.9092 -0.3416
 1847SOL    HW217001   2.757   2.733   5.797 -0.6522 -0.0775  1.4340
 1848SOL     OW17002   1.044   4.203   3.636 -0.0138  0.5985 -0.1478
 1848SOL    HW117003   0.981   4.192   3.565  0.3536  0.7322 -0.5028
 1848SOL    HW217004   1.118   4.235   3.583  0.4667 -0.0626  0.1205
 1849SOL     OW17005   4.303   2.353   3.123 -0.1056 -0.5228 -0.3896
 1849SOL    HW117006   4.368   2.300   3.077  0.2744 -1.4342  1.2145
 1849SOL    HW217007   4.224   2.337   3.071  0.3425 -0.1989 -1.1602
 1850SOL     OW17008   1.467   0.295   3.857 -0.5425 -0.4061 -0.0143
 1850SOL    HW117009   1.533   0.332   3.799  0.4136  0.1197  1.4046
 1850SOL    HW217010   1.390   0.285   3.801 -0.9148 -1.8187  0.7436
 1851SOL     OW17011   2.791   0.828  14.754 -0.5515 -0.0538  0.4153
 1851SOL    HW117012   2.787   0.882  14.834  1.7145 -2.1832  1.9527
 1851SOL    HW217013   2.874   0.786  14.777 -0.7853 -0.5936  0.2689
 1852SOL     OW17014   1.882   4.063   2.621 -0.1686 -0.4656 -0.4385
 1852SOL    HW117015   1.799   4.081   2.578  0.5869  1.6648 -1.0084
 1852SOL    HW217016   1.933   4.144   2.609  1.1160 -1.0403  1.0342
 1853SOL     OW17017   1.973   1.208  16.963  0.2246  0.2756  0.1330
 1853SOL    HW117018   2.013   1.149  16.899 -0.1084  0.3356 -0.1309
 1853SOL    HW217019   1.981   1.151  17.040  0.2247 -1.5435 -1.2088
 1854SOL     OW17020   1.323   4.432  14.161  0.8136 -0.2857  0.2537
 1854SOL    HW117021   1.228   4.421  14.169  0.6131  1.0696 -0.3794
 1854SOL    HW217022   1.339   4.427  14.067 -1.2546  0.3524 -0.1482
 1855SOL     OW17023   3.101   4.679   8.602 -0.3201  0.0082 -0.1817
 1855SOL    HW117024   3.141   4.617   8.540 -0.8976  0.1515 -0.6940
 1855SOL    HW217025   3.107   0.039   8.558 -1.0796 -0.0224 -0.3464
 1856SOL     OW17026   0.998   1.454  15.064  0.0912  0.4408 -0.0404
 1856SOL    HW117027   0.996   1.481  14.972  0.4935 -0.0110 -0.1822
 1856SOL    HW217028   1.014   1.360  15.057  1.5057  0.7196 -0.6421
 1857SOL     OW17029   3.660   4.293  11.603  0.5435  0.0506  0.5726
 1857SOL    HW117030   3.720   4.362  11.629 -0.2442 -0.0868  2.7650
 1857SOL    HW217031   3.576   4.339  11.605  0.4378 -0.1407  0.5078
 1858SOL     OW17032   4.654   3.471   9.684 -0.5672 -0.0185  0.5019
 1858SOL    HW117033   4.635   3.408   9.753  1.3893 -0.0023  1.0700
 1858SOL    HW217034   4.587   3.534   9.711 -1.0603  0.3975 -1.6675
 1859SOL     OW17035   3.827   3.110   9.515 -0.8839  0.5567  0.7154
 1859SOL    HW117036   3.844   3.111   9.609 -2.7923 -0.7031  1.0904
 1859SOL    HW217037   3.812   3.016   9.511 -1.5978  0.6849  0.3785
 1860SOL     OW17038   0.218   2.518  15.094  0.5098  0.2233  0.1422
 1860SOL    HW117039   0.166   2.487  15.019  1.2010  1.1160 -0.7072
 1860SOL    HW217040   0.294   2.459  15.096 -0.3737 -0.9380 -0.2125
 1861SOL     OW17041   3.445   2.277  16.082 -0.5806 -0.0614 -0.0413
 1861SOL    HW117042   3.462   2.186  16.104  0.2800 -0.4095 -2.2237
 1861SOL    HW217043   3.361   2.259  16.040  0.2323 -1.0339 -1.2214
 1862SOL     OW17044   3.992   3.020   1.449 -0.4956 -0.1871  0.1629
 1862SOL    HW117045   3.981   3.016   1.544 -1.0781 -3.8860 -0.0677
 1862SOL    HW217046   3.903   2.991   1.431 -0.2046 -1.1102  0.2007
 1863SOL     OW17047   2.795   0.115   0.610  0.1903  0.5558 -0.0620
 1863SOL    HW117048   2.787   0.019   0.613 -0.3617  0.6745  2.9213
 1863SOL    HW217049   2.710   0.140   0.646  0.0940  0.4867 -0.2448
 1864SOL     OW17050   1.738   0.755  17.259 -0.2840 -0.0285  0.3651
 1864SOL    HW117051   1.690   0.732  17.180 -0.4178 -1.3940  0.8501
 1864SOL    HW217052   1.684   0.715  17.326  2.1370 -1.3307  1.5618
 1865SOL     OW17053   0.276   4.487   1.208  0.4116  0.0480 -0.4753
 1865SOL    HW117054   0.185   4.462   1.191  0.9962  0.3237 -4.0600
 1865SOL    HW217055   0.256   4.492   1.301 -2.5073  3.6284 -1.3017
 1866SOL     OW17056   4.647   2.190   2.640  0.4289  0.7870  0.0148
 1866SOL    HW117057   0.011   2.179   2.675  0.7357 -0.2523 -1.0991
 1866SOL    HW217058   4.633   2.269   2.692  0.3725  0.4579  0.4984
 1867SOL     OW17059   1.712   1.880  16.000 -0.1330 -0.0323 -0.3281
 1867SOL    HW117060   1.625   1.901  16.036  0.4815  2.7327 -0.4499
 1867SOL    HW217061   1.769   1.957  16.003 -1.3771  1.0185 -2.9517
 1868SOL     OW17062   2.558   3.990   6.235  0.1857 -0.2063  0.0819
 1868SOL    HW117063   2.489   3.928   6.211  1.5088 -1.0787 -1.5112
 1868SOL    HW217064   2.622   3.946   6.291  0.3229 -0.4184 -0.2438
 1869SOL     OW17065   0.808   3.902   4.503 -0.0161  0.2738  0.4921
 1869SOL    HW117066   0.818   3.855   4.420  0.4197 -0.5151  0.9903
 1869SOL    HW217067   0.887   3.878   4.550  0.0534 -0.0340  0.2160
 1870SOL     OW17068   2.427   0.125   4.328 -0.1181 -0.3161  0.2140
 1870SOL    HW117069   2.402   0.177   4.404  0.7298  0.8266 -0.2986
 1870SOL    HW217070   2.384   0.169   4.254  0.0275  1.6200  1.2999
 1871SOL     OW17071   4.560   0.688   8.547  0.0081 -0.2742  0.2515
 1871SOL    HW117072   4.555   0.781   8.525 -0.2951 -0.8354 -2.0437
 1871SOL    HW217073   4.476   0.654   8.515  0.8483 -1.4766 -0.6821
 1872SOL     OW17074   3.831   1.587   8.651 -0.1234 -0.0584 -0.0495
 1872SOL    HW117075   3.832   1.664   8.708 -1.2605 -0.9163  1.1197
 1872SOL    HW217076   3.739   1.564   8.639 -0.1998  1.5916 -2.5731
 1873SOL     OW17077   3.366   4.205  17.240 -0.0866 -0.2932 -0.3924
 1873SOL    HW117078   3.274   4.226  17.226 -0.0243 -0.9230 -1.8526
 1873SOL    HW217079   3.362   4.200  17.335 -1.0911  0.2208 -0.4130
 1874SOL     OW17080   3.661   0.624   8.056 -0.0650 -0.1455 -0.3231
 1874SOL    HW117081   3.736   0.683   8.064 -1.5253  1.4405  1.4816
 1874SOL    HW217082   3.600   0.667   7.996  0.9557  0.2397 -1.0856
 1875SOL     OW17083   0.591   3.707   5.464  0.6022 -0.3883 -0.0655
 1875SOL    HW117084   0.568   3.791   5.503 -2.1604 -1.3331  0.3727
 1875SOL    HW217085   0.665   3.676   5.517  0.7289 -1.5815 -0.9526
 1876SOL     OW17086   0.277   0.835   6.743 -0.3703  0.2319  0.1398
 1876SOL    HW117087   0.187   0.815   6.719 -0.3683 -1.1910  1.3481
 1876SOL    HW217088   0.259   0.878   6.827 -0.3915 -0.2896  0.4032
 1877SOL     OW17089   3.573   4.679   4.809  0.2576 -0.0239 -0.1757
 1877SOL    HW117090   3.624   4.696   4.889  1.2596 -1.7759 -0.4394
 1877SOL    HW217091   3.598   4.588   4.801  3.6891  0.7673  1.3973
 1878SOL     OW17092   4.511   1.596   2.362  1.4399  0.4122  0.1005
 1878SOL    HW117093   4.470   1.627   2.443 -1.2534  0.7751 -1.3816
 1878SOL    HW217094   4.604   1.609   2.379  1.8483 -0.0622 -1.6963
 1879SOL     OW17095   0.812   2.006   7.765 -0.4495 -0.0421  0.3874
 1879SOL    HW117096   0.829   1.914   7.789  0.8408 -0.4224 -1.9604
 1879SOL    HW217097   0.898   2.048   7.764  0.1155 -1.1655  1.9489
 1880SOL     OW17098   0.196   2.638   3.907  0.1470 -0.1681 -0.0107
 1880SOL    HW117099   0.115   2.689   3.916 -1.4640 -2.5239 -1.4175
 1880SOL    HW217100   0.188   2.641   3.812 -2.1283  0.2563  0.1978
 1881SOL     OW17101   4.547   0.561   9.608 -0.2557  0.0184 -0.1258
 1881SOL    HW117102   4.490   0.606   9.546 -0.3327 -0.3463 -0.3228
 1881SOL    HW217103   4.535   0.467   9.593 -1.5498 -0.0209  1.1242
 1882SOL     OW17104   1.716   3.764   3.620  0.0293  0.0090  0.0647
 1882SOL    HW117105   1.791   3.726   3.665  1.8591  2.7500 -0.6795
 1882SOL    HW217106   1.721   3.706   3.544 -1.6270  0.9991 -0.8108
 1883SOL     OW17107   1.950   2.653   5.241 -0.0326  0.0288  0.1808
 1883SOL    HW117108   2.041   2.643   5.213 -0.1705 -0.4075 -0.1007
 1883SOL    HW217109   1.968   2.634   5.333  0.6075 -0.0315  0.0406
 1884SOL     OW17110   3.132   1.283  13.728 -0.2746 -0.1462 -0.0071
 1884SOL    HW117111   3.077   1.335  13.786 -1.4194  0.1400 -1.3431
 1884SOL    HW217112   3.213   1.293  13.777  0.0793  1.4324 -0.9215
 1885SOL     OW17113   2.231   4.509   5.402 -0.4518  0.2637 -0.5569
 1885SOL    HW117114   2.226   4.544   5.491 -0.5077  0.5666 -0.6785
 1885SOL    HW217115   2.219   4.587   5.348 -2.3481 -1.5351 -2.7310
 1886SOL     OW17116   0.102   3.464  17.647 -0.3848 -0.2385  0.4550
 1886SOL    HW117117   0.126   3.373  17.664 -1.8153 -0.7845 -0.3573
 1886SOL    HW217118   0.006   3.461  17.654 -0.4381  1.0279  0.3697
 1887SOL     OW17119   1.658   2.058  14.034  0.2035 -0.2839  0.0378
 1887SOL    HW117120   1.679   2.108  13.955 -0.9559  4.3314  2.6627
 1887SOL    HW217121   1.569   2.029  14.015  1.3518 -2.7947 -1.4831
 1888SOL     OW17122   3.048   3.292   6.148  0.5110 -0.5575 -0.0418
 1888SOL    HW117123   2.973   3.238   6.174 -0.4672  0.1999 -1.2657
 1888SOL    HW217124   2.990   3.358   6.110 -1.6332 -1.5267  1.5031
 1889SOL     OW17125   0.759   4.299   6.192 -0.7095 -0.0429 -0.1142
 1889SOL    HW117126   0.835   4.288   6.250 -1.7769  0.2528  1.3498
 1889SOL    HW217127   0.705   4.362   6.240  0.0416  0.1217  0.5087
 1890SOL     OW17128   3.747   1.635  13.846 -0.0353 -0.1810 -0.2695
 1890SOL    HW117129   3.717   1.683  13.923  1.8644  0.9237 -0.2080
 1890SOL    HW217130   3.769   1.552  13.889  1.9017  0.6432  0.3307
 1891SOL     OW17131   0.692   2.105   7.959  0.2348 -0.0936 -0.0664
 1891SOL    HW117132   0.672   2.179   7.902  0.5603  1.1396  1.4325
 1891SOL    HW217133   0.715   2.044   7.890 -1.5241  0.2409 -0.9339
 1892SOL     OW17134   3.929   3.687   6.151  0.3263 -0.2326  0.4335
 1892SOL    HW117135   3.893   3.756   6.096 -0.0476  0.1353  1.1433
 1892SOL    HW217136   4.023   3.705   6.156  0.7617 -1.7403 -2.1429
 1893SOL     OW17137   1.951   1.529   1.785  0.0014 -0.1897  0.4307
 1893SOL    HW117138   1.931   1.556   1.875  1.4966  0.9506  0.4258
 1893SOL    HW217139   1.959   1.612   1.738 -1.6098  0.2086  0.8619
 1894SOL     OW17140   3.231   3.656  15.156 -0.2741 -0.3930  0.3049
 1894SOL    HW117141   3.310   3.706  15.134  0.0030 -0.4473  1.1980
 1894SOL    HW217142   3.226   3.670  15.250 -0.7847 -0.7648  0.3330
 1895SOL     OW17143   2.411   0.091  14.769  0.7345  1.1073 -0.8421
 1895SOL    HW117144   2.455   0.016  14.729 -0.4035 -1.3078  2.4352
 1895SOL    HW217145   2.413   0.138  14.686 -0.8799  0.5531 -1.1966
 1896SOL     OW17146   0.336   3.504   8.871  0.0362 -0.1587  0.1399
 1896SOL    HW117147   0.359   3.456   8.791  1.3460  1.1742 -0.2841
 1896SOL    HW217148   0.423   3.536   8.895  0.3804  1.0338 -2.6674
 1897SOL     OW17149   0.212   3.039   9.033 -0.1275  0.1008 -0.3379
 1897SOL    HW117150   0.184   3.100   9.101  2.0282  0.6958  0.0169
 1897SOL    HW217151   0.290   3.003   9.075 -0.9471 -2.0977 -0.6993
 1898SOL     OW17152   1.637   2.362   5.778  0.2637 -0.1055  0.0203
 1898SOL    HW117153   1.697   2.326   5.713 -1.9885 -2.5119 -0.6809
 1898SOL    HW217154   1.602   2.437   5.730 -1.0870 -1.6667 -1.4128
 1899SOL     OW17155   1.464   4.663   5.652 -0.0191  0.1485  0.1000
 1899SOL    HW117156   1.382   4.703   5.680 -1.1970 -0.5005 -2.4388
 1899SOL    HW217157   1.508   4.665   5.737  0.6873  0.2796 -0.2645
 1900SOL     OW17158   3.003   0.657   8.797  0.0155 -0.1624  0.5297
 1900SOL    HW117159   3.064   0.697   8.735  2.2993 -3.6839  0.5227
 1900SOL    HW217160   3.007   0.564   8.774  0.6319 -0.0526  0.1923
 1901SOL     OW17161   3.146   3.081   9.807  0.4703  0.5180 -0.4702
 1901SOL    HW117162   3.119   3.079   9.899  0.8935  1.8586 -0.3191
 1901SOL    HW217163   3.095   3.155   9.775  0.3442  0.6683  0.0855
 1902SOL     OW17164   4.611   2.032  14.745  0.0864 -0.6702  0.1493
 1902SOL    HW117165   4.658   1.957  14.782 -0.9398 -0.9664  0.8443
 1902SOL    HW217166   4.590   1.993  14.660  0.2797  1.9248 -1.0680
 1903SOL     OW17167   3.457   2.617   2.361  0.2183  0.2236 -0.2029
 1903SOL    HW117168   3.457   2.673   2.439  1.4224 -0.1664  0.0790
 1903SOL    HW217169   3.367   2.585   2.362  0.7914 -1.3693 -0.7250
 1904SOL     OW17170   0.631   1.204   3.801  0.0658 -0.3670 -0.1532
 1904SOL    HW117171   0.568   1.134   3.818 -0.6541  0.4388  0.4424
 1904SOL    HW217172   0.712   1.156   3.782  0.8703  0.4955  1.1348
 1905SOL     OW17173   1.986   1.460   4.619 -0.2889  0.1799  0.1074
 1905SOL    HW117174   1.976   1.383   4.674  0.5386  0.1347  0.1881
 1905SOL    HW217175   2.062   1.506   4.654 -0.4063  0.6821 -0.2874
 1906SOL     OW17176   4.371   3.579   2.871 -0.2836 -0.5799  0.0292
 1906SOL    HW117177   4.431   3.505   2.866 -0.4946 -0.5834 -2.4529
 1906SOL    HW217178   4.413   3.649   2.921  1.5673 -1.5975 -0.1308
 1907SOL     OW17179   3.514   3.579   0.170  0.0004 -0.1069 -0.2674
 1907SOL    HW117180   3.450   3.508   0.175 -0.2275  0.1772  0.9317
 1907SOL    HW217181   3.482   3.638   0.238  1.7862 -0.2611  0.7232
 1908SOL     OW17182   1.958   4.343   3.019  0.3898 -0.5543 -0.2436
 1908SOL    HW117183   1.964   4.417   3.080 -0.3906 -0.6487 -0.0530
 1908SOL    HW217184   1.901   4.384   2.954 -1.0973 -2.5165 -0.1607
 1909SOL     OW17185   2.806   3.834   4.720 -0.3756 -0.1813  0.3019
 1909SOL    HW117186   2.745   3.905   4.738 -1.4562 -1.6455  2.4392
 1909SOL    HW217187   2.767   3.753   4.753 -1.3027  0.2326  0.1994
 1910SOL     OW17188   4.567   1.573   8.861 -0.4524  0.1583 -0.4806
 1910SOL    HW117189   4.591   1.506   8.925  0.3812  1.0702  0.1592
 1910SOL    HW217190   4.505   1.629   8.908 -1.1837 -0.2988 -0.8956
 1911SOL     OW17191   0.067   0.485   5.510  0.1382 -0.4794 -0.1261
 1911SOL    HW117192   0.082   0.495   5.604  2.4646 -0.1047 -0.5539
 1911SOL    HW217193   0.153   0.513   5.478 -0.7940  1.2806 -1.0885
 1912SOL     OW17194   2.055   0.169   5.135 -0.5336  0.3659 -0.4542
 1912SOL    HW117195   1.999   0.245   5.149 -1.5817 -0.4291 -0.3322
 1912SOL    HW217196   2.124   0.204   5.079  1.2018 -0.9662  0.8683
 1913SOL     OW17197   1.379   3.920   7.368  0.4517 -0.3966 -0.1043
 1913SOL    HW117198   1.375   3.824   7.371 -0.3713 -0.3624  0.0873
 1913SOL    HW217199   1.301   3.945   7.418  0.5068  0.2945 -0.3685
 1914SOL     OW17200   3.753   3.143  14.424  0.2701 -0.2962  0.1400
 1914SOL    HW117201   3.836   3.190  14.419  0.6046 -1.0772 -1.5889
 1914SOL    HW217202   3.724   3.143  14.515 -1.1785  1.3151 -0.3157
 1915SOL     OW17203   1.213   3.211   3.308 -0.0742  0.3637 -0.2490
 1915SOL    HW117204   1.218   3.119   3.283 -1.0874  0.1417  0.3902
 1915SOL    HW217205   1.128   3.223   3.350 -0.1496 -2.0899  0.3008
 1916SOL     OW17206   0.345   3.620  14.302  0.0077  0.5650 -0.3805
 1916SOL    HW117207   0.328   3.679  14.228 -0.1798 -0.1649 -0.9276
 1916SOL    HW217208   0.420   3.568  14.273  1.0696  0.8663  1.8315
 1917SOL     OW17209   3.446   4.141  11.848 -0.2674 -0.0340  0.1222
 1917SOL    HW117210   3.359   4.181  11.855 -0.8681 -1.3335  0.0666
 1917SOL    HW217211   3.503   4.198  11.796 -2.0751  0.3350 -1.4578
 1918SOL     OW17212   0.875   0.386  17.469 -0.0752 -0.8110 -0.0582
 1918SOL    HW117213   0.783   0.397  17.444 -1.1408 -3.0163  2.8720
 1918SOL    HW217214   0.892   0.296  17.442  1.4639 -0.6012  0.2194
 1919SOL     OW17215   3.752   1.000   4.124 -0.1504  0.2510  0.4638
 1919SOL    HW117216   3.843   0.973   4.111  0.9397  2.9912  2.3138
 1919SOL    HW217217   3.716   0.974   4.039 -0.2876 -3.2356  1.5887
 1920SOL     OW17218   2.918   1.117   2.393  0.2898 -0.4054  0.2078
 1920SOL    HW117219   2.972   1.192   2.420 -2.0340  0.8512  1.3931
 1920SOL    HW217220   2.975   1.049   2.429  0.9262  0.1936  0.3381
 1921SOL     OW17221   1.132   0.406   9.103  0.5559 -0.1406 -0.4094
 1921SOL    HW117222   1.147   0.337   9.039 -1.2932 -1.6767  0.8075
 1921SOL    HW217223   1.156   0.482   9.051  1.6081 -0.3248 -0.2041
 1922SOL     OW17224   2.251   3.749   3.863  0.6348 -0.1482  0.6426
 1922SOL    HW117225   2.249   3.757   3.767  0.7924  1.0509  0.7404
 1922SOL    HW217226   2.315   3.678   3.867 -2.0728 -2.6300 -0.3997
 1923SOL     OW17227   1.587   3.048  15.230 -0.2825 -0.2447  0.3507
 1923SOL    HW117228   1.513   3.042  15.169  1.5905  1.0376 -2.0431
 1923SOL    HW217229   1.664   3.006  15.191 -0.4932 -1.1665  0.9118
 1924SOL     OW17230   0.846   2.533  10.094 -0.3176  0.3207  0.4106
 1924SOL    HW117231   0.840   2.438  10.080 -0.9059  0.2040  1.4612
 1924SOL    HW217232   0.924   2.553  10.042  0.3761 -1.2920  0.8265
 1925SOL     OW17233   3.812   0.999   2.131  0.0468 -0.0166 -0.3243
 1925SOL    HW117234   3.736   0.958   2.089 -1.3072  0.3563  1.8220
 1925SOL    HW217235   3.774   1.082   2.159 -2.4586 -1.0279 -0.7104
 1926SOL     OW17236   2.777   2.351   2.113 -0.8162  0.0778  0.1465
 1926SOL    HW117237   2.781   2.433   2.064  1.1484 -0.1347 -0.0121
 1926SOL    HW217238   2.867   2.322   2.103  0.4557  4.4705 -1.1438
 1927SOL     OW17239   4.523   0.407   4.726 -0.1985  0.8068  0.1759
 1927SOL    HW117240   4.566   0.393   4.641 -2.4523 -1.1907 -0.6339
 1927SOL    HW217241   4.441   0.451   4.703 -0.9800 -0.7437 -0.0627
 1928SOL     OW17242   4.230   0.047   5.828 -0.8939 -0.4768 -0.3861
 1928SOL    HW117243   4.304   0.090   5.786 -0.9514 -0.2750 -0.2770
 1928SOL    HW217244   4.159   0.074   5.770 -0.5705 -0.4776 -0.7811
 1929SOL     OW17245   0.402   2.022   1.258  0.6124 -0.0984  0.1357
 1929SOL    HW117246   0.400   2.114   1.287  2.1378 -0.3382  0.9741
 1929SOL    HW217247   0.374   2.027   1.166 -1.4870 -2.5153  0.6570
 1930SOL     OW17248   0.526   2.392   6.779  0.3774 -0.1033 -0.2914
 1930SOL    HW117249   0.494   2.323   6.721 -0.6947  0.0516  0.1016
 1930SOL    HW217250   0.494   2.468   6.730 -2.4103 -1.7583 -1.0928
 1931SOL     OW17251   0.823   3.327   6.298  0.2426  0.2547  0.1038
 1931SOL    HW117252   0.734   3.324   6.334  0.7596 -0.4268  1.3323
 1931SOL    HW217253   0.845   3.419   6.285  2.3103 -0.3018 -0.3859
 1932SOL     OW17254   0.692   4.599   7.988  0.4075 -0.5932  0.5658
 1932SOL    HW117255   0.724   4.511   7.967  2.4557  0.1153  0.6886
 1932SOL    HW217256   0.721   4.601   8.080  3.2169 -2.7621 -0.2530
 1933SOL     OW17257   0.175   2.830   8.837 -0.6758  0.2100  0.1682
 1933SOL    HW117258   0.089   2.834   8.880 -1.1852  1.5200 -0.9536
 1933SOL    HW217259   0.221   2.872   8.909  0.2182 -1.0070  0.2868
 1934SOL     OW17260   0.452   1.615   1.380  0.1150 -0.0709 -0.6149
 1934SOL    HW117261   0.488   1.565   1.307  1.4094  2.0279 -1.4240
 1934SOL    HW217262   0.364   1.579   1.392  0.0214  0.7944  1.2649
 1935SOL     OW17263   1.941   1.009  14.015 -0.5148 -0.0879 -0.0687
 1935SOL    HW117264   1.903   0.923  14.035  0.1687 -0.4385 -0.2765
 1935SOL    HW217265   1.858   1.049  13.987 -0.7491 -1.4188 -1.3018
 1936SOL     OW17266   2.409   3.287  12.631  0.4132 -0.3764 -0.0893
 1936SOL    HW117267   2.457   3.330  12.701  0.6753 -1.0643  0.1558
 1936SOL    HW217268   2.477   3.228  12.599  0.4135 -0.2479 -0.3256
 1937SOL     OW17269   3.881   3.447   3.988  0.4122 -0.5332  0.0036
 1937SOL    HW117270   3.805   3.425   4.042 -0.6266 -0.1579 -1.3203
 1937SOL    HW217271   3.908   3.529   4.029  1.7620 -1.8458  1.7476
 1938SOL     OW17272   1.718   1.462   5.448 -0.2660 -0.1402 -0.4149
 1938SOL    HW117273   1.810   1.437   5.441  0.5584  2.3977  1.1049
 1938SOL    HW217274   1.695   1.403   5.520 -2.2045  1.1034 -0.0034
 1939SOL     OW17275   2.324   4.591   4.941  0.1872 -0.4899 -0.2744
 1939SOL    HW117276   2.271   4.536   4.999  1.8688  0.1503  1.8973
 1939SOL    HW217277   2.367   4.515   4.902 -1.3195 -0.7857 -1.3705
 1940SOL     OW17278   0.173   0.286   1.885  0.3440 -0.1280 -0.0406
 1940SOL    HW117279   0.263   0.297   1.916 -0.1391 -0.3868  1.4527
 1940SOL    HW217280   0.187   0.353   1.817 -0.5461 -1.1635 -1.2379
 1941SOL     OW17281   4.360   2.360  16.696 -0.1951 -0.6399  0.1150
 1941SOL    HW117282   4.279   2.351  16.747 -0.7852  1.3174 -0.4967
 1941SOL    HW217283   4.349   2.281  16.643 -1.9787 -0.7276  0.6013
 1942SOL     OW17284   0.177   1.019   6.257  0.1829  0.3188  0.4275
 1942SOL    HW117285   0.082   1.012   6.262  0.0272  0.5854 -2.0069
 1942SOL    HW217286   0.215   0.934   6.280 -0.5094 -0.3304 -0.7807
 1943SOL     OW17287   3.825   2.809  11.454  0.2436 -0.0700  0.0936
 1943SOL    HW117288   3.778   2.829  11.535 -0.1578  0.3757 -0.2450
 1943SOL    HW217289   3.906   2.855  11.477  1.0805 -2.3130  1.6024
 1944SOL     OW17290   4.339   4.308  12.696  0.3341  0.4617 -0.3841
 1944SOL    HW117291   4.297   4.304  12.610  1.0687 -0.6388 -0.6980
 1944SOL    HW217292   4.416   4.252  12.682  0.7087  1.3474 -1.9115
 1945SOL     OW17293   3.857   1.157  11.517 -0.0097  0.3764 -0.1177
 1945SOL    HW117294   3.839   1.249  11.538 -2.3734 -0.0635 -0.2387
 1945SOL    HW217295   3.822   1.152  11.428 -0.4916  3.4051 -0.0889
 1946SOL     OW17296   3.143   3.601   9.554 -0.4239 -0.0147  0.5985
 1946SOL    HW117297   3.209   3.613   9.486 -1.9631  1.1038 -0.7036
 1946SOL    HW217298   3.099   3.686   9.561 -1.4019 -0.4363 -0.4580
 1947SOL     OW17299   1.329   3.482   3.685 -0.4628 -0.2163  0.2102
 1947SOL    HW117300   1.266   3.421   3.724 -1.8466 -0.0253 -1.7204
 1947SOL    HW217301   1.294   3.492   3.597  0.8736  0.3409 -0.2494
 1948SOL     OW17302   4.139   2.065   4.935  0.3362 -0.5944  0.6332
 1948SOL    HW117303   4.092   2.122   4.873  1.0794  0.6860  1.2450
 1948SOL    HW217304   4.092   1.982   4.934 -0.2395 -0.2782  1.8722
 1949SOL     OW17305   3.049   3.215   9.291 -0.3671 -0.5896 -0.1591
 1949SOL    HW117306   3.012   3.278   9.230  0.2815 -0.9837 -0.9536
 1949SOL    HW217307   3.136   3.253   9.308 -0.5292  0.6766 -2.2123
 1950SOL     OW17308   4.693   0.992   5.969  0.0594 -0.0646 -0.7535
 1950SOL    HW117309   4.672   0.929   6.038  1.6946  0.1342 -0.0860
 1950SOL    HW217310   0.059   0.988   5.935  0.6721 -0.2044  0.8859
 1951SOL     OW17311   0.690   2.254   0.326  0.4113 -0.5939 -0.4246
 1951SOL    HW117312   0.662   2.164   0.343  0.5635 -0.7215 -0.8401
 1951SOL    HW217313   0.735   2.240   0.242  0.6894  1.4662 -0.6105
 1952SOL     OW17314   4.473   0.643  10.820 -0.2718  0.3484  0.3287
 1952SOL    HW117315   4.537   0.699  10.777  0.8837  0.2989  1.9896
 1952SOL    HW217316   4.484   0.656  10.915 -0.3083 -1.1793  0.5505
 1953SOL     OW17317   2.176   3.944  12.888  0.0621  0.2225 -0.2132
 1953SOL    HW117318   2.271   3.946  12.871  0.0645 -0.9057 -0.3509
 1953SOL    HW217319   2.167   3.998  12.967 -3.7181 -1.0236  0.1619
 1954SOL     OW17320   0.460   4.118   2.980  0.4072 -0.3213 -0.1862
 1954SOL    HW117321   0.402   4.043   2.966 -0.1374 -0.2661  1.8388
 1954SOL    HW217322   0.546   4.080   2.963  0.5568  0.6788 -1.6768
 1955SOL     OW17323   3.735   0.959   5.578 -0.2000 -0.4615  0.2395
 1955SOL    HW117324   3.713   0.867   5.566  0.1479 -1.0060  3.6261
 1955SOL    HW217325   3.827   0.940   5.597 -0.1628 -2.1516 -1.6312
 1956SOL     OW17326   3.915   0.566   5.226  0.4407 -0.3707  0.0163
 1956SOL    HW117327   3.985   0.558   5.291  0.3609  1.1451  0.2813
 1956SOL    HW217328   3.888   0.474   5.230 -0.2588 -0.1393  0.5963
 1957SOL     OW17329   2.651   1.437   0.945  0.1573 -0.0799  0.0600
 1957SOL    HW117330   2.591   1.385   0.998  0.2563 -1.2602 -0.9635
 1957SOL    HW217331   2.713   1.370   0.914 -1.4000 -1.6497  0.3701
 1958SOL     OW17332   3.918   2.635  10.157  0.3551 -0.2518 -0.0511
 1958SOL    HW117333   3.864   2.570  10.202 -0.0201  0.9444  1.2263
 1958SOL    HW217334   3.969   2.578  10.099 -0.5698 -1.6444  0.5295
 1959SOL     OW17335   2.330   3.854   5.120 -0.1542  0.2729  0.0833
 1959SOL    HW117336   2.255   3.811   5.161 -1.6032 -2.0236 -4.8939
 1959SOL    HW217337   2.326   3.815   5.032  1.2807 -0.9568  0.5795
 1960SOL     OW17338   1.716   3.301   5.754 -0.1662 -0.1557 -0.3593
 1960SOL    HW117339   1.693   3.212   5.729  0.5585 -0.4718  0.1146
 1960SOL    HW217340   1.651   3.349   5.701 -0.2636  0.9243  0.7460
 1961SOL     OW17341   3.913   4.706   2.966 -0.1230 -0.2656 -0.2889
 1961SOL    HW117342   3.960   4.641   2.914 -2.3566 -3.0478  1.2229
 1961SOL    HW217343   3.882   0.039   2.896  0.2231 -0.6293 -0.7339
 1962SOL     OW17344   2.238   2.118   8.128  0.1990 -0.5999 -0.2774
 1962SOL    HW117345   2.210   2.053   8.193 -0.9404  0.5850  0.4121
 1962SOL    HW217346   2.326   2.149   8.150  0.6479 -1.2618 -1.1392
 1963SOL     OW17347   1.052   4.523   6.964 -0.1114  0.0448  0.2095
 1963SOL    HW117348   1.018   4.514   7.053  0.0260 -0.6560  0.1919
 1963SOL    HW217349   1.102   4.442   6.958 -0.6127 -0.1640 -1.0153
 1964SOL     OW17350   3.927   0.298  16.121 -0.6252  0.2666 -0.5124
 1964SOL    HW117351   3.867   0.248  16.065 -1.2137  1.0690 -0.5955
 1964SOL    HW217352   3.867   0.323  16.192  1.4629 -0.2429  1.4237
 1965SOL     OW17353   3.957   0.449   6.127  0.1133  0.0588 -0.3505
 1965SOL    HW117354   3.991   0.523   6.076 -0.0399  0.0296 -0.4969
 1965SOL    HW217355   3.934   0.501   6.204  2.8551 -0.0019  0.4869
 1966SOL     OW17356   4.617   3.509   5.549  0.9899  0.1439  0.5339
 1966SOL    HW117357   4.601   3.557   5.630 -0.6015  0.3803  0.0771
 1966SOL    HW217358   4.708   3.478   5.558  0.3949 -1.5229  0.8952
 1967SOL     OW17359   2.639   2.382   3.947 -0.2956 -0.4050  0.0554
 1967SOL    HW117360   2.583   2.442   3.898  3.6864  1.4892 -2.1771
 1967SOL    HW217361   2.691   2.447   3.993 -1.1498  1.7897 -2.1048
 1968SOL     OW17362   1.779   0.674   4.131  0.5178  0.3766 -0.1795
 1968SOL    HW117363   1.853   0.613   4.138  0.4269  0.4468  1.4133
 1968SOL    HW217364   1.748   0.648   4.044  1.0665  1.3686 -0.6747
 1969SOL     OW17365   3.788   3.679   5.825 -0.2109 -0.0885 -0.5923
 1969SOL    HW117366   3.794   3.755   5.767  0.7492  0.5818  0.3779
 1969SOL    HW217367   3.870   3.634   5.804  0.0277 -0.7381  1.6827
 1970SOL     OW17368   4.105   0.110   2.395 -0.1540 -0.3748 -0.7435
 1970SOL    HW117369   4.137   0.029   2.356  1.8722  0.6577 -1.2334
 1970SOL    HW217370   4.180   0.133   2.450 -0.7772 -1.2573  0.4630
 1971SOL     OW17371   4.499   3.755   4.914 -0.0429 -0.1017  0.0808
 1971SOL    HW117372   4.577   3.809   4.924  1.9092 -2.1267 -4.2525
 1971SOL    HW217373   4.462   3.759   5.002  0.4046  0.5805  0.2302
 1972SOL     OW17374   2.512   2.063  14.898 -0.1059 -0.0561 -0.6836
 1972SOL    HW117375   2.537   2.021  14.815 -0.0419  0.8485 -1.1205
 1972SOL    HW217376   2.453   1.995  14.930  0.9274 -0.2357  0.8390
 1973SOL     OW17377   0.363   2.420   4.804  0.4025 -0.3979  0.1646
 1973SOL    HW117378   0.372   2.490   4.739 -2.4477 -0.4522 -0.2798
 1973SOL    HW217379   0.268   2.407   4.808  0.4600 -0.8659 -0.0915
 1974SOL     OW17380   4.644   3.699   6.887 -0.3511 -0.4285 -0.0408
 1974SOL    HW117381   4.593   3.764   6.936  0.9484  0.7478 -0.2783
 1974SOL    HW217382   4.668   3.743   6.806  0.2279 -0.4971  0.0933
 1975SOL     OW17383   0.450   0.803  14.626  0.0630  0.4429  0.2547
 1975SOL    HW117384   0.412   0.742  14.563  1.9682 -0.6780  0.1923
 1975SOL    HW217385   0.508   0.742  14.672  1.1383  0.6842 -0.8017
 1976SOL     OW17386   1.724   3.309  16.390 -0.0627  0.5244  0.0645
 1976SOL    HW117387   1.761   3.392  16.418  2.9192 -1.5343  2.2013
 1976SOL    HW217388   1.785   3.294  16.318  1.1036  1.5177  0.8633
 1977SOL     OW17389   3.715   2.096   3.893  0.4855 -0.5533  0.5925
 1977SOL    HW117390   3.692   2.064   3.806 -0.7715  1.8540  0.0644
 1977SOL    HW217391   3.639   2.152   3.905  0.5618 -0.7330  1.9207
 1978SOL     OW17392   0.571   0.796   2.637  0.2974 -0.4048 -0.1178
 1978SOL    HW117393   0.516   0.861   2.594  0.8341 -0.2867 -0.6208
 1978SOL    HW217394   0.649   0.850   2.650  1.3537 -1.3118 -2.8500
 1979SOL     OW17395   1.321   2.290  17.596  0.3040  0.7275  0.0485
 1979SOL    HW117396   1.286   2.300  17.508 -0.2485  0.8976  0.2857
 1979SOL    HW217397   1.279   2.213  17.634  2.3133 -0.0600  0.6686
 1980SOL     OW17398   4.629   1.312  14.428  0.7668 -0.3812  0.1623
 1980SOL    HW117399   4.697   1.347  14.486  0.8361 -0.9500  0.4172
 1980SOL    HW217400   4.682   1.240  14.394  0.8893  0.3919 -1.3121
 1981SOL     OW17401   2.289   2.955   5.662  0.0398  0.4055 -0.4517
 1981SOL    HW117402   2.196   2.932   5.659  0.8308 -2.5764 -1.8930
 1981SOL    HW217403   2.318   2.887   5.601 -0.8858  1.7075 -2.3486
 1982SOL     OW17404   4.581   2.248   5.229 -0.1585  0.1537  0.1122
 1982SOL    HW117405   4.519   2.302   5.278 -0.5965  0.6589 -1.0011
 1982SOL    HW217406   4.540   2.265   5.144 -1.6526 -1.5122  0.5056
 1983SOL     OW17407   1.239   4.079   1.089  0.0361  0.3502  0.3346
 1983SOL    HW117408   1.253   4.172   1.069 -2.6426  1.2158  2.5030
 1983SOL    HW217409   1.216   4.043   1.004 -2.1858  1.2874  0.5292
 1984SOL     OW17410   1.394   2.986   3.622  0.1177 -0.0313  0.3204
 1984SOL    HW117411   1.406   2.892   3.637 -1.0149 -0.5335 -1.8322
 1984SOL    HW217412   1.471   3.009   3.570 -0.9532  2.7358 -0.0247
 1985SOL     OW17413   2.951   1.967   2.666  0.0613 -0.1208 -0.5099
 1985SOL    HW117414   2.894   1.964   2.590  1.5577 -0.3027 -1.6353
 1985SOL    HW217415   2.881   1.945   2.727  2.0377 -2.7638  0.8439
 1986SOL     OW17416   2.563   1.051   7.710  0.1692 -0.3626  0.3973
 1986SOL    HW117417   2.596   1.113   7.775 -0.0299 -0.4481  0.5826
 1986SOL    HW217418   2.527   1.106   7.640  0.2374 -0.6508  0.1341
 1987SOL     OW17419   2.431   2.129   6.046  0.0074 -0.0732 -0.4946
 1987SOL    HW117420   2.525   2.124   6.057 -0.3245 -2.9502  1.2107
 1987SOL    HW217421   2.398   2.077   6.119  0.1617  1.8343  0.9231
 1988SOL     OW17422   1.246   2.845   7.265 -0.0855  0.2384  0.4476
 1988SOL    HW117423   1.337   2.874   7.278 -0.3383 -0.3326  3.5427
 1988SOL    HW217424   1.253   2.750   7.257  0.0677  0.2754  0.1451
 1989SOL     OW17425   0.055   3.714   2.135 -0.1064 -0.0554 -0.3188
 1989SOL    HW117426   0.104   3.649   2.084  0.1607  1.5864 -2.1439
 1989SOL    HW217427   0.105   3.791   2.109 -0.3803  0.1118 -0.3530
 1990SOL     OW17428   0.986   0.257  11.042 -0.2702  0.0914 -0.1494
 1990SOL    HW117429   1.070   0.268  10.998 -0.1800 -3.3318 -0.8693
 1990SOL    HW217430   1.004   0.193  11.111 -3.0314  0.2392  0.7159
 1991SOL     OW17431   1.455   2.398   4.863  0.4141 -0.0847 -0.2257
 1991SOL    HW117432   1.442   2.476   4.810 -3.1814  1.2746  2.7083
 1991SOL    HW217433   1.547   2.412   4.884  0.4099  0.2748 -0.4489
 1992SOL     OW17434   2.853   2.092   7.758 -0.4160 -0.1417 -0.6841
 1992SOL    HW117435   2.930   2.101   7.701  0.4449  0.5933  0.6096
 1992SOL    HW217436   2.853   1.998   7.775  1.3686 -0.1229 -0.5992
 1993SOL     OW17437   4.190   2.128   8.059 -0.1603 -0.2531  0.2777
 1993SOL    HW117438   4.269   2.073   8.057  0.0363  0.0851 -1.1688
 1993SOL    HW217439   4.137   2.086   8.127 -0.4014 -1.9294 -0.9156
 1994SOL     OW17440   1.852   4.122  12.830  0.6509  0.5832  0.0495
 1994SOL    HW117441   1.771   4.174  12.834  0.8893  0.8406  1.4540
 1994SOL    HW217442   1.879   4.124  12.922  1.1498 -0.4474 -0.0809
 1995SOL     OW17443   0.486   3.057   3.646  0.2659 -0.0486  0.0808
 1995SOL    HW117444   0.507   2.972   3.606 -2.4401 -0.3729 -0.6908
 1995SOL    HW217445   0.393   3.050   3.667  0.6791 -1.1035  1.5290
 1996SOL     OW17446   2.972   1.689   7.566 -0.1490  0.0707 -0.0326
 1996SOL    HW117447   2.963   1.752   7.638 -1.5565 -0.4904  0.2897
 1996SOL    HW217448   2.943   1.605   7.603 -1.6007  0.9797  0.9394
 1997SOL     OW17449   3.870   1.642   4.403 -0.3761 -0.3022  0.5079
 1997SOL    HW117450   3.792   1.680   4.364  0.6977  0.2615 -1.0922
 1997SOL    HW217451   3.940   1.697   4.369 -0.4886 -0.4276  0.0769
 1998SOL     OW17452   4.598   3.243  15.070  0.1187 -0.1236  0.1404
 1998SOL    HW117453   4.615   3.266  14.979 -1.1566 -0.3530 -0.1567
 1998SOL    HW217454   4.552   3.323  15.096 -0.5254 -0.3266 -0.3714
 1999SOL     OW17455   1.848   3.846  12.992 -0.1680  0.1558 -0.0682
 1999SOL    HW117456   1.881   3.856  13.082 -1.2878  2.3097  0.0914
 1999SOL    HW217457   1.760   3.882  12.989  0.0586  0.7028 -0.2717
 2000SOL     OW17458   1.786   2.865   5.893  0.2000 -0.3285 -0.2860
 2000SOL    HW117459   1.798   2.940   5.951 -4.2657  1.4358 -1.7285
 2000SOL    HW217460   1.786   2.792   5.955 -1.2215 -0.2565 -0.2194
 2001SOL     OW17461   1.410   4.414   2.745 -0.2615 -0.0984  0.6275
 2001SOL    HW117462   1.443   4.396   2.833  0.0233 -1.0513  0.3316
 2001SOL    HW217463   1.317   4.401   2.765 -0.6178  1.6202  0.1173
 2002SOL     OW17464   2.286   0.538  15.413  0.3248  0.0769  0.4189
 2002SOL    HW117465   2.321   0.473  15.351 -0.7981  0.6165 -0.7657
 2002SOL    HW217466   2.232   0.580  15.347 -0.7308 -1.8009  0.0831
 2003SOL     OW17467   4.128   1.472   8.373 -0.1809  0.2792  0.4624
 2003SOL    HW117468   4.051   1.440   8.421  0.3042 -2.9136 -0.9308
 2003SOL    HW217469   4.121   1.431   8.287 -0.1112  0.5462  0.3307
 2004SOL     OW17470   4.170   0.189  12.221  0.6694  0.0551 -0.4104
 2004SOL    HW117471   4.203   0.267  12.176 -0.8657  1.3849  0.7983
 2004SOL    HW217472   4.105   0.159  12.157 -0.0902  1.6998 -0.4103
 2005SOL     OW17473   1.358   1.690   4.305  0.3407 -0.0013  0.0828
 2005SOL    HW117474   1.279   1.680   4.357 -0.3471  1.1929 -0.7076
 2005SOL    HW217475   1.425   1.659   4.366 -0.5932 -1.0470  0.5622
 2006SOL     OW17476   2.456   3.302  14.228 -0.2438 -0.3208 -0.2772
 2006SOL    HW117477   2.474   3.395  14.213  1.7316 -1.0242 -2.1812
 2006SOL    HW217478   2.543   3.267  14.250  0.9423  3.2290  0.7340
 2007SOL     OW17479   0.873   4.591   0.455  0.3372 -0.2360 -0.0405
 2007SOL    HW117480   0.789   4.630   0.432 -0.5253 -0.0944  3.2892
 2007SOL    HW217481   0.866   4.503   0.419 -1.1557  0.1462 -0.6975
 2008SOL     OW17482   4.482   1.670   1.329 -0.1341  0.2067 -0.1066
 2008SOL    HW117483   4.480   1.757   1.369  1.8069  0.0111  0.4251
 2008SOL    HW217484   4.448   1.684   1.241 -0.5549  2.5858  0.4246
 2009SOL     OW17485   3.475   3.949  16.490  0.4485  0.2799 -0.0502
 2009SOL    HW117486   3.547   3.971  16.430  0.7770 -0.1227  0.1994
 2009SOL    HW217487   3.517   3.890  16.552 -0.7919 -0.8646 -0.2821
 2010SOL     OW17488   2.640   0.338   6.173 -0.3480 -0.8322  0.2458
 2010SOL    HW117489   2.599   0.369   6.253 -2.6932 -0.5562 -1.0694
 2010SOL    HW217490   2.599   0.252   6.176  1.8650 -1.9143 -0.2348
 2011SOL     OW17491   0.683   1.778   9.987 -0.3933  0.2873 -0.3385
 2011SOL    HW117492   0.695   1.695   9.942 -0.8360 -0.8420  1.6409
 2011SOL    HW217493   0.591   1.801   9.969 -0.4343  0.5472  0.2078
 2012SOL     OW17494   1.768   0.232  12.436 -0.2844 -0.5889  0.5000
 2012SOL    HW117495   1.860   0.257  12.420 -1.2282  1.0866 -2.3783
 2012SOL    HW217496   1.738   0.260  12.349  0.8290  1.6826  0.8445
 2013SOL     OW17497   4.413   4.526  13.636  0.8407 -0.0837 -0.6345
 2013SOL    HW117498   4.398   4.512  13.543 -0.0968  1.5511 -0.7251
 2013SOL    HW217499   4.452   4.614  13.637 -4.7299  2.3581 -4.1018
 2014SOL     OW17500   4.277   0.010   3.273  0.1446  0.4634  0.0012
 2014SOL    HW117501   4.183   0.002   3.257  0.0329  0.5707  0.6098
 2014SOL    HW217502   4.304   4.657   3.223  0.6023  0.5651  0.0942
 2015SOL     OW17503   3.925   1.135   8.169  0.9498  0.4091 -0.2702
 2015SOL    HW117504   3.918   1.040   8.181  1.0321  0.2572 -1.4500
 2015SOL    HW217505   4.011   1.141   8.128 -0.1544  0.7635 -2.5713
 2016SOL     OW17506   2.048   2.905   2.695  0.3472 -0.1606  0.5468
 2016SOL    HW117507   2.000   2.955   2.761 -2.3015  1.2691 -2.4757
 2016SOL    HW217508   2.119   2.881   2.754  1.5132  2.8922  0.3637
 2017SOL     OW17509   4.600   3.799  10.616  0.2867 -0.4510  0.2939
 2017SOL    HW117510   4.576   3.709  10.640 -0.7167 -0.4268 -0.6582
 2017SOL    HW217511   4.641   3.830  10.697 -0.8940 -0.0809  0.7430
 2018SOL     OW17512   0.549   0.354   2.248  0.0083  0.2985  0.0554
 2018SOL    HW117513   0.634   0.325   2.214  0.9065  1.2858  1.4999
 2018SOL    HW217514   0.540   0.288   2.317  0.1107  0.2238 -0.0030
 2019SOL     OW17515   3.589   2.620  10.373 -0.1051  0.1863 -0.3691
 2019SOL    HW117516   3.655   2.554  10.356 -0.1907  0.2553 -0.9971
 2019SOL    HW217517   3.519   2.562  10.402  0.0599  0.7687  1.2157
 2020SOL     OW17518   2.484   1.581   4.731 -0.1216  0.0581 -0.4006
 2020SOL    HW117519   2.509   1.492   4.758 -2.1626  0.0572  1.4730
 2020SOL    HW217520   2.450   1.626   4.809 -0.3990  1.4239 -1.3125
 2021SOL     OW17521   1.654   1.498   3.675  0.8094  0.8331 -0.1456
 2021SOL    HW117522   1.582   1.543   3.720  0.7987 -0.2469  0.9354
 2021SOL    HW217523   1.700   1.573   3.639  2.1637  0.6286  1.1672
 2022SOL     OW17524   1.339   0.520  17.483  0.7101 -0.1984 -0.0419
 2022SOL    HW117525   1.261   0.533  17.428  0.8627 -0.9377 -0.4266
 2022SOL    HW217526   1.341   0.425  17.495 -0.2616  0.1001  2.6212
 2023SOL     OW17527   1.437   1.083   3.612  0.3388 -0.7784 -0.2641
 2023SOL    HW117528   1.434   1.120   3.700 -0.6068  1.5453 -1.2883
 2023SOL    HW217529   1.521   1.037   3.614  1.1572  0.8292  2.9983
 2024SOL     OW17530   3.019   3.319  13.751  0.1745 -0.1533 -0.0380
 2024SOL    HW117531   3.032   3.396  13.806 -3.1335 -0.1493  0.7260
 2024SOL    HW217532   2.977   3.351  13.671  0.2592 -1.8771 -0.7973
 2025SOL     OW17533   1.565   0.759  17.690 -0.0100 -0.0728  0.8789
 2025SOL    HW117534   1.643   0.783   0.042 -0.1811  2.1654  0.0704
 2025SOL    HW217535   1.489   0.772   0.049 -0.4666  2.0926 -0.1949
 2026SOL     OW17536   3.529   0.315  16.198  0.6238 -0.1037  0.2450
 2026SOL    HW117537   3.500   0.327  16.108 -1.9641  3.8085  1.6202
 2026SOL    HW217538   3.521   0.221  16.217 -1.2724 -0.3674 -1.7658
 2027SOL     OW17539   0.711   2.893   7.147  0.2648 -0.0377 -0.4171
 2027SOL    HW117540   0.684   2.851   7.065  1.1647  0.1681 -0.8093
 2027SOL    HW217541   0.672   2.833   7.211 -0.7033  0.1860 -0.7838
 2028SOL     OW17542   3.568   0.844   2.932 -0.0959 -0.0310  0.2062
 2028SOL    HW117543   3.629   0.827   2.861 -0.0877 -1.2121  0.4931
 2028SOL    HW217544   3.572   0.763   2.983 -0.3384 -0.1946 -0.0379
 2029SOL     OW17545   0.513   3.835   3.599  0.3534  0.1845  0.2320
 2029SOL    HW117546   0.545   3.874   3.680  1.6509 -0.0061 -0.1976
 2029SOL    HW217547   0.436   3.890   3.580  0.6585  0.0111 -1.5335
 2030SOL     OW17548   2.855   4.491   2.230 -0.1545  0.3581  0.4559
 2030SOL    HW117549   2.825   4.429   2.296 -0.6389  0.6540  0.5169
 2030SOL    HW217550   2.784   4.555   2.230 -1.0119 -0.5975  1.2288
 2031SOL     OW17551   0.465   4.626  12.668  0.0475 -0.3578  0.1439
 2031SOL    HW117552   0.397   4.584  12.614 -1.3972  0.7453  1.0877
 2031SOL    HW217553   0.417   4.616  12.750  2.1146 -1.0723  1.2518
 2032SOL     OW17554   1.364   0.984   5.336  0.2993  0.1595  0.1925
 2032SOL    HW117555   1.307   0.996   5.412 -1.7629  0.1397 -1.3218
 2032SOL    HW217556   1.312   1.024   5.265 -0.2390  0.7855  0.9303
 2033SOL     OW17557   1.750   0.073   4.501  0.1567  0.2644  0.4400
 2033SOL    HW117558   1.710   0.011   4.561 -0.8550  0.9981  0.5160
 2033SOL    HW217559   1.838   0.036   4.501  0.1426  0.1939 -1.4931
 2034SOL     OW17560   4.029   4.423   7.953 -0.0587  0.1492 -0.3038
 2034SOL    HW117561   3.983   4.343   7.928  0.1351  0.1119 -0.5414
 2034SOL    HW217562   4.111   4.391   7.916  0.2300 -1.4615  1.7821
 2035SOL     OW17563   0.175   2.160  10.731  0.1607 -0.6129 -0.3531
 2035SOL    HW117564   0.249   2.111  10.769 -0.2239  1.0866  2.6332
 2035SOL    HW217565   0.192   2.146  10.638  0.1268 -1.0589 -0.2911
 2036SOL     OW17566   1.656   1.787   4.983  0.4138 -0.3618 -0.4065
 2036SOL    HW117567   1.689   1.701   5.007  0.7584  0.1168  0.8661
 2036SOL    HW217568   1.718   1.832   4.926  0.5525 -0.0106  0.0109
 2037SOL     OW17569   2.734   2.074   3.201  0.1862  0.5056  0.0868
 2037SOL    HW117570   2.810   2.024   3.231  0.9185  1.1045 -0.7727
 2037SOL    HW217571   2.755   2.063   3.108 -0.4426  0.9848 -0.1120
 2038SOL     OW17572   4.622   2.861   3.170 -0.3717  0.4363 -0.2158
 2038SOL    HW117573   4.551   2.818   3.217  0.7485 -1.4706 -0.2633
 2038SOL    HW217574   4.578   2.858   3.084 -0.5865 -1.4967 -0.0488
 2039SOL     OW17575   4.551   2.495  14.674 -0.6860 -0.0666  0.7925
 2039SOL    HW117576   4.574   2.561  14.609 -2.2389 -0.8044 -0.5057
 2039SOL    HW217577   4.459   2.516  14.689 -0.6838  1.6226 -1.5866
 2040SOL     OW17578   1.655   3.430   3.147  0.4560 -0.1356 -0.8805
 2040SOL    HW117579   1.567   3.457   3.121 -0.1681  0.5850  2.0143
 2040SOL    HW217580   1.636   3.378   3.224 -2.3335 -0.1100 -1.5608
 2041SOL     OW17581   3.514   1.180   3.881  0.7297  0.1518  0.5052
 2041SOL    HW117582   3.461   1.130   3.942 -2.5463  1.1423 -1.5651
 2041SOL    HW217583   3.552   1.101   3.844  0.5942 -0.5724  1.9124
 2042SOL     OW17584   0.386   1.001   5.412  0.0436  0.0386 -0.6245
 2042SOL    HW117585   0.293   1.005   5.391  0.2056  1.6972 -1.0235
 2042SOL    HW217586   0.434   0.987   5.330  0.6482  0.6141 -0.3686
 2043SOL     OW17587   2.851   0.748  10.546 -0.5349 -0.3120 -0.0324
 2043SOL    HW117588   2.919   0.693  10.584 -0.4441  1.8918  2.9482
 2043SOL    HW217589   2.770   0.706  10.576 -0.1591 -1.2178 -0.2849
 2044SOL     OW17590   2.316   4.412  14.314  0.1511  0.2412 -0.0033
 2044SOL    HW117591   2.316   4.333  14.261  1.4471 -0.5320  1.1313
 2044SOL    HW217592   2.221   4.421  14.318 -0.1363 -2.0246 -1.6701
 2045SOL     OW17593   3.281   2.636   8.318 -0.5963 -0.4809  0.1577
 2045SOL    HW117594   3.234   2.588   8.250  0.5053 -1.6672  0.2283
 2045SOL    HW217595   3.225   2.632   8.395  1.7194  1.4196  1.9481
 2046SOL     OW17596   3.874   3.447   9.706  0.0500  0.3980  0.9399
 2046SOL    HW117597   3.878   3.369   9.761  0.9856 -0.4052 -0.2610
 2046SOL    HW217598   3.925   3.510   9.757 -0.0049  2.4708 -1.5877
 2047SOL     OW17599   1.276   3.248  16.346 -0.0702  0.5524  0.4599
 2047SOL    HW117600   1.338   3.289  16.407 -0.1979  0.7235  0.4741
 2047SOL    HW217601   1.217   3.321  16.328 -0.8578  0.6334  3.3216
 2048SOL     OW17602   1.027   2.906   6.400 -0.1457  0.2675  0.1297
 2048SOL    HW117603   0.950   2.853   6.420 -1.5976  2.2334 -0.2370
 2048SOL    HW217604   1.089   2.873   6.465  0.0232 -2.7626 -1.5719
 2049SOL     OW17605   3.713   2.412   4.168 -0.6199  0.1692  0.0608
 2049SOL    HW117606   3.730   2.359   4.247  0.3306  1.0369  0.4371
 2049SOL    HW217607   3.658   2.348   4.123 -1.0658  0.4168  0.2444
 2050SOL     OW17608   2.569   1.106   8.112  0.1944 -0.1127 -0.1302
 2050SOL    HW117609   2.508   1.093   8.183 -0.9590 -2.6849 -1.6083
 2050SOL    HW217610   2.650   1.092   8.161  0.3882 -0.3645 -0.5168
 2051SOL     OW17611   1.966   0.114   7.467 -0.1653  0.6694 -0.5421
 2051SOL    HW117612   2.036   0.131   7.404 -0.2525  1.5226 -0.4126
 2051SOL    HW217613   1.912   0.192   7.453 -0.7265  0.4226  0.2364
 2052SOL     OW17614   1.144   3.839   2.745  0.0171  0.0515  0.0926
 2052SOL    HW117615   1.103   3.784   2.812  3.6724 -0.8542  1.6123
 2052SOL    HW217616   1.092   3.820   2.667  0.3723  0.9069 -0.3625
 2053SOL     OW17617   0.106   1.123   1.733  0.0287 -0.2694 -0.5225
 2053SOL    HW117618   0.115   1.188   1.663 -1.1489 -0.1085 -0.5145
 2053SOL    HW217619   0.013   1.103   1.730  0.0608 -1.0591  3.4117
 2054SOL     OW17620   4.716   0.526   7.695 -0.4403 -0.6725 -0.1776
 2054SOL    HW117621   4.684   0.449   7.648 -0.8203 -0.4098 -0.3529
 2054SOL    HW217622   0.085   0.507   7.703 -0.1101  0.7056 -0.6406
 2055SOL     OW17623   1.550   3.650   1.446  0.6072 -0.3426  0.8776
 2055SOL    HW117624   1.611   3.623   1.377  0.9520  0.7011  0.7807
 2055SOL    HW217625   1.596   3.663   1.529  0.8264  1.1561  0.5132
 2056SOL     OW17626   1.524   2.401  13.794  0.0764  0.3934  0.0915
 2056SOL    HW117627   1.493   2.473  13.739  1.4568  0.1313 -1.0427
 2056SOL    HW217628   1.615   2.421  13.816  0.4790  0.7210 -1.8428
 2057SOL     OW17629   0.850   2.317   6.708 -0.2507 -0.0275 -0.2128
 2057SOL    HW117630   0.803   2.282   6.633  0.6905  0.2242 -0.9315
 2057SOL    HW217631   0.889   2.394   6.667  0.1647  0.1609  0.5444
 2058SOL     OW17632   4.256   1.998  15.043  0.4729 -0.3845  0.3611
 2058SOL    HW117633   4.228   1.985  14.953 -0.7510 -1.1393  0.8502
 2058SOL    HW217634   4.263   1.906  15.069 -1.6531  0.8856  5.5531
 2059SOL     OW17635   2.842   2.140   4.326 -0.1279  0.5497  0.3196
 2059SOL    HW117636   2.781   2.066   4.324 -0.3729  0.7755 -0.9605
 2059SOL    HW217637   2.825   2.168   4.236  1.0843  2.3719  0.6548
 2060SOL     OW17638   4.521   3.924  12.483 -0.0190 -0.0400 -0.1052
 2060SOL    HW117639   4.537   3.959  12.396  0.5685 -1.4143 -0.5508
 2060SOL    HW217640   4.448   3.866  12.463  1.8159 -0.4100 -5.6104
 2061SOL     OW17641   2.822   3.144   6.530  0.3348 -0.5094 -0.7264
 2061SOL    HW117642   2.857   3.058   6.507  0.2378 -1.0627  1.2222
 2061SOL    HW217643   2.787   3.175   6.447 -1.6324  1.5493  0.8650
 2062SOL     OW17644   4.194   1.855  12.857  0.1411 -0.8005  0.7383
 2062SOL    HW117645   4.133   1.885  12.923 -1.2248 -2.1046  0.0636
 2062SOL    HW217646   4.235   1.941  12.846 -0.5504 -0.6720 -0.8616
 2063SOL     OW17647   3.089   0.405   1.941 -0.7132  0.4529  0.5327
 2063SOL    HW117648   3.014   0.447   1.984 -0.2444  1.1557  0.6529
 2063SOL    HW217649   3.084   0.319   1.982 -0.6000  0.1648 -0.0613
 2064SOL     OW17650   3.712   4.628  15.773  0.2563  0.0957 -0.8529
 2064SOL    HW117651   3.670   4.615  15.858 -0.2332 -1.8902 -1.3759
 2064SOL    HW217652   3.710   4.539  15.737 -0.0956  0.2777 -1.2871
 2065SOL     OW17653   3.148   3.077   5.109  0.6981 -0.4234 -0.1574
 2065SOL    HW117654   3.235   3.058   5.074  1.4980  0.6963  1.2211
 2065SOL    HW217655   3.170   3.146   5.172  2.3514 -1.4496  0.4074
 2066SOL     OW17656   1.473   1.351  16.800 -0.1707 -0.2913  0.3750
 2066SOL    HW117657   1.547   1.314  16.847  0.5301  0.3922 -0.1870
 2066SOL    HW217658   1.499   1.441  16.780 -2.3057  0.4805  1.0641
 2067SOL     OW17659   3.591   3.946   2.172  0.1514 -0.0397  0.0602
 2067SOL    HW117660   3.511   3.993   2.150 -0.1869 -0.9858 -0.7462
 2067SOL    HW217661   3.578   3.870   2.114 -1.3050 -0.5249  1.0250
 2068SOL     OW17662   0.451   3.260   0.602 -0.1319 -0.5042  0.2082
 2068SOL    HW117663   0.517   3.321   0.569 -0.8027  0.7359  1.1454
 2068SOL    HW217664   0.512   3.186   0.601  1.9370  1.2799 -3.8442
 2069SOL     OW17665   0.757   4.531   7.448 -0.2725 -0.0043 -0.5852
 2069SOL    HW117666   0.727   4.607   7.498 -1.0221 -1.6050  1.3832
 2069SOL    HW217667   0.706   4.460   7.486  0.5463  0.4307  1.3475
 2070SOL     OW17668   0.992   2.904  11.530  0.3033 -0.3594 -0.0244
 2070SOL    HW117669   0.904   2.933  11.505 -0.0056  1.2295  2.9390
 2070SOL    HW217670   0.990   2.918  11.625 -0.5720 -3.1283  0.3603
 2071SOL     OW17671   2.244   1.350   1.928  0.0577 -0.2803  0.1178
 2071SOL    HW117672   2.206   1.437   1.940 -0.3406 -0.5281  0.6425
 2071SOL    HW217673   2.337   1.369   1.914 -0.1217 -0.0917 -0.8281
 2072SOL     OW17674   0.269   2.766   4.167  0.4050 -0.6849 -0.3778
 2072SOL    HW117675   0.264   2.711   4.088  0.2422  0.6039 -1.2552
 2072SOL    HW217676   0.365   2.764   4.176  0.3446  1.9126  0.6608
 2073SOL     OW17677   4.204   0.275   5.446  0.3242 -0.4274  0.1153
 2073SOL    HW117678   4.212   0.210   5.376 -1.6340 -1.4202  0.7905
 2073SOL    HW217679   4.166   0.213   5.509  0.8952 -2.0451 -1.1246
 2074SOL     OW17680   3.289   1.518   3.623 -0.2860  0.2499  0.2096
 2074SOL    HW117681   3.297   1.539   3.716 -0.8700 -1.4157  0.6516
 2074SOL    HW217682   3.330   1.589   3.575 -0.7123  1.1876  1.2370
 2075SOL     OW17683   1.841   0.161   2.510  0.4268 -0.5090  0.0651
 2075SOL    HW117684   1.783   0.184   2.438  0.6021 -2.9424 -0.8299
 2075SOL    HW217685   1.906   0.228   2.490  1.5901 -0.8275  2.7202
 2076SOL     OW17686   1.012   1.021   0.506  0.5298 -0.8219  1.0003
 2076SOL    HW117687   0.967   1.074   0.572 -0.9126 -0.7982  0.0015
 2076SOL    HW217688   1.030   1.092   0.444  0.1087 -2.8605 -1.4139
 2077SOL     OW17689   2.979   2.451   1.773  0.1888  0.4042 -0.7470
 2077SOL    HW117690   2.934   2.402   1.703 -0.7668 -0.9077  0.7703
 2077SOL    HW217691   3.013   2.384   1.832  2.3415  2.1179 -0.0491
 2078SOL     OW17692   2.635   1.158  12.008 -1.4621  0.4296 -0.0719
 2078SOL    HW117693   2.711   1.121  11.963  0.3013  2.5949  1.1385
 2078SOL    HW217694   2.634   1.090  12.076 -1.7249  1.0418  0.5326
 2079SOL     OW17695   4.678   0.516  15.287 -0.7069  0.2770 -0.1604
 2079SOL    HW117696   4.673   0.605  15.324 -1.6155 -0.1347  0.7298
 2079SOL    HW217697   0.049   0.511  15.293 -0.7302 -0.1876 -0.2192
 2080SOL     OW17698   0.192   4.411   7.170  0.1919  0.0723  0.3759
 2080SOL    HW117699   0.269   4.430   7.224  0.0674  1.9096 -0.0788
 2080SOL    HW217700   0.235   4.423   7.085  0.7940  0.1819  0.6927
 2081SOL     OW17701   3.623   2.201   4.754 -0.0336  0.3258 -0.4878
 2081SOL    HW117702   3.553   2.261   4.779 -0.9361 -1.0091  0.1873
 2081SOL    HW217703   3.583   2.186   4.669  1.0124  0.6197 -1.0352
 2082SOL     OW17704   3.669   3.855  11.489  0.4602 -0.0647  0.0975
 2082SOL    HW117705   3.708   3.882  11.572 -0.6304 -0.0668  0.6063
 2082SOL    HW217706   3.597   3.919  11.488 -0.5109 -1.1553  1.2456
 2083SOL     OW17707   1.503   2.615   8.509 -0.3306 -0.1354 -0.3817
 2083SOL    HW117708   1.498   2.599   8.603  0.5153  2.1132  0.0529
 2083SOL    HW217709   1.503   2.709   8.490  0.1744 -0.2985 -1.2074
 2084SOL     OW17710   0.197   3.459  16.074 -0.0764  0.0944 -0.3341
 2084SOL    HW117711   0.232   3.431  16.158 -3.3324  1.9381  1.6438
 2084SOL    HW217712   0.213   3.553  16.081  2.6258 -0.3442 -0.7717
 2085SOL     OW17713   2.499   2.167  10.555 -0.2203 -0.0619 -0.3371
 2085SOL    HW117714   2.510   2.255  10.591 -1.1726  0.2549 -0.8227
 2085SOL    HW217715   2.572   2.153  10.495 -0.1013  0.2891 -0.2777
 2086SOL     OW17716   1.977   0.256   6.408  0.2073  0.0479  0.5365
 2086SOL    HW117717   2.058   0.305   6.392 -1.0039  1.3621 -1.4632
 2086SOL    HW217718   1.924   0.327   6.443  0.2061  0.1537  0.3147
 2087SOL     OW17719   4.039   0.411  17.350  0.2236 -0.6307 -0.1070
 2087SOL    HW117720   4.131   0.406  17.377 -0.2875  0.7787  1.8850
 2087SOL    HW217721   4.009   0.321  17.364 -1.5327 -0.1986 -1.1236
 2088SOL     OW17722   2.705   0.659   2.575  0.5967  0.4735  1.0109
 2088SOL    HW117723   2.631   0.627   2.523  0.0726 -0.0655  2.0844
 2088SOL    HW217724   2.777   0.598   2.556  1.8056  1.6840  1.7097
 2089SOL     OW17725   4.402   1.342   8.348 -0.4076 -0.2747 -0.3581
 2089SOL    HW117726   4.408   1.320   8.441  2.4689  3.1414  0.2947
 2089SOL    HW217727   4.315   1.383   8.344 -0.9222 -1.3051  0.2850
 2090SOL     OW17728   0.888   0.285   7.689 -0.9216  0.3029 -0.0110
 2090SOL    HW117729   0.938   0.264   7.767 -0.6746  1.7685  0.2192
 2090SOL    HW217730   0.938   0.339   7.627  0.4461 -0.5719  0.3515
 2091SOL     OW17731   0.048   4.279   6.603 -0.0602  0.4780 -0.2284
 2091SOL    HW117732   0.093   4.206   6.645 -1.5986 -0.2728  0.0727
 2091SOL    HW217733   4.719   4.312   6.675 -1.7663 -2.9589  0.0699
 2092SOL     OW17734   2.755   0.958  10.368  0.1689  0.2763 -0.0355
 2092SOL    HW117735   2.751   0.882  10.426 -0.0175 -0.3391 -0.8629
 2092SOL    HW217736   2.844   0.991  10.383 -0.1619  0.9733  0.4151
 2093SOL     OW17737   2.983   1.541  10.983 -0.3796 -0.5250 -0.1310
 2093SOL    HW117738   2.973   1.467  11.043  1.8204  0.3346  1.2938
 2093SOL    HW217739   2.955   1.613  11.039  1.5612  1.4577 -1.6969
 2094SOL     OW17740   1.486   3.281  16.759 -0.3855  0.0209 -0.0897
 2094SOL    HW117741   1.410   3.223  16.768  1.0867 -1.5510  2.2451
 2094SOL    HW217742   1.552   3.211  16.757  1.0063  1.4127 -2.5498
 2095SOL     OW17743   1.848   2.000  16.791 -0.3091  0.4144  0.5423
 2095SOL    HW117744   1.785   2.028  16.724 -0.5418  1.0708  1.0350
 2095SOL    HW217745   1.915   2.068  16.780  0.3603 -0.2759  0.3530
 2096SOL     OW17746   1.802   4.428   2.815 -0.3249 -0.3115  0.4858
 2096SOL    HW117747   1.732   4.376   2.776  0.1232 -0.4750 -0.0984
 2096SOL    HW217748   1.886   4.395   2.782 -1.4461 -3.1723  0.4844
 2097SOL     OW17749   3.172   1.692  10.848  0.0639  0.2618 -0.4134
 2097SOL    HW117750   3.133   1.625  10.903  0.8615 -0.4699 -0.7338
 2097SOL    HW217751   3.218   1.636  10.786  1.4405  0.2248  0.6527
 2098SOL     OW17752   4.013   1.010  13.998 -0.2042 -0.1148  0.1907
 2098SOL    HW117753   3.934   1.061  14.011 -1.0846 -1.1347 -1.1103
 2098SOL    HW217754   4.063   1.030  14.077 -0.2512 -1.6090  0.6046
 2099SOL     OW17755   4.532   1.464  15.751  0.3929 -0.0149  0.3037
 2099SOL    HW117756   4.601   1.514  15.710  1.1852 -1.4236 -0.0850
 2099SOL    HW217757   4.472   1.453  15.677 -0.8665  1.3621  1.1163
 2100SOL     OW17758   0.857   2.949   4.698 -0.5572  0.5004  0.0032
 2100SOL    HW117759   0.858   2.870   4.643  1.9833 -0.1225  0.9458
 2100SOL    HW217760   0.808   3.006   4.639  0.8467  0.1355 -1.4963
 2101SOL     OW17761   1.670   4.519   0.383  0.1447 -0.8984  0.1369
 2101SOL    HW117762   1.628   4.465   0.450  2.0728 -1.7995  0.6252
 2101SOL    HW217763   1.762   4.501   0.404  1.3409  2.1719 -2.4874
 2102SOL     OW17764   4.488   1.413  11.172 -0.8326  0.5351 -0.4588
 2102SOL    HW117765   4.478   1.354  11.247 -0.1268 -0.8877 -1.4870
 2102SOL    HW217766   4.406   1.461  11.181  0.7763  3.0096  0.9549
 2103SOL     OW17767   1.885   1.098   1.749  0.1313  0.6660  0.0465
 2103SOL    HW117768   1.946   1.165   1.720 -0.0690  1.6037  1.8013
 2103SOL    HW217769   1.950   1.040   1.787 -1.2225 -1.1149 -0.3198
 2104SOL     OW17770   1.082   3.576   9.477 -0.1291 -0.4351 -0.5107
 2104SOL    HW117771   1.150   3.510   9.474  0.8484  0.6511 -2.6635
 2104SOL    HW217772   1.117   3.636   9.543 -0.7164  0.6195 -1.1402
 2105SOL     OW17773   0.444   1.266   6.234  0.3327 -0.0661  0.7028
 2105SOL    HW117774   0.497   1.343   6.254  2.1506 -1.2995  0.7319
 2105SOL    HW217775   0.479   1.208   6.302 -0.2404 -1.4411 -0.1774
 2106SOL     OW17776   1.953   3.778   6.265 -0.3129 -0.1156 -0.2647
 2106SOL    HW117777   1.994   3.692   6.276 -1.2253 -0.5101  0.0946
 2106SOL    HW217778   1.894   3.792   6.339 -0.8853 -0.9933 -0.5487
 2107SOL     OW17779   4.664   1.259  13.856  0.1952 -0.1848 -0.1310
 2107SOL    HW117780   4.643   1.291  13.769  2.7570  3.0607  0.4618
 2107SOL    HW217781   4.698   1.340  13.894  1.4565 -1.4207  1.3968
 2108SOL     OW17782   2.633   1.756   3.318 -0.3097  0.3788  0.2047
 2108SOL    HW117783   2.695   1.738   3.248 -0.1342  0.1199  0.4256
 2108SOL    HW217784   2.565   1.693   3.294 -0.0263 -0.6320  2.0230
 2109SOL     OW17785   2.458   3.549  11.897  0.6854  0.0968 -0.6412
 2109SOL    HW117786   2.387   3.562  11.834  1.4681  2.3369 -1.0606
 2109SOL    HW217787   2.531   3.608  11.879  0.3812  0.5257 -0.4575
 2110SOL     OW17788   1.224   0.139  15.012  0.5737 -0.1421 -0.5786
 2110SOL    HW117789   1.197   0.204  15.077  1.3966  0.3535 -0.7381
 2110SOL    HW217790   1.201   0.056  15.054 -0.6577  0.8390  0.6808
 2111SOL     OW17791   0.420   0.744  14.320 -0.0725  0.3831  0.0846
 2111SOL    HW117792   0.339   0.793  14.304 -1.2390 -2.2733 -2.1600
 2111SOL    HW217793   0.407   0.658  14.279 -3.5255  0.9209  0.0535
 2112SOL     OW17794   2.684   3.459  10.764  0.3923 -0.0908 -0.1144
 2112SOL    HW117795   2.644   3.413  10.838 -2.4662  0.3601 -1.4232
 2112SOL    HW217796   2.626   3.535  10.765  1.9058  1.0767 -1.6772
 2113SOL     OW17797   0.239   0.488   1.688  0.8506 -0.9284 -0.4094
 2113SOL    HW117798   0.257   0.582   1.691  1.5131 -1.0804  0.1864
 2113SOL    HW217799   0.328   0.453   1.688  2.0213  2.0006 -2.5319
 2114SOL     OW17800   0.731   3.727   7.928  0.3975 -0.1186  0.0846
 2114SOL    HW117801   0.772   3.756   7.846  0.4405  1.0932  0.5285
 2114SOL    HW217802   0.727   3.634   7.906 -0.8668  0.2191 -1.1080
 2115SOL     OW17803   4.244   1.925   4.598 -0.2692 -0.2330  0.2196
 2115SOL    HW117804   4.311   1.946   4.664 -0.9303  2.3898  0.0317
 2115SOL    HW217805   4.232   1.832   4.616 -0.8842  0.3090  2.6216
 2116SOL     OW17806   0.920   3.448   2.842  0.0842 -0.1186 -0.1732
 2116SOL    HW117807   0.923   3.379   2.776 -2.1222 -0.1001 -0.2929
 2116SOL    HW217808   0.828   3.470   2.859 -0.3741 -1.3409 -1.0254
 2117SOL     OW17809   3.064   0.955   0.742 -0.0517 -0.0951  0.0488
 2117SOL    HW117810   3.059   0.918   0.654  0.9358 -2.4297  0.9756
 2117SOL    HW217811   2.995   0.904   0.783 -0.4974 -0.4986 -1.2294
 2118SOL     OW17812   3.892   1.673   8.359 -0.2558 -0.1566  0.2328
 2118SOL    HW117813   3.857   1.675   8.448 -1.0163  3.5760 -0.1545
 2118SOL    HW217814   3.965   1.734   8.374 -1.3055  0.4624  2.6743
 2119SOL     OW17815   0.151   1.112   1.000  0.1725  0.2399  0.8761
 2119SOL    HW117816   0.155   1.186   0.939 -1.3387 -1.4559 -1.2897
 2119SOL    HW217817   0.085   1.147   1.060 -0.8366  1.3607 -0.8975
 2120SOL     OW17818   4.092   3.358   5.038  0.1748  0.1995 -0.9284
 2120SOL    HW117819   4.163   3.370   4.974 -0.2311  0.1190 -1.3914
 2120SOL    HW217820   4.036   3.414   4.984  0.3548  2.9185  1.7017
 2121SOL     OW17821   4.359   4.197   8.867  0.4877 -0.1795  0.3179
 2121SOL    HW117822   4.300   4.157   8.932 -0.2593  0.3300 -0.0425
 2121SOL    HW217823   4.329   4.142   8.794  0.3573 -1.6251  1.4512
 2122SOL     OW17824   3.439   4.669   9.839 -0.1245 -0.5070  0.5552
 2122SOL    HW117825   3.468   0.035   9.853  2.2348 -1.1804  0.1278
 2122SOL    HW217826   3.441   4.662   9.743  0.6925  2.2192  0.3682
 2123SOL     OW17827   4.297   0.366  17.472  0.1305 -0.4221  1.0661
 2123SOL    HW117828   4.287   0.393  17.564 -0.9388  1.4674  0.3838
 2123SOL    HW217829   4.312   0.453  17.435 -0.0350 -0.5255  0.7585
 2124SOL     OW17830   4.173   3.630   2.705 -0.5698  0.0930  0.1203
 2124SOL    HW117831   4.238   3.629   2.775 -1.8377 -1.0828  1.2965
 2124SOL    HW217832   4.186   3.540   2.676 -2.5041 -0.7719  1.9083
 2125SOL     OW17833   2.160   3.483   3.308  0.4189 -0.0871  0.0631
 2125SOL    HW117834   2.205   3.494   3.225  0.7263  1.0231  0.3782
 2125SOL    HW217835   2.090   3.549   3.306  1.3740  0.9785  1.9981
 2126SOL     OW17836   3.892   4.419  16.459  0.6309  0.5880  0.4632
 2126SOL    HW117837   3.953   4.490  16.438  0.4625  0.7186  0.4222
 2126SOL    HW217838   3.963   4.357  16.477 -0.2072 -0.6867 -0.6660
 2127SOL     OW17839   1.260   2.763   4.616 -0.2319 -0.2017 -0.1752
 2127SOL    HW117840   1.231   2.684   4.571 -0.4082  0.2048 -0.7957
 2127SOL    HW217841   1.206   2.836   4.583  0.3298 -0.2890 -1.2845
 2128SOL     OW17842   0.378   4.179  17.208  0.3740  0.1063 -0.4775
 2128SOL    HW117843   0.423   4.111  17.158  2.3846 -1.1969  3.1272
 2128SOL    HW217844   0.322   4.205  17.135 -0.9876  0.5483  0.7382
 2129SOL     OW17845   4.034   0.500   4.577 -0.2851 -0.0867 -0.5594
 2129SOL    HW117846   3.989   0.503   4.662 -0.2095  0.8962 -0.5465
 2129SOL    HW217847   3.965   0.488   4.513 -0.9368 -1.1245  0.3436
 2130SOL     OW17848   1.352   2.490   2.112  1.1756  0.2757 -0.7749
 2130SOL    HW117849   1.277   2.488   2.053  0.8145  3.7475 -0.4244
 2130SOL    HW217850   1.419   2.472   2.045  2.8386 -1.8292  1.4813
 2131SOL     OW17851   0.594   4.272   8.338  0.4536 -0.4243  0.4756
 2131SOL    HW117852   0.647   4.192   8.340 -1.7876 -1.8796  1.0945
 2131SOL    HW217853   0.573   4.281   8.431  0.9975  0.7649  0.4952
 2132SOL     OW17854   2.079   4.013  16.531  0.1648  0.1393  0.7290
 2132SOL    HW117855   2.057   4.042  16.619  1.5938  2.3923  0.3373
 2132SOL    HW217856   2.140   4.075  16.492  0.2047 -0.2137  0.2204
 2133SOL     OW17857   3.515   1.574   5.481 -0.3477  0.1954  0.3730
 2133SOL    HW117858   3.546   1.493   5.440 -0.8707 -0.5783  1.5144
 2133SOL    HW217859   3.426   1.578   5.447 -0.2121  2.3498  0.2709
 2134SOL     OW17860   1.570   3.938   7.858  0.2904 -0.3100 -0.5035
 2134SOL    HW117861   1.587   3.888   7.937  1.2267  0.4926 -0.2004
 2134SOL    HW217862   1.509   4.005   7.889  0.8653  0.6776 -1.4723
 2135SOL     OW17863   3.871   2.616   2.727  0.1145 -0.6457 -0.9848
 2135SOL    HW117864   3.963   2.632   2.746  0.2074 -0.3713 -1.6645
 2135SOL    HW217865   3.876   2.615   2.632 -0.8120 -2.0686 -1.0184
 2136SOL     OW17866   1.648   1.253   3.480 -0.3972  0.3833 -0.5188
 2136SOL    HW117867   1.660   1.188   3.549 -1.4038  1.8994  1.0989
 2136SOL    HW217868   1.671   1.332   3.529 -0.6544 -0.0985  0.3834
 2137SOL     OW17869   4.687   3.728  13.332  0.1126 -0.8975 -0.1444
 2137SOL    HW117870   4.688   3.823  13.320  0.7092 -0.8114  0.6530
 2137SOL    HW217871   4.591   3.722  13.333 -0.0848  1.8880 -2.9404
 2138SOL     OW17872   3.797   3.602   6.855 -0.1622 -0.4172  0.1667
 2138SOL    HW117873   3.776   3.687   6.891 -0.0304  0.7511 -2.5029
 2138SOL    HW217874   3.760   3.594   6.767 -0.5239  2.6510  0.0513
 2139SOL     OW17875   1.072   2.083  11.811  0.2004 -0.3515 -0.2690
 2139SOL    HW117876   1.079   2.095  11.906 -1.5859 -1.2644 -0.0260
 2139SOL    HW217877   1.103   1.993  11.803 -2.1931 -1.4836  3.3086
 2140SOL     OW17878   4.548   2.074   7.644 -0.2187 -0.1783  0.1018
 2140SOL    HW117879   4.609   2.144   7.669  0.4375 -1.3278  1.7543
 2140SOL    HW217880   4.612   2.004   7.656 -0.7108 -0.9265 -1.6560
 2141SOL     OW17881   3.598   1.408   3.367  0.9497  0.5280  0.4893
 2141SOL    HW117882   3.607   1.312   3.371  1.4522  0.6163  1.5471
 2141SOL    HW217883   3.612   1.430   3.275 -0.8785  2.8278  0.7794
 2142SOL     OW17884   4.668   2.434   3.894  0.2273  0.2146  0.5567
 2142SOL    HW117885   4.627   2.445   3.808 -1.0210  0.2250  1.1695
 2142SOL    HW217886   4.650   2.511   3.946 -2.3292  2.4228 -3.5803
 2143SOL     OW17887   3.133   1.899   8.542 -0.1023  0.1753 -0.3227
 2143SOL    HW117888   3.170   1.971   8.490  0.6395  0.7355  0.9637
 2143SOL    HW217889   3.199   1.835   8.515 -2.3191 -1.0003 -2.8957
 2144SOL     OW17890   3.935   3.401  17.308  0.2026  0.0249 -0.2113
 2144SOL    HW117891   3.950   3.312  17.340  2.4784  0.5325  0.2062
 2144SOL    HW217892   3.976   3.464  17.369 -1.2403  1.7533 -1.0291
 2145SOL     OW17893   3.808   2.455  10.637  0.8131 -0.0427 -0.3020
 2145SOL    HW117894   3.727   2.442  10.587  0.5255  1.4065 -0.2159
 2145SOL    HW217895   3.791   2.409  10.719 -0.0790 -3.0307 -2.1470
 2146SOL     OW17896   4.552   4.268  11.334 -0.2499 -0.2241 -0.1500
 2146SOL    HW117897   4.589   4.356  11.337 -0.0356 -0.2690 -1.4549
 2146SOL    HW217898   4.490   4.291  11.265  1.1341  2.8266 -0.3680
 2147SOL     OW17899   1.651   1.235  14.155 -0.3605 -0.3682 -0.4694
 2147SOL    HW117900   1.643   1.216  14.061 -2.6562 -2.8786  0.2691
 2147SOL    HW217901   1.672   1.146  14.182  0.2852  0.8336  3.0109
 2148SOL     OW17902   0.145   3.190   8.816  0.6289  0.2234 -0.2604
 2148SOL    HW117903   0.162   3.120   8.879  2.3703  0.3591 -0.5685
 2148SOL    HW217904   0.143   3.257   8.885  1.1170 -0.2162  0.1808
 2149SOL     OW17905   3.460   0.961  10.140 -0.2642 -0.2558 -0.5937
 2149SOL    HW117906   3.491   1.041  10.097  0.2847 -0.7752 -1.1730
 2149SOL    HW217907   3.526   0.936  10.205  0.4486  2.5281 -0.2514
 2150SOL     OW17908   1.888   2.076   4.206  0.6897 -0.5323 -0.6109
 2150SOL    HW117909   1.965   2.114   4.248 -0.1541 -0.5772  0.9616
 2150SOL    HW217910   1.879   2.137   4.132  1.1244  1.4032  0.9504
 2151SOL     OW17911   2.285   1.442   6.953 -0.1963 -0.7933  0.2015
 2151SOL    HW117912   2.360   1.501   6.944  1.2494 -2.6204  0.5163
 2151SOL    HW217913   2.233   1.485   7.021 -1.8016  1.2841 -2.3063
 2152SOL     OW17914   1.110   3.217   9.862 -0.5660 -0.0609  0.0979
 2152SOL    HW117915   1.165   3.295   9.855 -0.7074  0.0660  0.4444
 2152SOL    HW217916   1.146   3.163   9.792 -0.1007 -1.3419  1.3321
 2153SOL     OW17917   3.121   0.460  17.666 -0.0629 -0.0458 -0.5051
 2153SOL    HW117918   3.088   0.448   0.058 -0.1655 -0.0522 -0.5445
 2153SOL    HW217919   3.065   0.534  17.645 -3.4923 -2.2246  0.9947
 2154SOL     OW17920   3.351   1.557   3.309 -0.0057  0.0000 -0.4903
 2154SOL    HW117921   3.421   1.508   3.353 -1.3224 -0.5604  0.9853
 2154SOL    HW217922   3.407   1.616   3.259 -2.3460  1.9458 -0.8005
 2155SOL     OW17923   0.757   0.939   1.657 -0.1503  0.1297  0.0001
 2155SOL    HW117924   0.713   0.954   1.573 -0.0534  0.9553  0.0927
 2155SOL    HW217925   0.794   1.024   1.682 -1.2712  0.7686 -0.4927
 2156SOL     OW17926   0.124   3.794   5.820  0.7668 -0.3563  0.3932
 2156SOL    HW117927   0.120   3.782   5.725  2.2362 -0.6318  0.3597
 2156SOL    HW217928   0.041   3.837   5.842  0.3701 -0.7353 -0.3620
 2157SOL     OW17929   1.298   1.731  15.412 -0.2163 -0.1894  0.3714
 2157SOL    HW117930   1.382   1.691  15.388 -0.3834 -0.7017  0.6449
 2157SOL    HW217931   1.248   1.649  15.410 -1.5427  0.6333  0.4936
 2158SOL     OW17932   1.202   2.238  17.323  0.1290  0.7867  0.4965
 2158SOL    HW117933   1.112   2.209  17.306 -0.4304  1.5377  2.2536
 2158SOL    HW217934   1.228   2.253  17.232 -2.5652  2.6527  0.0121
 2159SOL     OW17935   2.439   3.923   1.543  0.3169  0.3942 -0.2764
 2159SOL    HW117936   2.523   3.959   1.573  0.8027 -2.0293  1.2920
 2159SOL    HW217937   2.460   3.917   1.450 -1.1897 -0.6369 -0.5496
 2160SOL     OW17938   4.127   2.107   2.523 -0.3493  0.4644  0.1618
 2160SOL    HW117939   4.160   2.116   2.434  1.4558 -1.3627  0.6400
 2160SOL    HW217940   4.159   2.186   2.565 -0.6603 -1.2115  3.5450
 2161SOL     OW17941   1.601   1.415   1.152  0.3052 -0.0262  0.3687
 2161SOL    HW117942   1.534   1.455   1.208 -0.3858  0.2052 -0.6277
 2161SOL    HW217943   1.541   1.395   1.080 -0.3899 -1.5207  1.3629
 2162SOL     OW17944   4.656   0.878   8.137 -0.0477 -0.1699  0.3738
 2162SOL    HW117945   4.579   0.822   8.123 -1.1920  1.3424  0.6782
 2162SOL    HW217946   4.643   0.923   8.054 -1.1930 -0.4649  0.3919
 2163SOL     OW17947   3.660   1.086   7.591 -0.3005 -0.2482 -0.2339
 2163SOL    HW117948   3.752   1.083   7.565 -0.0184 -2.0607  0.9594
 2163SOL    HW217949   3.638   1.173   7.559 -0.1158 -0.1743 -0.1598
 2164SOL     OW17950   0.443   4.457   3.117  0.6532  0.7461 -0.0948
 2164SOL    HW117951   0.456   4.455   3.212  2.2129  1.7009 -0.3003
 2164SOL    HW217952   0.425   4.367   3.089  0.1797  1.3735 -1.7791
 2165SOL     OW17953   4.074   2.062   6.250 -0.2941 -0.1336  0.6513
 2165SOL    HW117954   4.096   2.154   6.241 -1.1150 -0.1772 -1.6363
 2165SOL    HW217955   4.164   2.030   6.259 -0.5581 -1.4176 -1.2267
 2166SOL     OW17956   2.889   2.939  14.032 -0.2420  0.5882  0.4909
 2166SOL    HW117957   2.959   2.889  13.991  0.6645  0.0353  2.6685
 2166SOL    HW217958   2.895   3.014  13.973 -0.0602 -1.3171 -1.8733
 2167SOL     OW17959   1.343   2.859   6.282 -0.2085 -0.1186  0.2509
 2167SOL    HW117960   1.407   2.906   6.228  0.1137  1.5733  2.1114
 2167SOL    HW217961   1.323   2.773   6.247 -0.5001 -0.1451  0.4890
 2168SOL     OW17962   1.528   0.443   1.177  0.2191  0.4268  0.5911
 2168SOL    HW117963   1.550   0.349   1.179 -0.5794  0.2156 -0.2154
 2168SOL    HW217964   1.536   0.448   1.272 -3.5662 -3.4954  1.1326
 2169SOL     OW17965   2.982   0.193   5.292  0.1516  0.3083  0.3308
 2169SOL    HW117966   3.035   0.237   5.225  2.2983  0.1748  1.9237
 2169SOL    HW217967   3.037   0.141   5.351 -1.7503 -3.4370 -1.1846
 2170SOL     OW17968   1.999   1.123  11.824 -0.2746 -0.7092 -0.4831
 2170SOL    HW117969   2.049   1.049  11.858  0.9297  0.2309 -0.2437
 2170SOL    HW217970   2.067   1.189  11.838 -0.1290 -1.0119  0.2423
 2171SOL     OW17971   1.996   2.056   7.445 -0.2038 -0.0461  0.2468
 2171SOL    HW117972   2.083   2.016   7.449 -0.5471 -0.8424 -0.2400
 2171SOL    HW217973   1.995   2.099   7.530 -1.2889  0.1249  0.1577
 2172SOL     OW17974   1.520   0.886   8.201 -0.0346  0.5107 -0.4530
 2172SOL    HW117975   1.480   0.931   8.275  0.5045 -2.7813  1.8246
 2172SOL    HW217976   1.585   0.952   8.177  0.7397  0.1526  0.6821
 2173SOL     OW17977   4.374   4.705   6.379  0.1112  0.3006 -0.0506
 2173SOL    HW117978   4.284   4.722   6.409  0.0088 -0.5386  0.1219
 2173SOL    HW217979   4.368   4.722   6.285 -0.4390 -0.0774 -0.0845
 2174SOL     OW17980   0.349   1.842   4.018  0.6341 -0.8271  0.3199
 2174SOL    HW117981   0.258   1.834   4.050  0.1302 -2.2136 -1.4573
 2174SOL    HW217982   0.333   1.913   3.956  0.4560 -2.2891 -1.3122
 2175SOL     OW17983   1.695   0.142  15.489 -0.2888 -0.2893 -0.7740
 2175SOL    HW117984   1.725   0.062  15.532  1.1614  2.4507  3.2871
 2175SOL    HW217985   1.778   0.180  15.459 -0.1714  0.0010 -0.0806
 2176SOL     OW17986   4.425   3.649  16.901  0.0034  0.5689 -0.4201
 2176SOL    HW117987   4.510   3.693  16.899  0.8721 -1.0749 -0.0690
 2176SOL    HW217988   4.434   3.605  16.986  0.0580  0.5672 -0.4269
 2177SOL     OW17989   2.672   4.189   2.095 -0.2389  0.2954  0.0434
 2177SOL    HW117990   2.733   4.127   2.055 -0.4490 -1.4009  2.3239
 2177SOL    HW217991   2.596   4.169   2.041  0.3421 -0.7608 -0.3724
 2178SOL     OW17992   4.483   1.347   3.698 -0.0613 -0.4688  0.4598
 2178SOL    HW117993   4.466   1.390   3.614 -0.4839  0.0725  0.8191
 2178SOL    HW217994   4.402   1.296   3.710  1.4212 -2.7553  0.8902
 2179SOL     OW17995   0.549   0.378   3.960 -0.0127  0.1435 -0.1309
 2179SOL    HW117996   0.556   0.284   3.974  0.5940  0.5443  2.2111
 2179SOL    HW217997   0.637   0.416   3.964  0.5310 -1.3059  1.5299
 2180SOL     OW17998   0.184   2.088  13.646 -0.6543  0.2823  0.8696
 2180SOL    HW117999   0.216   2.130  13.567  0.8100  1.0873  1.8972
 2180SOL    HW218000   0.134   2.016  13.608  2.0225 -0.9797 -0.1989
 2181SOL     OW18001   0.275   2.810   1.675 -0.1841 -0.0722 -0.1378
 2181SOL    HW118002   0.324   2.873   1.623  1.5756  0.5566  2.2860
 2181SOL    HW218003   0.325   2.819   1.756  0.5131  2.1957 -0.8182
 2182SOL     OW18004   2.367   0.322  11.557  0.8337  0.0754  0.5528
 2182SOL    HW118005   2.356   0.416  11.548 -0.3052 -0.0908  0.2347
 2182SOL    HW218006   2.289   0.296  11.507 -0.3486  1.4688  1.6967
 2183SOL     OW18007   3.019   0.460   3.931 -0.0014 -0.1511 -0.2459
 2183SOL    HW118008   2.996   0.403   3.858  3.1983 -1.6490 -0.0546
 2183SOL    HW218009   2.933   0.496   3.954 -0.8090 -0.0570 -3.4144
 2184SOL     OW18010   1.708   1.742   6.994  0.4730  0.0205  0.2323
 2184SOL    HW118011   1.650   1.667   7.004  2.0245 -1.1241  0.7218
 2184SOL    HW218012   1.687   1.806   7.062  0.9263 -0.4799  0.8488
 2185SOL     OW18013   4.231   3.213   4.494  0.3008  0.1876  0.2091
 2185SOL    HW118014   4.307   3.198   4.550  0.4503  0.1080 -0.0161
 2185SOL    HW218015   4.212   3.302   4.525 -0.6775 -0.1664  0.6250
 2186SOL     OW18016   3.978   0.316   7.578  0.0170  0.2539 -0.1645
 2186SOL    HW118017   4.073   0.307   7.577  0.0989  1.0994 -0.0666
 2186SOL    HW218018   3.982   0.381   7.507 -0.1343  1.2331  0.7217
 2187SOL     OW18019   4.715   0.524  10.673  0.3386  0.3828  0.4156
 2187SOL    HW118020   4.706   0.617  10.651  0.7548 -0.0820 -1.6701
 2187SOL    HW218021   0.031   0.528  10.760  0.9922 -0.5694  0.1514
 2188SOL     OW18022   0.445   0.480  10.682 -0.6485 -0.2752  0.0745
 2188SOL    HW118023   0.391   0.434  10.746 -1.0528 -0.2828 -0.2676
 2188SOL    HW218024   0.410   0.432  10.607 -0.5486 -0.1177 -0.0731
 2189SOL     OW18025   2.273   4.319   3.011 -0.3836  0.6470 -0.2791
 2189SOL    HW118026   2.198   4.334   2.954  0.6597 -0.4133 -1.9259
 2189SOL    HW218027   2.347   4.334   2.951  0.9629  0.6216  1.3714
 2190SOL     OW18028   1.797   1.307   8.713 -0.0051  0.0280 -0.0525
 2190SOL    HW118029   1.720   1.363   8.707  0.0837  0.3385  1.6392
 2190SOL    HW218030   1.817   1.310   8.807 -3.5120  1.3068  0.6448
 2191SOL     OW18031   0.147   1.027   9.708 -0.2280  0.1441  0.2134
 2191SOL    HW118032   0.146   0.946   9.657  1.1263 -0.5632  1.3095
 2191SOL    HW218033   0.145   1.085   9.632 -1.6206 -1.1133 -0.7078
 2192SOL     OW18034   4.712   1.793   7.192  0.1806  0.2436  0.1255
 2192SOL    HW118035   0.034   1.823   7.270  0.5856 -0.3417  0.1196
 2192SOL    HW218036   4.684   1.708   7.227 -0.0899  0.6048  0.7735
 2193SOL     OW18037   2.673   0.263   2.234  0.2601  0.1411  0.1252
 2193SOL    HW118038   2.622   0.298   2.308 -0.3601 -1.5399  0.4846
 2193SOL    HW218039   2.761   0.241   2.266 -0.5361 -1.1648  1.3813
 2194SOL     OW18040   1.053   1.215   3.625  0.2323  0.5531  0.3031
 2194SOL    HW118041   1.077   1.258   3.543  1.5694  0.5856  0.7168
 2194SOL    HW218042   1.037   1.293   3.678 -1.1470 -0.5229  1.4903
 2195SOL     OW18043   0.062   4.252  16.579  0.1169  0.0034  0.0570
 2195SOL    HW118044   0.025   4.340  16.592 -0.7646 -0.8419  3.0937
 2195SOL    HW218045   4.708   4.200  16.559  0.6304 -1.8314  2.9410
 2196SOL     OW18046   3.444   2.383  13.511  0.3273 -0.1064 -0.5189
 2196SOL    HW118047   3.445   2.466  13.465  4.8360  0.2138  0.0879
 2196SOL    HW218048   3.353   2.379  13.540 -0.3354 -0.4024 -2.6456
 2197SOL     OW18049   3.152   3.968  15.428 -0.7579 -0.2208  0.2119
 2197SOL    HW118050   3.092   4.006  15.363  1.8011  2.7621 -0.4056
 2197SOL    HW218051   3.215   4.039  15.439  1.1431 -2.0576  1.2533
 2198SOL     OW18052   2.109   3.810   4.572  0.3200 -0.6149  0.0001
 2198SOL    HW118053   2.074   3.860   4.498  0.1419  0.0649  0.5338
 2198SOL    HW218054   2.197   3.796   4.538  0.3417 -1.0156  0.2171
 2199SOL     OW18055   0.432   3.041   3.957 -0.9268 -0.0661 -0.2294
 2199SOL    HW118056   0.442   3.124   3.910 -0.6839  0.9031  1.5477
 2199SOL    HW218057   0.502   2.981   3.930 -1.3987 -0.1762 -1.2367
 2200SOL     OW18058   0.646   3.850   1.017  0.3866 -0.5198  0.1228
 2200SOL    HW118059   0.587   3.924   1.030 -1.3825 -2.4099  2.7952
 2200SOL    HW218060   0.578   3.786   0.998  1.0147 -1.4743  1.0801
 2201SOL     OW18061   0.788   1.072   5.203  0.1019  0.7821  0.2078
 2201SOL    HW118062   0.703   1.037   5.175 -0.2750  0.5180  1.6544
 2201SOL    HW218063   0.773   1.065   5.298  1.2442 -0.4091  0.3021
 2202SOL     OW18064   0.399   1.037   8.646  0.4663 -0.7067  0.0660
 2202SOL    HW118065   0.350   1.109   8.605 -1.3170 -1.5201  0.7861
 2202SOL    HW218066   0.427   0.981   8.574  3.2722  1.1621 -0.3097
 2203SOL     OW18067   2.904   2.837   3.956 -0.2378  0.4921 -0.1203
 2203SOL    HW118068   2.856   2.758   3.980  1.3186  0.0992  1.6834
 2203SOL    HW218069   2.834   2.900   3.937 -1.4185 -0.6922  0.3404
 2204SOL     OW18070   3.022   1.563   1.715 -0.1769  0.2355  0.0833
 2204SOL    HW118071   2.957   1.515   1.665 -0.1984 -0.4333  0.7576
 2204SOL    HW218072   3.037   1.503   1.788  1.3486  1.5395  0.8431
 2205SOL     OW18073   1.805   2.701  14.402  0.4965 -0.1434  0.2053
 2205SOL    HW118074   1.891   2.674  14.434  0.5767 -1.6030 -1.2245
 2205SOL    HW218075   1.764   2.615  14.407  0.4538 -0.1839 -0.8424
 2206SOL     OW18076   2.350   3.921   9.649  0.7099  0.2333 -0.1726
 2206SOL    HW118077   2.332   3.898   9.558  1.3371  1.0436 -0.5015
 2206SOL    HW218078   2.442   3.895   9.660  0.5948  0.1988  0.7354
 2207SOL     OW18079   2.629   0.493  11.110  0.7557 -0.0964  0.4501
 2207SOL    HW118080   2.621   0.465  11.201  0.1973 -1.0655  0.1025
 2207SOL    HW218081   2.545   0.456  11.086  0.0641 -0.7107  3.7938
 2208SOL     OW18082   0.690   0.106   1.973  0.1217  0.4780 -0.0427
 2208SOL    HW118083   0.759   0.045   1.997  0.4460  0.4750 -0.9946
 2208SOL    HW218084   0.612   0.058   2.001  0.1462  0.7535  0.4996
 2209SOL     OW18085   4.548   3.447   0.734 -0.2497 -0.4109  0.5362
 2209SOL    HW118086   4.490   3.375   0.711  0.4012 -0.5772 -0.5465
 2209SOL    HW218087   4.515   3.470   0.821 -1.4011 -1.6381  0.4101
 2210SOL     OW18088   1.393   4.459  15.484 -0.9233 -0.2510 -0.1720
 2210SOL    HW118089   1.449   4.440  15.559 -1.5098  3.9700  1.3744
 2210SOL    HW218090   1.463   4.478  15.422  1.3504  3.0273  3.4257
 2211SOL     OW18091   2.535   0.004   5.045  0.8284 -0.3238 -0.0928
 2211SOL    HW118092   2.468   4.675   5.002 -0.8808  2.2929 -0.6721
 2211SOL    HW218093   2.513   0.090   5.010 -0.2464 -0.4164  0.3687
 2212SOL     OW18094   3.356   0.275  11.941  0.0721 -0.5762  0.3414
 2212SOL    HW118095   3.280   0.323  11.974 -0.4184 -0.3504 -1.1154
 2212SOL    HW218096   3.403   0.290  12.023  0.7247  0.4168 -0.2112
 2213SOL     OW18097   1.391   4.701  13.274  0.2342  0.2202 -0.5123
 2213SOL    HW118098   1.337   0.034  13.330  1.5114 -0.1397  1.0962
 2213SOL    HW218099   1.460   0.037  13.246 -0.5015  1.1395 -0.3661
 2214SOL     OW18100   3.878   4.590   8.073  0.1562 -0.3444 -0.5756
 2214SOL    HW118101   3.861   4.555   8.160  1.1361 -1.3075 -0.7667
 2214SOL    HW218102   3.927   4.525   8.022  1.1507 -1.3308  1.6544
 2215SOL     OW18103   0.384   1.123   3.999 -0.3504  0.4709 -0.9599
 2215SOL    HW118104   0.304   1.170   4.023 -0.5937 -1.7572  2.5490
 2215SOL    HW218105   0.368   1.093   3.910  0.7185 -1.2979 -0.5440
 2216SOL     OW18106   2.975   3.127   8.838  0.2806 -0.3953 -0.0802
 2216SOL    HW118107   3.004   3.050   8.887  1.4571 -0.4622 -0.8828
 2216SOL    HW218108   2.972   3.077   8.756  0.2121  1.7620 -1.3933
 2217SOL     OW18109   2.674   2.250   6.305  0.2141 -0.2565  0.7357
 2217SOL    HW118110   2.617   2.284   6.236 -0.7483 -1.4792  0.9370
 2217SOL    HW218111   2.708   2.333   6.338 -1.7354  1.1068 -0.6810
 2218SOL     OW18112   3.211   3.845   2.314  0.0701  0.1816  0.1479
 2218SOL    HW118113   3.269   3.777   2.279  0.4887 -0.0274  1.2524
 2218SOL    HW218114   3.254   3.920   2.274 -0.2222  0.7559  0.9162
 2219SOL     OW18115   1.022   0.280   2.853  0.0091  0.3601  0.4121
 2219SOL    HW118116   0.978   0.217   2.797  0.5340 -1.2911  1.8657
 2219SOL    HW218117   0.960   0.353   2.850 -0.9616 -0.4733  0.6162
 2220SOL     OW18118   2.616   2.978   8.197 -0.4989  0.0095  0.1247
 2220SOL    HW118119   2.667   2.927   8.261 -1.6793 -0.0665  1.0087
 2220SOL    HW218120   2.535   2.974   8.248 -0.9400 -2.0305 -0.7491
 2221SOL     OW18121   0.310   1.572   5.394 -0.1730  0.3234  0.1937
 2221SOL    HW118122   0.403   1.582   5.376 -0.0712  0.4559  0.7856
 2221SOL    HW218123   0.282   1.541   5.308 -0.4046 -1.3615  0.8652
 2222SOL     OW18124   0.439   3.047   5.801  0.3876 -0.3808 -0.1673
 2222SOL    HW118125   0.369   3.003   5.753  2.4711 -1.1467 -2.5015
 2222SOL    HW218126   0.460   3.118   5.741  0.9929 -0.1028  0.3658
 2223SOL     OW18127   1.667   1.658   1.650  0.2121  0.1253  0.4570
 2223SOL    HW118128   1.628   1.574   1.625 -0.7976  1.3506 -2.0822
 2223SOL    HW218129   1.760   1.635   1.647  0.2285  0.0884  1.2872
 2224SOL     OW18130   3.000   2.490   7.399  0.0045 -0.2156  0.0555
 2224SOL    HW118131   3.075   2.485   7.458 -1.0765 -1.1001  1.3790
 2224SOL    HW218132   2.933   2.460   7.462 -0.2711 -0.1853 -0.2242
 2225SOL     OW18133   3.577   0.593   8.330  0.6189 -0.0386 -0.0746
 2225SOL    HW118134   3.590   0.613   8.237 -0.1403  1.0669  0.0531
 2225SOL    HW218135   3.482   0.609   8.337  0.3764 -1.6380  0.1923
 2226SOL     OW18136   3.297   0.156   0.029  0.0469  0.0870  0.4497
 2226SOL    HW118137   3.347   0.234   0.054  1.1228 -0.9985  1.6858
 2226SOL    HW218138   3.237   0.191  17.661  1.5976 -0.4370 -1.2390
 2227SOL     OW18139   2.810   2.514   2.975 -0.4817 -0.1108 -0.0663
 2227SOL    HW118140   2.891   2.533   2.929 -0.2836 -0.0006  0.3289
 2227SOL    HW218141   2.744   2.543   2.912  1.0512  2.3823 -0.5005
 2228SOL     OW18142   1.613   3.921  14.829 -0.6606  0.1748 -0.1063
 2228SOL    HW118143   1.542   3.964  14.782 -0.8948 -0.7949 -0.6405
 2228SOL    HW218144   1.570   3.856  14.885 -0.4705  0.0560 -0.0966
 2229SOL     OW18145   2.122   1.557  16.696  0.2835 -0.4405  0.3864
 2229SOL    HW118146   2.099   1.465  16.682 -0.9334 -0.1598  0.5385
 2229SOL    HW218147   2.133   1.562  16.791  0.3978  0.7587  0.3102
 2230SOL     OW18148   3.617   1.139  14.989 -0.3726 -0.5055 -0.7068
 2230SOL    HW118149   3.611   1.150  15.084  1.9907  0.2670 -0.6463
 2230SOL    HW218150   3.627   1.230  14.964 -0.2492 -0.1159  0.7685
 2231SOL     OW18151   4.198   4.386   2.062 -0.0180  0.1144  0.2965
 2231SOL    HW118152   4.106   4.394   2.089 -0.2224 -2.9989  0.5343
 2231SOL    HW218153   4.196   4.355   1.971 -0.4652 -1.1254  0.7288
 2232SOL     OW18154   2.337   1.621  15.890 -0.0656 -0.3447  0.1555
 2232SOL    HW118155   2.326   1.620  15.985 -1.2476 -4.7793 -0.0034
 2232SOL    HW218156   2.306   1.711  15.880 -3.3703 -1.3771  1.1956
 2233SOL     OW18157   1.473   1.573   7.010 -0.1904  0.5636 -0.3700
 2233SOL    HW118158   1.448   1.481   7.016  0.8003  0.3129 -0.1235
 2233SOL    HW218159   1.435   1.612   7.088 -0.6189  1.3081 -0.9545
 2234SOL     OW18160   3.968   2.503   7.705 -0.4355 -0.0408 -0.0267
 2234SOL    HW118161   3.932   2.495   7.794  0.4599 -0.3398  0.3121
 2234SOL    HW218162   4.063   2.495   7.716 -0.7728 -2.5794  1.2168
 2235SOL     OW18163   2.371   3.530   4.123  0.3474  0.5863 -0.2382
 2235SOL    HW118164   2.277   3.527   4.105  0.3989 -1.8653 -0.1616
 2235SOL    HW218165   2.411   3.517   4.037  0.4765 -3.5973  0.4239
 2236SOL     OW18166   0.947   3.596   8.930  0.3559 -0.4054 -0.1886
 2236SOL    HW118167   0.982   3.633   9.011  0.2779 -1.2699  0.2325
 2236SOL    HW218168   0.911   3.515   8.964  1.6513 -0.6742  0.5522
 2237SOL     OW18169   3.437   0.997   2.140  0.0015  0.0585  0.2946
 2237SOL    HW118170   3.491   0.929   2.099 -0.6678 -0.6306  0.5427
 2237SOL    HW218171   3.393   1.038   2.066 -0.1128 -1.6004 -0.5613
 2238SOL     OW18172   3.984   4.607   5.541  0.2352  0.0283 -0.3342
 2238SOL    HW118173   3.902   4.594   5.493 -1.8258  1.0665  2.9027
 2238SOL    HW218174   4.051   4.618   5.474 -0.3770 -1.7221 -1.2370
 2239SOL     OW18175   0.922   3.049  13.283 -0.2489  0.7262  0.6339
 2239SOL    HW118176   0.897   2.957  13.276  0.8541  0.6383 -2.1778
 2239SOL    HW218177   0.978   3.062  13.207  0.4252  0.6169  1.1181
 2240SOL     OW18178   2.116   3.706   5.168 -0.2351 -0.5203  0.4809
 2240SOL    HW118179   2.078   3.714   5.081  1.7334  1.2856 -0.2182
 2240SOL    HW218180   2.053   3.748   5.226 -0.7562 -2.6308  1.4406
 2241SOL     OW18181   1.185   1.694   2.782 -0.0505  0.3723 -0.1520
 2241SOL    HW118182   1.154   1.606   2.760  0.5833 -0.1477  1.0165
 2241SOL    HW218183   1.164   1.747   2.706  3.3390  2.3579  0.2998
 2242SOL     OW18184   3.251   1.501   6.817 -0.3053 -0.1837 -0.1097
 2242SOL    HW118185   3.224   1.485   6.727  0.7269 -0.5416 -0.3566
 2242SOL    HW218186   3.345   1.485   6.810 -0.0879  0.2669  1.6679
 2243SOL     OW18187   2.958   1.244  13.093  0.0232  0.3068 -0.0927
 2243SOL    HW118188   2.910   1.181  13.148 -2.4954  1.7217 -0.6458
 2243SOL    HW218189   2.909   1.319  13.126  1.5143  0.9758  0.5699
 2244SOL     OW18190   3.453   2.030   0.365  0.2480  0.0926  0.3008
 2244SOL    HW118191   3.390   1.964   0.393  1.0534 -0.6364  0.4173
 2244SOL    HW218192   3.392   2.087   0.319  0.5724  0.0474 -0.1954
 2245SOL     OW18193   0.356   4.589  13.511 -0.1516 -0.7481 -0.2591
 2245SOL    HW118194   0.296   4.559  13.579  0.3936 -1.3882 -0.0533
 2245SOL    HW218195   0.403   4.506  13.501  2.7360  0.8010  0.4308
 2246SOL     OW18196   3.921   1.274   1.616 -0.4803  0.4399  0.3119
 2246SOL    HW118197   3.869   1.197   1.638 -0.4972  0.7599  1.3767
 2246SOL    HW218198   3.939   1.310   1.703  0.5567  2.3110 -0.6714
 2247SOL     OW18199   3.684   1.635   3.474 -0.3163  0.0251  0.5589
 2247SOL    HW118200   3.747   1.622   3.545  0.2370 -3.5051 -0.5780
 2247SOL    HW218201   3.635   1.553   3.475 -2.0153  1.0645  1.2123
 2248SOL     OW18202   2.912   4.548   7.546 -0.0456  0.4835 -0.2509
 2248SOL    HW118203   2.988   4.540   7.488  0.2383  0.2188  0.1642
 2248SOL    HW218204   2.899   4.455   7.563  0.1126  0.1256 -2.0264
 2249SOL     OW18205   0.098   3.692   8.574  0.2231 -0.4531 -0.3086
 2249SOL    HW118206   0.108   3.617   8.515  0.6962  0.1979 -1.0502
 2249SOL    HW218207   0.062   3.645   8.650  0.5853 -0.4382 -0.1263
 2250SOL     OW18208   3.541   0.554   4.232 -0.0573  0.4796  0.2592
 2250SOL    HW118209   3.604   0.530   4.165 -1.6762  1.0284 -1.4516
 2250SOL    HW218210   3.502   0.467   4.248  0.4848  0.4165  1.2347
 2251SOL     OW18211   3.042   2.842  14.482 -0.2594 -0.4469 -0.6765
 2251SOL    HW118212   3.039   2.798  14.568  0.0111 -1.4540 -1.1787
 2251SOL    HW218213   3.098   2.917  14.501  0.4271 -1.3233  0.8211
 2252SOL     OW18214   0.829   1.355   3.888  0.3696 -0.2114  0.2591
 2252SOL    HW118215   0.814   1.428   3.948  1.4372  0.2019  0.0301
 2252SOL    HW218216   0.739   1.326   3.877  0.3247 -0.5378  1.4622
 2253SOL     OW18217   0.630   2.903  13.554 -0.4699  0.0981 -0.8789
 2253SOL    HW118218   0.592   2.883  13.640  1.4339 -0.7803 -0.2467
 2253SOL    HW218219   0.580   2.978  13.521  0.1392  0.1178 -1.7745
 2254SOL     OW18220   3.362   0.952   6.172  0.4125 -0.2659 -0.1841
 2254SOL    HW118221   3.389   1.012   6.242 -2.1588 -0.2404  0.7789
 2254SOL    HW218222   3.295   0.902   6.218 -0.1906 -0.4273 -1.2405
 2255SOL     OW18223   0.113   1.318   2.534  0.1214  0.5377 -0.3984
 2255SOL    HW118224   0.147   1.243   2.485 -1.8745 -1.5369  1.4005
 2255SOL    HW218225   0.108   1.387   2.469  1.6536  0.1339 -0.9350
 2256SOL     OW18226   1.185   4.518  10.417  0.5028 -0.1741 -0.5126
 2256SOL    HW118227   1.167   4.432  10.456 -1.0402  1.3126  2.0147
 2256SOL    HW218228   1.099   4.557  10.429  0.4336 -0.9609  1.6951
 2257SOL     OW18229   4.001   0.410  13.649 -0.0751  0.6386 -0.5756
 2257SOL    HW118230   4.012   0.350  13.723  3.0444 -1.1646 -2.5006
 2257SOL    HW218231   4.039   0.493  13.678 -0.9466  0.3474  1.4200
 2258SOL     OW18232   1.047   4.341  14.523 -0.5590  0.0810  0.3096
 2258SOL    HW118233   0.989   4.418  14.528 -1.1293 -0.2603 -1.1334
 2258SOL    HW218234   0.987   4.267  14.528  0.5096 -0.8096 -0.1879
 2259SOL     OW18235   3.875   0.909   3.623  0.2559 -0.0445 -0.3223
 2259SOL    HW118236   3.891   0.817   3.644  0.3122 -0.0499 -0.3876
 2259SOL    HW218237   3.942   0.918   3.556  1.4764  1.7829  1.1430
 2260SOL     OW18238   2.648   1.881   6.967 -0.2513  0.1243 -0.0932
 2260SOL    HW118239   2.741   1.868   6.946  0.0857  2.1628  0.1166
 2260SOL    HW218240   2.625   1.965   6.928  4.0765  1.3855  0.0021
 2261SOL     OW18241   2.356   0.287   7.327 -0.1381 -0.2379  0.4789
 2261SOL    HW118242   2.285   0.338   7.366 -0.6075 -0.6850  0.2086
 2261SOL    HW218243   2.307   0.207   7.306 -1.1312  0.5443 -0.1975
 2262SOL     OW18244   2.086   1.484  15.856  0.4521  0.4443 -0.0156
 2262SOL    HW118245   2.179   1.501  15.843  0.6278 -0.4462  0.1169
 2262SOL    HW218246   2.050   1.568  15.828  0.8360  0.9193  0.9071
 2263SOL     OW18247   4.111   0.973   4.525  0.0007  0.2022 -0.3200
 2263SOL    HW118248   4.090   0.899   4.468 -0.2733  0.5004 -0.6071
 2263SOL    HW218249   4.192   1.009   4.490 -0.5651  0.7614 -1.0592
 2264SOL     OW18250   3.552   0.933   6.694 -0.4162 -0.4065 -0.5203
 2264SOL    HW118251   3.464   0.910   6.662 -0.8663 -0.5315  0.8109
 2264SOL    HW218252   3.551   0.913   6.787 -1.6063  0.3887 -0.3555
 2265SOL     OW18253   1.005   1.647   7.308 -0.0358  0.1969  0.2587
 2265SOL    HW118254   1.067   1.688   7.368 -1.2913  1.1310  0.9200
 2265SOL    HW218255   1.031   1.693   7.228 -0.5298  0.0851  0.0366
 2266SOL     OW18256   3.634   1.290   1.523  0.3540  0.2416  0.2102
 2266SOL    HW118257   3.693   1.353   1.565  1.3636 -0.8172  0.3773
 2266SOL    HW218258   3.656   1.205   1.562  0.6211  0.4246  0.4625
 2267SOL     OW18259   0.783   4.649   1.132  0.6287 -0.5215 -0.0646
 2267SOL    HW118260   0.720   4.579   1.149 -0.1689  0.0209 -0.7756
 2267SOL    HW218261   0.819   4.623   1.048  1.4518  0.1556  0.0845
 2268SOL     OW18262   1.564   4.476   8.292  0.1403 -0.4354 -0.7355
 2268SOL    HW118263   1.554   4.561   8.334 -1.3001 -0.1308 -1.7153
 2268SOL    HW218264   1.614   4.496   8.213  0.5358  0.9114 -0.1384
 2269SOL     OW18265   2.090   1.206   6.653 -0.2577 -0.4707  0.1132
 2269SOL    HW118266   2.176   1.168   6.636 -0.0547  0.7130 -1.5231
 2269SOL    HW218267   2.067   1.165   6.737 -2.2847  0.2672 -0.0813
 2270SOL     OW18268   1.433   0.064   6.467 -0.5997 -0.3379  0.6818
 2270SOL    HW118269   1.415   4.704   6.425  1.1972  0.2151 -1.1495
 2270SOL    HW218270   1.484   0.035   6.542  0.4870 -0.9406 -0.2971
 2271SOL     OW18271   3.784   3.146  15.005  0.2567 -0.4930  0.1072
 2271SOL    HW118272   3.813   3.236  15.021 -1.5741  0.1424 -0.1427
 2271SOL    HW218273   3.871   3.110  14.989 -0.4367 -2.4768  0.8049
 2272SOL     OW18274   3.781   2.718   8.520 -0.0219 -0.1191  0.3437
 2272SOL    HW118275   3.725   2.666   8.463  0.6151  0.9583 -1.2552
 2272SOL    HW218276   3.781   2.657   8.594  2.2944  0.1194  0.5303
 2273SOL     OW18277   0.709   0.149   3.260 -0.1763  0.1806  0.4452
 2273SOL    HW118278   0.618   0.153   3.289  0.5140 -2.2132  2.9467
 2273SOL    HW218279   0.712   0.093   3.183 -0.3792  0.9266 -0.1103
 2274SOL     OW18280   1.704   3.290   1.194  0.1910 -0.4354 -0.0775
 2274SOL    HW118281   1.613   3.298   1.223 -0.4174 -2.6470 -1.3761
 2274SOL    HW218282   1.757   3.288   1.273  0.8740 -2.5032 -0.5941
 2275SOL     OW18283   0.955   0.307  10.086  0.1902  0.2509 -0.3071
 2275SOL    HW118284   1.020   0.347  10.144 -0.9780  0.9897  0.4933
 2275SOL    HW218285   0.905   0.253  10.148  0.7716 -0.1945 -0.2291
 2276SOL     OW18286   3.642   2.292   2.730 -0.0131 -0.0634  0.4390
 2276SOL    HW118287   3.641   2.205   2.689  1.0086  0.3301 -0.4134
 2276SOL    HW218288   3.636   2.347   2.653  1.3308  0.2464  0.5572
 2277SOL     OW18289   4.163   2.182   5.807 -0.0612 -0.0319 -0.4476
 2277SOL    HW118290   4.174   2.141   5.892 -0.8457 -1.3612 -0.9862
 2277SOL    HW218291   4.091   2.235   5.839 -0.2416 -1.2875  1.2106
 2278SOL     OW18292   2.540   2.133   8.932 -0.2276  0.4101 -0.5387
 2278SOL    HW118293   2.630   2.153   8.906 -0.2760  1.2082 -0.1151
 2278SOL    HW218294   2.513   2.080   8.857 -1.8846 -0.1837  0.4741
 2279SOL     OW18295   3.280   3.490   5.586 -0.3181  0.1567 -0.2250
 2279SOL    HW118296   3.222   3.414   5.575 -0.7234 -0.0061  3.1819
 2279SOL    HW218297   3.261   3.534   5.669 -1.4608 -0.0403 -0.3849
 2280SOL     OW18298   3.946   3.253  13.223  0.5445  0.6071 -1.4022
 2280SOL    HW118299   3.966   3.341  13.255  1.6889  1.1066 -3.4286
 2280SOL    HW218300   3.871   3.232  13.278  1.5545  0.9867  0.1087
 2281SOL     OW18301   2.267   4.062   2.694  0.2388 -0.7133  0.2501
 2281SOL    HW118302   2.220   4.028   2.770  1.3782 -0.9876  0.8327
 2281SOL    HW218303   2.352   4.020   2.706 -0.9826 -2.9590  0.9154
 2282SOL     OW18304   4.258   3.469  12.422  0.1083 -0.9852 -0.0588
 2282SOL    HW118305   4.298   3.412  12.356  0.2887 -0.6460 -0.2453
 2282SOL    HW218306   4.322   3.463  12.493  0.6019  2.3848 -0.2233
 2283SOL     OW18307   1.663   0.725   4.537 -0.0116  0.5418  0.0730
 2283SOL    HW118308   1.670   0.630   4.545  1.7148  0.5814 -0.8929
 2283SOL    HW218309   1.718   0.733   4.460 -1.3801 -2.1735 -1.1900
 2284SOL     OW18310   1.606   1.450   0.447 -0.6945  0.3287 -0.5641
 2284SOL    HW118311   1.553   1.475   0.371 -0.0041  0.7374 -0.9173
 2284SOL    HW218312   1.559   1.496   0.516  1.3371 -1.9745  2.3270
 2285SOL     OW18313   3.544   4.708   2.407  0.3283  0.1705  0.7904
 2285SOL    HW118314   3.462   4.688   2.452  0.3849  1.1015  1.3217
 2285SOL    HW218315   3.559   4.626   2.360 -0.2157  0.3958  0.2217
 2286SOL     OW18316   2.578   4.720   7.271 -0.0712 -0.1131 -0.6020
 2286SOL    HW118317   2.641   4.649   7.282  0.7894  1.0589  2.1437
 2286SOL    HW218318   2.592   0.021   7.180 -1.0018  0.9016 -0.4720
 2287SOL     OW18319   3.683   2.933   3.421 -0.7372  0.4740 -0.3415
 2287SOL    HW118320   3.744   2.885   3.478  2.3131  0.8145 -3.3519
 2287SOL    HW218321   3.735   3.011   3.406 -1.6573  1.1816  0.1606
 2288SOL     OW18322   2.775   0.070   3.488  0.1583 -0.0596 -0.4438
 2288SOL    HW118323   2.827   0.151   3.483 -2.4163  1.5396 -1.5496
 2288SOL    HW218324   2.716   0.097   3.417  1.6293  0.2362 -1.5647
 2289SOL     OW18325   0.556   0.286   6.555  0.9387  0.5106 -0.2369
 2289SOL    HW118326   0.596   0.340   6.623  0.5708  1.5239 -0.8304
 2289SOL    HW218327   0.463   0.303   6.569  0.8818 -0.3510  0.4147
 2290SOL     OW18328   4.257   4.668   8.683  0.7500 -0.0982  0.0353
 2290SOL    HW118329   4.312   4.592   8.706  0.4297 -0.4133 -0.2541
 2290SOL    HW218330   4.257   4.719   8.764  2.8759 -1.3019  0.8116
 2291SOL     OW18331   3.864   3.566  12.686  0.7000  0.0814  0.1407
 2291SOL    HW118332   3.952   3.569  12.722  0.2523  1.0194  1.1572
 2291SOL    HW218333   3.845   3.473  12.675  0.7717 -0.2811  3.0285
 2292SOL     OW18334   2.566   0.521   5.007  0.0229 -0.2870 -0.4484
 2292SOL    HW118335   2.524   0.435   4.996 -0.8591  0.1600 -0.5130
 2292SOL    HW218336   2.623   0.521   4.930 -1.5933  1.7236 -1.6231
 2293SOL     OW18337   2.924   3.039   5.684  0.0352  0.3361  0.2800
 2293SOL    HW118338   2.970   3.047   5.768 -0.8169 -0.0516  0.7822
 2293SOL    HW218339   2.831   3.026   5.703  0.4599 -0.6540  1.7029
 2294SOL     OW18340   3.181   1.834   6.525  0.0164 -0.3080 -0.0814
 2294SOL    HW118341   3.213   1.799   6.608  1.2816 -2.2804 -1.3790
 2294SOL    HW218342   3.091   1.802   6.515 -0.8727  1.5969  1.9978
 2295SOL     OW18343   3.722   3.518  14.461  0.7318 -0.1144 -0.1039
 2295SOL    HW118344   3.800   3.488  14.507 -1.0287 -2.1643  1.5313
 2295SOL    HW218345   3.661   3.458  14.504 -0.3418  0.4337 -0.8397
 2296SOL     OW18346   3.607   2.012   7.364 -0.1491  0.1871  0.0827
 2296SOL    HW118347   3.597   2.038   7.455  1.3893  1.2293 -0.0488
 2296SOL    HW218348   3.587   2.094   7.319 -1.1059  0.8387  1.7135
 2297SOL     OW18349   2.270   2.395  12.427  0.5119 -0.0610 -0.1445
 2297SOL    HW118350   2.318   2.322  12.388 -0.5351 -0.7342 -0.1639
 2297SOL    HW218351   2.207   2.424  12.361  0.2004 -1.0393 -0.2784
 2298SOL     OW18352   2.950   2.555  10.694  0.0134  0.7383  0.1434
 2298SOL    HW118353   3.010   2.622  10.662  1.0321 -1.1558 -1.9808
 2298SOL    HW218354   2.975   2.547  10.786  1.6624 -0.3369 -0.3965
 2299SOL     OW18355   3.356   1.264  13.879 -0.2338  0.1189  0.1907
 2299SOL    HW118356   3.417   1.331  13.909 -0.8097  0.3227  0.9092
 2299SOL    HW218357   3.398   1.184  13.911 -2.3125 -1.1569 -0.2747
 2300SOL     OW18358   0.742   2.939   6.066 -0.0301 -0.5982 -0.2639
 2300SOL    HW118359   0.677   2.911   6.130 -1.1574 -2.2639 -2.1457
 2300SOL    HW218360   0.809   2.872   6.082  0.7871  0.4586  0.7933
 2301SOL     OW18361   3.649   0.917  13.352 -0.0338  0.4271 -0.2161
 2301SOL    HW118362   3.663   0.842  13.409  0.0645  1.4800  1.1529
 2301SOL    HW218363   3.721   0.980  13.365 -1.0195  1.3495  0.7542
 2302SOL     OW18364   2.785   1.461   1.988 -0.2288 -0.2434  0.8576
 2302SOL    HW118365   2.858   1.494   2.041  1.5960 -2.1395 -0.4617
 2302SOL    HW218366   2.714   1.516   2.019 -2.8988 -1.7750 -2.5992
 2303SOL     OW18367   2.028   0.009   4.494 -0.0466 -0.5393  0.2544
 2303SOL    HW118368   2.087   4.719   4.568 -0.2540 -1.1691  0.3042
 2303SOL    HW218369   2.034   0.102   4.475  1.3512 -0.9834 -1.4718
 2304SOL     OW18370   0.311   4.674   0.732 -0.1519 -0.1785  0.0273
 2304SOL    HW118371   0.369   4.700   0.804 -0.6786  1.1632 -0.0424
 2304SOL    HW218372   0.361   4.597   0.703 -0.3486  0.0013 -0.7992
 2305SOL     OW18373   0.543   1.917   5.042 -0.1480  0.3421  0.3062
 2305SOL    HW118374   0.511   2.005   5.019 -2.0296 -0.5634 -0.4769
 2305SOL    HW218375   0.627   1.922   4.996 -0.2069 -0.0893  0.1558
 2306SOL     OW18376   4.542   1.540   6.672  0.1254  0.2844 -0.1300
 2306SOL    HW118377   4.620   1.586   6.641  1.4530 -1.7934  0.1311
 2306SOL    HW218378   4.535   1.559   6.766  0.0531 -3.7721  0.7139
 2307SOL     OW18379   0.691   3.021   5.618 -0.5658  0.3871  0.1166
 2307SOL    HW118380   0.724   3.031   5.707  1.1623 -1.1708 -0.3414
 2307SOL    HW218381   0.751   3.079   5.571  0.8396 -0.8729  0.3406
 2308SOL     OW18382   3.021   3.160   3.286  0.2843 -0.1746 -0.3061
 2308SOL    HW118383   3.047   3.102   3.215  1.4642 -0.6764  0.5345
 2308SOL    HW218384   3.071   3.128   3.361 -0.3169 -0.7482 -0.1524
 2309SOL     OW18385   2.545   3.775   8.440 -0.3564  0.8574  0.3571
 2309SOL    HW118386   2.586   3.695   8.471 -0.5046  0.5827 -0.1516
 2309SOL    HW218387   2.613   3.836   8.469 -0.6951  0.2495  2.4084
 2310SOL     OW18388   0.909   0.076   2.686 -0.0426 -0.2094 -0.3730
 2310SOL    HW118389   0.952   4.718   2.662 -0.8097 -1.0711  1.2345
 2310SOL    HW218390   0.914   0.119   2.600 -0.6755 -1.6926 -1.1397
 2311SOL     OW18391   0.986   0.834  11.385 -0.1620  0.2246 -0.0089
 2311SOL    HW118392   0.993   0.797  11.297  1.6983  0.0091  0.2357
 2311SOL    HW218393   0.936   0.913  11.362 -1.8971 -0.9001 -0.1295
 2312SOL     OW18394   1.239   4.297   4.621  0.6296  0.1068  0.5258
 2312SOL    HW118395   1.242   4.210   4.581 -1.5368  0.7590 -0.9978
 2312SOL    HW218396   1.205   4.353   4.551 -0.4432 -0.4060  0.6413
 2313SOL     OW18397   2.372   2.597  12.070 -0.3268  0.7817 -0.1166
 2313SOL    HW118398   2.285   2.610  12.031  0.2302  0.0832 -1.6023
 2313SOL    HW218399   2.370   2.655  12.146 -1.5978  0.3623  0.1737
 2314SOL     OW18400   3.902   0.984   7.549  0.3236 -0.5830  0.0966
 2314SOL    HW118401   3.971   0.937   7.596  0.1120 -1.0512 -0.0724
 2314SOL    HW218402   3.896   0.957   7.458 -0.5775  0.1216 -0.0530
 2315SOL     OW18403   1.836   2.338   6.034  0.0709 -0.6681 -0.4060
 2315SOL    HW118404   1.911   2.351   5.977  0.8251  0.3063  0.8190
 2315SOL    HW218405   1.763   2.360   5.975  2.1828  3.5342 -1.4440
 2316SOL     OW18406   0.422   0.752   9.975  0.0119  0.3850 -0.0151
 2316SOL    HW118407   0.330   0.726   9.965 -0.0144  0.7795 -0.7907
 2316SOL    HW218408   0.416   0.835  10.022 -2.1501 -0.5946  1.4494
 2317SOL     OW18409   4.704   0.325  12.732 -0.0873 -0.0627 -0.0325
 2317SOL    HW118410   4.683   0.338  12.640  2.0289 -2.3653 -0.8274
 2317SOL    HW218411   0.076   0.323  12.730 -0.1718  1.0233 -4.4855
 2318SOL     OW18412   0.802   1.582  14.155 -0.3420  0.3968  0.3503
 2318SOL    HW118413   0.800   1.643  14.081 -3.2176 -0.3160 -0.1800
 2318SOL    HW218414   0.855   1.516  14.111 -1.5510 -1.5001  1.7437
 2319SOL     OW18415   2.155   0.440  17.683  0.2710  0.2379  0.2297
 2319SOL    HW118416   2.120   0.524  17.651  0.4361 -0.0573 -0.7414
 2319SOL    HW218417   2.226   0.429  17.620  0.7577 -1.0221  1.0149
 2320SOL     OW18418   1.192   1.419   6.426  0.2273  0.4150 -0.4798
 2320SOL    HW118419   1.212   1.376   6.509  1.5467 -0.3969 -1.2148
 2320SOL    HW218420   1.270   1.388   6.380 -0.4416 -2.0918  0.0572
 2321SOL     OW18421   2.231   4.145   7.595 -0.0627 -0.3700 -0.0136
 2321SOL    HW118422   2.143   4.148   7.632  0.7250 -1.7304  1.9809
 2321SOL    HW218423   2.270   4.204   7.659  1.5209  1.0992 -2.3329
 2322SOL     OW18424   0.036   2.813   1.825 -0.1928  0.1949  0.1694
 2322SOL    HW118425   4.719   2.727   1.811 -1.3605  0.2783  3.0725
 2322SOL    HW218426   0.118   2.808   1.776  0.6986 -0.4339  1.7295
 2323SOL     OW18427   1.439   2.767  17.256 -0.1467  0.4760  0.1672
 2323SOL    HW118428   1.436   2.811  17.341 -1.2335  0.4137  0.1589
 2323SOL    HW218429   1.486   2.838  17.211  1.4908 -0.9807 -0.4317
 2324SOL     OW18430   0.909   2.693  16.364 -0.2569 -0.7825  0.0940
 2324SOL    HW118431   0.842   2.725  16.304  1.4329 -1.0958 -1.9675
 2324SOL    HW218432   0.939   2.776  16.402  1.2436 -0.3897 -1.9550
 2325SOL     OW18433   0.023   3.513  13.519 -0.5430  0.6063  0.2315
 2325SOL    HW118434   0.001   3.591  13.468 -2.9969 -0.2079  0.0283
 2325SOL    HW218435   0.097   3.536  13.576  1.3216 -0.8799 -1.5940
 2326SOL     OW18436   3.897   1.937   7.564 -1.2659  0.3511 -0.0605
 2326SOL    HW118437   3.860   1.934   7.476  1.1235  2.5523 -1.1648
 2326SOL    HW218438   3.851   1.862   7.602  1.8882 -1.7719 -0.4389
 2327SOL     OW18439   2.717   3.690   2.251  0.1325  0.4251 -0.0597
 2327SOL    HW118440   2.743   3.656   2.165 -0.8402  0.8447 -0.5152
 2327SOL    HW218441   2.720   3.612   2.307 -0.2836  1.2385  1.0959
 2328SOL     OW18442   2.764   4.060  13.954 -0.5930  0.5746  0.1353
 2328SOL    HW118443   2.806   3.976  13.935 -1.8838  0.6065 -2.8389
 2328SOL    HW218444   2.766   4.046  14.049  0.4349  1.3150  0.2253
 2329SOL     OW18445   3.502   3.933   6.459  0.0120  0.1060 -0.1763
 2329SOL    HW118446   3.594   3.911   6.443  1.2377  2.1664  3.8689
 2329SOL    HW218447   3.469   3.895   6.378  0.1733 -2.1098  0.7870
 2330SOL     OW18448   1.559   0.237  10.440  0.0498  0.3574  0.3010
 2330SOL    HW118449   1.522   0.218  10.355  0.7045  0.5972 -0.0402
 2330SOL    HW218450   1.651   0.217  10.423  0.6048  1.3504  2.0411
 2331SOL     OW18451   2.075   1.780   4.967 -0.4073  0.5125  0.6729
 2331SOL    HW118452   2.034   1.706   5.010  0.5142  1.5220  3.2505
 2331SOL    HW218453   2.144   1.800   5.031  0.0581 -0.0451  0.3493
 2332SOL     OW18454   2.667   2.392   5.742  0.1794 -0.1523  0.1074
 2332SOL    HW118455   2.680   2.370   5.650 -0.5810 -1.1356  0.2272
 2332SOL    HW218456   2.750   2.348   5.762  0.6422 -0.0815 -1.6807
 2333SOL     OW18457   2.716   0.182   8.804 -0.5932  0.1684  0.2054
 2333SOL    HW118458   2.732   0.088   8.815  0.5723  0.5607  1.7605
 2333SOL    HW218459   2.653   0.178   8.731 -1.5611  3.2390  0.9030
 2334SOL     OW18460   3.111   4.688   5.021 -0.1261 -1.1050 -0.1298
 2334SOL    HW118461   3.076   4.633   5.091 -2.4128  1.0864  0.4299
 2334SOL    HW218462   3.061   4.650   4.949 -2.0138  1.6132 -0.2114
 2335SOL     OW18463   3.204   3.019   8.024  0.0905 -0.1409 -0.3506
 2335SOL    HW118464   3.259   3.057   7.957  1.3554 -2.1017 -0.4314
 2335SOL    HW218465   3.258   2.959   8.075 -0.0216  1.6468  1.8833
 2336SOL     OW18466   0.420   3.670   3.250 -0.2383  0.0040  0.1160
 2336SOL    HW118467   0.491   3.714   3.297  1.6790 -1.5595 -1.3474
 2336SOL    HW218468   0.345   3.702   3.301  0.2144  0.5908  0.4085
 2337SOL     OW18469   3.502   2.928   6.162 -0.5893 -0.4269 -0.1640
 2337SOL    HW118470   3.425   2.984   6.170 -0.9448 -1.2947  2.4285
 2337SOL    HW218471   3.523   2.915   6.069  1.2957 -1.8099  0.4553
 2338SOL     OW18472   1.312   2.632  10.824  0.3226  0.2331 -0.5206
 2338SOL    HW118473   1.269   2.580  10.892  1.4886  0.4151  0.3556
 2338SOL    HW218474   1.396   2.660  10.861  0.8341 -0.5843 -1.0852
 2339SOL     OW18475   2.661   2.937  17.127  0.3100  0.2408 -0.3314
 2339SOL    HW118476   2.751   2.907  17.113 -0.3650 -1.9218  0.0195
 2339SOL    HW218477   2.615   2.874  17.072  0.7947  0.8944 -1.4891
 2340SOL     OW18478   0.809   0.823  17.553  0.1560  0.4091  0.5108
 2340SOL    HW118479   0.817   0.757  17.483  0.6045  2.1943 -1.1284
 2340SOL    HW218480   0.854   0.779  17.625  0.2915  1.1352  0.8639
 2341SOL     OW18481   0.425   1.993   5.803  0.1738  0.4867 -0.2059
 2341SOL    HW118482   0.405   2.076   5.759  2.4116  2.1691  1.9835
 2341SOL    HW218483   0.363   1.939   5.754  1.7462 -0.5801 -1.0208
 2342SOL     OW18484   3.859   4.636  17.242  0.2716 -0.0333  0.1526
 2342SOL    HW118485   3.804   4.587  17.303 -0.7750  1.3284  0.3069
 2342SOL    HW218486   3.863   4.597  17.155  0.8163  0.3349  0.0067
 2343SOL     OW18487   1.718   2.749   6.382 -0.3246  0.5648  0.0522
 2343SOL    HW118488   1.769   2.679   6.342 -2.2765 -0.1445 -1.1964
 2343SOL    HW218489   1.770   2.829   6.373  0.1575  0.3319  0.7528
 2344SOL     OW18490   2.914   3.704   4.029  0.2712  0.1098 -0.0103
 2344SOL    HW118491   2.907   3.800   4.033  0.8590  0.1837 -0.6771
 2344SOL    HW218492   2.916   3.688   4.123  1.4604 -0.8015 -0.1965
 2345SOL     OW18493   1.519   1.256   4.675 -0.2068 -0.2003 -0.3357
 2345SOL    HW118494   1.510   1.218   4.762 -0.6083 -0.7386 -0.6136
 2345SOL    HW218495   1.579   1.327   4.698 -0.7284  0.4230 -0.8856
 2346SOL     OW18496   3.207   2.563   2.392  0.3794  0.7535 -0.2404
 2346SOL    HW118497   3.169   2.486   2.351 -0.2012 -0.3560  2.3874
 2346SOL    HW218498   3.138   2.590   2.452 -0.8794 -0.6068 -1.0741
 2347SOL     OW18499   1.985   1.258   1.273  0.6135 -0.1125  0.0758
 2347SOL    HW118500   1.925   1.305   1.215 -0.8268  0.0503  1.7089
 2347SOL    HW218501   1.919   1.191   1.291  0.3644  0.1495  0.1423
 2348SOL     OW18502   0.042   0.532   4.072  0.3004  0.2672  0.0472
 2348SOL    HW118503   0.124   0.522   4.024  1.3743  2.4252  1.3938
 2348SOL    HW218504   4.705   0.493   4.011  3.4622 -2.5265 -1.2982
 2349SOL     OW18505   1.939   2.587   3.356  0.1564 -0.0950  0.3064
 2349SOL    HW118506   1.980   2.504   3.380  1.0697  0.3935  0.4171
 2349SOL    HW218507   1.979   2.644   3.421  0.5257  0.1200 -0.1156
 2350SOL     OW18508   2.858   3.400   0.308  0.0379 -0.2821 -0.0978
 2350SOL    HW118509   2.814   3.402   0.393  0.4254 -0.8159  0.1105
 2350SOL    HW218510   2.913   3.325   0.327 -0.7849 -1.3211 -1.8724
 2351SOL     OW18511   1.042   3.878   6.498  0.5333 -0.1363 -0.4071
 2351SOL    HW118512   1.123   3.899   6.544  0.0405  0.8124  0.0143
 2351SOL    HW218513   1.064   3.799   6.447 -1.3881 -0.8787 -0.0902
 2352SOL     OW18514   3.486   0.729  11.964  0.1933 -0.0375  0.5408
 2352SOL    HW118515   3.541   0.686  12.029 -1.2906 -1.2513  1.0146
 2352SOL    HW218516   3.396   0.735  11.998  0.0574  1.9708 -0.1702
 2353SOL     OW18517   1.014   3.947   9.782  0.1132 -0.1476 -0.7792
 2353SOL    HW118518   1.004   3.951   9.687  1.2097  0.2038 -0.8804
 2353SOL    HW218519   1.105   3.977   9.784 -0.7785  2.3250  2.4384
 2354SOL     OW18520   3.552   2.274  16.723 -0.2136 -0.3747  0.3676
 2354SOL    HW118521   3.511   2.210  16.782  3.6126 -3.7349 -0.6718
 2354SOL    HW218522   3.599   2.213  16.666  1.1040  0.0468  1.0162
 2355SOL     OW18523   2.283   1.317   4.050 -0.3586  0.1561  0.2336
 2355SOL    HW118524   2.264   1.273   4.133  2.3517 -0.9741  0.2446
 2355SOL    HW218525   2.296   1.407   4.082 -0.8700  0.5570 -0.6964
 2356SOL     OW18526   3.233   1.506   5.661 -1.0567 -0.0674  0.2028
 2356SOL    HW118527   3.186   1.466   5.733 -1.3729  0.3675  0.2316
 2356SOL    HW218528   3.304   1.444   5.641 -1.3110 -0.8164  1.6421
 2357SOL     OW18529   2.462   0.747   9.922  0.3434 -0.0022  0.0307
 2357SOL    HW118530   2.417   0.777  10.001  0.8149 -0.8203  0.6086
 2357SOL    HW218531   2.409   0.795   9.859 -1.5740 -0.9793  0.8964
 2358SOL     OW18532   0.218   1.192   1.452  0.1624  0.1291  0.1808
 2358SOL    HW118533   0.156   1.180   1.380  1.9048 -1.9075 -0.9585
 2358SOL    HW218534   0.220   1.288   1.446  2.0809  0.2038  1.8703
 2359SOL     OW18535   0.130   2.866   6.301 -0.4000  0.1141  0.0119
 2359SOL    HW118536   0.086   2.781   6.307  1.7523 -1.0964 -1.1575
 2359SOL    HW218537   0.106   2.889   6.211  1.6033 -2.6345 -1.2463
 2360SOL     OW18538   0.991   3.564   8.276  0.0965  0.2077  0.3074
 2360SOL    HW118539   0.929   3.547   8.346  1.7809 -0.8672  1.5529
 2360SOL    HW218540   0.996   3.471   8.253  0.9885 -0.0464  1.5217
 2361SOL     OW18541   2.621   0.024   7.763  0.6790  0.1115 -0.1012
 2361SOL    HW118542   2.632   0.047   7.671  1.1332 -1.1799 -0.3681
 2361SOL    HW218543   2.528   0.037   7.783 -0.0612 -4.2452 -0.6195
 2362SOL     OW18544   0.445   4.700   7.289  0.4187  0.0803  0.0135
 2362SOL    HW118545   0.350   4.713   7.291  0.3358 -0.9793  2.6715
 2362SOL    HW218546   0.441   4.613   7.327 -0.8247 -0.0286 -0.3499
 2363SOL     OW18547   1.213   1.318  17.195 -0.4998  0.2191 -0.3046
 2363SOL    HW118548   1.271   1.280  17.129 -0.1343 -3.1208  1.9427
 2363SOL    HW218549   1.197   1.246  17.257 -0.1600 -0.3065 -0.8343
 2364SOL     OW18550   1.773   1.255  11.543  0.0614  0.7594  0.1959
 2364SOL    HW118551   1.806   1.181  11.594  0.2672  0.7550  0.0558
 2364SOL    HW218552   1.731   1.308  11.611  0.8074  0.0427  1.1979
 2365SOL     OW18553   4.496   2.059   4.727  0.0547  0.5092  0.4380
 2365SOL    HW118554   4.554   2.037   4.654  0.3446 -1.2779  1.2110
 2365SOL    HW218555   4.567   2.085   4.785 -0.5917  0.4055  1.2701
 2366SOL     OW18556   4.364   0.145   0.957 -0.1570 -0.3988  0.3041
 2366SOL    HW118557   4.375   0.228   1.003 -1.5614 -0.7660  1.3270
 2366SOL    HW218558   4.295   0.102   1.008  1.1170 -2.2884  0.4216
 2367SOL     OW18559   3.847   3.058  13.550  0.8330 -0.3218  0.2853
 2367SOL    HW118560   3.920   2.997  13.538 -0.5746 -2.1192  0.7811
 2367SOL    HW218561   3.793   3.047  13.472  1.1335 -1.0228  0.1766
 2368SOL     OW18562   1.983   3.825  11.234 -0.6371  0.2764 -0.8581
 2368SOL    HW118563   1.994   3.750  11.176 -0.1116 -1.5191  1.5501
 2368SOL    HW218564   1.887   3.822  11.236 -0.6026  1.5155  1.6829
 2369SOL     OW18565   2.431   0.846   4.586 -0.2235 -0.2798 -0.4095
 2369SOL    HW118566   2.471   0.794   4.656  1.5573 -1.1743 -2.1067
 2369SOL    HW218567   2.466   0.789   4.517 -1.3852 -0.6599 -0.6822
 2370SOL     OW18568   0.524   2.988   1.128 -0.5126  0.6206  0.2826
 2370SOL    HW118569   0.474   2.929   1.072  1.0090  0.9966 -1.4395
 2370SOL    HW218570   0.606   2.940   1.137 -1.2093 -1.1581 -2.8534
 2371SOL     OW18571   4.506   0.054  10.653 -0.2597  0.2769 -0.3585
 2371SOL    HW118572   4.451   4.707  10.622  0.5062 -1.2997  1.8710
 2371SOL    HW218573   4.548   0.081  10.572  0.3801  0.3059 -0.0196
 2372SOL     OW18574   4.720   2.856   7.527 -0.0312 -0.2298  0.4115
 2372SOL    HW118575   4.645   2.816   7.483 -1.2127  1.9435  0.4569
 2372SOL    HW218576   0.055   2.780   7.527 -3.1126 -2.6181  0.3343
 2373SOL     OW18577   1.805   1.555   4.967 -0.1060  0.1495  0.2362
 2373SOL    HW118578   1.753   1.519   5.039  0.6488  1.2036  1.3262
 2373SOL    HW218579   1.890   1.533   5.006 -0.5056 -2.2387 -0.2482
 2374SOL     OW18580   0.831   0.539   9.721 -0.3367  0.0794  0.1705
 2374SOL    HW118581   0.752   0.506   9.677  0.1305 -1.5385  0.5455
 2374SOL    HW218582   0.795   0.617   9.763  1.1687  0.8418  0.0235
 2375SOL     OW18583   0.377   1.985   2.268  0.3989  0.3156  0.6374
 2375SOL    HW118584   0.374   2.078   2.244  2.1086  0.9398  2.9178
 2375SOL    HW218585   0.471   1.972   2.259 -0.0592 -3.9078  1.8705
 2376SOL     OW18586   1.741   2.748   8.273  0.3862 -0.1767  0.7470
 2376SOL    HW118587   1.677   2.750   8.345  0.2516 -0.3080  0.6313
 2376SOL    HW218588   1.759   2.655   8.261  2.3370  0.2190  0.6326
 2377SOL     OW18589   2.893   1.352  11.143 -0.2744  0.6195 -0.6165
 2377SOL    HW118590   2.841   1.311  11.212  1.8485 -2.0648 -0.6137
 2377SOL    HW218591   2.901   1.285  11.075  1.2679  1.6506 -1.4655
 2378SOL     OW18592   0.733   0.510   5.907  0.1631 -0.2857 -0.2467
 2378SOL    HW118593   0.776   0.583   5.952  1.8210  0.6314 -3.3618
 2378SOL    HW218594   0.716   0.441   5.971 -1.8885 -0.1648 -0.6652
 2379SOL     OW18595   3.751   0.152  15.980 -0.0623  0.1283 -0.3734
 2379SOL    HW118596   3.656   0.153  15.970 -0.2749 -0.3707  1.5524
 2379SOL    HW218597   3.769   0.191  15.895 -1.7788 -0.1132 -0.8482
 2380SOL     OW18598   1.585   4.657   6.645 -0.4050  0.5178 -0.0909
 2380SOL    HW118599   1.545   4.667   6.731  1.0476  0.5410  0.5708
 2380SOL    HW218600   1.674   4.644   6.677 -0.3720  2.3958  0.5686
 2381SOL     OW18601   3.678   0.592   4.525 -0.0766  0.1057 -0.2397
 2381SOL    HW118602   3.743   0.534   4.484 -0.5016 -0.0531 -0.6865
 2381SOL    HW218603   3.688   0.567   4.616 -1.8718  0.0747 -0.0563
 2382SOL     OW18604   2.086   4.629   4.762  0.0133  0.0883 -0.0954
 2382SOL    HW118605   2.013   4.634   4.824 -0.7832  0.8769 -1.0879
 2382SOL    HW218606   2.163   4.633   4.818  0.4494 -0.7863 -0.6265
 2383SOL     OW18607   1.089   3.728   5.924 -0.1946 -0.1236  0.4317
 2383SOL    HW118608   1.066   3.766   6.009 -1.3252 -1.9919  0.9655
 2383SOL    HW218609   1.020   3.760   5.866  1.0925 -1.0299 -1.6003
 2384SOL     OW18610   1.141   4.325   2.805 -0.4164  0.6411 -0.6819
 2384SOL    HW118611   1.083   4.329   2.729 -1.5078  0.6609  0.1464
 2384SOL    HW218612   1.163   4.232   2.811 -2.1200  0.1067 -2.8749
 2385SOL     OW18613   1.841   3.773   6.539  0.4099 -0.2022 -1.1138
 2385SOL    HW118614   1.769   3.726   6.498  1.5870  0.5868 -4.0889
 2385SOL    HW218615   1.802   3.797   6.623  1.5729 -1.3947 -0.2437
 2386SOL     OW18616   2.396   1.701  12.882  0.1971 -0.4884  0.1959
 2386SOL    HW118617   2.463   1.641  12.914 -0.5980 -1.8150 -0.6683
 2386SOL    HW218618   2.429   1.756  12.811  0.0273 -0.3131  0.2531
 2387SOL     OW18619   0.200   4.216   4.701 -0.2623 -0.3966 -0.5874
 2387SOL    HW118620   0.246   4.230   4.784 -0.1361 -0.3637 -0.6628
 2387SOL    HW218621   0.252   4.151   4.654  0.8945  0.9379 -1.1876
 2388SOL     OW18622   0.438   0.265   1.922  0.1999 -0.4327  0.3136
 2388SOL    HW118623   0.520   0.223   1.948 -0.2856 -0.7283  1.3579
 2388SOL    HW218624   0.414   0.197   1.859  0.4796 -0.0343 -0.2197
 2389SOL     OW18625   0.242   0.754   2.189 -0.1251  0.7370 -0.3692
 2389SOL    HW118626   0.321   0.713   2.223 -1.6626 -2.2845 -0.4202
 2389SOL    HW218627   0.269   0.845   2.179 -2.5734  1.6552  1.4269
 2390SOL     OW18628   2.233   0.907   1.578 -0.1042  0.2124  0.0898
 2390SOL    HW118629   2.251   0.935   1.668 -1.3878  0.4129  0.2875
 2390SOL    HW218630   2.251   0.987   1.529 -0.0738 -0.3148 -0.7489
 2391SOL     OW18631   1.047   0.020   6.625  0.0655  0.5157  0.5672
 2391SOL    HW118632   1.085   0.037   6.540 -1.3866 -2.1384 -0.6335
 2391SOL    HW218633   0.956   0.047   6.612  0.9982  2.9055 -0.9839
 2392SOL     OW18634   1.128   3.758   0.959  0.0329 -0.2521  0.0755
 2392SOL    HW118635   1.045   3.802   0.939  1.4363  1.8546 -1.0973
 2392SOL    HW218636   1.110   3.668   0.932  1.7273 -0.9376  1.2601
 2393SOL     OW18637   0.715   2.271  11.914  0.2769 -0.2783  0.0668
 2393SOL    HW118638   0.660   2.227  11.979 -0.3192 -0.0827 -0.2968
 2393SOL    HW218639   0.669   2.258  11.831  0.8402  0.9922 -0.4418
 2394SOL     OW18640   1.561   1.583   3.376 -0.3900  0.1788  1.1196
 2394SOL    HW118641   1.533   1.501   3.416  0.7390 -0.5497  0.4116
 2394SOL    HW218642   1.644   1.605   3.419  1.7575  1.1557 -3.5131
 2395SOL     OW18643   1.579   2.266   0.633 -0.1997  0.1892  0.2302
 2395SOL    HW118644   1.513   2.215   0.586 -0.1474 -1.0664  1.5445
 2395SOL    HW218645   1.561   2.358   0.612 -0.4845 -0.3052 -1.6918
 2396SOL     OW18646   4.501   1.266   8.110  0.2216 -1.0253  0.4667
 2396SOL    HW118647   4.595   1.277   8.125  0.1032 -0.5831  0.8744
 2396SOL    HW218648   4.468   1.308   8.189 -0.0452  0.2828 -0.3529
 2397SOL     OW18649   3.510   2.471   6.524  0.7764  0.5889  0.1538
 2397SOL    HW118650   3.596   2.484   6.486  0.8198 -1.7469 -0.5430
 2397SOL    HW218651   3.470   2.552   6.493  0.1841 -0.5373 -1.9880
 2398SOL     OW18652   1.556   0.995  11.499  0.1963  0.2942  0.6218
 2398SOL    HW118653   1.545   1.046  11.579 -3.1863 -0.4622  0.6303
 2398SOL    HW218654   1.511   0.915  11.527 -0.9030  0.5056 -0.5626
 2399SOL     OW18655   1.136   4.007  16.223 -0.3527 -0.7045 -0.2183
 2399SOL    HW118656   1.068   3.951  16.260 -1.4080  1.4896  1.1688
 2399SOL    HW218657   1.081   4.079  16.191  1.0204  1.0149  1.2893
 2400SOL     OW18658   3.893   1.899  15.804  0.6622  0.3533 -0.3937
 2400SOL    HW118659   3.934   1.839  15.866  0.7603 -0.6492 -1.4509
 2400SOL    HW218660   3.928   1.983  15.836  0.1365  2.0145 -4.2348
 2401SOL     OW18661   1.092   3.605  16.885  0.3271 -0.0765 -0.3392
 2401SOL    HW118662   1.078   3.662  16.809  0.6730  1.4634  0.7415
 2401SOL    HW218663   1.158   3.544  16.854 -0.8446 -1.0325 -0.9250
 2402SOL     OW18664   2.496   3.687   8.151  0.0855  0.2769  0.1604
 2402SOL    HW118665   2.496   3.782   8.138  0.9095  0.2453 -0.0741
 2402SOL    HW218666   2.527   3.692   8.241 -0.3800 -4.3693  0.6097
 2403SOL     OW18667   1.820   0.867   7.553 -0.4258  0.0895 -0.2042
 2403SOL    HW118668   1.736   0.892   7.593  0.0527 -0.5964  1.2514
 2403SOL    HW218669   1.805   0.882   7.460 -0.3455 -1.4341 -0.4706
 2404SOL     OW18670   1.816   0.448   3.465  0.1011  0.0744 -0.2605
 2404SOL    HW118671   1.909   0.425   3.462 -0.2009 -1.2900  1.1869
 2404SOL    HW218672   1.783   0.418   3.380  0.1443 -1.2444  0.1905
 2405SOL     OW18673   4.627   0.021   0.849  1.1372 -0.0063  0.0081
 2405SOL    HW118674   4.539   0.056   0.836 -0.1909 -1.6443  4.6791
 2405SOL    HW218675   4.670   0.041   0.765  3.2406  1.9584  1.5586
 2406SOL     OW18676   4.457   3.494   3.817  0.4233  0.0285  0.6195
 2406SOL    HW118677   4.524   3.521   3.880  1.5386 -1.0714 -0.1084
 2406SOL    HW218678   4.399   3.456   3.883 -1.2031 -1.2594 -1.5619
 2407SOL     OW18679   3.996   3.598  13.678 -0.3180  0.7136  0.5817
 2407SOL    HW118680   4.055   3.555  13.740  0.9921  3.0119  0.9259
 2407SOL    HW218681   3.945   3.654  13.737 -3.7797 -0.6673 -1.1043
 2408SOL     OW18682   2.168   3.558   1.697 -0.0851 -0.1060 -0.1182
 2408SOL    HW118683   2.187   3.651   1.702 -0.1969 -0.0693 -0.3709
 2408SOL    HW218684   2.224   3.520   1.765  0.7504  0.0590 -0.7204
 2409SOL     OW18685   3.011   3.754   4.555  0.0347  0.5090 -0.7767
 2409SOL    HW118686   2.948   3.808   4.602  1.3988 -0.7152  2.4765
 2409SOL    HW218687   3.016   3.670   4.601  1.4301  1.1118  0.1653
 2410SOL     OW18688   4.128   1.368   8.119 -0.1742 -0.0284  0.1628
 2410SOL    HW118689   4.146   1.279   8.087  0.4846  0.5979 -1.2477
 2410SOL    HW218690   4.110   1.412   8.036 -0.7214  0.6558  0.6463
 2411SOL     OW18691   0.730   2.491   7.322 -0.3777 -0.0715 -0.2590
 2411SOL    HW118692   0.816   2.506   7.282 -0.9318  1.5855 -0.8057
 2411SOL    HW218693   0.735   2.404   7.360 -1.4167 -0.4658 -1.0275
 2412SOL     OW18694   1.063   2.310   2.120  0.1481  0.2734  0.4587
 2412SOL    HW118695   1.114   2.268   2.189 -0.1339  0.8080  0.9891
 2412SOL    HW218696   1.055   2.394   2.163  2.6818  2.3098 -3.0546
 2413SOL     OW18697   1.275   1.499   4.878 -0.4852 -0.7815 -0.1061
 2413SOL    HW118698   1.332   1.520   4.952  1.6254  1.6585 -2.4306
 2413SOL    HW218699   1.281   1.568   4.811 -0.3697 -2.4171 -1.7748
 2414SOL     OW18700   3.749   0.837  17.139  0.2149  0.0153  0.2089
 2414SOL    HW118701   3.803   0.895  17.193  0.4447 -0.9877  1.0691
 2414SOL    HW218702   3.784   0.751  17.163 -0.4436 -0.2591  0.1679
 2415SOL     OW18703   3.740   3.883   5.663 -0.1986  0.3633  0.2282
 2415SOL    HW118704   3.791   3.905   5.585 -1.5147  1.6083 -0.2979
 2415SOL    HW218705   3.674   3.824   5.626  1.6073 -1.4094 -0.0984
 2416SOL     OW18706   3.087   1.726   9.860  0.6971 -0.1621  0.1468
 2416SOL    HW118707   3.002   1.762   9.886  1.2905  0.6054  1.0269
 2416SOL    HW218708   3.049   1.639   9.852 -0.5976  0.5279 -1.3265
 2417SOL     OW18709   1.602   2.255   2.870 -0.4752  0.2576 -0.0941
 2417SOL    HW118710   1.610   2.178   2.927  1.3540  0.6511  0.1765
 2417SOL    HW218711   1.597   2.322   2.937 -0.3425  1.2148 -1.0426
 2418SOL     OW18712   4.153   1.935   9.947  0.1518 -0.0347  0.3845
 2418SOL    HW118713   4.140   1.934   9.852 -0.7799 -0.3484  0.5185
 2418SOL    HW218714   4.244   1.910   9.963 -0.0251 -0.3793  0.8583
 2419SOL     OW18715   1.500   1.450  13.717  0.2080 -0.5507 -0.3805
 2419SOL    HW118716   1.509   1.380  13.651  0.5797 -0.4220 -0.4671
 2419SOL    HW218717   1.409   1.473  13.698  0.4460  1.0973  0.4918
 2420SOL     OW18718   1.530   1.675   3.853  0.5627  0.0300 -0.0709
 2420SOL    HW118719   1.566   1.638   3.933  0.0128  1.9656  1.0731
 2420SOL    HW218720   1.556   1.768   3.856  0.6236  0.1190 -3.4758
 2421SOL     OW18721   0.310   0.666   4.101 -0.3934  0.5304  0.0051
 2421SOL    HW118722   0.401   0.657   4.072 -0.8934 -1.2658 -1.0420
 2421SOL    HW218723   0.284   0.574   4.106  0.7541  0.0673 -2.8572
 2422SOL     OW18724   0.281   1.901   5.384  0.1006 -0.3895  0.2134
 2422SOL    HW118725   0.255   1.858   5.465  0.5131  0.8037  0.9780
 2422SOL    HW218726   0.226   1.977   5.399 -0.2529 -0.8424  1.1996
 2423SOL     OW18727   0.480   0.622   2.279  0.2141  0.1959  0.3785
 2423SOL    HW118728   0.569   0.654   2.261  0.0700 -2.0856 -4.4385
 2423SOL    HW218729   0.502   0.529   2.277 -1.1503 -0.1782  2.7514
 2424SOL     OW18730   0.289   0.112  13.454  0.1764 -0.1420 -0.2186
 2424SOL    HW118731   0.324   0.031  13.491 -1.5630 -1.8932 -2.4022
 2424SOL    HW218732   0.235   0.081  13.382 -2.1964  2.8129  0.2860
 2425SOL     OW18733   3.684   0.282   3.619  0.1874  0.3257  0.1280
 2425SOL    HW118734   3.605   0.235   3.644  1.5815 -2.5098 -0.8262
 2425SOL    HW218735   3.663   0.365   3.661  0.0315 -0.7677  2.2157
 2426SOL     OW18736   3.661   4.081   7.649  0.2845  0.5004 -1.0410
 2426SOL    HW118737   3.610   4.150   7.607 -1.9691 -0.3184  0.3531
 2426SOL    HW218738   3.624   3.997   7.620 -0.1667  0.6039 -0.7590
 2427SOL     OW18739   1.524   3.888  11.734 -0.1955  0.4369  0.4777
 2427SOL    HW118740   1.617   3.896  11.754  0.1132 -0.6455 -0.5096
 2427SOL    HW218741   1.529   3.851  11.645 -0.4637  0.7844  0.3140
 2428SOL     OW18742   0.929   2.426  13.385  0.1387  0.2246  0.3906
 2428SOL    HW118743   0.885   2.419  13.301  1.4186  0.8913 -0.3224
 2428SOL    HW218744   0.860   2.465  13.440 -0.3615  0.0269 -0.0975
 2429SOL     OW18745   2.818   2.728  12.161 -0.3596  0.2278 -0.3755
 2429SOL    HW118746   2.776   2.810  12.136 -1.2548  0.1169  0.7586
 2429SOL    HW218747   2.754   2.692  12.222 -1.5227 -0.1641 -1.8344
 2430SOL     OW18748   3.133   1.568   8.977  0.5242  0.1668 -0.2847
 2430SOL    HW118749   3.125   1.516   8.898  2.2188 -0.1158 -0.2512
 2430SOL    HW218750   3.223   1.553   9.003  0.1570  0.9069  1.4426
 2431SOL     OW18751   1.613   3.876   7.176  0.9269 -0.2691  0.7323
 2431SOL    HW118752   1.528   3.873   7.220  0.9202  0.9979  0.8001
 2431SOL    HW218753   1.647   3.962   7.202 -1.3221  0.4186  1.3743
 2432SOL     OW18754   2.055   3.621   8.279 -0.0427  0.0507  0.2844
 2432SOL    HW118755   2.065   3.692   8.216 -0.4734 -0.4563 -0.3708
 2432SOL    HW218756   2.063   3.662   8.364 -1.1421  1.3410 -0.2358
 2433SOL     OW18757   1.540   1.112   0.304  0.5439  0.6762 -0.6001
 2433SOL    HW118758   1.453   1.105   0.265 -0.1314  0.2669  0.9993
 2433SOL    HW218759   1.597   1.128   0.228 -0.7762  1.2506 -1.4621
 2434SOL     OW18760   1.301   2.995  17.693 -0.3973 -0.0598  0.2917
 2434SOL    HW118761   1.366   3.023  17.628 -0.9814  1.7612  0.4984
 2434SOL    HW218762   1.342   2.911   0.015 -0.6503 -0.0736  0.7668
 2435SOL     OW18763   0.470   2.708  16.115  0.3053 -0.3067  0.0186
 2435SOL    HW118764   0.557   2.673  16.097  0.3167 -0.0955 -0.3327
 2435SOL    HW218765   0.438   2.737  16.030 -0.9417  0.3018  0.6834
 2436SOL     OW18766   0.078   0.562   8.416  0.4413  0.3992  0.2312
 2436SOL    HW118767   0.102   0.473   8.441  2.3626  0.4744 -1.2931
 2436SOL    HW218768   0.017   0.557   8.342  1.3962  1.1423 -0.6214
 2437SOL     OW18769   0.627   1.686   8.489  0.0277  0.2981 -0.3698
 2437SOL    HW118770   0.707   1.739   8.484 -0.6803  1.1351 -3.2095
 2437SOL    HW218771   0.657   1.618   8.549 -0.6270  0.1019 -0.2699
 2438SOL     OW18772   3.728   3.354   5.807  0.7115 -0.1204  0.8150
 2438SOL    HW118773   3.768   3.392   5.886  0.7547  0.5800  0.4575
 2438SOL    HW218774   3.808   3.324   5.765  0.1062 -0.4827 -0.0948
 2439SOL     OW18775   0.571   4.571   5.571  0.3251 -0.3217  0.5133
 2439SOL    HW118776   0.565   4.666   5.558  1.7319 -0.8218 -3.9083
 2439SOL    HW218777   0.503   4.536   5.514  1.0586  0.2835 -0.7382
 2440SOL     OW18778   4.697   3.245   7.783  0.1860 -0.3274  0.1367
 2440SOL    HW118779   0.068   3.230   7.787  0.1725 -0.2348  0.9388
 2440SOL    HW218780   4.697   3.328   7.831 -1.2989  0.3659 -1.0828
 2441SOL     OW18781   3.202   4.253   8.525  0.2060  1.1420  0.1518
 2441SOL    HW118782   3.248   4.284   8.603  0.6353  0.4748  0.1614
 2441SOL    HW218783   3.252   4.175   8.501  1.7053  1.6604  1.5098
 2442SOL     OW18784   4.412   3.921   8.012 -0.1557 -0.7885  0.2218
 2442SOL    HW118785   4.484   3.882   8.061 -0.8425 -3.2347 -0.6695
 2442SOL    HW218786   4.432   4.014   8.006 -1.0087 -0.6687 -0.8480
 2443SOL     OW18787   2.958   0.793   2.778  0.0587 -0.0873  0.3410
 2443SOL    HW118788   3.047   0.787   2.811  0.7352  1.9352 -1.1097
 2443SOL    HW218789   2.908   0.828   2.851  0.1171  1.0135 -0.1463
 2444SOL     OW18790   2.488   2.443   0.603 -0.1824 -0.0765  0.1820
 2444SOL    HW118791   2.506   2.390   0.526  0.4592 -0.4237  0.5731
 2444SOL    HW218792   2.577   2.468   0.629  0.4283  0.0770 -2.0876
 2445SOL     OW18793   2.309   2.193   6.465 -0.0012  0.2376 -0.1093
 2445SOL    HW118794   2.230   2.175   6.414  0.0709  1.1680 -0.5547
 2445SOL    HW218795   2.280   2.198   6.557 -1.9661 -1.3150 -0.6409
 2446SOL     OW18796   4.381   0.142  17.356 -0.5094 -0.1916 -0.0627
 2446SOL    HW118797   4.318   0.129  17.286  0.7832 -0.8417 -1.0995
 2446SOL    HW218798   4.365   0.232  17.384 -0.3091 -0.2771  0.3313
 2447SOL     OW18799   2.755   0.173   5.743  0.3646  0.5755 -0.5793
 2447SOL    HW118800   2.713   0.090   5.765  0.2718  1.7644  3.7077
 2447SOL    HW218801   2.754   0.168   5.647 -2.2404 -0.8724 -0.4731
 2448SOL     OW18802   1.795   4.201   8.115  0.6085 -0.0380 -0.2319
 2448SOL    HW118803   1.728   4.265   8.092  1.5540  1.4338  1.0819
 2448SOL    HW218804   1.737   4.132   8.147  0.8937 -0.0422  0.2816
 2449SOL     OW18805   2.527   3.683  13.676  0.0130 -0.6288 -0.2429
 2449SOL    HW118806   2.556   3.592  13.680 -0.9633 -0.9164  0.4312
 2449SOL    HW218807   2.513   3.706  13.768 -1.2507 -3.6293  0.3106
 2450SOL     OW18808   3.283   1.524   4.693  0.3251  0.0574  0.4687
 2450SOL    HW118809   3.242   1.484   4.770 -2.8552 -0.2862 -1.3843
 2450SOL    HW218810   3.258   1.610   4.728 -1.2065  0.3968 -1.4228
 2451SOL     OW18811   3.029   3.420   3.193  0.0231  0.6621 -0.0569
 2451SOL    HW118812   2.979   3.404   3.113 -1.9976  3.5891  0.6308
 2451SOL    HW218813   3.005   3.341   3.241 -1.8139  0.5771 -1.1173
 2452SOL     OW18814   3.957   4.490   7.317 -0.7476  0.4274 -0.2320
 2452SOL    HW118815   3.871   4.449   7.323 -0.0711 -1.5171 -3.6925
 2452SOL    HW218816   3.940   4.584   7.321 -2.0822  0.2148 -1.1963
 2453SOL     OW18817   2.811   2.735   5.502  0.1236 -0.1401  0.0125
 2453SOL    HW118818   2.832   2.645   5.528  1.6723  0.3971  0.5826
 2453SOL    HW218819   2.775   2.764   5.585  1.8684  1.8801  0.0638
 2454SOL     OW18820   3.763   2.228   2.354 -0.0503  0.2276  0.5777
 2454SOL    HW118821   3.719   2.196   2.275  0.6920 -1.6081  0.9011
 2454SOL    HW218822   3.828   2.292   2.328  0.0911  0.5630  1.7428
 2455SOL     OW18823   0.832   0.429  13.474 -0.2466  0.1963  0.1159
 2455SOL    HW118824   0.896   0.404  13.540  0.5252 -2.6824 -1.7204
 2455SOL    HW218825   0.751   0.450  13.521 -0.3278  0.9722 -0.3688
 2456SOL     OW18826   3.548   3.203   5.202 -0.1116 -0.0127 -0.8710
 2456SOL    HW118827   3.627   3.151   5.218  0.1549  1.0007  1.0689
 2456SOL    HW218828   3.476   3.151   5.238  2.2623 -1.6386  1.5869
 2457SOL     OW18829   0.394   0.517   4.625 -0.0157 -0.0397  0.5339
 2457SOL    HW118830   0.306   0.546   4.600 -1.2816 -0.8943  4.0187
 2457SOL    HW218831   0.419   0.596   4.673 -0.3440  0.9283 -0.8737
 2458SOL     OW18832   3.018   2.201   6.288 -0.7436 -0.5600  0.3595
 2458SOL    HW118833   3.086   2.143   6.252 -1.4925 -1.2730  0.1100
 2458SOL    HW218834   3.049   2.204   6.379  1.9655 -1.6827 -0.5007
 2459SOL     OW18835   0.511   0.669   1.476 -0.0191  0.5952 -0.5177
 2459SOL    HW118836   0.495   0.576   1.492  1.1253  0.6317  0.8339
 2459SOL    HW218837   0.442   0.714   1.525  0.3885  1.1139 -0.4219
 2460SOL     OW18838   2.960   1.806   7.813 -0.2673 -0.7085 -0.0098
 2460SOL    HW118839   3.050   1.779   7.831 -0.4523  0.7006  2.9486
 2460SOL    HW218840   2.914   1.748   7.874 -1.7629  1.2469  0.7078
 2461SOL     OW18841   2.961   2.117   4.671  0.2335  0.5759  0.0634
 2461SOL    HW118842   3.049   2.088   4.697 -0.5675 -0.0046  2.1888
 2461SOL    HW218843   2.913   2.036   4.652 -0.0760  1.1548 -1.6230
 2462SOL     OW18844   1.489   1.982   4.350  0.3022 -0.9409  0.0567
 2462SOL    HW118845   1.425   1.919   4.383  0.0043 -0.5061  0.3128
 2462SOL    HW218846   1.484   1.959   4.257  1.3477  1.9150 -0.7244
 2463SOL     OW18847   0.547   4.241  17.563  0.0166  0.5208 -0.3829
 2463SOL    HW118848   0.631   4.201  17.586 -1.1278 -1.2630  0.6257
 2463SOL    HW218849   0.581   4.324  17.527  1.6571  1.4646  3.2793
 2464SOL     OW18850   1.110   2.379   2.596  0.0432  0.1197 -0.1500
 2464SOL    HW118851   1.104   2.342   2.685 -1.7737  0.6883 -0.0240
 2464SOL    HW218852   1.144   2.466   2.618  2.8781 -0.5469 -1.9649
 2465SOL     OW18853   3.383   3.624  14.770 -0.0480 -0.0047  0.4558
 2465SOL    HW118854   3.325   3.605  14.696 -1.0361 -1.9644  1.7348
 2465SOL    HW218855   3.353   3.715  14.769  1.1602  0.4389  4.0511
 2466SOL     OW18856   1.299   3.813   1.153 -0.2518  0.0936 -0.4217
 2466SOL    HW118857   1.264   3.788   1.067 -0.7002 -0.5212 -0.0572
 2466SOL    HW218858   1.287   3.907   1.155  1.1220  0.2457  0.7495
 2467SOL     OW18859   0.674   3.794  15.218  0.2287 -0.5437 -0.8522
 2467SOL    HW118860   0.621   3.821  15.143 -1.4537  0.2763  0.6303
 2467SOL    HW218861   0.756   3.838  15.197  0.0397  0.5744  0.7099
 2468SOL     OW18862   3.558   3.390  12.641 -0.5144  0.4717 -0.2552
 2468SOL    HW118863   3.583   3.310  12.687 -0.6020  2.1875  2.7934
 2468SOL    HW218864   3.609   3.384  12.560 -1.6165 -0.0457 -0.9047
 2469SOL     OW18865   0.488   3.167  15.658 -0.5193 -0.4009 -0.5580
 2469SOL    HW118866   0.559   3.192  15.716  0.1076 -0.0358 -1.4847
 2469SOL    HW218867   0.525   3.191  15.573 -1.4388 -0.3274 -0.9356
 2470SOL     OW18868   0.097   2.703   4.924  0.5590  0.1367 -0.1916
 2470SOL    HW118869   0.108   2.608   4.932 -0.1748  0.1629  1.0717
 2470SOL    HW218870   0.033   2.707   4.853  1.1488  1.2482 -0.6652
 2471SOL     OW18871   4.111   0.495   9.746  0.0176 -0.1766 -0.3798
 2471SOL    HW118872   4.188   0.483   9.802  0.2542  0.1626 -0.6288
 2471SOL    HW218873   4.072   0.408   9.736  0.6188 -0.5468  0.5552
 2472SOL     OW18874   2.876   2.343  10.503 -0.1695 -0.1360 -0.3306
 2472SOL    HW118875   2.960   2.328  10.459 -1.2744 -1.2946 -2.0500
 2472SOL    HW218876   2.921   2.374  10.581  0.2365 -1.9982  0.1718
 2473SOL     OW18877   4.199   1.971   5.629  0.5680 -0.1033 -0.4734
 2473SOL    HW118878   4.204   2.046   5.689  2.0864 -0.0587 -0.6571
 2473SOL    HW218879   4.141   2.011   5.565 -0.1503  0.5038  0.5451
 2474SOL     OW18880   2.498   1.077   3.968 -0.3459 -0.2657 -0.0058
 2474SOL    HW118881   2.518   1.170   3.958  3.9060 -1.0763  1.2191
 2474SOL    HW218882   2.442   1.080   4.046 -0.5659 -0.8493 -0.1375
 2475SOL     OW18883   2.732   3.320   5.011 -0.0777  0.0556  0.6767
 2475SOL    HW118884   2.796   3.308   5.082 -0.9641  0.2566  1.5030
 2475SOL    HW218885   2.648   3.315   5.056  0.4105 -1.2948  1.4464
 2476SOL     OW18886   1.900   1.892   5.941 -0.4405  0.4102 -0.2871
 2476SOL    HW118887   1.986   1.857   5.965 -0.6021  0.9197  1.0173
 2476SOL    HW218888   1.874   1.911   6.031 -0.1122 -0.6802  0.0355
 2477SOL     OW18889   0.991   3.716   2.059 -0.3094 -0.1512 -0.2614
 2477SOL    HW118890   0.949   3.793   2.097 -0.4740 -0.3153 -0.1072
 2477SOL    HW218891   0.987   3.754   1.971 -3.3065  0.1443  0.0033
 2478SOL     OW18892   2.758   0.927   8.276 -0.2923  0.0666 -0.3021
 2478SOL    HW118893   2.851   0.912   8.263  0.1971  2.0847  0.8959
 2478SOL    HW218894   2.723   0.839   8.291 -2.0500  0.4257 -2.2195
 2479SOL     OW18895   3.345   3.911  11.635 -0.5143 -0.2945  0.1257
 2479SOL    HW118896   3.436   3.898  11.662  0.5180  0.5705 -2.9037
 2479SOL    HW218897   3.309   3.928  11.722  1.9493  1.4945  0.7835
 2480SOL     OW18898   2.931   4.091   6.740  0.1372  0.6751  0.2651
 2480SOL    HW118899   2.869   4.050   6.800 -1.0477  1.0916 -0.6970
 2480SOL    HW218900   2.872   4.151   6.695  0.4162  0.5498 -0.2770
 2481SOL     OW18901   2.264   4.035  16.214 -0.0985  0.9688  0.3119
 2481SOL    HW118902   2.321   4.049  16.290 -1.0721  2.2555  0.7880
 2481SOL    HW218903   2.249   3.940  16.219 -4.2289  1.5372 -1.2643
 2482SOL     OW18904   2.041   1.622  13.133 -0.1411 -0.3416  0.1750
 2482SOL    HW118905   2.095   1.564  13.186 -0.0121 -0.6400 -0.2864
 2482SOL    HW218906   2.083   1.622  13.047  0.7548 -0.1592  0.6163
 2483SOL     OW18907   3.824   1.241   3.785  0.2377  0.8052  0.3460
 2483SOL    HW118908   3.783   1.313   3.834 -0.2889  2.8290 -3.0785
 2483SOL    HW218909   3.914   1.269   3.803  0.5475 -0.5331  0.8563
 2484SOL     OW18910   1.863   2.951  13.679 -0.1096  0.1463 -0.4434
 2484SOL    HW118911   1.906   2.946  13.594 -0.0611 -0.2174 -0.3941
 2484SOL    HW218912   1.774   2.979  13.653 -0.5188  0.1873  1.0074
 2485SOL     OW18913   0.620   3.826  16.147 -0.3533 -0.5411  0.3057
 2485SOL    HW118914   0.682   3.778  16.202  0.8046 -1.6358 -1.9712
 2485SOL    HW218915   0.549   3.762  16.146 -0.9686  0.1317  0.2693
 2486SOL     OW18916   3.043   1.202   7.472  0.6944 -0.1365  0.2443
 2486SOL    HW118917   3.017   1.283   7.428 -0.1391 -0.8630 -0.6113
 2486SOL    HW218918   2.964   1.179   7.522  1.1063 -0.7558  0.6075
 2487SOL     OW18919   4.284   4.099  17.397 -0.1961  0.5213  0.2806
 2487SOL    HW118920   4.287   4.013  17.354  2.5458  0.5683  0.4044
 2487SOL    HW218921   4.337   4.154  17.340 -0.7566  1.1602  0.3798
 2488SOL     OW18922   1.655   0.865   2.971 -0.1993  0.3977 -0.6002
 2488SOL    HW118923   1.581   0.808   2.991  0.0235  0.1866 -0.3557
 2488SOL    HW218924   1.690   0.849   3.059  1.2802  2.1512 -0.8545
 2489SOL     OW18925   1.266   4.361   4.237 -0.0049  0.1713 -0.4469
 2489SOL    HW118926   1.242   4.270   4.221 -0.9601  0.8599 -2.8364
 2489SOL    HW218927   1.340   4.354   4.297  1.3240 -1.1088 -2.2374
 2490SOL     OW18928   1.669   2.383   2.259 -0.8052  0.1933 -0.7778
 2490SOL    HW118929   1.624   2.305   2.227 -0.0115 -0.2660 -0.7655
 2490SOL    HW218930   1.731   2.341   2.318  0.8891  0.0650 -2.6587
 2491SOL     OW18931   1.072   2.467   8.652 -0.3634 -0.0543  0.2204
 2491SOL    HW118932   0.995   2.432   8.608 -0.3580  1.4570 -0.9555
 2491SOL    HW218933   1.038   2.512   8.729 -0.9029 -2.8606  1.6293
 2492SOL     OW18934   2.048   2.361   5.866  0.0975 -0.6644  0.8006
 2492SOL    HW118935   2.094   2.360   5.782  0.9793 -0.8923  1.2871
 2492SOL    HW218936   2.052   2.453   5.895  2.0890 -1.0089  1.6553
 2493SOL     OW18937   0.569   4.282   3.986  0.6600 -0.0043  0.3435
 2493SOL    HW118938   0.620   4.322   3.916 -0.2173 -1.2046 -0.9579
 2493SOL    HW218939   0.593   4.347   4.052  0.6775 -0.9002  1.2175
 2494SOL     OW18940   1.489   1.887  17.201  0.4859 -0.1789  0.1819
 2494SOL    HW118941   1.472   1.935  17.282 -1.3524  0.2742 -0.4547
 2494SOL    HW218942   1.567   1.936  17.178  0.2905 -1.1270 -2.5456
 2495SOL     OW18943   3.245   0.704   2.507 -0.1378 -0.1274 -0.6255
 2495SOL    HW118944   3.298   0.783   2.504 -0.7249  0.3216  0.8222
 2495SOL    HW218945   3.221   0.691   2.416  0.5746  0.5821 -0.9115
 2496SOL     OW18946   3.876   3.656   7.530  0.1938 -0.4261  0.0839
 2496SOL    HW118947   3.783   3.661   7.512 -0.2775  0.1587  2.6831
 2496SOL    HW218948   3.864   3.691   7.619  3.3390  1.0038 -0.0252
 2497SOL     OW18949   2.377   2.902  12.548  0.7856  0.0156 -0.4036
 2497SOL    HW118950   2.425   2.868  12.623 -1.3539 -0.2005  0.8717
 2497SOL    HW218951   2.289   2.918  12.582  0.8840  1.8927 -1.0262
 2498SOL     OW18952   1.691   2.718   2.930 -0.4506  0.2279  0.6768
 2498SOL    HW118953   1.726   2.746   2.846  0.2622  2.0494  1.5827
 2498SOL    HW218954   1.765   2.659   2.950 -2.0496 -2.5221 -1.5851
 2499SOL     OW18955   3.051   0.413  13.763  0.3441  0.1337 -0.1007
 2499SOL    HW118956   2.976   0.440  13.709 -0.3962 -0.1745  0.7565
 2499SOL    HW218957   3.013   0.330  13.792  1.4200 -0.8778 -1.6144
 2500SOL     OW18958   1.056   3.519   4.283 -0.2230 -1.0725  0.0116
 2500SOL    HW118959   1.001   3.447   4.314 -1.1951  0.3426  1.5868
 2500SOL    HW218960   1.063   3.483   4.195 -1.9658 -0.7391 -0.2546
 2501SOL     OW18961   4.195   4.536   7.441  0.4671  0.6564 -0.2006
 2501SOL    HW118962   4.211   4.461   7.497  3.0818 -0.4873 -2.4653
 2501SOL    HW218963   4.109   4.526   7.399  0.7292 -1.0176 -0.3411
 2502SOL     OW18964   2.178   3.816   5.451  0.5868  0.0188 -0.1765
 2502SOL    HW118965   2.272   3.821   5.433  0.4218 -1.6055 -1.4585
 2502SOL    HW218966   2.152   3.908   5.460 -0.9638 -0.3487 -0.9801
 2503SOL     OW18967   2.407   4.534  13.973 -0.0793 -0.1034 -0.4440
 2503SOL    HW118968   2.344   4.467  13.997 -0.2234  0.3484  0.4382
 2503SOL    HW218969   2.486   4.481  13.968 -0.6112 -1.0493  1.3310
 2504SOL     OW18970   3.724   4.404   0.705  0.3486 -0.3897 -0.0131
 2504SOL    HW118971   3.753   4.402   0.614  0.7025  0.2326  0.0869
 2504SOL    HW218972   3.695   4.496   0.708 -1.0805 -0.8261 -0.4583
 2505SOL     OW18973   4.296   1.700   6.197  0.1516  0.4372 -0.0271
 2505SOL    HW118974   4.219   1.659   6.235  1.7360 -0.8211  1.8159
 2505SOL    HW218975   4.324   1.769   6.257 -3.7135 -0.0912  2.3670
 2506SOL     OW18976   2.174   1.902   6.587 -0.2992  0.7140 -0.8058
 2506SOL    HW118977   2.261   1.876   6.614 -1.0046 -1.9957 -1.1209
 2506SOL    HW218978   2.154   1.967   6.654  0.7603 -0.3748  0.5522
 2507SOL     OW18979   1.345   1.359   3.488 -0.3687  0.0788  0.4768
 2507SOL    HW118980   1.315   1.302   3.416 -0.2231 -0.3543  0.7591
 2507SOL    HW218981   1.399   1.300   3.541 -0.1198  1.4697  1.7604
 2508SOL     OW18982   0.891   4.138   5.292 -0.5352  0.2141 -0.4427
 2508SOL    HW118983   0.955   4.206   5.314 -1.9692  0.8854  1.6697
 2508SOL    HW218984   0.825   4.142   5.362 -2.0038 -0.4600 -1.7766
 2509SOL     OW18985   1.533   3.389   7.375 -0.1641  0.2100 -0.5469
 2509SOL    HW118986   1.540   3.426   7.287 -1.8170  1.1458 -0.2873
 2509SOL    HW218987   1.625   3.367   7.388  0.4255  2.6295 -0.6722
 2510SOL     OW18988   2.930   2.494   3.748 -0.3732  0.0527 -0.2095
 2510SOL    HW118989   2.949   2.493   3.842  0.4144  2.1852 -0.3273
 2510SOL    HW218990   3.003   2.551   3.723 -1.7099  1.9134  0.1277
 2511SOL     OW18991   2.280   3.238   2.636  0.6640 -0.0857  0.8005
 2511SOL    HW118992   2.359   3.189   2.658  0.3448 -0.0789  1.9666
 2511SOL    HW218993   2.245   3.180   2.568  0.2540  1.5516 -0.3710
 2512SOL     OW18994   3.943   1.605   4.722 -0.1588 -0.0547 -0.6152
 2512SOL    HW118995   3.924   1.627   4.631 -0.1836 -1.2458 -0.9039
 2512SOL    HW218996   3.869   1.652   4.758 -0.0992 -1.8515  1.8870
 2513SOL     OW18997   3.582   1.549   2.122  0.0640 -0.3411 -0.6606
 2513SOL    HW118998   3.613   1.640   2.116 -1.2168 -0.0022 -2.3362
 2513SOL    HW218999   3.494   1.560   2.084 -0.4921 -1.3012  0.3769
 2514SOL     OW19000   4.433   3.742  11.081 -0.5156  0.2552 -0.2283
 2514SOL    HW119001   4.507   3.790  11.117 -1.3480 -1.2796  3.4999
 2514SOL    HW219002   4.361   3.792  11.121  0.4546  1.9524 -0.6039
 2515SOL     OW19003   3.748   2.327  17.664  0.4469 -0.3036  0.1282
 2515SOL    HW119004   3.798   2.249  17.689  0.3089 -0.2901  0.4522
 2515SOL    HW219005   3.679   2.284  17.614  0.9423 -1.4766  0.4320
 2516SOL     OW19006   1.292   4.033   4.558 -0.0812  0.3538 -0.3159
 2516SOL    HW119007   1.237   3.975   4.505 -0.7673 -0.7790  1.6534
 2516SOL    HW219008   1.302   3.976   4.634  1.1626  0.1522 -0.6295
 2517SOL     OW19009   3.482   1.045  14.783  0.0862  0.4147 -0.1451
 2517SOL    HW119010   3.460   1.126  14.737  0.3438 -0.2498 -1.4408
 2517SOL    HW219011   3.538   1.077  14.854  0.4913 -1.6318  0.4364
 2518SOL     OW19012   0.611   0.941   4.076  0.0542 -0.0227 -0.0989
 2518SOL    HW119013   0.517   0.956   4.082 -0.2301 -1.0721 -1.7650
 2518SOL    HW219014   0.651   0.999   4.141 -0.2675  0.2366 -0.1345
 2519SOL     OW19015   2.229   1.287  11.861 -0.1134 -1.0379 -0.4641
 2519SOL    HW119016   2.295   1.287  11.930 -0.9834 -0.6243  0.3762
 2519SOL    HW219017   2.277   1.306  11.781  0.0311 -1.2443 -0.4272
 2520SOL     OW19018   1.400   1.733   1.668 -1.0395 -0.6876  0.1435
 2520SOL    HW119019   1.385   1.824   1.693 -0.5921 -0.4637 -0.4371
 2520SOL    HW219020   1.493   1.735   1.645 -0.7622  2.4161  1.6023
 2521SOL     OW19021   4.317   0.451   2.458  0.2923 -0.1061  0.5299
 2521SOL    HW119022   4.344   0.378   2.402 -1.9818  0.2141 -0.9917
 2521SOL    HW219023   4.380   0.519   2.434 -0.5033  0.0676 -1.0435
 2522SOL     OW19024   0.782   2.121   3.458 -0.1850  0.4172  0.0620
 2522SOL    HW119025   0.721   2.060   3.417 -0.1362 -0.8303  1.8338
 2522SOL    HW219026   0.806   2.172   3.381  2.9440 -2.4345 -0.8208
 2523SOL     OW19027   4.281   1.608   1.560  0.2332  0.2402 -0.3954
 2523SOL    HW119028   4.288   1.590   1.466  2.2770  1.7433 -0.5257
 2523SOL    HW219029   4.196   1.573   1.588 -1.1124  2.1636 -2.0985
 2524SOL     OW19030   3.132   0.749   7.584 -0.0778  0.5266  0.0182
 2524SOL    HW119031   3.226   0.734   7.576 -0.2218 -0.9542  1.1388
 2524SOL    HW219032   3.126   0.839   7.551 -1.0268  0.7112  0.6936
 2525SOL     OW19033   3.264   2.031  17.602  0.1512 -0.3156  0.1510
 2525SOL    HW119034   3.231   2.094  17.665 -0.8812 -0.4443 -0.2680
 2525SOL    HW219035   3.315   1.977  17.663 -1.2151  0.3338  1.8496
 2526SOL     OW19036   0.395   4.613   1.511  0.3584  0.5679  0.5332
 2526SOL    HW119037   0.303   4.595   1.529  0.4947  0.1635  0.8253
 2526SOL    HW219038   0.383   4.680   1.445  0.8398 -0.6924 -0.8358
 2527SOL     OW19039   0.775   1.949  12.390  0.1612  0.6834  0.2035
 2527SOL    HW119040   0.822   2.030  12.409  3.0012 -1.3185  1.9614
 2527SOL    HW219041   0.821   1.880  12.439  0.9063  0.2904 -1.0698
 2528SOL     OW19042   4.073   2.514   8.540 -0.5285 -0.1964 -0.1278
 2528SOL    HW119043   4.093   2.606   8.555 -2.2759  0.3396 -1.0908
 2528SOL    HW219044   4.057   2.475   8.625 -0.1796 -0.7891 -0.3343
 2529SOL     OW19045   4.355   4.536   4.073  0.5421 -0.1167  0.0939
 2529SOL    HW119046   4.334   4.452   4.113 -1.7350  1.0024  1.2714
 2529SOL    HW219047   4.327   4.532   3.981 -0.6873  1.3325  0.4012
 2530SOL     OW19048   0.984   2.550   1.838  0.1840 -0.0446 -0.5257
 2530SOL    HW119049   1.008   2.623   1.781  0.1727 -0.0480 -0.5349
 2530SOL    HW219050   1.048   2.480   1.819  0.8226  0.7632 -1.3232
 2531SOL     OW19051   4.509   1.964   1.175  0.6543 -0.0504  0.0727
 2531SOL    HW119052   4.605   1.965   1.174  0.6618 -0.5581  0.3392
 2531SOL    HW219053   4.490   1.985   1.266 -0.5063 -0.4059 -0.0875
 2532SOL     OW19054   1.406   1.965  17.444 -0.1398 -0.8283 -0.3766
 2532SOL    HW119055   1.339   2.030  17.465 -0.5562 -1.0829 -0.9237
 2532SOL    HW219056   1.354   1.893  17.479 -0.8138  1.1478  2.7244
 2533SOL     OW19057   1.807   0.922  11.387 -0.4688 -0.1844 -1.2039
 2533SOL    HW119058   1.728   0.971  11.407 -0.5383 -1.0480  0.5848
 2533SOL    HW219059   1.866   0.962  11.451  0.0530 -2.9274  0.0377
 2534SOL     OW19060   3.064   0.393  10.436 -0.0229  0.1922  0.2876
 2534SOL    HW119061   3.046   0.481  10.470  0.2802  1.1109 -1.9655
 2534SOL    HW219062   3.117   0.417  10.361 -0.2094 -0.5222 -0.0707
 2535SOL     OW19063   3.643   4.612   3.417  0.3697 -0.4096  0.3718
 2535SOL    HW119064   3.595   4.577   3.493  1.6079 -1.4541  0.6767
 2535SOL    HW219065   3.600   4.695   3.397 -1.0987 -1.5937 -1.2745
 2536SOL     OW19066   1.446   1.763   6.464 -0.6454 -0.8385 -0.4229
 2536SOL    HW119067   1.379   1.748   6.397 -0.8354 -1.0314 -0.1866
 2536SOL    HW219068   1.518   1.715   6.423 -1.3530 -1.5234 -0.8752
 2537SOL     OW19069   0.806   2.751   3.162  0.7054 -0.4067  0.3153
 2537SOL    HW119070   0.846   2.796   3.087  1.3800 -1.3941  0.0767
 2537SOL    HW219071   0.872   2.685   3.182  0.5493 -0.4797  0.5825
 2538SOL     OW19072   4.562   1.450   4.453 -0.2695  0.4175 -0.0896
 2538SOL    HW119073   4.656   1.436   4.438 -0.3614  0.6513 -0.8962
 2538SOL    HW219074   4.536   1.449   4.361 -1.8763 -0.7097  0.3752
 2539SOL     OW19075   2.266   4.012   3.905 -0.4073  0.4217 -0.1950
 2539SOL    HW119076   2.176   4.033   3.930  0.0328  1.6113  0.3727
 2539SOL    HW219077   2.273   3.919   3.926 -1.6193  0.6482  1.2303
 2540SOL     OW19078   1.995   0.039   5.823 -0.6405  0.4652 -0.3765
 2540SOL    HW119079   1.921   4.711   5.792 -0.0536 -1.1024  0.8590
 2540SOL    HW219080   1.972   0.123   5.861  1.5991  0.8195  0.2049
 2541SOL     OW19081   0.806   2.339  11.224 -0.0769  0.1764  0.0122
 2541SOL    HW119082   0.711   2.332  11.238 -0.0091  0.1927  0.4790
 2541SOL    HW219083   0.812   2.403  11.153  2.7503 -2.5439 -2.2042
 2542SOL     OW19084   0.019   0.463   3.647  0.4174  0.3248  0.3280
 2542SOL    HW119085   0.099   0.514   3.632 -0.0811  0.6449 -1.2877
 2542SOL    HW219086   4.704   0.462   3.560 -0.8668 -0.6157  0.9236
 2543SOL     OW19087   0.609   3.580   0.039 -0.4467 -0.5031 -0.0840
 2543SOL    HW119088   0.547   3.647   0.068  1.6298  1.7311 -0.8230
 2543SOL    HW219089   0.568   3.571  17.650 -1.1201  1.3129  0.0467
 2544SOL     OW19090   3.672   0.702   5.768 -0.0824 -0.5451  0.2246
 2544SOL    HW119091   3.744   0.760   5.790 -1.6753  0.7716  1.9801
 2544SOL    HW219092   3.619   0.698   5.848 -0.8459 -0.6238 -0.2750
 2545SOL     OW19093   2.001   1.680   2.779  0.3512  0.3802 -0.2009
 2545SOL    HW119094   1.916   1.697   2.820 -0.0569  0.3618 -1.0501
 2545SOL    HW219095   2.043   1.638   2.854  2.2204  0.9425 -0.9414
 2546SOL     OW19096   3.302   2.151   6.275 -0.0149 -0.3247 -0.7973
 2546SOL    HW119097   3.392   2.171   6.251 -0.4537  2.0445 -0.4690
 2546SOL    HW219098   3.309   2.142   6.370 -0.7314 -0.9260 -0.7984
 2547SOL     OW19099   4.335   0.428   9.880 -0.2082 -0.0648 -0.4731
 2547SOL    HW119100   4.417   0.476   9.891 -0.1804  0.0416 -1.1108
 2547SOL    HW219101   4.376   0.343   9.863 -1.5754 -0.8662  0.2612
 2548SOL     OW19102   3.409   1.389   7.990 -0.6197 -0.1231 -0.2629
 2548SOL    HW119103   3.436   1.356   8.075 -1.7271 -1.7270 -0.5319
 2548SOL    HW219104   3.385   1.304   7.954  1.2876 -0.8272  0.1338
 2549SOL     OW19105   0.680   1.144   2.221  0.2568  0.7782 -0.4402
 2549SOL    HW119106   0.768   1.136   2.257  0.0194 -2.5125 -0.6029
 2549SOL    HW219107   0.674   1.232   2.184 -0.6117  1.4900  1.4266
 2550SOL     OW19108   2.551   2.112   6.836 -0.3535 -0.4770  0.5342
 2550SOL    HW119109   2.465   2.070   6.845 -1.4576  1.8122  0.8230
 2550SOL    HW219110   2.587   2.069   6.759 -1.6431 -0.5541 -0.0283
 2551SOL     OW19111   4.065   3.627   8.852 -0.5381  0.1561 -0.1897
 2551SOL    HW119112   4.108   3.643   8.937 -0.7992  1.0566 -0.2293
 2551SOL    HW219113   4.101   3.701   8.804  0.5684 -0.4065 -0.2387
 2552SOL     OW19114   1.187   2.835  14.657 -0.2379  0.5290 -0.0853
 2552SOL    HW119115   1.137   2.916  14.671  0.0924  0.3449  2.1316
 2552SOL    HW219116   1.255   2.880  14.607 -1.0440  2.1735  0.2881
 2553SOL     OW19117   1.441   2.213  11.820 -0.0058  0.2597  0.0256
 2553SOL    HW119118   1.391   2.134  11.802 -1.6080  1.8744 -2.5628
 2553SOL    HW219119   1.370   2.274  11.840 -0.1722 -0.0861  0.4945
 2554SOL     OW19120   1.434   2.843   9.734  0.1217 -0.0426 -0.0619
 2554SOL    HW119121   1.438   2.935   9.708 -0.4004  0.8025  2.9053
 2554SOL    HW219122   1.353   2.833   9.785 -0.3475  1.6570 -0.5020
 2555SOL     OW19123   1.269   2.501   5.928  0.0959  0.1493 -0.5828
 2555SOL    HW119124   1.240   2.425   5.878  1.5235 -0.8624  0.1241
 2555SOL    HW219125   1.284   2.566   5.859  0.2259 -0.1846 -0.8717
 2556SOL     OW19126   1.752   2.288   1.190 -0.4390 -0.1963  0.1237
 2556SOL    HW119127   1.658   2.274   1.188 -0.5249  0.2751  0.7498
 2556SOL    HW219128   1.758   2.364   1.132 -0.5660 -0.4486 -0.2262
 2557SOL     OW19129   0.373   1.846   7.471 -0.5203 -0.7024  0.3446
 2557SOL    HW119130   0.417   1.762   7.459 -1.2462 -1.2539  1.5137
 2557SOL    HW219131   0.431   1.898   7.416  0.2602 -3.3200 -1.3320
 2558SOL     OW19132   2.002   4.579  15.072  0.5962  0.2428 -0.4999
 2558SOL    HW119133   2.063   4.505  15.062 -1.0091 -1.0579 -0.6310
 2558SOL    HW219134   2.044   4.648  15.020  2.1182 -1.0352 -0.9957
 2559SOL     OW19135   2.238   3.190   6.501 -0.3246  0.3635 -0.5140
 2559SOL    HW119136   2.149   3.196   6.468 -0.3144 -0.7163 -0.7333
 2559SOL    HW219137   2.232   3.186   6.597  1.1321  0.4399 -0.4135
 2560SOL     OW19138   1.717   4.094   2.248 -0.1937  0.7998 -0.3591
 2560SOL    HW119139   1.709   4.097   2.153  3.3724 -1.6125 -0.7782
 2560SOL    HW219140   1.717   4.184   2.279  2.1182  0.3521  0.9774
 2561SOL     OW19141   3.864   2.409   7.958 -0.5024 -0.1297 -0.0418
 2561SOL    HW119142   3.802   2.356   8.009 -1.2383  0.8864  0.1271
 2561SOL    HW219143   3.938   2.423   8.017 -1.0412  1.8486  0.1906
 2562SOL     OW19144   4.394   0.950   7.979  0.1485  0.4590 -0.2121
 2562SOL    HW119145   4.355   1.024   8.024  1.8145  2.8204 -2.6429
 2562SOL    HW219146   4.482   0.985   7.970  0.1429  0.9659  1.8647
 2563SOL     OW19147   1.700   1.806   7.602  0.6503 -0.2240 -0.3497
 2563SOL    HW119148   1.706   1.898   7.574  1.8610 -0.2598 -0.2041
 2563SOL    HW219149   1.769   1.804   7.668  0.2741 -0.4989  0.0384
 2564SOL     OW19150   2.497   0.830   7.148 -0.1212 -0.0715  0.2733
 2564SOL    HW119151   2.451   0.862   7.225 -1.1941 -2.5539  0.6815
 2564SOL    HW219152   2.553   0.763   7.187 -0.4181 -0.5747 -0.1567
 2565SOL     OW19153   0.440   4.189   1.964  0.2566  0.1990  0.3316
 2565SOL    HW119154   0.488   4.113   1.932  0.8857  0.2438  1.1811
 2565SOL    HW219155   0.498   4.257   1.929  0.0805 -0.0352 -0.4099
 2566SOL     OW19156   1.932   1.468   3.498 -0.1066  0.0932 -0.2556
 2566SOL    HW119157   2.019   1.491   3.464 -0.1501 -0.0147 -0.4415
 2566SOL    HW219158   1.952   1.415   3.575  0.6354 -0.3364 -0.7445
 2567SOL     OW19159   3.040   0.150   7.412 -0.1711 -0.0428  0.3795
 2567SOL    HW119160   3.004   0.161   7.500 -0.2787  2.6360 -0.0021
 2567SOL    HW219161   3.092   0.071   7.424 -1.6590 -0.9646  0.8117
 2568SOL     OW19162   1.635   4.590   3.796  0.0133 -0.3866  0.5585
 2568SOL    HW119163   1.597   4.541   3.722  1.0322 -0.0946 -0.1592
 2568SOL    HW219164   1.594   4.541   3.867 -2.2852  1.4561  0.4924
 2569SOL     OW19165   2.319   4.084   5.875  0.5646 -0.7488  0.2060
 2569SOL    HW119166   2.274   4.024   5.934 -1.8436  0.0818 -0.7603
 2569SOL    HW219167   2.402   4.103   5.919  0.2852  1.4664 -0.1873
 2570SOL     OW19168   2.417   4.719  14.173 -0.6810  0.5993 -0.3383
 2570SOL    HW119169   2.503   0.035  14.182 -1.5316  2.9093 -2.6662
 2570SOL    HW219170   2.433   4.666  14.095  1.1061 -1.9992  1.7938
 2571SOL     OW19171   3.290   2.562   9.093 -0.0580 -0.4340  0.0521
 2571SOL    HW119172   3.262   2.601   9.176  0.6053 -0.9691  0.5334
 2571SOL    HW219173   3.252   2.476   9.111  0.5051 -0.8726 -0.8383
 2572SOL     OW19174   0.420   4.021   0.244  0.1959  1.4056  0.1848
 2572SOL    HW119175   0.427   3.951   0.179  0.3339  2.3948 -0.8740
 2572SOL    HW219176   0.403   3.967   0.322  0.0667  0.2179 -0.6711
 2573SOL     OW19177   4.157   2.335   6.297  0.2096  0.5285  0.2466
 2573SOL    HW119178   4.083   2.396   6.296 -0.1919  0.0421  0.6218
 2573SOL    HW219179   4.219   2.404   6.321  1.8302 -0.4729 -1.0607
 2574SOL     OW19180   1.972   2.311   2.390 -0.4950 -0.7264 -0.2008
 2574SOL    HW119181   2.004   2.398   2.369 -0.0079 -0.3947  1.8800
 2574SOL    HW219182   1.911   2.339   2.458 -2.4868  0.8260 -2.6679
 2575SOL     OW19183   4.492   3.557   8.679 -0.5659  0.5445  0.0038
 2575SOL    HW119184   4.488   3.557   8.774  0.5817  0.3650  0.0525
 2575SOL    HW219185   4.502   3.649   8.652 -0.8442  0.8044  0.8004
 2576SOL     OW19186   1.633   4.463   8.027 -0.0338  0.1652 -0.6139
 2576SOL    HW119187   1.626   4.430   7.938 -2.3340 -1.5612  0.1927
 2576SOL    HW219188   1.604   4.553   8.016 -1.4625 -0.3244 -0.9096
 2577SOL     OW19189   1.124   4.479   5.042 -0.4220 -0.3971 -0.0368
 2577SOL    HW119190   1.196   4.438   4.994 -0.9060 -0.1449 -0.9775
 2577SOL    HW219191   1.172   4.556   5.074 -0.9781 -0.3604  0.7104
 2578SOL     OW19192   3.921   1.938   9.385  0.3286  0.2261 -0.2891
 2578SOL    HW119193   4.011   1.921   9.414  0.5401  0.2910 -0.9169
 2578SOL    HW219194   3.941   2.005   9.319 -0.6936  0.8072 -0.0051
 2579SOL     OW19195   3.222   3.711  15.430 -0.0561  0.3095 -0.0539
 2579SOL    HW119196   3.281   3.708  15.505 -1.3927  2.1506  1.0492
 2579SOL    HW219197   3.218   3.805  15.410 -0.8528  0.4927  0.9483
 2580SOL     OW19198   3.347   1.327   7.547  0.2856  0.3737 -0.5306
 2580SOL    HW119199   3.288   1.321   7.621 -0.1033 -1.5106 -1.0014
 2580SOL    HW219200   3.354   1.423   7.545 -2.5263  0.6213  2.5529
 2581SOL     OW19201   3.979   0.717  11.586 -0.0325 -0.4743  0.0948
 2581SOL    HW119202   4.060   0.724  11.636  0.2961  1.2202 -0.6741
 2581SOL    HW219203   3.915   0.739  11.655 -1.7393 -0.0030 -1.6355
 2582SOL     OW19204   0.694   3.207  13.216 -0.1589 -0.0159  0.1510
 2582SOL    HW119205   0.705   3.144  13.287 -1.5567  0.2073  0.5635
 2582SOL    HW219206   0.782   3.193  13.181  0.1239  1.4571  0.2704
 2583SOL     OW19207   3.951   1.379   2.913 -0.0877 -0.1650 -0.3665
 2583SOL    HW119208   3.946   1.380   2.818  0.3033 -2.7068 -0.4111
 2583SOL    HW219209   3.937   1.287   2.935 -0.7779 -0.0701 -0.4023
 2584SOL     OW19210   4.254   1.290  15.955  0.3783 -1.0745  0.2744
 2584SOL    HW119211   4.174   1.337  15.978  0.2392 -1.1643 -0.0242
 2584SOL    HW219212   4.260   1.224  16.024 -0.3550 -0.9220  0.4790
 2585SOL     OW19213   1.502   1.627   7.703  0.3990 -0.1749 -0.4903
 2585SOL    HW119214   1.586   1.666   7.678  0.3632 -0.2976 -0.8107
 2585SOL    HW219215   1.465   1.696   7.757 -1.1191 -1.6914  0.4099
 2586SOL     OW19216   3.417   0.764   5.661  0.3586 -0.1295  0.3772
 2586SOL    HW119217   3.506   0.733   5.679  1.0743  0.6509 -1.7777
 2586SOL    HW219218   3.426   0.758   5.566 -1.5034  0.7292  0.1532
 2587SOL     OW19219   3.411   3.973   2.744 -0.3015 -0.0828  0.2149
 2587SOL    HW119220   3.336   4.030   2.730  2.8872  3.5499 -2.0698
 2587SOL    HW219221   3.472   4.012   2.681 -0.2607  0.0748  0.3529
 2588SOL     OW19222   0.721   3.869   1.526 -0.4483  0.4340 -0.1630
 2588SOL    HW119223   0.709   3.863   1.620  0.0768  2.5743  0.0369
 2588SOL    HW219224   0.802   3.920   1.527  0.0586 -0.2646 -3.6000
 2589SOL     OW19225   4.712   3.419   2.414 -0.1827 -0.7000  0.5006
 2589SOL    HW119226   0.029   3.366   2.346  1.2491  1.8628 -0.6454
 2589SOL    HW219227   0.025   3.377   2.491  1.0527 -1.3955 -0.4726
 2590SOL     OW19228   2.503   3.888  13.491 -0.4105  0.4544 -0.5296
 2590SOL    HW119229   2.507   3.815  13.552 -1.0508  0.6139 -0.2979
 2590SOL    HW219230   2.559   3.959  13.523 -0.1830  0.4457 -0.9080
 2591SOL     OW19231   0.543   2.108  15.654  0.2048  0.4399 -0.3428
 2591SOL    HW119232   0.558   2.167  15.580  0.6423  0.9355  0.1412
 2591SOL    HW219233   0.558   2.159  15.734 -0.9721  0.2172  0.0273
 2592SOL     OW19234   2.441   4.186   5.628  0.3401 -0.3273  0.0703
 2592SOL    HW119235   2.375   4.193   5.697 -0.4461 -1.5012 -0.5446
 2592SOL    HW219236   2.459   4.092   5.618 -1.7238 -0.7267  0.0225
 2593SOL     OW19237   2.449   1.032   6.413  0.4796  0.8797 -0.2833
 2593SOL    HW119238   2.527   0.986   6.444  0.9374  0.9006 -1.4403
 2593SOL    HW219239   2.430   1.077   6.496  2.2397  2.6201 -0.8404
 2594SOL     OW19240   4.177   3.239   7.027 -0.0657  0.4998  0.1001
 2594SOL    HW119241   4.095   3.287   7.013  0.4902  1.4820  0.2019
 2594SOL    HW219242   4.146   3.150   7.010 -0.4233  0.2439  2.1559
 2595SOL     OW19243   0.406   2.466   9.728  0.3227 -0.2273 -0.5716
 2595SOL    HW119244   0.360   2.549   9.722  1.3420  0.4686  1.3972
 2595SOL    HW219245   0.429   2.480   9.820  0.9263 -1.7664 -0.4860
 2596SOL     OW19246   1.919   4.387   6.636 -0.2110  0.3793 -0.1871
 2596SOL    HW119247   1.905   4.358   6.726 -1.5770  3.1597  0.4813
 2596SOL    HW219248   1.931   4.481   6.651  1.9035  0.1293 -0.3028
 2597SOL     OW19249   2.116   4.099   4.240  0.5655 -0.0648  0.0771
 2597SOL    HW119250   2.081   4.102   4.151 -0.8944  0.4465  0.6587
 2597SOL    HW219251   2.086   4.018   4.280  1.9165  0.5918  2.4199
 2598SOL     OW19252   0.209   0.163   2.883  0.2301 -0.5670  0.0955
 2598SOL    HW119253   0.229   0.076   2.918  0.6651  0.3573  2.1378
 2598SOL    HW219254   0.259   0.166   2.802 -0.6030 -0.1268 -0.4029
 2599SOL     OW19255   4.400   2.345   8.393  0.1191 -0.4103  0.1825
 2599SOL    HW119256   4.492   2.368   8.408 -0.4111  0.1945  2.4049
 2599SOL    HW219257   4.365   2.417   8.341 -1.3020 -0.2033  1.4398
 2600SOL     OW19258   1.353   3.164   6.384 -0.2904 -0.1929 -0.7138
 2600SOL    HW119259   1.306   3.118   6.314 -0.2800  0.1351 -0.9386
 2600SOL    HW219260   1.306   3.247   6.392 -1.8806 -0.8844 -2.8425
 2601SOL     OW19261   0.353   1.028   1.652  0.0834 -0.1660 -0.1148
 2601SOL    HW119262   0.345   1.049   1.559 -0.3329  3.4189  0.7463
 2601SOL    HW219263   0.275   1.073   1.684  1.1777  1.0541  0.8118
 2602SOL     OW19264   1.314   0.672  12.036  0.4594 -0.4047 -0.1175
 2602SOL    HW119265   1.265   0.701  11.959 -0.7076 -1.9459  0.0379
 2602SOL    HW219266   1.395   0.721  12.024  1.1995 -1.2440  1.3807
 2603SOL     OW19267   0.125   1.827   3.077  0.2492 -0.0987  0.3965
 2603SOL    HW119268   0.061   1.759   3.055 -0.5699  0.6463  0.4933
 2603SOL    HW219269   0.200   1.795   3.028  1.8207  3.5000  0.4400
 2604SOL     OW19270   3.381   1.966  15.804  0.2736  0.4731 -0.3976
 2604SOL    HW119271   3.420   1.880  15.785 -0.8401  0.1601 -1.3031
 2604SOL    HW219272   3.402   1.980  15.896 -2.7347 -1.0198  0.5030
 2605SOL     OW19273   1.636   2.248  11.996 -0.3512 -0.3800  0.1455
 2605SOL    HW119274   1.692   2.323  11.979  1.0846 -1.2006  1.2075
 2605SOL    HW219275   1.559   2.255  11.940 -0.3191 -0.8303  0.0445
 2606SOL     OW19276   0.995   1.563   5.219 -0.1403  0.3442 -0.2912
 2606SOL    HW119277   1.011   1.582   5.126 -1.6035  3.5349  0.1238
 2606SOL    HW219278   1.057   1.618   5.265 -1.0464  1.5464 -0.5220
 2607SOL     OW19279   3.761   2.266  11.758 -0.2842 -0.1485  0.0689
 2607SOL    HW119280   3.796   2.195  11.812 -1.9401  1.0806  2.7727
 2607SOL    HW219281   3.764   2.231  11.669  4.2299  0.3635  0.0325
 2608SOL     OW19282   0.074   3.839   2.775  0.3950 -0.0355  0.2637
 2608SOL    HW119283   0.085   3.762   2.831 -2.8250  0.1251  1.0978
 2608SOL    HW219284   4.715   3.819   2.731 -0.0137 -1.0695  1.4950
 2609SOL     OW19285   3.941   3.539   5.405 -0.0310  0.7819  0.0098
 2609SOL    HW119286   3.847   3.553   5.408 -0.0517  1.1995 -2.2750
 2609SOL    HW219287   3.946   3.444   5.417 -1.8958  0.5036 -1.4458
 2610SOL     OW19288   3.709   2.186  12.140  0.0603  0.4416 -0.5297
 2610SOL    HW119289   3.678   2.222  12.223 -0.8155 -0.6305 -0.3959
 2610SOL    HW219290   3.752   2.105  12.167  1.5543  1.1765 -0.7236
 2611SOL     OW19291   2.472   2.300   0.369  0.2115  0.5195  0.7931
 2611SOL    HW119292   2.533   2.299   0.296 -2.1268  0.5375 -1.1510
 2611SOL    HW219293   2.474   2.212   0.407 -2.1503 -0.8681 -2.2989
 2612SOL     OW19294   4.046   3.557  17.002  0.2438 -0.3132 -0.0553
 2612SOL    HW119295   4.109   3.597  17.061 -0.9824  1.6033 -0.0548
 2612SOL    HW219296   4.105   3.533  16.931  0.6520  2.7444 -0.7255
 2613SOL     OW19297   2.569   2.931  10.595  0.5944  0.3963  0.2417
 2613SOL    HW119298   2.505   2.896  10.657  0.1637  2.3087  0.8708
 2613SOL    HW219299   2.612   3.002  10.642  0.4509  0.9245 -0.4411
 2614SOL     OW19300   3.577   2.045   6.804 -0.5276  0.1021 -0.6628
 2614SOL    HW119301   3.562   2.114   6.739 -1.0677 -0.2138 -0.8712
 2614SOL    HW219302   3.659   2.010   6.768 -0.4034  0.7016 -0.9714
 2615SOL     OW19303   0.320   0.787   8.995  0.1265  0.2211 -0.5115
 2615SOL    HW119304   0.412   0.808   8.983 -0.5944  3.1132 -1.0051
 2615SOL    HW219305   0.295   0.789   8.902  1.3525 -0.6397 -0.8539
 2616SOL     OW19306   2.801   4.569  11.767  0.2879  0.0090  0.0882
 2616SOL    HW119307   2.712   4.537  11.753  0.6250 -0.7436 -0.3351
 2616SOL    HW219308   2.783   4.653  11.809 -1.7682  0.1175 -1.0266
 2617SOL     OW19309   3.452   0.289  12.175  0.1892 -0.1316 -0.7323
 2617SOL    HW119310   3.492   0.359  12.227  0.3730 -1.3244  0.7146
 2617SOL    HW219311   3.385   0.255  12.234 -0.6382  1.6983 -0.6127
 2618SOL     OW19312   0.569   1.354   9.431 -0.2128 -0.3545  0.4755
 2618SOL    HW119313   0.510   1.419   9.391  1.1387  0.8413  0.4131
 2618SOL    HW219314   0.550   1.351   9.525  1.1231 -1.1584  0.7107
 2619SOL     OW19315   2.490   0.482   3.408  0.1239  0.2083  0.0892
 2619SOL    HW119316   2.460   0.556   3.356  1.6195  1.8023  1.5189
 2619SOL    HW219317   2.560   0.504   3.470  1.1510 -1.7290 -0.3585
 2620SOL     OW19318   1.315   3.591   5.871  0.1838  0.8465 -0.2043
 2620SOL    HW119319   1.371   3.667   5.856  1.9381 -0.4045 -0.0090
 2620SOL    HW219320   1.241   3.648   5.893  0.2650  1.5261 -1.7422
 2621SOL     OW19321   0.545   4.124  10.051 -0.6314  0.4145 -0.1452
 2621SOL    HW119322   0.475   4.070  10.088  0.5844 -1.8214 -1.0775
 2621SOL    HW219323   0.581   4.175  10.123 -0.3510 -0.9280  0.6564
 2622SOL     OW19324   2.044   2.170   7.700  0.3612 -0.4313 -0.1977
 2622SOL    HW119325   1.963   2.149   7.747  0.1739 -0.0786 -0.3615
 2622SOL    HW219326   2.110   2.127   7.755  1.6939 -0.6681 -1.9662
 2623SOL     OW19327   4.714   0.922  11.518  0.1103  0.0674 -0.0435
 2623SOL    HW119328   0.048   0.868  11.465  0.5973  0.2482  0.3030
 2623SOL    HW219329   0.030   0.909  11.604 -0.9844  0.0711  0.4619
 2624SOL     OW19330   1.639   4.031  13.020  0.6432 -0.3832 -0.0661
 2624SOL    HW119331   1.713   4.063  13.070 -1.2872  0.5108  2.2510
 2624SOL    HW219332   1.623   4.110  12.969 -0.8945 -1.1992 -0.8454
 2625SOL     OW19333   2.029   2.749  10.151 -0.7792  0.1957 -0.0314
 2625SOL    HW119334   1.992   2.789  10.229  1.0487  0.8240  0.5089
 2625SOL    HW219335   1.971   2.672  10.150 -1.3917  0.6585 -0.2153
 2626SOL     OW19336   2.461   0.937   3.697 -0.8328  0.3049  0.4108
 2626SOL    HW119337   2.521   0.988   3.642 -0.8594 -0.9104 -0.7423
 2626SOL    HW219338   2.484   0.974   3.783 -0.9487  0.3531  0.4208
 2627SOL     OW19339   0.601   4.600   3.928 -0.4955 -0.3849  0.1573
 2627SOL    HW119340   0.568   4.664   3.865  0.1347 -1.0643 -0.8776
 2627SOL    HW219341   0.573   4.649   4.005  1.4597  0.5678  0.2583
 2628SOL     OW19342   1.998   3.942  15.325  0.4135  0.4114  0.0869
 2628SOL    HW119343   2.008   3.863  15.378 -2.0194  0.3630  0.4458
 2628SOL    HW219344   2.055   4.004  15.371  1.8277 -0.6417 -0.2086
 2629SOL     OW19345   3.619   3.033  11.449 -0.1894 -0.2520  0.1259
 2629SOL    HW119346   3.667   3.043  11.530  1.6293 -0.7588 -0.8949
 2629SOL    HW219347   3.682   3.060  11.382 -0.8974  0.9564 -0.0508
 2630SOL     OW19348   0.805   4.444   4.485 -0.0775 -0.0593 -0.3313
 2630SOL    HW119349   0.886   4.434   4.435 -0.5713 -0.3686 -1.0731
 2630SOL    HW219350   0.777   4.353   4.481 -2.2897  0.6695 -1.0193
 2631SOL     OW19351   0.049   2.467   3.226 -0.8556  0.1944 -0.1572
 2631SOL    HW119352   0.071   2.555   3.257  0.5418 -0.1565 -0.1767
 2631SOL    HW219353   0.138   2.439   3.206 -0.9885 -0.2596 -0.1159
 2632SOL     OW19354   0.571   0.113   5.489  0.0151  0.2553 -0.5637
 2632SOL    HW119355   0.542   0.123   5.398 -1.5603 -1.0904 -0.2219
 2632SOL    HW219356   0.573   0.207   5.510  2.3116  0.6808 -2.7498
 2633SOL     OW19357   2.176   2.178   3.884 -0.0077  0.5319  0.9126
 2633SOL    HW119358   2.154   2.103   3.939 -3.3795  0.5038 -0.4801
 2633SOL    HW219359   2.266   2.157   3.858 -0.4544  1.3818 -1.3717
 2634SOL     OW19360   0.402   4.360   2.467  0.6464 -0.3220 -0.6151
 2634SOL    HW119361   0.459   4.336   2.540 -0.9639 -3.5706 -0.4227
 2634SOL    HW219362   0.368   4.271   2.456  0.6379 -0.4488  0.4033
 2635SOL     OW19363   2.032   0.579   5.409 -0.3224 -0.3671 -0.0572
 2635SOL    HW119364   2.051   0.565   5.316  0.8710  2.8520 -0.2960
 2635SOL    HW219365   2.112   0.627   5.432 -0.9503  0.3282  0.6545
 2636SOL     OW19366   3.809   2.571   6.550  0.2679 -0.3487  0.6448
 2636SOL    HW119367   3.810   2.660   6.586 -1.3368  1.0615 -2.8506
 2636SOL    HW219368   3.851   2.523   6.622 -1.0332 -0.6607  1.2074
 2637SOL     OW19369   0.544   3.549   6.262 -0.1979  0.0311  0.0729
 2637SOL    HW119370   0.552   3.548   6.167  2.9370 -1.5015  0.3794
 2637SOL    HW219371   0.456   3.588   6.262  1.3564  3.5584  0.5707
 2638SOL     OW19372   0.394   3.514  17.550  0.3702 -0.0607 -0.5059
 2638SOL    HW119373   0.408   3.426  17.585  0.0307 -0.0030 -0.2310
 2638SOL    HW219374   0.320   3.546  17.602  0.0108 -0.1739 -0.9520
 2639SOL     OW19375   2.262   3.646   8.037 -0.3280  0.0571  0.1123
 2639SOL    HW119376   2.338   3.656   8.095 -0.1193  2.1204 -0.5224
 2639SOL    HW219377   2.227   3.561   8.063  1.2459 -0.9325 -0.9794
 2640SOL     OW19378   3.820   3.646   4.219  0.1809  0.3995 -0.0903
 2640SOL    HW119379   3.817   3.700   4.140 -2.1619  1.5297  0.7803
 2640SOL    HW219380   3.909   3.660   4.251 -0.1812  0.8783  0.6968
 2641SOL     OW19381   4.481   3.720   5.406 -0.8242 -0.2979 -0.5795
 2641SOL    HW119382   4.529   3.648   5.447 -0.0518 -0.5757 -1.9742
 2641SOL    HW219383   4.421   3.762   5.467 -0.0319 -0.0213  0.0140
 2642SOL     OW19384   0.930   1.044   6.941 -0.2640 -0.1264 -0.3589
 2642SOL    HW119385   0.979   1.033   7.022  0.0904  0.6989 -0.4627
 2642SOL    HW219386   0.842   1.040   6.977  0.3112  0.6091  1.1283
 2643SOL     OW19387   1.940   3.251   3.541 -0.6820  0.3060 -0.6168
 2643SOL    HW119388   1.914   3.181   3.601  1.8420  0.9121  1.1860
 2643SOL    HW219389   1.906   3.223   3.456 -1.9549 -0.8747  0.2890
 2644SOL     OW19390   3.959   3.183  11.837 -0.0877 -0.3185  0.5842
 2644SOL    HW119391   4.003   3.099  11.827 -1.8279 -1.3157  1.4485
 2644SOL    HW219392   3.976   3.235  11.758 -1.1777  0.6341  0.9663
 2645SOL     OW19393   3.049   1.625   8.186  0.4686  0.1216 -0.2219
 2645SOL    HW119394   3.144   1.614   8.189  0.4429  0.0844  0.3863
 2645SOL    HW219395   3.043   1.589   8.098  0.7699 -1.9020  0.5851
 2646SOL     OW19396   0.808   3.624   5.640 -0.2990  0.4973  0.4634
 2646SOL    HW119397   0.755   3.607   5.718  0.1748 -0.2906  0.6083
 2646SOL    HW219398   0.854   3.541   5.630 -1.0192  0.1288  0.2460
 2647SOL     OW19399   4.415   2.609   5.996 -0.4538  0.1182 -0.1843
 2647SOL    HW119400   4.322   2.588   6.001  0.1902 -2.4132  1.3894
 2647SOL    HW219401   4.416   2.674   5.927  0.6116 -0.3624 -0.6274
 2648SOL     OW19402   0.668   1.400   2.541  0.1997 -0.2694  0.4617
 2648SOL    HW119403   0.636   1.316   2.573  1.0725 -1.1751 -1.0696
 2648SOL    HW219404   0.586   1.442   2.515  0.5603 -0.7768 -1.4486
 2649SOL     OW19405   3.798   1.930   5.927 -0.1378 -0.1662 -0.5105
 2649SOL    HW119406   3.756   1.906   6.010 -1.1494  1.8867 -0.4210
 2649SOL    HW219407   3.890   1.913   5.946 -0.0842  0.5989 -0.0928
 2650SOL     OW19408   0.018   1.545   4.048  0.0744  0.1246 -0.3653
 2650SOL    HW119409   0.006   1.548   3.953 -2.8655  0.0547  0.0051
 2650SOL    HW219410   0.038   1.637   4.065  0.7478  0.2150 -1.6924
 2651SOL     OW19411   1.466   4.210   7.953  0.2027 -0.0956 -0.1022
 2651SOL    HW119412   1.531   4.276   7.926 -0.6623 -0.0013 -1.9276
 2651SOL    HW219413   1.447   4.238   8.042  2.1498  0.0192  0.2855
 2652SOL     OW19414   0.164   2.982   3.985  0.1409  0.1148  0.1802
 2652SOL    HW119415   0.258   2.966   3.976  0.4209  1.7477  0.1898
 2652SOL    HW219416   0.127   2.901   4.020  0.7550 -0.1125  0.3107
 2653SOL     OW19417   0.325   0.738   5.904  0.3584  0.0386 -0.5894
 2653SOL    HW119418   0.402   0.692   5.937  0.9279  3.2475  2.5175
 2653SOL    HW219419   0.316   0.808   5.969  0.5069 -0.0479 -0.4758
 2654SOL     OW19420   0.841   2.763  15.754 -0.1303  0.1619 -0.0228
 2654SOL    HW119421   0.754   2.803  15.765 -0.8967 -1.4284 -0.2849
 2654SOL    HW219422   0.833   2.678  15.797 -1.1545  1.4045  2.2694
 2655SOL     OW19423   2.282   3.041   7.548 -0.0222  0.3289 -0.0666
 2655SOL    HW119424   2.245   3.008   7.630 -0.3048 -0.8283 -0.6596
 2655SOL    HW219425   2.365   2.993   7.551 -0.6198 -0.6481  0.8022
 2656SOL     OW19426   0.303   2.194   6.703 -0.1368 -0.1508 -0.3465
 2656SOL    HW119427   0.283   2.182   6.610 -0.8194 -1.3254 -0.0576
 2656SOL    HW219428   0.278   2.110   6.743 -1.1643  1.7678  3.0878
 2657SOL     OW19429   1.833   0.072  11.040  0.7880 -0.2625 -0.1122
 2657SOL    HW119430   1.880   0.109  11.114  0.5497  0.4775 -0.3312
 2657SOL    HW219431   1.813   4.708  11.071  1.9973  0.1542  1.8249
 2658SOL     OW19432   1.202   4.721   5.686 -0.1308  0.2099 -0.0493
 2658SOL    HW119433   1.125   4.677   5.722  0.1680  1.3309  1.9452
 2658SOL    HW219434   1.187   4.699   5.594 -0.4168  1.6769 -0.3575
 2659SOL     OW19435   3.123   0.673  10.317 -0.4963  0.0472 -0.4825
 2659SOL    HW119436   3.100   0.759  10.353  1.6558  0.6223 -0.4707
 2659SOL    HW219437   3.038   0.654  10.279 -0.3561  2.0431 -1.7581
 2660SOL     OW19438   3.172   3.484   6.610 -0.0465 -0.1121 -0.5216
 2660SOL    HW119439   3.102   3.433   6.652  1.0232  0.6577  2.1856
 2660SOL    HW219440   3.224   3.415   6.569 -3.3453 -1.3180 -2.7519
 2661SOL     OW19441   2.594   0.099  15.542 -0.2454  0.2747  0.6563
 2661SOL    HW119442   2.632   0.169  15.595  1.1312 -0.4668  0.6602
 2661SOL    HW219443   2.506   0.132  15.527  1.0284  3.0484 -0.7185
 2662SOL     OW19444   1.461   3.203  17.556  0.4479 -0.2259 -0.1773
 2662SOL    HW119445   1.468   3.254  17.636 -1.1781  1.9427 -1.4188
 2662SOL    HW219446   1.452   3.274  17.492  2.1906  0.6616  0.5540
 2663SOL     OW19447   1.682   3.500   9.402 -0.2750  0.2888  0.4158
 2663SOL    HW119448   1.764   3.516   9.448 -1.0546  1.6312  1.3409
 2663SOL    HW219449   1.714   3.425   9.351 -2.1753 -0.0222 -0.3224
 2664SOL     OW19450   0.534   4.195   7.128  0.1525 -0.2617  0.0459
 2664SOL    HW119451   0.546   4.108   7.165 -0.1307 -0.3102  0.0200
 2664SOL    HW219452   0.452   4.186   7.079  0.2614  0.1067 -0.2040
 2665SOL     OW19453   2.272   0.089   5.872  0.1771  0.5718  0.1439
 2665SOL    HW119454   2.178   0.080   5.857  0.4247 -0.8090 -0.5579
 2665SOL    HW219455   2.302   0.063   5.785 -0.0282  1.1488 -0.0979
 2666SOL     OW19456   0.451   4.636  17.502 -0.2436  0.4699 -0.4611
 2666SOL    HW119457   0.444   4.640  17.407  0.7989  0.8072 -0.5193
 2666SOL    HW219458   0.358   4.618  17.518 -0.2070  0.2868 -0.4656
 2667SOL     OW19459   4.217   0.672  17.128 -0.0542  0.3427 -0.2329
 2667SOL    HW119460   4.165   0.697  17.203 -1.6375 -3.1417 -0.1582
 2667SOL    HW219461   4.307   0.691  17.157 -0.4596  3.0543 -0.7853
 2668SOL     OW19462   1.583   2.050   4.671 -0.2511  0.2461 -0.6628
 2668SOL    HW119463   1.661   1.994   4.676 -1.0126 -0.9197 -2.2342
 2668SOL    HW219464   1.609   2.097   4.592  0.6211 -1.0982 -1.1585
 2669SOL     OW19465   3.372   2.617  13.423 -0.6276  0.2681  0.3618
 2669SOL    HW119466   3.434   2.690  13.414  1.2954 -1.3400  0.8078
 2669SOL    HW219467   3.303   2.648  13.482 -0.7774  1.9811 -0.6956
 2670SOL     OW19468   1.822   1.674  11.201  0.4560  0.8400  0.3622
 2670SOL    HW119469   1.764   1.660  11.126  1.8303 -0.8531 -0.3934
 2670SOL    HW219470   1.829   1.594  11.253  0.4484  0.5988 -0.0038
 2671SOL     OW19471   2.746   1.816  17.138 -0.2964 -0.0259  0.2774
 2671SOL    HW119472   2.726   1.811  17.231  1.7066  2.0529  0.8420
 2671SOL    HW219473   2.840   1.833  17.145 -0.2253 -0.3089 -0.0197
 2672SOL     OW19474   2.359   4.578  12.518  0.1696 -0.2682 -0.0945
 2672SOL    HW119475   2.374   4.636  12.443 -0.0716 -0.5993 -0.3990
 2672SOL    HW219476   2.302   4.634  12.571  1.4955 -3.4493  4.7133
 2673SOL     OW19477   2.549   0.124  12.388 -0.0668 -1.4001 -0.4908
 2673SOL    HW119478   2.461   0.088  12.387  0.3767 -2.5196  2.9056
 2673SOL    HW219479   2.535   0.201  12.332  0.7951 -1.1398 -0.3546
 2674SOL     OW19480   1.713   4.456  13.675 -0.4655  0.1509  0.0499
 2674SOL    HW119481   1.697   4.426  13.764  1.5047 -0.7723  0.0906
 2674SOL    HW219482   1.762   4.534  13.702 -1.7224 -0.1743  3.2705
 2675SOL     OW19483   0.016   3.765  12.468  0.2671  0.6469  0.1527
 2675SOL    HW119484   4.692   3.848  12.472 -1.9595 -0.6674  1.0704
 2675SOL    HW219485   4.698   3.711  12.536  0.8264  0.4649  0.3471
 2676SOL     OW19486   1.237   3.598   3.097 -0.6533  0.1549  0.2767
 2676SOL    HW119487   1.226   3.562   3.184  0.8624  1.1278  0.8699
 2676SOL    HW219488   1.216   3.516   3.053 -0.2513 -0.0346  0.4394
 2677SOL     OW19489   1.004   2.997   6.710  0.3189  0.2614  0.5384
 2677SOL    HW119490   1.081   2.953   6.673  0.3098  0.3523  0.4112
 2677SOL    HW219491   0.989   3.066   6.645  0.9632  1.4359  1.6377
 2678SOL     OW19492   1.940   3.886  14.408 -0.6880 -0.2983 -0.1163
 2678SOL    HW119493   1.927   3.798  14.372  0.9627 -0.1671 -1.0259
 2678SOL    HW219494   1.898   3.887  14.494 -1.1128  0.9916 -0.3433
 2679SOL     OW19495   3.304   2.957   4.461  0.2721  0.0681  0.0375
 2679SOL    HW119496   3.255   2.995   4.388 -1.3381 -1.9464  0.0962
 2679SOL    HW219497   3.238   2.962   4.530  0.6920  1.4910  0.3320
 2680SOL     OW19498   2.142   1.546  13.610 -0.2882 -0.4960 -0.1811
 2680SOL    HW119499   2.073   1.539  13.677 -1.0223 -0.9543 -0.9870
 2680SOL    HW219500   2.108   1.600  13.539  0.3648  1.5531  1.0703
 2681SOL     OW19501   2.792   0.011   4.060  0.4579  0.2581  0.4092
 2681SOL    HW119502   2.825   4.648   4.035  0.7992  0.1929  1.1086
 2681SOL    HW219503   2.701   4.712   4.038  0.8243 -0.1619 -0.7082
 2682SOL     OW19504   1.328   4.047   6.999 -0.2899  0.8489 -0.2976
 2682SOL    HW119505   1.379   4.088   7.069  1.2393  1.7988 -1.9741
 2682SOL    HW219506   1.387   4.067   6.927 -0.2312 -0.8202 -0.7265
 2683SOL     OW19507   0.810   3.115   7.660 -0.0510  0.3548 -0.3561
 2683SOL    HW119508   0.847   3.045   7.714  0.9805  0.9920 -0.2466
 2683SOL    HW219509   0.876   3.181   7.682  0.7263 -1.3119  2.2877
 2684SOL     OW19510   2.229   4.700   0.142 -0.1143  0.1980 -0.2978
 2684SOL    HW119511   2.202   0.061   0.178  1.2948 -0.6882  2.7890
 2684SOL    HW219512   2.293   0.005   0.077 -1.1278  0.5163 -1.1709
 2685SOL     OW19513   3.263   3.331  14.823 -0.2146 -0.5024 -0.6591
 2685SOL    HW119514   3.282   3.425  14.825  0.8054 -0.7101 -0.7126
 2685SOL    HW219515   3.169   3.326  14.809 -0.8847  0.0333  3.4866
 2686SOL     OW19516   1.875   4.673   6.697  0.4572  0.1329  0.0457
 2686SOL    HW119517   1.944   0.011   6.673  0.3523  0.7205  1.2524
 2686SOL    HW219518   1.876   4.672   6.793 -0.5075  2.3194  0.0676
 2687SOL     OW19519   2.979   0.251   3.385 -0.3665  0.1078 -0.0991
 2687SOL    HW119520   3.072   0.271   3.379  0.3114 -2.4420  2.0240
 2687SOL    HW219521   2.937   0.309   3.321  1.3055 -1.2000 -2.3604
 2688SOL     OW19522   4.275   1.745  15.180  0.0298 -1.2405 -0.0516
 2688SOL    HW119523   4.196   1.762  15.232  2.0897  2.7283  1.8224
 2688SOL    HW219524   4.292   1.654  15.202 -0.5629 -0.9698  1.5605
 2689SOL     OW19525   3.234   3.937   9.324  0.0824  0.3470 -0.3049
 2689SOL    HW119526   3.283   4.018   9.337 -2.0768  1.4994  0.7514
 2689SOL    HW219527   3.145   3.971   9.333 -0.0472  0.9547 -3.9475
 2690SOL     OW19528   4.079   1.898  16.221  0.4104 -0.2924  0.1792
 2690SOL    HW119529   4.170   1.884  16.246  0.8204  0.6651 -0.7722
 2690SOL    HW219530   4.083   1.982  16.175 -0.3395  0.0616  0.7533
 2691SOL     OW19531   0.752   0.721   0.213  0.1018 -0.1942  0.7619
 2691SOL    HW119532   0.821   0.770   0.259  0.2266  1.1174 -0.8202
 2691SOL    HW219533   0.804   0.666   0.155  1.4935  0.6888  1.1671
 2692SOL     OW19534   3.283   0.244   6.076 -0.1937  0.2782 -0.2617
 2692SOL    HW119535   3.297   0.255   6.170  0.3065 -1.4091 -0.1411
 2692SOL    HW219536   3.195   0.205   6.080  0.3303 -1.1295 -2.1832
 2693SOL     OW19537   1.062   0.270  17.180 -0.2454 -0.3562  0.0329
 2693SOL    HW119538   1.038   0.190  17.228 -1.2598  0.6405  1.1600
 2693SOL    HW219539   1.120   0.231  17.115  0.5993 -1.1771  1.2584
 2694SOL     OW19540   0.222   4.116   0.643 -0.7261  0.3180 -0.1743
 2694SOL    HW119541   0.140   4.161   0.666 -1.4051 -0.6279 -0.7338
 2694SOL    HW219542   0.280   4.159   0.705  1.1925 -0.6037 -1.3400
 2695SOL     OW19543   1.169   1.796   7.517 -0.5254  0.1761 -0.0953
 2695SOL    HW119544   1.150   1.775   7.608 -0.4163  1.3593  0.1969
 2695SOL    HW219545   1.265   1.796   7.511 -0.4484 -1.2531  1.0217
 2696SOL     OW19546   0.474   0.650   6.494  0.6935  0.3846 -0.3337
 2696SOL    HW119547   0.400   0.703   6.465  0.7160 -0.3457 -1.7435
 2696SOL    HW219548   0.499   0.598   6.418  1.2897 -0.2461  0.2901
 2697SOL     OW19549   1.505   0.257  14.403 -0.6716 -0.2629 -0.2016
 2697SOL    HW119550   1.576   0.238  14.343 -0.7708 -0.0975 -0.3739
 2697SOL    HW219551   1.441   0.313  14.358 -0.7935  0.7595  1.2395
 2698SOL     OW19552   0.127   3.279   2.609 -0.4640 -1.3182  0.2047
 2698SOL    HW119553   0.140   3.193   2.569 -1.3432 -1.2769 -0.1755
 2698SOL    HW219554   0.174   3.272   2.692 -1.0231 -0.1989  0.6238
 2699SOL     OW19555   4.516   3.014   6.594 -0.3102  0.1079  0.1702
 2699SOL    HW119556   4.588   3.024   6.532  2.0430 -0.2840  2.8683
 2699SOL    HW219557   4.492   3.107   6.598 -1.8193 -0.3121  0.7540
 2700SOL     OW19558   1.652   2.045  16.556  0.2781  0.1011 -0.1536
 2700SOL    HW119559   1.595   1.975  16.525 -1.2149  1.0171  0.5030
 2700SOL    HW219560   1.655   2.098  16.476  0.1764 -2.8071 -2.0954
 2701SOL     OW19561   0.040   4.353   2.353 -0.5975 -0.3163  0.5091
 2701SOL    HW119562   0.135   4.356   2.364 -0.4637  0.4502 -0.9784
 2701SOL    HW219563   0.031   4.284   2.287 -0.9263 -1.3051  1.5827
 2702SOL     OW19564   1.376   0.045   4.325 -0.2669  0.0064 -0.0993
 2702SOL    HW119565   1.394   0.109   4.393  0.7164 -0.7260  0.3201
 2702SOL    HW219566   1.431   0.070   4.251  1.5423  3.7779  2.5323
 2703SOL     OW19567   4.288   4.347   7.931  0.1000  0.1233 -0.1665
 2703SOL    HW119568   4.349   4.289   7.885 -0.9643  0.8980 -2.5112
 2703SOL    HW219569   4.347   4.371   8.003 -1.5597 -0.1501  1.2640
 2704SOL     OW19570   1.304   2.537   7.176 -0.2684 -0.4973 -0.0272
 2704SOL    HW119571   1.272   2.447   7.177 -0.8655 -0.2946 -0.7152
 2704SOL    HW219572   1.259   2.564   7.096  0.8441 -1.9822 -1.1595
 2705SOL     OW19573   3.599   1.975   8.031 -0.4482 -0.3431 -0.2751
 2705SOL    HW119574   3.656   1.898   8.040  1.0762  1.0081  1.4908
 2705SOL    HW219575   3.518   1.931   8.058  0.9652 -3.2166 -0.6455
 2706SOL     OW19576   3.015   2.064  13.374  0.1957  0.1808  0.1152
 2706SOL    HW119577   2.972   1.987  13.409 -1.2276  0.9234 -0.0216
 2706SOL    HW219578   3.046   2.107  13.453  1.1376 -3.4948  1.7449
 2707SOL     OW19579   3.909   4.225   4.547 -0.4704 -0.1719  0.2733
 2707SOL    HW119580   3.959   4.157   4.593 -1.1158 -1.0203 -0.2661
 2707SOL    HW219581   3.961   4.234   4.468 -1.1510  0.6227 -0.0877
 2708SOL     OW19582   0.515   2.166   8.146 -0.9633 -0.0302  0.5622
 2708SOL    HW119583   0.570   2.125   8.079 -0.9362 -0.6811  0.9815
 2708SOL    HW219584   0.564   2.248   8.140 -0.8376 -0.0869  0.8051
 2709SOL     OW19585   3.472   3.375   4.483  0.1093 -0.2100  0.3684
 2709SOL    HW119586   3.429   3.312   4.426  0.6648 -0.3772  0.1341
 2709SOL    HW219587   3.499   3.444   4.422  0.9943 -0.7001  0.2030
 2710SOL     OW19588   4.721   3.066   9.734  0.3793  0.2632 -0.3921
 2710SOL    HW119589   0.014   2.978   9.768  0.0082  0.2852 -0.1530
 2710SOL    HW219590   0.084   3.103   9.750  0.2244 -0.8873  3.1654
 2711SOL     OW19591   3.552   4.034  10.943 -0.2227 -0.1408  0.1067
 2711SOL    HW119592   3.467   3.989  10.947  0.7437 -2.1236 -1.8475
 2711SOL    HW219593   3.521   4.124  10.932  1.4909  0.5431  0.9166
 2712SOL     OW19594   3.390   0.331   4.242  0.1647  0.3754  0.0194
 2712SOL    HW119595   3.308   0.298   4.278  0.4751 -0.1497  0.2497
 2712SOL    HW219596   3.392   0.283   4.159  1.2969  1.3149 -0.4942
 2713SOL     OW19597   1.594   2.539   5.556 -0.7970  0.0692  0.3536
 2713SOL    HW119598   1.522   2.523   5.495  1.3148 -1.5167 -1.7211
 2713SOL    HW219599   1.560   2.614   5.605  3.8026  2.4396 -0.0889
 2714SOL     OW19600   0.214   0.086   5.437 -0.2300  0.1982  0.4570
 2714SOL    HW119601   0.123   0.089   5.406 -0.4072 -0.2066  0.9535
 2714SOL    HW219602   0.252   0.161   5.391  1.2231 -2.2134 -2.2402
 2715SOL     OW19603   4.026   1.660   1.722 -0.6067  0.4083  0.1508
 2715SOL    HW119604   3.952   1.719   1.704 -1.3889 -0.7948 -0.5751
 2715SOL    HW219605   4.089   1.732   1.729 -0.5533  0.3624  0.1422
 2716SOL     OW19606   0.822   3.011  14.517 -0.0646  0.0544  0.3093
 2716SOL    HW119607   0.743   3.064  14.532  0.4413  1.0988 -0.7355
 2716SOL    HW219608   0.874   3.078  14.472 -2.2893 -0.4251 -3.0132
 2717SOL     OW19609   0.781   2.791   6.470 -0.7536 -0.3804 -0.1079
 2717SOL    HW119610   0.760   2.852   6.540 -0.9229 -1.1248  0.4996
 2717SOL    HW219611   0.710   2.804   6.407  1.2718 -0.1656 -2.3505
 2718SOL     OW19612   3.891   0.669   9.176 -0.2848 -0.4569 -0.5207
 2718SOL    HW119613   3.811   0.673   9.123 -1.9167 -0.0465  1.9214
 2718SOL    HW219614   3.929   0.756   9.183 -1.5411  0.0192  0.3662
 2719SOL     OW19615   4.296   1.391   4.877 -0.8036  0.2293 -0.0491
 2719SOL    HW119616   4.360   1.345   4.823 -1.7098 -1.4405  0.2609
 2719SOL    HW219617   4.223   1.329   4.882  0.6052 -1.2062  2.8482
 2720SOL     OW19618   3.593   0.253   0.908 -0.4027 -0.3312 -0.3546
 2720SOL    HW119619   3.608   0.182   0.970 -4.1286 -0.0801  0.8399
 2720SOL    HW219620   3.577   0.330   0.963  0.9595 -0.6359  0.4778
 2721SOL     OW19621   4.674   0.924   9.933  0.3875 -0.2161  0.4979
 2721SOL    HW119622   4.634   0.993   9.880 -0.7755 -1.6395 -0.5085
 2721SOL    HW219623   4.607   0.904   9.999 -0.9013  0.9814 -0.4383
 2722SOL     OW19624   2.932   4.428   8.304 -0.0219 -0.1956  0.4859
 2722SOL    HW119625   2.925   4.465   8.392 -0.7345 -1.4163  0.9438
 2722SOL    HW219626   2.913   4.337   8.325  0.5432  0.1156  2.4356
 2723SOL     OW19627   3.819   0.342   9.513 -0.1115  0.3757 -0.2961
 2723SOL    HW119628   3.880   0.334   9.587 -0.7424 -2.1666 -0.0512
 2723SOL    HW219629   3.774   0.258   9.524  0.9199  0.0381  1.5441
 2724SOL     OW19630   0.467   0.358   3.187 -0.2059 -0.1825  0.1971
 2724SOL    HW119631   0.551   0.394   3.157 -1.0436 -0.4832 -2.4964
 2724SOL    HW219632   0.420   0.436   3.156  2.1160  0.4991 -1.6250
 2725SOL     OW19633   2.736   3.092   2.303 -0.1561  0.0639 -0.1400
 2725SOL    HW119634   2.772   3.098   2.214  0.0167  0.7734 -0.0164
 2725SOL    HW219635   2.822   3.081   2.344 -0.2037  1.8039  0.4068
 2726SOL     OW19636   3.415   0.038   4.143 -0.2722 -0.4140  0.6139
 2726SOL    HW119637   3.366   4.723   4.070 -0.3382  0.0265  0.4194
 2726SOL    HW219638   3.409   4.695   4.211 -2.6793 -1.2085 -0.3706
 2727SOL     OW19639   0.589   1.610   5.366 -0.1721 -0.1867 -0.5836
 2727SOL    HW119640   0.584   1.698   5.329  1.1259  0.2279  0.2495
 2727SOL    HW219641   0.628   1.559   5.295 -0.3137 -1.1101 -0.0052
 2728SOL     OW19642   0.329   3.737  11.880  0.7583  0.2013 -0.4847
 2728SOL    HW119643   0.337   3.824  11.842 -1.0781  1.1222  1.2218
 2728SOL    HW219644   0.249   3.711  11.833  0.8111 -0.8685  0.0207
 2729SOL     OW19645   1.037   1.088   6.560 -0.6140 -0.2872  0.0454
 2729SOL    HW119646   1.015   1.134   6.479  1.8714  2.2062  0.7999
 2729SOL    HW219647   0.964   1.025   6.559 -0.1079 -0.8670 -0.7728
 2730SOL     OW19648   0.851   0.729  16.824 -0.3124  0.3084 -0.4111
 2730SOL    HW119649   0.781   0.688  16.874 -0.9305 -0.1241 -1.6224
 2730SOL    HW219650   0.812   0.715  16.737 -0.6659 -0.1062 -0.1806
 2731SOL     OW19651   4.436   0.032   0.349  0.6127  0.6486  0.2374
 2731SOL    HW119652   4.520   4.710   0.345  1.0550  1.5744 -1.5182
 2731SOL    HW219653   4.450   0.107   0.290  0.7070 -0.2820 -0.9289
 2732SOL     OW19654   4.624   1.425   5.845 -0.2521  0.0954  0.0833
 2732SOL    HW119655   4.657   1.365   5.913  0.4399 -0.1819 -0.5014
 2732SOL    HW219656   4.656   1.388   5.763 -1.5633 -0.9499  0.0578
 2733SOL     OW19657   1.059   1.987   6.428  0.3718  0.6258  0.0385
 2733SOL    HW119658   1.082   1.979   6.520  0.7783  0.8589 -0.0451
 2733SOL    HW219659   0.963   1.978   6.424  0.4201  0.6036 -0.9933
 2734SOL     OW19660   2.204   2.805   3.792  0.0001 -0.1834 -0.6315
 2734SOL    HW119661   2.224   2.852   3.711 -0.0813  0.8992 -0.0244
 2734SOL    HW219662   2.189   2.716   3.760  0.2486 -0.6611  0.5840
 2735SOL     OW19663   1.309   1.502  17.346 -0.3314  0.0821 -0.1178
 2735SOL    HW119664   1.259   1.446  17.287  1.3941 -1.3795 -0.1907
 2735SOL    HW219665   1.360   1.553  17.284  0.2236 -0.6545 -0.2569
 2736SOL     OW19666   2.323   0.141  13.208  0.1347 -0.0400 -1.0802
 2736SOL    HW119667   2.334   0.097  13.124  0.2113  1.4434 -1.8578
 2736SOL    HW219668   2.395   0.100  13.256  0.3010  0.6965 -0.6983
 2737SOL     OW19669   4.193   2.332  17.071 -0.2942  0.3068 -0.5267
 2737SOL    HW119670   4.151   2.312  17.155  0.2699  1.7794  0.1021
 2737SOL    HW219671   4.261   2.393  17.097 -2.0313  1.0822  2.3111
 2738SOL     OW19672   2.375   4.508   0.619 -0.0153 -0.5332 -0.6014
 2738SOL    HW119673   2.388   4.424   0.663 -1.1334  0.4368  1.5581
 2738SOL    HW219674   2.350   4.493   0.527  2.5439 -1.5820 -1.1334
 2739SOL     OW19675   1.283   2.277  11.254 -0.1956 -0.4139  0.0643
 2739SOL    HW119676   1.227   2.200  11.254 -0.0580 -0.5153  0.1570
 2739SOL    HW219677   1.225   2.340  11.298  0.3770 -1.0230  1.7090
 2740SOL     OW19678   3.423   0.493  12.754  0.2506 -0.6211  0.0287
 2740SOL    HW119679   3.433   0.448  12.670 -0.6324 -0.6410 -0.0678
 2740SOL    HW219680   3.495   0.463  12.809 -0.1773 -2.5173 -0.4103
 2741SOL     OW19681   0.130   0.691   9.796  0.0951  0.1118  0.2844
 2741SOL    HW119682   0.105   0.782   9.781 -0.1504  0.1249  0.7577
 2741SOL    HW219683   0.152   0.690   9.890 -2.9975 -0.8035  0.9880
 2742SOL     OW19684   2.675   1.813   6.224  0.1877 -0.3353 -0.5598
 2742SOL    HW119685   2.593   1.856   6.247 -1.1961 -2.5524 -1.3833
 2742SOL    HW219686   2.651   1.755   6.151 -0.6209  1.9219 -2.0811
 2743SOL     OW19687   0.146   3.600   2.928 -0.1666  0.8889 -0.3138
 2743SOL    HW119688   0.213   3.625   2.992 -0.3419 -0.6561  0.4730
 2743SOL    HW219689   0.081   3.556   2.982 -0.0303  1.5552  0.3936
 2744SOL     OW19690   2.726   0.794   8.650 -0.7135  0.5226 -0.2601
 2744SOL    HW119691   2.732   0.747   8.733  2.4991 -0.1526 -0.8943
 2744SOL    HW219692   2.703   0.882   8.679  1.1115  1.1434 -0.7001
 2745SOL     OW19693   3.443   2.796   9.515 -1.4943 -1.0657  0.0561
 2745SOL    HW119694   3.359   2.839   9.528 -0.2356  1.3240  0.2167
 2745SOL    HW219695   3.455   2.756   9.601  1.8239 -1.0734 -0.3922
 2746SOL     OW19696   0.212   0.928   3.166  0.2464  0.1734  0.3632
 2746SOL    HW119697   0.252   0.890   3.244  0.4611  0.4362  0.3812
 2746SOL    HW219698   0.214   1.020   3.191 -1.5330 -0.1644  1.7674
 2747SOL     OW19699   0.040   1.059   2.922  0.3978 -0.1899 -0.5316
 2747SOL    HW119700   0.120   1.095   2.960  0.6373  0.5943 -1.7620
 2747SOL    HW219701   0.069   0.984   2.870  2.5686  0.5176 -0.3465
 2748SOL     OW19702   3.255   2.833   3.351  0.5955 -0.2710 -0.0690
 2748SOL    HW119703   3.188   2.822   3.283 -1.4100  0.6977  1.7320
 2748SOL    HW219704   3.234   2.921   3.385  3.5198  1.0561 -1.7419
 2749SOL     OW19705   1.855   3.480   6.866  0.2193  0.2340 -0.3925
 2749SOL    HW119706   1.949   3.496   6.869 -0.0463  2.3006 -2.8015
 2749SOL    HW219707   1.826   3.570   6.880  1.9640  0.6319  0.5701
 2750SOL     OW19708   4.325   3.411   5.204  0.1182 -0.2072  0.2696
 2750SOL    HW119709   4.374   3.447   5.130 -1.8004  1.3848 -0.2391
 2750SOL    HW219710   4.243   3.446   5.169  0.2035  2.9800  3.1689
 2751SOL     OW19711   2.240   0.001  13.867 -0.3813  0.0580  0.5317
 2751SOL    HW119712   2.308   4.663  13.896  0.9394  1.3935  0.2749
 2751SOL    HW219713   2.155   4.695  13.899 -0.3400 -1.7956 -1.0420
 2752SOL     OW19714   0.690   0.852  11.178  0.0106 -0.2299  0.1809
 2752SOL    HW119715   0.735   0.794  11.116  1.7319  0.0795  1.1294
 2752SOL    HW219716   0.764   0.898  11.219 -1.8334  2.2219  0.7653
 2753SOL     OW19717   2.287   0.512  17.049 -0.0411  0.5179  0.3645
 2753SOL    HW119718   2.208   0.537  17.096  0.0425 -0.9435  1.2932
 2753SOL    HW219719   2.291   0.574  16.976  0.1342  0.7254  0.5524
 2754SOL     OW19720   3.657   2.196  10.435  0.4034  0.0331 -0.1514
 2754SOL    HW119721   3.660   2.115  10.486 -1.1959 -0.5162 -0.9565
 2754SOL    HW219722   3.748   2.207  10.407 -0.3863  2.1107 -1.8780
 2755SOL     OW19723   0.013   0.071  14.082  0.0439  0.1007  0.0157
 2755SOL    HW119724   0.104   0.043  14.092 -0.0373 -0.0989  0.1991
 2755SOL    HW219725   4.707   0.007  14.017  0.6808  0.3435 -0.5182
 2756SOL     OW19726   0.281   1.889  15.722 -0.0788 -0.0103 -0.3313
 2756SOL    HW119727   0.187   1.886  15.737 -0.1518 -0.9302 -1.0296
 2756SOL    HW219728   0.296   1.797  15.703  1.9249  0.4241 -0.8593
 2757SOL     OW19729   2.066   1.829  10.355  0.1232 -0.3442 -0.5887
 2757SOL    HW119730   2.115   1.747  10.354 -1.8786 -1.5210 -0.9230
 2757SOL    HW219731   1.987   1.796  10.312 -1.1410 -0.5103  1.8864
 2758SOL     OW19732   1.065   1.091  14.726  0.0549 -0.3704  0.0922
 2758SOL    HW119733   1.154   1.096  14.692 -0.5122  0.8269 -1.2183
 2758SOL    HW219734   1.018   1.078  14.644 -0.5363  1.7058  0.1110
 2759SOL     OW19735   2.751   3.348   8.926 -0.2384  0.0105  0.4377
 2759SOL    HW119736   2.689   3.348   8.852 -1.8136  2.0233  1.7830
 2759SOL    HW219737   2.697   3.378   8.999  0.8837  0.0624  1.2436
 2760SOL     OW19738   2.001   4.133  11.469 -0.0445 -0.1637  0.0689
 2760SOL    HW119739   2.001   4.180  11.385  2.1739 -0.0123  0.1359
 2760SOL    HW219740   2.093   4.155  11.487  0.9300 -1.4616 -3.2775
 2761SOL     OW19741   2.476   3.966  12.850 -0.2557  0.0135  0.8938
 2761SOL    HW119742   2.570   3.963  12.867 -0.2438  3.6477  1.4999
 2761SOL    HW219743   2.473   4.060  12.864  1.2883  0.0662  0.9000
 2762SOL     OW19744   0.837   4.458   2.480 -0.3942  0.2812 -0.2465
 2762SOL    HW119745   0.851   4.376   2.528  0.0446  0.4488 -0.0895
 2762SOL    HW219746   0.920   4.504   2.495  0.1763 -0.4128 -1.3122
 2763SOL     OW19747   2.552   1.546   6.299  0.1014  0.5406 -0.2112
 2763SOL    HW119748   2.486   1.483   6.269  0.6486  0.7250 -1.8118
 2763SOL    HW219749   2.500   1.622   6.322 -0.3686 -0.2060  1.2116
 2764SOL     OW19750   2.556   0.708  13.373 -0.0922 -0.4071  0.0722
 2764SOL    HW119751   2.580   0.786  13.424  1.5538 -1.4099  0.8245
 2764SOL    HW219752   2.489   0.735  13.311 -0.7488 -1.9960  0.1110
 2765SOL     OW19753   1.868   3.984   5.669 -1.0657  0.1070  0.5798
 2765SOL    HW119754   1.848   3.916   5.604  2.7877 -0.1369 -0.3394
 2765SOL    HW219755   1.964   3.990   5.668 -0.8978 -2.4866  0.3416
 2766SOL     OW19756   0.440   4.098   7.472 -0.1696  0.0636  0.0663
 2766SOL    HW119757   0.414   4.049   7.394  0.6192 -3.8836  2.3195
 2766SOL    HW219758   0.362   4.139   7.510  0.4085  1.0548  0.1612
 2767SOL     OW19759   1.291   0.811  15.263  0.2032  0.1396 -0.3832
 2767SOL    HW119760   1.245   0.793  15.181  3.3344 -1.1956 -1.8744
 2767SOL    HW219761   1.355   0.740  15.262 -1.3692 -1.2486 -0.2859
 2768SOL     OW19762   1.573   4.364  15.676 -0.0827  0.9550  0.3443
 2768SOL    HW119763   1.565   4.291  15.614  0.8305  0.7291  0.4882
 2768SOL    HW219764   1.583   4.319  15.761 -1.8626  1.4819  0.8232
 2769SOL     OW19765   2.303   3.608  15.582  0.1178 -0.4264  0.2701
 2769SOL    HW119766   2.315   3.517  15.556 -2.4581 -0.9099  0.8202
 2769SOL    HW219767   2.377   3.617  15.642  0.2462 -0.5370  0.1279
 2770SOL     OW19768   0.746   1.607   2.729  0.0415 -0.2654  0.4121
 2770SOL    HW119769   0.693   1.562   2.662  0.5359 -1.2738  0.7080
 2770SOL    HW219770   0.768   1.691   2.688 -4.2731  0.0867 -1.2097
 2771SOL     OW19771   3.023   3.972  10.304 -0.1549  0.0971  0.5592
 2771SOL    HW119772   3.072   3.935  10.230 -0.6482 -0.6071  0.5806
 2771SOL    HW219773   2.947   4.000  10.254 -0.8952  0.8231  2.1218
 2772SOL     OW19774   3.825   4.719   1.425  0.5554  1.0007  0.0387
 2772SOL    HW119775   3.757   0.057   1.398 -1.0456  0.2564  2.3788
 2772SOL    HW219776   3.910   0.030   1.397  1.1684  1.8505  2.9276
 2773SOL     OW19777   3.507   2.113  11.939  0.1800  0.1949  0.0314
 2773SOL    HW119778   3.580   2.122  11.999 -1.1744 -0.5803  1.8038
 2773SOL    HW219779   3.548   2.113  11.852 -1.1810 -0.6619 -0.6191
 2774SOL     OW19780   1.241   3.461   4.813  0.2495 -0.5728 -1.0894
 2774SOL    HW119781   1.149   3.438   4.803 -0.3601  1.2738  0.1627
 2774SOL    HW219782   1.281   3.374   4.812  1.6015  0.0586 -2.5316
 2775SOL     OW19783   2.932   2.505   5.592 -0.4010 -0.3426 -0.1099
 2775SOL    HW119784   3.023   2.534   5.603 -0.0043 -0.6837 -2.6539
 2775SOL    HW219785   2.927   2.454   5.673  2.5529 -1.6343 -0.7271
 2776SOL     OW19786   3.895   0.291   8.056  0.5845 -0.1300  0.6686
 2776SOL    HW119787   3.970   0.232   8.048 -1.3224 -1.5415 -6.1691
 2776SOL    HW219788   3.913   0.350   7.984 -0.8980 -0.5571 -0.0466
 2777SOL     OW19789   4.000   2.801   6.487  0.8481 -0.3341 -0.0143
 2777SOL    HW119790   4.032   2.720   6.526 -0.9161 -0.9902  0.1026
 2777SOL    HW219791   4.051   2.865   6.535  0.0391 -0.0020  0.4095
 2778SOL     OW19792   3.940   3.897   9.283  0.3584  0.4017  0.3401
 2778SOL    HW119793   3.929   3.814   9.329 -0.0323 -0.4629 -1.3367
 2778SOL    HW219794   4.016   3.874   9.229 -0.1348  0.2823 -0.3016
 2779SOL     OW19795   3.527   0.103  11.841  0.2267 -0.0973 -0.5223
 2779SOL    HW119796   3.456   0.166  11.853  0.5140  0.0493  0.4237
 2779SOL    HW219797   3.498   0.042  11.908  0.5939  0.7911  0.4490
 2780SOL     OW19798   4.551   2.319   6.121  0.2897 -0.2245  0.1317
 2780SOL    HW119799   4.545   2.286   6.211  1.1726  1.4910  0.8268
 2780SOL    HW219800   4.623   2.265   6.090 -0.3171 -0.8540 -0.1938
 2781SOL     OW19801   2.423   4.629   3.337  0.1022  0.5592  0.2438
 2781SOL    HW119802   2.401   4.721   3.324  1.6655  1.2080  2.1176
 2781SOL    HW219803   2.480   4.639   3.413 -1.1232  1.0284  1.1029
 2782SOL     OW19804   2.892   2.311   6.096 -0.2555  0.1656 -0.0752
 2782SOL    HW119805   2.901   2.399   6.133  3.2198  0.0085 -0.5396
 2782SOL    HW219806   2.937   2.268   6.169  2.5681 -0.0066 -1.9212
 2783SOL     OW19807   2.025   1.952   4.604 -0.0882 -0.0149  0.5661
 2783SOL    HW119808   1.957   1.994   4.550  0.4685  1.5873  1.1029
 2783SOL    HW219809   1.968   1.910   4.667 -0.2445 -0.3492  0.2016
 2784SOL     OW19810   2.059   0.824   3.821 -0.0188  0.1200 -0.3816
 2784SOL    HW119811   1.990   0.763   3.845  0.1656  0.4078  0.8766
 2784SOL    HW219812   2.109   0.830   3.903 -0.5720  0.0159 -0.0436
 2785SOL     OW19813   2.649   2.688   2.798 -0.4734  0.3180  0.2776
 2785SOL    HW119814   2.641   2.651   2.710  2.6235  2.5412 -0.9465
 2785SOL    HW219815   2.580   2.754   2.806  0.6022  0.9275  4.5934
 2786SOL     OW19816   1.486   1.923   4.072 -0.2196  0.1592 -0.2028
 2786SOL    HW119817   1.441   1.916   3.987 -0.9985 -0.1201  0.2332
 2786SOL    HW219818   1.569   1.879   4.057 -0.5816 -0.5219 -0.2096
 2787SOL     OW19819   0.706   1.240   4.456  0.3490 -0.2889 -0.0199
 2787SOL    HW119820   0.671   1.200   4.376  1.8103 -0.9584 -0.3156
 2787SOL    HW219821   0.758   1.168   4.490  1.4266  0.7527  0.5367
 2788SOL     OW19822   1.145   0.944  17.043  0.4929 -0.2814 -0.3014
 2788SOL    HW119823   1.165   1.015  17.104  1.9755 -0.8008 -0.1728
 2788SOL    HW219824   1.228   0.897  17.057  0.2059 -0.3382  1.2707
 2789SOL     OW19825   3.930   3.275   5.290  0.1696 -0.4083 -0.7015
 2789SOL    HW119826   3.957   3.314   5.207  2.6206  0.0984  0.3302
 2789SOL    HW219827   4.007   3.226   5.320 -0.7189 -0.7323  1.0376
 2790SOL     OW19828   3.605   4.014   8.369 -0.0137 -0.4046 -0.8969
 2790SOL    HW119829   3.677   4.074   8.387  2.0794 -3.6042  1.4078
 2790SOL    HW219830   3.578   3.999   8.460 -0.9131 -2.5421 -1.5042
 2791SOL     OW19831   1.651   0.399   0.506 -0.1146 -0.9442  0.0404
 2791SOL    HW119832   1.593   0.458   0.555 -0.1705 -0.8486 -0.1389
 2791SOL    HW219833   1.724   0.401   0.568  0.5675 -2.9846 -0.7076
 2792SOL     OW19834   4.087   2.969   2.495  1.2833 -0.4923  0.6508
 2792SOL    HW119835   4.014   3.021   2.529  1.3271  0.5940 -0.9453
 2792SOL    HW219836   4.146   3.040   2.469  1.2631 -1.0283 -0.8157
 2793SOL     OW19837   4.648   1.358   9.074  0.3128  0.5542 -0.1192
 2793SOL    HW119838   4.708   1.431   9.088  1.0697 -0.1015  0.0673
 2793SOL    HW219839   4.674   1.309   9.152 -1.2254  0.8481  0.5757
 2794SOL     OW19840   0.778   3.222   2.533 -0.0871  0.0034  0.0986
 2794SOL    HW119841   0.820   3.286   2.476 -1.3270  1.7166  1.0908
 2794SOL    HW219842   0.841   3.151   2.543 -0.6554 -0.6428 -0.9493
 2795SOL     OW19843   3.763   3.800   7.724  0.1866 -0.3166 -0.1713
 2795SOL    HW119844   3.736   3.748   7.799 -3.2948 -1.9078 -2.5583
 2795SOL    HW219845   3.678   3.833   7.696 -0.2326 -0.1236  1.2987
 2796SOL     OW19846   2.523   2.784   1.858  0.6267  0.3517 -0.4359
 2796SOL    HW119847   2.471   2.863   1.843  0.9656  0.4444 -1.1368
 2796SOL    HW219848   2.576   2.779   1.779  0.4200  1.0045 -0.6171
 2797SOL     OW19849   1.779   3.887   5.452 -0.4047  0.1477 -0.0833
 2797SOL    HW119850   1.685   3.872   5.458 -0.7186  2.6691  0.8729
 2797SOL    HW219851   1.787   3.934   5.369  2.2852 -1.0607 -0.5186
 2798SOL     OW19852   4.231   0.302   2.943 -0.1442 -0.0440 -0.9809
 2798SOL    HW119853   4.197   0.286   2.855 -1.4689  0.6053 -0.5970
 2798SOL    HW219854   4.268   0.389   2.930 -0.8278  0.6221  1.4151
 2799SOL     OW19855   3.909   4.025   4.967  0.4480  0.2117  0.1651
 2799SOL    HW119856   3.844   4.004   5.035  0.2484  0.4290  0.0405
 2799SOL    HW219857   3.981   4.057   5.022  0.9230  0.9834 -0.9233
 2800SOL     OW19858   3.742   1.113  14.002  0.1303 -0.0864 -0.0942
 2800SOL    HW119859   3.736   1.112  13.906 -1.4053 -0.9473  0.0199
 2800SOL    HW219860   3.650   1.136  14.014  0.5878  1.0142  1.3065
 2801SOL     OW19861   3.393   3.641   2.262 -0.2714 -0.0457 -0.1520
 2801SOL    HW119862   3.420   3.679   2.179  0.8388  0.0562  0.2555
 2801SOL    HW219863   3.455   3.570   2.279 -1.2755 -0.9391 -0.2054
 2802SOL     OW19864   1.489   1.995   5.117  0.4263  0.0354  0.0723
 2802SOL    HW119865   1.436   1.947   5.180  1.2929 -1.5325 -0.3963
 2802SOL    HW219866   1.558   1.933   5.091 -0.4496 -1.0417  0.3496
 2803SOL     OW19867   4.519   4.212   7.368 -0.3567 -0.1185  0.2358
 2803SOL    HW119868   4.605   4.175   7.390 -0.2180  0.1285  0.1036
 2803SOL    HW219869   4.545   4.303   7.360  0.3709 -0.6121 -2.8117
 2804SOL     OW19870   3.801   1.713   4.093  0.3648  0.4066 -0.5246
 2804SOL    HW119871   3.874   1.769   4.115  0.3077 -0.6458  2.2975
 2804SOL    HW219872   3.732   1.779   4.102 -0.7790 -0.5361 -2.3100
 2805SOL     OW19873   0.581   3.114   9.319 -0.3233 -0.5094  0.3093
 2805SOL    HW119874   0.620   3.187   9.272 -0.9617 -1.0001 -0.9788
 2805SOL    HW219875   0.501   3.107   9.267 -0.9640  0.5260  1.1571
 2806SOL     OW19876   2.701   1.793   8.698  0.1105  0.2730  0.2226
 2806SOL    HW119877   2.796   1.797   8.686  0.1847  0.9412  1.0389
 2806SOL    HW219878   2.674   1.706   8.669  0.1543  1.0551 -2.2181
 2807SOL     OW19879   4.546   1.484   3.413 -0.5321 -0.2733 -0.2019
 2807SOL    HW119880   4.514   1.556   3.468 -0.1367 -0.4115  0.2028
 2807SOL    HW219881   4.480   1.497   3.345 -0.9101 -0.7452  0.0710
 2808SOL     OW19882   1.292   1.238   8.035  0.0574  0.5625  0.4458
 2808SOL    HW119883   1.267   1.164   8.089 -1.3661  1.1577  0.6095
 2808SOL    HW219884   1.335   1.286   8.105 -1.3534 -1.2443  2.5238
 2809SOL     OW19885   4.394   3.968   2.730  0.0964  0.0700  0.5938
 2809SOL    HW119886   4.430   4.012   2.653  1.0498  3.0279  2.7377
 2809SOL    HW219887   4.407   3.875   2.713 -0.6922  0.0673  0.0188
 2810SOL     OW19888   2.181   0.348   1.809 -0.3550  0.2062  0.3992
 2810SOL    HW119889   2.101   0.399   1.820 -1.1946 -1.0759  0.1210
 2810SOL    HW219890   2.145   0.271   1.765  1.6703 -0.8176  0.5199
 2811SOL     OW19891   2.621   3.221   5.486 -0.3400  0.0106  0.6451
 2811SOL    HW119892   2.626   3.143   5.430  0.3511 -0.0936  0.8426
 2811SOL    HW219893   2.553   3.204   5.551  0.3570  1.5729  1.7718
 2812SOL     OW19894   1.268   1.539  10.736  0.1395 -0.2208  0.2632
 2812SOL    HW119895   1.209   1.611  10.757  1.5214  0.2700  2.4058
 2812SOL    HW219896   1.207   1.467  10.722  0.8130 -0.6230 -0.6414
 2813SOL     OW19897   3.296   3.674   5.349 -0.1416  0.2303 -0.1046
 2813SOL    HW119898   3.338   3.608   5.294  2.0291  0.2153  1.5606
 2813SOL    HW219899   3.282   3.610   5.419 -0.7063  3.0650  2.4030
 2814SOL     OW19900   1.710   1.116  17.466 -0.0228  0.0486 -0.1879
 2814SOL    HW119901   1.650   1.075  17.403 -1.4374 -0.1923  1.3011
 2814SOL    HW219902   1.637   1.163  17.506 -0.3475  0.4580 -1.2518
 2815SOL     OW19903   3.195   4.535   2.582  0.6540 -0.1494 -0.0853
 2815SOL    HW119904   3.197   4.596   2.508  1.3020  0.3986  0.3933
 2815SOL    HW219905   3.218   4.600   2.649 -0.5496  1.5003 -1.2434
 2816SOL     OW19906   2.263   1.659   9.789 -0.5370 -0.2067 -0.5436
 2816SOL    HW119907   2.216   1.678   9.870  0.0211 -2.1205  0.2305
 2816SOL    HW219908   2.204   1.594   9.750  0.0349 -1.5855  0.8980
 2817SOL     OW19909   1.633   3.185  12.130  0.4214  0.2504  0.4002
 2817SOL    HW119910   1.591   3.111  12.174 -1.6477  0.0707 -1.8344
 2817SOL    HW219911   1.577   3.256  12.161  1.2563 -0.0913  2.6675
 2818SOL     OW19912   0.454   4.043   6.391  0.5955 -0.2652 -0.0064
 2818SOL    HW119913   0.546   4.048   6.416  0.8432 -0.8360 -0.7741
 2818SOL    HW219914   0.416   4.122   6.429 -1.0303 -0.9379 -0.2040
 2819SOL     OW19915   1.968   2.031   6.783  0.5963 -0.3876  0.5209
 2819SOL    HW119916   1.881   2.070   6.787 -0.0664 -1.3898 -3.8756
 2819SOL    HW219917   2.022   2.080   6.845 -0.4723 -1.4774  2.3105
 2820SOL     OW19918   2.572   0.590   2.981  0.0811  0.0069 -0.1745
 2820SOL    HW119919   2.547   0.623   3.067  0.2407  0.1915 -0.2009
 2820SOL    HW219920   2.598   0.672   2.940 -0.1482 -0.3481 -1.0516
 2821SOL     OW19921   1.272   3.652   6.457 -0.2776 -0.1357 -0.3406
 2821SOL    HW119922   1.239   3.564   6.473 -0.9225  0.1749  0.0216
 2821SOL    HW219923   1.326   3.634   6.380  0.8426 -1.1391  0.6652
 2822SOL     OW19924   2.828   3.480   1.423 -0.1424 -0.3579  0.2492
 2822SOL    HW119925   2.821   3.411   1.356  0.9195 -1.3294  1.1406
 2822SOL    HW219926   2.914   3.508   1.393 -0.3656 -1.4804 -1.4364
 2823SOL     OW19927   1.940   1.790   5.469 -0.2029 -0.6095 -0.1104
 2823SOL    HW119928   2.027   1.751   5.462 -0.0332 -0.3696  0.6856
 2823SOL    HW219929   1.896   1.740   5.538  0.3490 -0.6315  0.2231
 2824SOL     OW19930   2.919   2.006   6.646 -0.7144 -0.2401 -0.6726
 2824SOL    HW119931   2.827   2.022   6.628 -0.6907  0.2009 -0.3849
 2824SOL    HW219932   2.929   1.937   6.580  1.2429 -0.3794 -0.2512
 2825SOL     OW19933   2.565   1.468  15.145  0.0189  0.1134 -0.7226
 2825SOL    HW119934   2.502   1.416  15.095  0.6130 -1.9578  0.6880
 2825SOL    HW219935   2.650   1.426  15.130 -0.6216 -1.5966  0.4215
 2826SOL     OW19936   4.050   1.141   1.157 -0.0161 -0.2776  0.7859
 2826SOL    HW119937   4.093   1.227   1.162  0.0636 -0.3840  1.9105
 2826SOL    HW219938   3.958   1.160   1.141  0.3907 -0.0949 -1.3356
 2827SOL     OW19939   1.505   2.606  12.730  0.3053  0.0319 -0.0747
 2827SOL    HW119940   1.480   2.694  12.702 -0.3464  0.0843  0.6713
 2827SOL    HW219941   1.497   2.612  12.825  1.0172  1.2263 -0.1000
 2828SOL     OW19942   2.719   2.577   8.002 -0.6453  0.6210  0.0126
 2828SOL    HW119943   2.719   2.603   7.910  3.5154  0.1949 -0.1109
 2828SOL    HW219944   2.756   2.489   7.993 -1.0491  0.1175  3.4543
 2829SOL     OW19945   2.325   0.375   2.048 -1.1823  0.2817 -0.0594
 2829SOL    HW119946   2.248   0.390   2.102  0.0262 -3.4762  2.7077
 2829SOL    HW219947   2.284   0.371   1.961 -0.7745  0.7780 -0.2820
 2830SOL     OW19948   2.112   2.690   0.926 -0.5179 -0.0124  0.0014
 2830SOL    HW119949   2.123   2.718   0.836 -2.0490  1.1090  0.1559
 2830SOL    HW219950   2.197   2.652   0.948 -1.3850 -1.0959  1.5076
 2831SOL     OW19951   4.393   4.448   8.789 -0.3492  0.8295  0.2337
 2831SOL    HW119952   4.361   4.361   8.813  0.6018  0.0609 -1.2591
 2831SOL    HW219953   4.482   4.416   8.772 -0.6974 -0.8714  1.6627
 2832SOL     OW19954   4.116   1.117  13.650 -0.1347 -0.2496  0.6086
 2832SOL    HW119955   4.147   1.032  13.618 -2.7245 -0.3974 -1.4857
 2832SOL    HW219956   4.081   1.161  13.572  1.1701  2.0987  1.3276
 2833SOL     OW19957   3.733   2.671  11.040 -0.3302 -0.4703  0.3852
 2833SOL    HW119958   3.811   2.681  11.095  0.2626  0.5939 -0.6351
 2833SOL    HW219959   3.662   2.695  11.100  0.9815 -1.1953  2.2256
 2834SOL     OW19960   3.686   2.550   7.813 -0.0659  0.2248  0.2169
 2834SOL    HW119961   3.737   2.623   7.848 -1.1565  1.1005 -0.0364
 2834SOL    HW219962   3.729   2.482   7.866  0.5344  0.1823 -0.3347
 2835SOL     OW19963   3.423   2.184   1.016  0.4094  0.0791 -0.2270
 2835SOL    HW119964   3.432   2.193   0.921 -2.0720  1.1485 -0.3663
 2835SOL    HW219965   3.486   2.247   1.049  0.1986  0.2283 -0.1064
 2836SOL     OW19966   2.260   0.805   6.650 -0.1889 -0.1896  0.2376
 2836SOL    HW119967   2.349   0.771   6.660 -0.5607 -1.6072 -1.3167
 2836SOL    HW219968   2.285   0.895   6.628  0.2660 -0.3757 -0.0335
 2837SOL     OW19969   3.303   0.785   2.905  0.2109  0.0552  0.2852
 2837SOL    HW119970   3.254   0.816   2.982 -0.2161 -0.7802  0.3533
 2837SOL    HW219971   3.387   0.829   2.915 -0.8336  1.9646  0.7166
 2838SOL     OW19972   3.915   3.943   8.526 -0.5629 -0.0613 -0.2233
 2838SOL    HW119973   3.995   3.893   8.510  0.4700  1.4725  0.0175
 2838SOL    HW219974   3.853   3.909   8.463 -2.0631  2.1890  0.0355
 2839SOL     OW19975   4.124   3.438   4.598  0.8809  0.0873 -0.5230
 2839SOL    HW119976   4.082   3.508   4.547  2.0936  2.2000  1.3919
 2839SOL    HW219977   4.108   3.457   4.690 -0.8112 -3.9590 -0.0075
 2840SOL     OW19978   1.648   1.536   9.749  0.0383 -0.3822  0.1645
 2840SOL    HW119979   1.657   1.575   9.662  0.8009  1.0327  0.8983
 2840SOL    HW219980   1.729   1.492   9.774  1.6197  0.5608 -3.3209
 2841SOL     OW19981   1.949   3.092   1.994 -0.1289 -0.4865  0.2035
 2841SOL    HW119982   1.980   3.107   2.084  2.2842 -1.5497 -0.4473
 2841SOL    HW219983   2.031   3.066   1.952  0.4337 -1.0809  1.6610
 2842SOL     OW19984   1.663   4.266   8.983  0.2265  0.0979  0.6523
 2842SOL    HW119985   1.729   4.231   8.922  1.1751  0.1073  1.6709
 2842SOL    HW219986   1.629   4.340   8.932 -0.0883 -0.4191  0.1098
 2843SOL     OW19987   3.270   0.884  11.722 -0.1318 -0.0749  0.2471
 2843SOL    HW119988   3.363   0.880  11.701  0.1960 -0.8458  1.8822
 2843SOL    HW219989   3.233   0.815  11.666 -1.6939  1.7195 -0.9249
 2844SOL     OW19990   2.869   1.383   3.560 -0.0873 -0.1324  0.1239
 2844SOL    HW119991   2.789   1.386   3.507 -0.6633 -0.3816  0.9808
 2844SOL    HW219992   2.936   1.436   3.517 -0.2920 -0.5351 -0.6837
 2845SOL     OW19993   2.404   0.266  16.533  0.2407  0.0249  0.2430
 2845SOL    HW119994   2.405   0.218  16.450 -2.1224 -0.2045  0.3370
 2845SOL    HW219995   2.349   0.342  16.514  0.9553  0.1928 -1.1496
 2846SOL     OW19996   1.356   4.262  16.574  0.5568  0.1692  0.2176
 2846SOL    HW119997   1.314   4.296  16.495 -2.7255 -0.6713  1.5743
 2846SOL    HW219998   1.328   4.171  16.573  1.4132 -0.1095  1.8457
 2847SOL     OW19999   3.725   3.394   7.124  0.2320  0.1789 -1.0790
 2847SOL    HW120000   3.706   3.374   7.215 -0.7208 -0.4624 -1.4142
 2847SOL    HW220001   3.778   3.473   7.124  0.8655 -0.2352 -2.1955
 2848SOL     OW20002   1.839   1.470   3.099  0.6811  0.0975  0.1537
 2848SOL    HW120003   1.851   1.521   3.179  1.3949  0.4058 -0.1493
 2848SOL    HW220004   1.764   1.514   3.059  0.9931 -1.2723 -1.9607
 2849SOL     OW20005   3.123   2.637  12.989  0.0153 -0.4354 -0.4394
 2849SOL    HW120006   3.036   2.624  13.027 -0.3202  0.1486 -1.0101
 2849SOL    HW220007   3.158   2.725  13.001 -2.3826  0.6323 -1.2954
 2850SOL     OW20008   1.548   3.637   0.454  0.1241 -1.0260  0.2750
 2850SOL    HW120009   1.616   3.679   0.508 -1.1082  0.6372  0.5142
 2850SOL    HW220010   1.579   3.649   0.364 -0.8386 -0.8988 -0.0311
 2851SOL     OW20011   3.354   4.446  16.049  0.2013 -0.5389  0.1611
 2851SOL    HW120012   3.285   4.418  15.989 -0.7574  1.7193  0.2045
 2851SOL    HW220013   3.312   4.410  16.127 -0.1822 -4.0573 -1.6337
 2852SOL     OW20014   2.272   4.356   7.758 -0.2690 -0.5416  0.1809
 2852SOL    HW120015   2.347   4.367   7.817 -1.0668  1.1223  0.8938
 2852SOL    HW220016   2.291   4.412   7.683 -1.4259 -0.4195 -0.0194
 2853SOL     OW20017   1.896   2.602   5.523 -0.8181  0.2048 -0.1176
 2853SOL    HW120018   1.805   2.608   5.552 -0.3662 -1.2470  1.5412
 2853SOL    HW220019   1.905   2.507   5.524 -2.7793  0.0232 -1.4312
 2854SOL     OW20020   2.427   3.264   2.911  0.1259 -0.0001  0.6832
 2854SOL    HW120021   2.494   3.232   2.850 -2.4387  1.4588 -2.9501
 2854SOL    HW220022   2.348   3.258   2.857 -0.4800 -0.4851  1.6248
 2855SOL     OW20023   0.553   0.590   5.713  0.1426 -0.6055  0.1285
 2855SOL    HW120024   0.619   0.572   5.780  0.1229  0.0446  0.3156
 2855SOL    HW220025   0.518   0.678   5.729  0.3698  0.0285 -2.8125
 2856SOL     OW20026   0.601   3.442   5.744 -0.3474 -0.3824 -0.3560
 2856SOL    HW120027   0.579   3.418   5.654  0.0283 -1.3607 -0.1770
 2856SOL    HW220028   0.653   3.365   5.763 -2.9792 -1.3404  2.9137
 2857SOL     OW20029   4.408   3.251   6.577 -0.1206  0.3208 -0.1388
 2857SOL    HW120030   4.361   3.286   6.653 -0.1970 -0.8867  0.3812
 2857SOL    HW220031   4.426   3.331   6.529 -2.4370 -0.9068 -3.0564
 2858SOL     OW20032   1.853   4.692  13.028  0.4386 -0.0386  0.0851
 2858SOL    HW120033   1.923   4.722  13.085  0.7271 -1.2070  0.3415
 2858SOL    HW220034   1.841   4.605  13.066  1.2129 -0.2442 -0.1543
 2859SOL     OW20035   1.260   1.062   0.257  0.0471 -0.5438  0.3020
 2859SOL    HW120036   1.245   1.005   0.333  1.7400  0.4000  1.3575
 2859SOL    HW220037   1.200   1.134   0.277  1.6621  0.3561  1.9213
 2860SOL     OW20038   4.689   3.892   6.720 -0.3826  0.6054 -0.0108
 2860SOL    HW120039   4.713   3.985   6.725  2.7394 -0.2125  0.2645
 2860SOL    HW220040   4.667   3.899   6.627 -0.5266  2.8104  0.1737
 2861SOL     OW20041   3.473   3.391   9.075 -0.4563  0.3926  0.8313
 2861SOL    HW120042   3.557   3.415   9.037 -0.8436  0.3032 -0.1009
 2861SOL    HW220043   3.504   3.306   9.105 -0.3601  0.1458  0.0531
 2862SOL     OW20044   1.431   1.204   5.774 -0.2744  0.5490 -0.7078
 2862SOL    HW120045   1.357   1.144   5.784  0.2115 -0.1013 -0.9892
 2862SOL    HW220046   1.416   1.282   5.828  1.0010  0.5900 -0.4255
 2863SOL     OW20047   3.785   4.509   5.375 -0.1356  0.1558  0.4723
 2863SOL    HW120048   3.716   4.567   5.345  0.8842  0.0372 -2.1024
 2863SOL    HW220049   3.788   4.432   5.318 -0.8798  1.0460 -0.7527
 2864SOL     OW20050   2.515   1.129   0.092  0.0885 -0.0344  0.3972
 2864SOL    HW120051   2.441   1.175   0.133 -0.6319 -0.1996 -0.7043
 2864SOL    HW220052   2.543   1.191   0.025 -2.0533  2.0352  1.3985
 2865SOL     OW20053   0.232   1.861   1.460  0.5906 -0.2972  0.4994
 2865SOL    HW120054   0.188   1.935   1.418 -1.1335 -1.5800  0.0153
 2865SOL    HW220055   0.167   1.791   1.447 -2.5100  2.6464  0.0882
 2866SOL     OW20056   1.058   1.838   3.012 -0.6067  0.2138 -1.3052
 2866SOL    HW120057   1.090   1.774   2.948 -0.3178 -1.3369  0.4060
 2866SOL    HW220058   1.044   1.777   3.084 -0.1701 -0.5941 -1.9028
 2867SOL     OW20059   2.470   1.624   2.149  0.1259  0.1647 -0.2468
 2867SOL    HW120060   2.512   1.597   2.230 -2.0272 -0.8556  0.5381
 2867SOL    HW220061   2.425   1.542   2.126  1.3113 -0.7547  0.7605
 2868SOL     OW20062   0.699   0.744  10.032  0.7635 -0.5191  0.5804
 2868SOL    HW120063   0.608   0.740  10.002  1.1270 -2.7663 -0.1704
 2868SOL    HW220064   0.685   0.806  10.104  0.4212 -0.4903  0.4894
 2869SOL     OW20065   3.585   2.417   9.710 -0.2500  0.0813  0.3811
 2869SOL    HW120066   3.553   2.327   9.718 -1.6153  0.6678  1.5291
 2869SOL    HW220067   3.591   2.435   9.616  0.4260  0.7931  0.5519
 2870SOL     OW20068   0.571   0.113   4.151  0.1874  0.4921  0.2735
 2870SOL    HW120069   0.590   0.207   4.165 -1.4416  1.0424 -1.3378
 2870SOL    HW220070   0.647   0.081   4.200  1.0371 -2.4159 -3.0175
 2871SOL     OW20071   1.306   0.040   9.226  0.0446 -0.0985  0.4726
 2871SOL    HW120072   1.301   4.673   9.255  1.6904 -0.7933 -1.4731
 2871SOL    HW220073   1.349   0.027   9.141 -0.1462 -3.0271  0.8277
 2872SOL     OW20074   3.116   2.162   3.187  0.0718 -0.3575 -0.2638
 2872SOL    HW120075   3.098   2.087   3.243  0.0443  0.9783  1.5541
 2872SOL    HW220076   3.092   2.126   3.102 -1.1607  0.0077 -0.0648
 2873SOL     OW20077   4.433   3.553   9.001 -0.3002 -0.4345 -0.5592
 2873SOL    HW120078   4.341   3.529   9.014 -0.0205 -2.0803 -1.5668
 2873SOL    HW220079   4.458   3.579   9.090 -0.8872 -1.5377 -0.0643
 2874SOL     OW20080   0.988   1.369   8.066  0.6136 -0.2189  0.1949
 2874SOL    HW120081   1.003   1.286   8.110  1.2881 -0.4200 -0.4147
 2874SOL    HW220082   0.957   1.425   8.137  0.9563  0.2904 -0.0529
 2875SOL     OW20083   2.807   0.049  13.283 -0.1068  0.1358 -0.5006
 2875SOL    HW120084   2.729   4.718  13.278  0.0301 -0.0368 -0.7349
 2875SOL    HW220085   2.874   4.705  13.281 -0.6985 -0.4631  0.0521
 2876SOL     OW20086   1.747   3.971  13.729  0.2693 -0.0429 -1.0651
 2876SOL    HW120087   1.733   3.953  13.636 -1.6563 -2.0497 -0.3897
 2876SOL    HW220088   1.678   4.037  13.741 -1.1381 -1.5147 -1.0339
 2877SOL     OW20089   3.003   0.064   7.697  0.1975 -0.0880 -0.2748
 2877SOL    HW120090   2.979   0.042   7.787  0.5830  2.1374  0.3619
 2877SOL    HW220091   2.948   0.004   7.646  1.3521 -1.6038  0.2353
 2878SOL     OW20092   0.805   0.440   6.284  0.1552 -0.3535  0.1563
 2878SOL    HW120093   0.863   0.409   6.354  1.1803  2.3691  0.4949
 2878SOL    HW220094   0.855   0.514   6.252  0.0203 -0.0904  0.5542
 2879SOL     OW20095   3.367   1.150   1.577  0.3481  0.1134  0.2437
 2879SOL    HW120096   3.325   1.116   1.498 -0.7603 -0.7142  1.1831
 2879SOL    HW220097   3.451   1.177   1.542  0.1668  0.3132 -0.0412
 2880SOL     OW20098   2.300   1.097   3.533 -0.3911 -0.2107  0.4225
 2880SOL    HW120099   2.209   1.119   3.515 -0.4221 -1.6692 -1.1871
 2880SOL    HW220100   2.290   1.028   3.599  1.3892 -1.9796 -1.1451
 2881SOL     OW20101   0.884   3.466   8.507 -0.0325  0.1100 -0.3106
 2881SOL    HW120102   0.865   3.376   8.533 -1.1219  0.5830  0.5405
 2881SOL    HW220103   0.835   3.514   8.573  1.3977 -1.2765  1.7946
 2882SOL     OW20104   0.210   1.504   1.364  0.7662  0.2236  0.1806
 2882SOL    HW120105   0.174   1.434   1.310 -0.7250  0.7371  0.4858
 2882SOL    HW220106   0.203   1.579   1.305 -0.2044 -0.2102 -0.2620
 2883SOL     OW20107   1.705   0.581  14.298 -0.0271 -0.7752  0.6754
 2883SOL    HW120108   1.740   0.492  14.301  0.9109 -0.4265  0.1251
 2883SOL    HW220109   1.632   0.579  14.360 -0.9178  0.4563 -0.3425
 2884SOL     OW20110   2.230   2.825   9.382 -0.4755  0.1256 -0.3747
 2884SOL    HW120111   2.198   2.815   9.472 -1.5272  0.5335 -0.7006
 2884SOL    HW220112   2.312   2.776   9.387 -0.5637 -0.1438 -1.7329
 2885SOL     OW20113   2.144   1.847   3.770  0.3096 -0.4217 -0.8996
 2885SOL    HW120114   2.107   1.793   3.840  0.3747  2.5161  1.3916
 2885SOL    HW220115   2.062   1.884   3.738  2.1341  2.4929 -2.2063
 2886SOL     OW20116   1.294   3.358   7.129 -0.3947 -0.3390  0.1238
 2886SOL    HW120117   1.258   3.270   7.115 -2.0029  0.0279  1.8935
 2886SOL    HW220118   1.386   3.332   7.122 -0.7377 -1.3591 -0.5478
 2887SOL     OW20119   1.102   0.575   7.914  0.1878 -0.8424 -0.1812
 2887SOL    HW120120   1.017   0.619   7.905  0.3249 -0.9847 -2.3095
 2887SOL    HW220121   1.128   0.560   7.823  0.9927  1.1067 -0.2799
 2888SOL     OW20122   2.247   2.114   4.537 -0.0878 -0.5007 -0.0874
 2888SOL    HW120123   2.217   2.185   4.594  0.6146 -2.9653  3.3876
 2888SOL    HW220124   2.200   2.038   4.571 -0.0225 -0.8918 -0.8557
 2889SOL     OW20125   0.866   4.453   5.007 -0.1948  0.6335  0.1138
 2889SOL    HW120126   0.914   4.408   4.938  2.0059  0.6255  1.6355
 2889SOL    HW220127   0.936   4.482   5.065  1.2718 -1.0987 -0.8147
 2890SOL     OW20128   4.366   0.437   5.669 -0.0586  0.2224  0.4597
 2890SOL    HW120129   4.392   0.467   5.581  0.7063  1.1988  1.0181
 2890SOL    HW220130   4.416   0.498   5.723 -0.2464  0.9694 -0.1978
 2891SOL     OW20131   0.648   0.494   5.234  0.0527  0.2078 -0.5018
 2891SOL    HW120132   0.603   0.572   5.265  0.6398  0.1344  0.5167
 2891SOL    HW220133   0.663   0.505   5.140  1.1968 -0.8960 -0.4382
 2892SOL     OW20134   1.765   3.403   7.539 -0.4113 -0.0155  0.1211
 2892SOL    HW120135   1.713   3.407   7.619 -0.4477  4.3102 -0.1005
 2892SOL    HW220136   1.856   3.402   7.566 -0.4659 -0.2513  0.2982
 2893SOL     OW20137   2.875   3.505   8.365  0.0815 -0.4277 -0.1992
 2893SOL    HW120138   2.969   3.496   8.374  0.3714  2.3371 -0.5182
 2893SOL    HW220139   2.842   3.415   8.357 -0.4684 -0.1422 -1.1136
 2894SOL     OW20140   3.862   3.959   7.457  0.0490 -0.5392 -0.3645
 2894SOL    HW120141   3.803   4.034   7.451  1.5145  0.7053  0.8529
 2894SOL    HW220142   3.890   3.966   7.548  2.0361  0.3338 -1.0601
 2895SOL     OW20143   1.791   3.518  14.896  0.1079  0.3661  0.0142
 2895SOL    HW120144   1.761   3.602  14.931  0.1471  0.6282 -0.5919
 2895SOL    HW220145   1.795   3.533  14.802  0.2080 -2.3403 -0.4165
 2896SOL     OW20146   0.263   1.778   2.413  0.7130 -0.5981 -0.1087
 2896SOL    HW120147   0.193   1.831   2.451  0.7174  0.0073 -0.9505
 2896SOL    HW220148   0.317   1.847   2.374  2.6503 -2.1369 -0.1789
 2897SOL     OW20149   0.654   1.332   6.578  0.1631  0.3518 -0.1732
 2897SOL    HW120150   0.566   1.369   6.564 -1.0311 -2.2326  0.4065
 2897SOL    HW220151   0.664   1.354   6.670 -2.9939 -0.3276  0.3407
 2898SOL     OW20152   0.497   1.488   1.783 -0.7307  0.3618  0.0700
 2898SOL    HW120153   0.411   1.492   1.741 -1.1624  0.2369  0.9329
 2898SOL    HW220154   0.543   1.428   1.724 -0.7359  0.9482 -0.5381
 2899SOL     OW20155   4.276   4.686   7.074  0.1500  0.0216  0.1268
 2899SOL    HW120156   4.237   4.601   7.094 -1.2386  0.2774 -1.5339
 2899SOL    HW220157   4.300   4.666   6.984  1.8183 -1.0031  0.7940
 2900SOL     OW20158   0.094   1.519   6.977  0.3279  0.1540  0.0600
 2900SOL    HW120159   0.109   1.425   6.980 -2.6880 -0.3423 -0.1424
 2900SOL    HW220160   4.723   1.532   6.974  0.4651  1.4124  1.1427
 2901SOL     OW20161   4.029   1.414  15.327  0.4348 -0.3267 -0.0851
 2901SOL    HW120162   4.014   1.334  15.378 -0.1972 -0.2316 -0.1191
 2901SOL    HW220163   3.961   1.400  15.261  0.3977  1.9684 -0.5514
 2902SOL     OW20164   4.053   2.329   4.022 -0.2317 -0.8128  0.3203
 2902SOL    HW120165   4.077   2.314   4.113  2.5438 -0.9194 -0.4430
 2902SOL    HW220166   4.112   2.399   3.996  0.2032 -1.4488 -0.3844
 2903SOL     OW20167   0.214   1.413   4.682  0.1007 -0.0643 -0.1509
 2903SOL    HW120168   0.220   1.336   4.738 -1.0748 -1.5906 -2.1158
 2903SOL    HW220169   0.184   1.366   4.604  2.0892  3.2664 -2.9434
 2904SOL     OW20170   0.241   2.940   3.004 -0.0716  0.1063  0.1651
 2904SOL    HW120171   0.162   2.995   2.998  0.1329  0.3052 -0.8146
 2904SOL    HW220172   0.309   2.984   2.952 -1.6433 -1.6338 -3.3929
 2905SOL     OW20173   2.827   1.430   2.557  0.3078  0.0959  0.6998
 2905SOL    HW120174   2.784   1.444   2.472 -1.3422  3.6007  2.1242
 2905SOL    HW220175   2.877   1.510   2.568 -0.2995  0.5878 -0.1283
 2906SOL     OW20176   4.533   2.343   4.982 -0.3723  0.0285 -0.3231
 2906SOL    HW120177   4.438   2.334   4.992 -0.3399  1.4575  1.3895
 2906SOL    HW220178   4.535   2.419   4.924 -0.8799  0.3339  0.0582
 2907SOL     OW20179   2.468   0.438  11.801 -0.1571  0.4723 -0.2947
 2907SOL    HW120180   2.380   0.474  11.812 -0.9456 -1.5392 -0.0912
 2907SOL    HW220181   2.466   0.371  11.733  0.6198 -0.8664  1.0005
 2908SOL     OW20182   3.092   2.201   4.962 -0.0432  0.6166  0.3037
 2908SOL    HW120183   3.121   2.156   5.041  1.6457  1.1177 -0.0201
 2908SOL    HW220184   3.030   2.267   4.993 -0.1633  0.8465 -0.4095
 2909SOL     OW20185   1.170   3.423   1.250 -0.1975  0.0081  0.4311
 2909SOL    HW120186   1.080   3.456   1.255 -0.0543  0.7401 -2.2092
 2909SOL    HW220187   1.219   3.497   1.285  0.1445  0.6252 -1.3660
 2910SOL     OW20188   0.613   4.042   0.501  0.9864  0.2110  0.3607
 2910SOL    HW120189   0.640   4.106   0.434  0.4891 -0.2640 -0.2854
 2910SOL    HW220190   0.519   4.026   0.491  1.4042 -1.6246 -0.3740
 2911SOL     OW20191   1.584   4.559  15.329  0.0341  0.2972 -0.2347
 2911SOL    HW120192   1.657   4.539  15.271 -0.2003  1.2133 -0.8473
 2911SOL    HW220193   1.558   4.646  15.299 -0.8997  0.3159  0.6127
 2912SOL     OW20194   1.817   0.884   7.846  0.3774  0.1943 -0.3892
 2912SOL    HW120195   1.877   0.938   7.794 -0.0651 -0.5735 -1.7207
 2912SOL    HW220196   1.739   0.930   7.813  2.2322  2.5273 -1.5428
 2913SOL     OW20197   1.242   1.849  11.299 -0.4906 -0.3312 -0.3981
 2913SOL    HW120198   1.250   1.753  11.304  2.4445 -0.0998 -0.4944
 2913SOL    HW220199   1.233   1.872  11.391  0.6893 -1.2936 -0.0400
 2914SOL     OW20200   2.769   1.137  13.251  0.2465  0.5954 -0.0608
 2914SOL    HW120201   2.679   1.124  13.222  0.1850  1.5164 -0.2908
 2914SOL    HW220202   2.766   1.065  13.313  0.0930  1.7532  1.2658
 2915SOL     OW20203   2.323   2.641   4.001 -0.3070 -0.8227 -0.0277
 2915SOL    HW120204   2.271   2.562   4.017  0.5800 -1.5982 -0.9512
 2915SOL    HW220205   2.271   2.687   3.935  2.5185  0.3293 -1.4890
 2916SOL     OW20206   2.898   1.710   3.446  0.2170 -0.4081  0.5940
 2916SOL    HW120207   2.975   1.653   3.444  2.0068  2.0610 -0.6672
 2916SOL    HW220208   2.834   1.648   3.411 -0.2608  0.2253  0.3492
 2917SOL     OW20209   3.185   0.138  10.613 -0.6293 -0.2311  0.5813
 2917SOL    HW120210   3.185   0.127  10.518  0.5363 -1.3883  0.7193
 2917SOL    HW220211   3.172   0.231  10.627  0.1576  0.1737 -1.3617
 2918SOL     OW20212   3.565   3.093  17.318 -0.4084  0.2198 -0.0534
 2918SOL    HW120213   3.601   3.092  17.230 -2.6077  2.8530 -0.9900
 2918SOL    HW220214   3.482   3.142  17.320 -0.9363 -0.7830  3.1087
 2919SOL     OW20215   0.177   1.751   3.326 -0.0698  0.4679 -0.1152
 2919SOL    HW120216   0.164   1.789   3.239 -1.2393 -2.1012 -1.0664
 2919SOL    HW220217   0.145   1.663   3.305  1.3685 -0.4566  1.5080
 2920SOL     OW20218   3.440   0.198  15.957 -0.2523  0.3324  0.3226
 2920SOL    HW120219   3.396   0.116  15.980 -0.9118  0.9337  1.1971
 2920SOL    HW220220   3.385   0.212  15.881 -0.0294 -0.2717  0.0480
 2921SOL     OW20221   3.572   3.277   3.085 -0.6651  0.3377 -0.0592
 2921SOL    HW120222   3.575   3.193   3.039  0.3056  1.1510 -1.4906
 2921SOL    HW220223   3.661   3.268   3.119 -0.9026 -0.5498  0.3272
 2922SOL     OW20224   3.762   2.671  15.686 -0.5025 -0.1846 -0.0328
 2922SOL    HW120225   3.743   2.754  15.643 -3.5488 -1.0163 -0.3323
 2922SOL    HW220226   3.767   2.688  15.780  0.9321  2.0629 -0.5217
 2923SOL     OW20227   3.970   3.094   2.033  0.4099 -0.4297  0.5762
 2923SOL    HW120228   4.051   3.059   1.995  0.6550  0.2543  0.4576
 2923SOL    HW220229   3.918   3.020   2.063 -2.7883  0.9453 -1.5613
 2924SOL     OW20230   0.435   0.720   2.891 -0.2619 -0.4860 -0.5458
 2924SOL    HW120231   0.386   0.720   2.808 -1.0857  3.0152 -0.0917
 2924SOL    HW220232   0.508   0.671   2.853  1.4045  2.8352 -1.7109
 2925SOL     OW20233   0.748   1.988   9.487 -0.0081  0.2006  0.0257
 2925SOL    HW120234   0.807   1.920   9.454  1.6307  0.7630  1.7630
 2925SOL    HW220235   0.800   2.068   9.493  0.6942 -0.2198 -0.5292
 2926SOL     OW20236   3.651   1.899   3.355 -0.4285  0.2021 -0.8255
 2926SOL    HW120237   3.671   1.807   3.373 -0.1144  0.4674  0.1845
 2926SOL    HW220238   3.560   1.890   3.326 -1.0135  0.6718  0.8421
 2927SOL     OW20239   0.750   0.728   4.175  0.4337  0.2870  0.1166
 2927SOL    HW120240   0.801   0.689   4.105 -1.9675 -0.3764 -1.2622
 2927SOL    HW220241   0.704   0.797   4.127 -1.4771 -0.4566  0.8717
 2928SOL     OW20242   1.200   2.485   5.042  0.0494  0.2577  0.2444
 2928SOL    HW120243   1.136   2.512   4.977  0.5261 -0.3523 -0.4758
 2928SOL    HW220244   1.271   2.460   4.983 -1.0026 -0.6636 -0.6230
 2929SOL     OW20245   2.803   0.338   4.482 -0.3067 -0.1881  0.4514
 2929SOL    HW120246   2.887   0.380   4.497 -0.1645 -0.2870 -0.0475
 2929SOL    HW220247   2.824   0.245   4.490  2.1630  0.3812  0.5300
 2930SOL     OW20248   0.236   0.271  17.659 -0.4583  0.3293  0.2180
 2930SOL    HW120249   0.223   0.195   0.018  0.4498 -1.6590 -2.2207
 2930SOL    HW220250   0.214   0.345   0.017 -1.2738  1.1014 -1.1391
 2931SOL     OW20251   0.948   3.604   5.253  0.0319  0.0159  0.1955
 2931SOL    HW120252   0.936   3.699   5.248 -0.1288  0.1565  3.0406
 2931SOL    HW220253   1.022   3.602   5.315 -1.1049  0.6628  1.5830
 2932SOL     OW20254   2.322   0.535   5.096  0.1847 -0.2296  0.1046
 2932SOL    HW120255   2.345   0.538   5.189 -1.1457  0.9461  0.4000
 2932SOL    HW220256   2.411   0.548   5.065  0.3746 -0.3193  0.6052
 2933SOL     OW20257   2.586   4.239   5.025 -0.2267 -0.4176 -0.1957
 2933SOL    HW120258   2.585   4.263   5.118  0.1412 -0.1749 -0.2547
 2933SOL    HW220259   2.508   4.183   5.022 -0.7867  0.3558 -0.0187
 2934SOL     OW20260   0.172   2.752   3.216 -0.4260  0.5596 -0.0975
 2934SOL    HW120261   0.214   2.793   3.140  1.1399  1.2577  1.1466
 2934SOL    HW220262   0.096   2.810   3.223 -0.9281 -0.2147  0.9159
 2935SOL     OW20263   2.461   4.238   0.674  0.3093  0.3264  0.4386
 2935SOL    HW120264   2.522   4.188   0.729 -0.8071  0.0649  1.4356
 2935SOL    HW220265   2.520   4.242   0.599  1.4677 -0.7091  1.3083
 2936SOL     OW20266   0.709   0.752   1.303 -0.3710 -0.3072  0.3388
 2936SOL    HW120267   0.657   0.753   1.223 -0.1514  1.2193  0.2146
 2936SOL    HW220268   0.649   0.724   1.372 -0.0155 -1.1463  0.2985
 2937SOL     OW20269   4.042   3.849   4.173 -1.1790  0.0936  0.1180
 2937SOL    HW120270   4.013   3.844   4.082  0.8772 -0.7102 -0.5010
 2937SOL    HW220271   4.127   3.805   4.165 -0.4630  1.6030 -0.7763
 2938SOL     OW20272   1.987   2.719   4.284 -0.4460 -0.6301 -0.5516
 2938SOL    HW120273   1.942   2.800   4.263 -0.4635 -0.0382  1.8507
 2938SOL    HW220274   1.963   2.712   4.376 -0.2738  2.1636 -0.2918
 2939SOL     OW20275   4.301   1.554   0.188  0.2432  0.7047 -0.4747
 2939SOL    HW120276   4.258   1.499   0.254  0.3683 -0.0116 -0.9904
 2939SOL    HW220277   4.229   1.617   0.176  0.3573  0.9295  0.0411
 2940SOL     OW20278   1.650   0.779   0.723  0.1367 -0.2080  0.2241
 2940SOL    HW120279   1.582   0.712   0.713  1.9059 -2.2490  1.7558
 2940SOL    HW220280   1.717   0.724   0.764  1.0967  0.8432  0.0679
 2941SOL     OW20281   1.621   2.907   6.766  0.1124  0.3705 -0.3338
 2941SOL    HW120282   1.553   2.974   6.776 -1.4182 -1.2389  0.1225
 2941SOL    HW220283   1.593   2.880   6.679 -1.3285  0.7029  0.0266
 2942SOL     OW20284   2.280   3.642  15.195  0.0740 -0.0736  0.4453
 2942SOL    HW120285   2.358   3.586  15.197  0.2619  0.1861  0.4920
 2942SOL    HW220286   2.214   3.582  15.229 -0.5032 -0.7930 -2.0276
 2943SOL     OW20287   4.711   1.591  10.600 -1.1826 -0.4973  0.5753
 2943SOL    HW120288   4.676   1.510  10.561 -1.1285 -0.6677  0.8833
 2943SOL    HW220289   0.038   1.553  10.671 -0.7362  0.4079  0.7317
 2944SOL     OW20290   4.626   2.705   8.541  0.0062  0.1950 -0.1068
 2944SOL    HW120291   4.568   2.679   8.613  0.4923 -3.9414 -1.2393
 2944SOL    HW220292   4.568   2.727   8.469 -0.1184 -0.9380 -0.3513
 2945SOL     OW20293   3.930   2.227   6.925  0.4185  0.7063  0.3461
 2945SOL    HW120294   3.954   2.214   7.016  1.2018 -0.7712 -0.0710
 2945SOL    HW220295   3.984   2.160   6.882 -0.4497  1.2199 -1.5732
 2946SOL     OW20296   2.919   3.251   4.811  0.1071  0.1609  0.4110
 2946SOL    HW120297   2.894   3.168   4.771  0.1793  0.9009 -1.2006
 2946SOL    HW220298   2.853   3.274   4.876 -0.0372 -0.7742  0.5917
 2947SOL     OW20299   3.849   2.796   4.257  0.0329  0.3534 -0.3901
 2947SOL    HW120300   3.858   2.793   4.352 -1.8067 -0.3396 -0.2419
 2947SOL    HW220301   3.767   2.839   4.230 -1.0133 -0.6164  1.2607
 2948SOL     OW20302   4.626   1.591   8.604 -0.2968 -0.1362 -0.5555
 2948SOL    HW120303   4.589   1.608   8.691  1.1185  0.1756 -0.0078
 2948SOL    HW220304   4.566   1.646   8.553 -1.5851 -0.2896  0.7913
 2949SOL     OW20305   3.763   0.092  15.579  0.3238 -1.1146 -0.6274
 2949SOL    HW120306   3.767   0.014  15.636  0.0684  1.0809  2.4005
 2949SOL    HW220307   3.777   0.149  15.655  3.8798 -0.5234 -1.7179
 2950SOL     OW20308   0.579   1.024  17.527  0.4238  0.0931  0.3061
 2950SOL    HW120309   0.624   0.967  17.465  0.1430 -0.3217  0.4843
 2950SOL    HW220310   0.635   1.010  17.603 -0.6414 -0.2948  1.0165
 2951SOL     OW20311   3.245   2.188   6.785  0.9475  0.1241  0.1306
 2951SOL    HW120312   3.252   2.111   6.843 -1.6525 -0.7837 -0.7421
 2951SOL    HW220313   3.194   2.244   6.844  0.3979 -0.9719  0.7198
 2952SOL     OW20314   2.578   2.919   7.430  0.9175 -0.3554  0.2206
 2952SOL    HW120315   2.565   2.826   7.411 -2.0317 -0.0271  0.6014
 2952SOL    HW220316   2.613   2.914   7.519  0.4137 -1.2003  0.3735
 2953SOL     OW20317   0.145   0.728   3.875  0.2785  0.6147 -0.2482
 2953SOL    HW120318   0.159   0.823   3.883  0.3742  0.4802  1.0499
 2953SOL    HW220319   0.145   0.695   3.964 -0.8761  2.8395  0.5769
 2954SOL     OW20320   3.121   1.954   8.022  0.3086  0.3210  0.1472
 2954SOL    HW120321   3.077   1.982   8.102  0.7071 -0.7469  0.7403
 2954SOL    HW220322   3.056   1.984   7.959 -0.1874 -1.3758 -0.1409
 2955SOL     OW20323   3.215   2.823   4.105 -0.1738  0.8730 -0.1961
 2955SOL    HW120324   3.281   2.880   4.143  0.4885 -0.2269  0.3096
 2955SOL    HW220325   3.170   2.817   4.190  0.6652 -2.8122  0.0061
 2956SOL     OW20326   1.446   3.362   5.588 -0.5258 -0.4655 -0.5500
 2956SOL    HW120327   1.458   3.453   5.562  3.4165 -0.4297  1.3886
 2956SOL    HW220328   1.377   3.367   5.654 -2.6361 -2.2059 -2.6027
 2957SOL     OW20329   1.864   3.152   8.036 -0.5286 -0.3630  0.1356
 2957SOL    HW120330   1.907   3.107   8.108 -1.1709  0.7892  1.2304
 2957SOL    HW220331   1.917   3.112   7.967 -2.6356  0.5267 -1.9989
 2958SOL     OW20332   2.692   3.101   7.097 -0.1499 -0.0520  0.7998
 2958SOL    HW120333   2.672   3.185   7.056 -1.8142 -0.5785  0.5155
 2958SOL    HW220334   2.624   3.095   7.164  0.3913  1.3479  1.4733
 2959SOL     OW20335   1.878   2.511   3.731 -0.3847  0.4777 -0.0196
 2959SOL    HW120336   1.800   2.513   3.786 -0.4635 -1.9523 -0.0235
 2959SOL    HW220337   1.940   2.572   3.770 -0.0144  1.7596 -2.6817
 2960SOL     OW20338   0.411   0.906   4.426 -0.2660  0.8231 -0.0693
 2960SOL    HW120339   0.455   0.981   4.388  1.5620 -0.2988 -0.1922
 2960SOL    HW220340   0.408   0.924   4.520  0.1069  1.7052 -0.2303
 2961SOL     OW20341   0.213   1.290   5.668 -0.4292 -0.3471 -0.6343
 2961SOL    HW120342   0.214   1.382   5.697 -0.7820 -1.3484  2.5994
 2961SOL    HW220343   0.127   1.283   5.628 -0.6134  2.6740 -0.7672
 2962SOL     OW20344   3.877   3.022   4.767  0.3074 -0.4553 -0.4667
 2962SOL    HW120345   3.883   3.056   4.677  2.9785  0.7483  0.1646
 2962SOL    HW220346   3.943   2.952   4.767  4.1829  3.2554  2.0468
 2963SOL     OW20347   0.109   4.570   1.433  0.5572  0.5835 -0.0292
 2963SOL    HW120348   0.055   4.580   1.355  0.8133  2.0852 -0.0149
 2963SOL    HW220349   0.089   4.478   1.449  2.0507  0.3986  0.7981
 2964SOL     OW20350   0.021   3.106   7.387 -0.3030  0.8354 -0.0545
 2964SOL    HW120351   0.097   3.067   7.345 -0.4488  1.6202 -1.0320
 2964SOL    HW220352   4.707   3.035   7.439  1.3107 -0.1040 -0.1707
 2965SOL     OW20353   3.172   3.214   0.330  0.2794  0.1576 -0.3997
 2965SOL    HW120354   3.157   3.139   0.272  2.1824 -1.2446  0.9621
 2965SOL    HW220355   3.222   3.278   0.279 -1.1192  0.8483 -0.9256
 2966SOL     OW20356   1.490   3.595   4.721 -0.1663 -0.2420  0.1056
 2966SOL    HW120357   1.457   3.665   4.777 -0.9263  0.4145 -1.1847
 2966SOL    HW220358   1.454   3.521   4.770  1.8224 -1.1860  0.1816
 2967SOL     OW20359   3.324   3.529   4.643  0.3829  0.0985  0.2673
 2967SOL    HW120360   3.357   3.613   4.610 -0.8875  0.5163  0.0482
 2967SOL    HW220361   3.380   3.462   4.603  0.0039  0.2226 -0.4859
 2968SOL     OW20362   1.976   2.490   2.169 -0.1499 -0.3670  0.4154
 2968SOL    HW120363   2.041   2.517   2.105 -0.6371  0.3263  0.2051
 2968SOL    HW220364   1.969   2.397   2.151  0.9256 -0.1771 -1.0242
 2969SOL     OW20365   1.401   3.104   5.924  0.4513  0.1548  0.1094
 2969SOL    HW120366   1.408   3.027   5.981 -0.5661 -0.9768 -1.2784
 2969SOL    HW220367   1.482   3.153   5.939 -0.0207  1.5745 -1.9998
 2970SOL     OW20368   1.366   1.408   5.953  0.4381  0.1533 -0.4844
 2970SOL    HW120369   1.324   1.483   5.911 -0.6701 -0.4933 -0.5339
 2970SOL    HW220370   1.372   1.429   6.046 -0.9603 -0.3105 -0.2877
 2971SOL     OW20371   2.468   3.832  12.131 -0.1146  0.1090 -0.2581
 2971SOL    HW120372   2.409   3.766  12.167  0.3755 -0.2972 -0.2089
 2971SOL    HW220373   2.425   3.856  12.048  0.6185  0.8375 -0.4269
 2972SOL     OW20374   4.225   3.640   1.481 -0.9666  0.1352  0.3313
 2972SOL    HW120375   4.180   3.663   1.562 -0.4642  0.5161  0.4993
 2972SOL    HW220376   4.288   3.712   1.485 -0.4826 -0.2256 -0.5959
 2973SOL     OW20377   0.959   3.856   5.552 -0.6237  0.0504 -0.8692
 2973SOL    HW120378   0.895   3.919   5.586  1.3871  1.7410 -0.1656
 2973SOL    HW220379   0.915   3.782   5.593 -1.2928  0.1520 -1.4054
 2974SOL     OW20380   1.941   3.634   3.343 -0.1714 -0.1834  0.3138
 2974SOL    HW120381   1.886   3.657   3.267 -0.3791  0.3477  0.6204
 2974SOL    HW220382   1.877   3.586   3.395  0.4893 -2.3050 -0.8232
 2975SOL     OW20383   2.511   0.154   2.061 -0.3851 -0.2875 -0.5774
 2975SOL    HW120384   2.465   0.236   2.074  0.5745 -0.0400  1.2901
 2975SOL    HW220385   2.584   0.175   2.118 -1.5770  0.3337  0.7057
 2976SOL     OW20386   0.188   2.262   2.387  0.1907 -0.0840  0.5190
 2976SOL    HW120387   0.155   2.172   2.396 -0.4133 -0.1212 -2.0953
 2976SOL    HW220388   0.206   2.272   2.294 -1.2977 -2.5444 -0.0617
 2977SOL     OW20389   4.284   2.468   0.675  0.3008  0.5583  0.9285
 2977SOL    HW120390   4.268   2.503   0.763 -2.9392  1.3066  0.0438
 2977SOL    HW220391   4.284   2.374   0.688 -2.9501  0.2673 -1.0079
 2978SOL     OW20392   3.947   3.138   4.530  0.0789  0.1184 -0.2706
 2978SOL    HW120393   4.042   3.141   4.517 -0.2648 -0.5426 -2.9101
 2978SOL    HW220394   3.930   3.232   4.534 -0.1739  0.1152 -1.3525
 2979SOL     OW20395   0.645   3.764  16.940 -0.0490  0.3048  0.0997
 2979SOL    HW120396   0.670   3.753  17.032 -0.3669 -0.3367  0.1057
 2979SOL    HW220397   0.682   3.686  16.898  0.3033 -0.8098  2.4752
 2980SOL     OW20398   2.617   2.370  17.287  0.5049  0.1829  0.2740
 2980SOL    HW120399   2.618   2.457  17.327 -1.7788  0.6383 -0.6862
 2980SOL    HW220400   2.531   2.381  17.247  0.0350 -0.4269  1.1082
 2981SOL     OW20401   1.173   1.784   7.826 -1.4348 -0.1511  0.1791
 2981SOL    HW120402   1.197   1.693   7.843 -2.8975 -0.3580  1.1341
 2981SOL    HW220403   1.085   1.794   7.862 -0.4241  1.4613  2.2684
 2982SOL     OW20404   4.021   0.997   2.327  0.7474  0.1211 -0.1832
 2982SOL    HW120405   3.968   0.981   2.249  0.3962  1.6442 -0.2407
 2982SOL    HW220406   3.958   0.965   2.392  0.2198 -0.2750 -0.8895
 2983SOL     OW20407   2.413   1.602   2.887 -0.3847  0.3937  0.1896
 2983SOL    HW120408   2.359   1.582   2.812 -1.0512  0.3800  0.6750
 2983SOL    HW220409   2.374   1.533   2.941  1.0664 -0.2666  0.4144
 2984SOL     OW20410   4.274   3.416   3.993 -0.7463 -0.0018  0.2551
 2984SOL    HW120411   4.209   3.440   4.059 -0.5328  0.5929  0.2431
 2984SOL    HW220412   4.218   3.356   3.943  1.9316 -2.7271  0.5316
 2985SOL     OW20413   2.216   1.609   8.418 -0.0821 -0.4310  0.4562
 2985SOL    HW120414   2.156   1.600   8.492 -0.0457  2.2162  0.8013
 2985SOL    HW220415   2.233   1.515   8.411 -0.7019 -0.3711 -1.7900
 2986SOL     OW20416   2.930   2.716   4.558  0.4186  0.0226 -0.2362
 2986SOL    HW120417   3.001   2.700   4.620  1.2633 -2.2983 -1.8148
 2986SOL    HW220418   2.873   2.644   4.584  2.9603 -1.8910  0.0467
 2987SOL     OW20419   1.627   0.084   6.269 -0.4493 -0.2540 -0.4296
 2987SOL    HW120420   1.556   0.092   6.333 -1.7588 -0.9927 -1.7970
 2987SOL    HW220421   1.707   0.060   6.316 -0.8740 -0.0502  0.4015
 2988SOL     OW20422   0.146   2.356  10.254 -0.4568 -0.1607 -0.5712
 2988SOL    HW120423   0.094   2.429  10.287 -0.0613 -0.6202  1.0856
 2988SOL    HW220424   0.125   2.291  10.321  0.7708  0.6402  0.5854
 2989SOL     OW20425   0.129   3.957   9.309  0.2729 -0.0433 -0.3168
 2989SOL    HW120426   0.201   3.978   9.369 -0.1798  3.4803 -1.0240
 2989SOL    HW220427   0.097   4.046   9.295 -0.5715 -0.5546 -1.6064
 2990SOL     OW20428   2.322   1.754   3.558  0.4993  0.1255  0.6070
 2990SOL    HW120429   2.305   1.761   3.652 -2.8227  1.2138 -0.0798
 2990SOL    HW220430   2.410   1.716   3.554 -0.5099 -2.1166 -0.5608
 2991SOL     OW20431   3.239   3.200   6.599 -0.1142  0.5503  0.7233
 2991SOL    HW120432   3.165   3.203   6.660 -0.0840 -2.6371  0.9190
 2991SOL    HW220433   3.207   3.137   6.535 -1.2928  0.8299  1.0471
 2992SOL     OW20434   2.773   2.171   8.776  0.7542  0.3650 -0.4809
 2992SOL    HW120435   2.707   2.181   8.707 -0.8356 -0.3110  0.9260
 2992SOL    HW220436   2.834   2.243   8.765  1.0847  0.0793 -0.5101
 2993SOL     OW20437   4.413   3.347  11.053 -0.2440 -0.0389 -0.0386
 2993SOL    HW120438   4.371   3.402  10.987 -0.0731 -0.1827 -0.2676
 2993SOL    HW220439   4.375   3.382  11.134 -0.3796  0.4126 -0.2974
 2994SOL     OW20440   4.254   0.005   3.575 -0.3166 -0.1461 -0.6699
 2994SOL    HW120441   4.264   0.008   3.480 -0.2888  0.5554 -0.6416
 2994SOL    HW220442   4.301   0.085   3.598 -0.1577 -0.5111  0.2790
 2995SOL     OW20443   3.156   0.937   2.131  0.0536 -0.1450 -0.1342
 2995SOL    HW120444   3.181   1.026   2.158  0.4003 -0.9584  2.2362
 2995SOL    HW220445   3.236   0.911   2.086  0.7091 -1.6011  1.8388
 2996SOL     OW20446   2.394   4.662  15.149 -0.2836 -0.1947  0.5243
 2996SOL    HW120447   2.422   4.571  15.139 -1.0700 -0.6455  2.3342
 2996SOL    HW220448   2.466   4.692  15.203 -0.0906  0.7677 -0.2878
 2997SOL     OW20449   3.855   0.641   3.180 -0.5474  0.1253 -0.0654
 2997SOL    HW120450   3.846   0.617   3.272 -3.2046 -2.8266 -1.1235
 2997SOL    HW220451   3.764   0.622   3.157 -1.3590  1.7957  1.7371
 2998SOL     OW20452   1.482   1.608   5.479 -0.3135 -0.2592  0.1655
 2998SOL    HW120453   1.472   1.597   5.574 -0.4688 -0.3313  0.1403
 2998SOL    HW220454   1.550   1.544   5.458 -0.7737  0.0131 -2.1372
 2999SOL     OW20455   0.850   2.280   1.945 -0.0520  0.0744 -0.2964
 2999SOL    HW120456   0.861   2.331   1.865  0.0407 -0.4799 -0.6363
 2999SOL    HW220457   0.929   2.295   1.997 -1.6695 -0.6917  2.4180
 3000SOL     OW20458   0.723   1.693   9.332 -0.0425  0.6634 -0.3955
 3000SOL    HW120459   0.810   1.712   9.368 -0.1224 -1.8386  1.1716
 3000SOL    HW220460   0.674   1.667   9.410 -0.0365  1.3036 -0.1746
 3001SOL     OW20461   1.626   0.950   3.252  0.1043  0.3568 -0.3411
 3001SOL    HW120462   1.633   1.024   3.311 -1.6166  1.6267 -1.7344
 3001SOL    HW220463   1.710   0.906   3.265  0.7940  1.1016 -2.1980
 3002SOL     OW20464   1.121   1.432   4.261  0.3702  0.0775 -0.2829
 3002SOL    HW120465   1.087   1.375   4.329 -3.3308  2.2676 -0.2530
 3002SOL    HW220466   1.088   1.517   4.291 -0.9748 -0.4789 -0.1999
 3003SOL     OW20467   3.351   3.894   5.857  0.1717  0.1814  0.3016
 3003SOL    HW120468   3.434   3.939   5.840 -0.5923  1.4504 -0.0864
 3003SOL    HW220469   3.334   3.938   5.940  1.6068  0.5345  0.4079
 3004SOL     OW20470   0.105   0.627   1.415  0.0807  0.6616  0.1886
 3004SOL    HW120471   0.152   0.625   1.498 -0.6487 -1.3149  0.5446
 3004SOL    HW220472   0.019   0.593   1.438  0.1239  1.7793  1.9595
 3005SOL     OW20473   1.266   0.024   8.284  0.0169  0.2131 -0.1077
 3005SOL    HW120474   1.262   0.093   8.350  0.1257 -0.5609  0.7170
 3005SOL    HW220475   1.226   0.056   8.203 -0.4866  0.1936  0.1340
 3006SOL     OW20476   2.455   4.259  13.459 -0.1172 -0.5551 -0.3362
 3006SOL    HW120477   2.421   4.299  13.539 -1.8135 -0.3404 -1.1664
 3006SOL    HW220478   2.379   4.206  13.437 -0.9420  0.8828 -0.9109
 3007SOL     OW20479   2.876   3.650   7.833 -0.2670 -0.3176  0.0766
 3007SOL    HW120480   2.818   3.588   7.878  0.4987  0.7232  2.5127
 3007SOL    HW220481   2.818   3.721   7.806  1.5153  1.7374  1.7476
 3008SOL     OW20482   2.210   4.468   6.295  0.2503 -0.0190  0.1666
 3008SOL    HW120483   2.128   4.453   6.249  1.1946  1.1901 -1.8910
 3008SOL    HW220484   2.227   4.385   6.341 -1.5536  0.0492  0.9358
 3009SOL     OW20485   3.815   1.223  12.670  0.1203  0.0638 -0.7531
 3009SOL    HW120486   3.884   1.287  12.657 -0.5143  0.9913  0.4036
 3009SOL    HW220487   3.733   1.270  12.685  1.2886  2.2970 -1.3893
 3010SOL     OW20488   4.185   1.635   2.013 -0.1691  0.0913  0.3928
 3010SOL    HW120489   4.195   1.570   2.083 -0.6629 -0.2206  0.1734
 3010SOL    HW220490   4.270   1.637   1.969 -0.0174  0.2034  0.6905
 3011SOL     OW20491   0.504   1.316   8.397  0.1909 -0.1788  0.2355
 3011SOL    HW120492   0.582   1.310   8.452  1.2137 -2.7781 -1.4970
 3011SOL    HW220493   0.437   1.288   8.459 -0.8145  2.0744  0.1542
 3012SOL     OW20494   1.271   2.468  11.047  0.4138  0.3533 -0.5892
 3012SOL    HW120495   1.320   2.394  11.082 -1.8167  0.2481  2.2688
 3012SOL    HW220496   1.191   2.417  11.033  0.3963 -0.2368  1.6576
 3013SOL     OW20497   2.579   2.287  15.070 -0.1090 -0.5606  0.1190
 3013SOL    HW120498   2.586   2.213  15.011 -0.4487 -1.1985  0.8856
 3013SOL    HW220499   2.488   2.272  15.095  0.2000 -1.6788  0.5537
 3014SOL     OW20500   0.172   0.260   2.457  0.2006  0.2988 -0.1873
 3014SOL    HW120501   0.084   0.273   2.422 -0.1353 -0.6661  0.2929
 3014SOL    HW220502   0.219   0.257   2.374  1.4509 -1.5717  0.5821
 3015SOL     OW20503   1.790   2.491  13.866  0.3105  0.2818 -0.3402
 3015SOL    HW120504   1.841   2.518  13.942 -0.0297 -1.1805  0.4098
 3015SOL    HW220505   1.828   2.546  13.797  0.2290  0.4238 -0.2715
 3016SOL     OW20506   0.166   3.667   8.133 -0.2983 -0.5527  0.4344
 3016SOL    HW120507   0.235   3.695   8.194 -1.2234 -2.1089  2.1733
 3016SOL    HW220508   0.156   3.581   8.173  0.0399  0.4691  2.7559
 3017SOL     OW20509   0.430   0.954  10.481  0.0151 -0.4004  0.0975
 3017SOL    HW120510   0.405   1.030  10.429 -2.8260 -1.0829  0.4665
 3017SOL    HW220511   0.448   0.990  10.568  0.2562  2.0639 -0.9638
 3018SOL     OW20512   1.356   3.165   5.394  0.8209 -0.4708  0.0631
 3018SOL    HW120513   1.355   3.229   5.465 -1.5587 -1.8452  1.2979
 3018SOL    HW220514   1.378   3.216   5.316  1.3680  1.0938  1.2374
 3019SOL     OW20515   0.273   3.160   8.211 -0.1156 -0.7099  0.2349
 3019SOL    HW120516   0.285   3.132   8.120 -1.4327 -0.8721  0.0997
 3019SOL    HW220517   0.252   3.076   8.251  3.0370 -1.7024 -0.2336
 3020SOL     OW20518   0.208   0.665   7.476 -0.4571  0.0158  0.0433
 3020SOL    HW120519   0.261   0.713   7.539 -0.6604  1.3487 -0.7991
 3020SOL    HW220520   0.211   0.578   7.516  0.5372 -0.5627 -1.2968
 3021SOL     OW20521   3.039   3.800  11.671  0.0874 -0.0790  0.7174
 3021SOL    HW120522   3.067   3.846  11.750 -0.0714  0.2336  0.5897
 3021SOL    HW220523   3.100   3.834  11.606 -2.2009  1.2267 -0.7251
 3022SOL     OW20524   2.275   2.948   4.625 -0.4493  0.0996 -0.0146
 3022SOL    HW120525   2.271   2.868   4.573  0.2526  0.0731 -0.0206
 3022SOL    HW220526   2.359   2.986   4.602 -0.7467 -0.6018 -2.2298
 3023SOL     OW20527   2.948   1.658   2.723  0.4353 -0.1433 -0.6738
 3023SOL    HW120528   2.931   1.715   2.798 -1.5622 -1.3001 -0.2548
 3023SOL    HW220529   3.043   1.668   2.717  0.6702 -1.3994  1.0130
 3024SOL     OW20530   4.279   1.727   5.923 -0.4578  0.0071 -0.5271
 3024SOL    HW120531   4.305   1.819   5.913 -0.2201  0.0914  0.7965
 3024SOL    HW220532   4.275   1.717   6.018 -1.0209  0.4458 -0.5035
 3025SOL     OW20533   0.607   1.084   8.295 -0.3505  0.9303  0.8678
 3025SOL    HW120534   0.521   1.048   8.318 -0.9708 -0.9726 -4.5998
 3025SOL    HW220535   0.597   1.170   8.336  0.0033  0.6506  1.5402
 3026SOL     OW20536   3.359   3.715   3.741  0.0439  0.1359 -0.4806
 3026SOL    HW120537   3.282   3.662   3.717  1.6268 -2.5665  0.4020
 3026SOL    HW220538   3.315   3.772   3.804  0.7881 -0.1576  0.3081
 3027SOL     OW20539   3.651   4.278   2.901  0.1139 -0.0037  0.6593
 3027SOL    HW120540   3.734   4.298   2.857  0.2593 -0.3084  0.7947
 3027SOL    HW220541   3.583   4.316   2.845  2.7963  0.2807 -2.3835
 3028SOL     OW20542   0.131   2.399   9.987  0.6065  0.1247  0.2753
 3028SOL    HW120543   0.125   2.388  10.082  0.8812 -2.2701  0.0138
 3028SOL    HW220544   0.204   2.460   9.976 -0.8793  2.0644  1.1227
 3029SOL     OW20545   4.101   1.128   8.540 -0.8595 -0.2494  0.1590
 3029SOL    HW120546   4.026   1.182   8.516  1.4855  1.9026 -2.2645
 3029SOL    HW220547   4.169   1.187   8.573 -0.4076 -2.4167  3.1433
 3030SOL     OW20548   2.745   2.620   4.062 -0.4515 -0.3442  0.3119
 3030SOL    HW120549   2.763   2.620   4.156  4.8654  0.0676 -0.6982
 3030SOL    HW220550   2.668   2.677   4.055 -1.9922 -2.6729 -1.7057
 3031SOL     OW20551   1.090   2.708   5.171 -0.2204  0.8806 -0.2377
 3031SOL    HW120552   1.093   2.618   5.140 -0.3485  0.5967  0.5770
 3031SOL    HW220553   1.093   2.759   5.090  2.9510  1.2869  0.1433
 3032SOL     OW20554   4.601   2.930   4.210  0.0788  0.2724 -0.4942
 3032SOL    HW120555   4.612   3.023   4.229 -1.8781  0.3405  0.3628
 3032SOL    HW220556   4.505   2.923   4.210  0.0563  0.5754 -3.2425
 3033SOL     OW20557   4.390   1.977   4.300 -0.4638  0.3410  0.0579
 3033SOL    HW120558   4.454   1.912   4.329 -0.4444  0.8959  1.2299
 3033SOL    HW220559   4.313   1.966   4.356  0.9219 -1.0426  1.6888
 3034SOL     OW20560   1.042   1.220   4.458 -0.3250  0.2785  0.3506
 3034SOL    HW120561   1.126   1.174   4.463 -0.3893  0.1057 -0.2779
 3034SOL    HW220562   0.981   1.151   4.486 -0.4892  0.2472 -0.0911
 3035SOL     OW20563   1.249   3.300   6.789 -0.0066  0.0214  0.9955
 3035SOL    HW120564   1.227   3.389   6.816  0.0747  0.0288  1.0375
 3035SOL    HW220565   1.163   3.259   6.802  0.0965 -0.6391 -0.4464
 3036SOL     OW20566   2.880   4.669   7.879  0.2491  0.0216  0.4455
 3036SOL    HW120567   2.802   4.715   7.848 -0.2351 -1.1689 -0.1230
 3036SOL    HW220568   2.848   4.637   7.963 -0.8008 -0.5095 -0.1531
 3037SOL     OW20569   3.788   0.279   4.636  0.0897  0.1767  0.3351
 3037SOL    HW120570   3.716   0.215   4.635  0.8276 -0.6994  2.6520
 3037SOL    HW220571   3.750   0.346   4.693 -0.6106  0.5863 -0.6266
 3038SOL     OW20572   4.085   4.442  14.734  0.0680  0.2501 -0.2780
 3038SOL    HW120573   4.075   4.348  14.723  1.8181  0.0518 -0.1391
 3038SOL    HW220574   4.145   4.447  14.809 -2.1585  0.9204  1.4480
 3039SOL     OW20575   1.034   2.134  11.233 -0.2323 -0.0107 -0.6161
 3039SOL    HW120576   0.997   2.053  11.268  0.0775 -0.8116 -2.1318
 3039SOL    HW220577   1.026   2.116  11.139 -1.5434 -3.4885  0.1574
 3040SOL     OW20578   1.917   1.454  10.423  0.0587  0.0022  0.0813
 3040SOL    HW120579   1.868   1.425  10.346  1.1413 -2.1695  0.2147
 3040SOL    HW220580   1.864   1.531  10.442  0.1997  0.4967 -1.5220
 3041SOL     OW20581   3.720   0.231   6.814 -0.5410 -0.2091 -0.7930
 3041SOL    HW120582   3.723   0.263   6.904  1.3573  1.0783 -1.3388
 3041SOL    HW220583   3.768   0.302   6.773  0.6051 -0.6848 -0.2506
 3042SOL     OW20584   3.011   1.141   5.391 -0.0841 -0.2454 -0.1522
 3042SOL    HW120585   2.928   1.099   5.368 -1.5187  0.7193  3.2045
 3042SOL    HW220586   3.014   1.133   5.486 -0.5022 -1.0148 -0.2011
 3043SOL     OW20587   3.659   1.514  17.139  0.2589 -0.4994  0.0067
 3043SOL    HW120588   3.584   1.455  17.132  0.0372 -0.3134  0.8300
 3043SOL    HW220589   3.674   1.545  17.050  1.3555 -0.7372  0.1062
 3044SOL     OW20590   0.406   2.098   6.453  0.5499  0.8019 -0.6008
 3044SOL    HW120591   0.341   2.105   6.383  0.2793 -0.5392 -0.4903
 3044SOL    HW220592   0.479   2.071   6.397  1.7130 -2.6494  2.6035
 3045SOL     OW20593   3.628   3.784  17.040  0.3934 -0.6768  0.5946
 3045SOL    HW120594   3.677   3.741  17.111 -0.8297 -1.1550  1.1534
 3045SOL    HW220595   3.613   3.710  16.981  1.6987  0.5924 -1.3296
 3046SOL     OW20596   4.275   4.432  14.944 -0.1296  0.3051  0.3560
 3046SOL    HW120597   4.300   4.507  14.997 -2.1993 -0.1376  1.9260
 3046SOL    HW220598   4.331   4.359  14.972 -1.9526 -1.4686 -0.5671
 3047SOL     OW20599   2.941   1.497   9.844  0.5450 -0.8360  0.0287
 3047SOL    HW120600   2.860   1.548   9.839  0.9996 -0.1996 -0.8494
 3047SOL    HW220601   2.941   1.442   9.766  0.8341 -0.4904 -0.2138
 3048SOL     OW20602   0.330   0.115  15.299  0.4989  0.0668  0.3636
 3048SOL    HW120603   0.411   0.090  15.255  0.8876  0.7475  0.6927
 3048SOL    HW220604   0.338   0.086  15.390 -3.8059  3.3208  1.8011
 3049SOL     OW20605   2.323   2.899  11.097 -0.4594  0.3607 -0.1737
 3049SOL    HW120606   2.366   2.887  11.013  2.5656  2.6831  1.0440
 3049SOL    HW220607   2.355   2.981  11.135 -2.0195  0.7742  0.2290
 3050SOL     OW20608   3.330   4.329   5.138  0.1394  0.4982 -0.3561
 3050SOL    HW120609   3.422   4.304   5.131  0.1018  0.2800 -0.0502
 3050SOL    HW220610   3.299   4.294   5.054 -0.8827  1.2864 -0.3163
 3051SOL     OW20611   2.516   2.652   3.772 -0.2350  0.0628  0.0229
 3051SOL    HW120612   2.467   2.663   3.853  1.2327  1.2308  0.7456
 3051SOL    HW220613   2.450   2.607   3.720 -0.0350 -0.6193  0.3648
 3052SOL     OW20614   3.069   2.165   5.246  0.1617 -0.2080 -0.0111
 3052SOL    HW120615   3.099   2.246   5.288 -0.3541  2.0043 -3.8482
 3052SOL    HW220616   3.139   2.102   5.266  1.4940  1.3249  0.1569
 3053SOL     OW20617   2.590   3.453   6.274  0.3116  0.2348 -0.0989
 3053SOL    HW120618   2.515   3.490   6.226  1.4508 -0.1203 -2.1399
 3053SOL    HW220619   2.649   3.529   6.272 -0.7837  1.1403  2.2687
 3054SOL     OW20620   2.828   0.764   7.353 -0.1023 -0.1974 -0.3822
 3054SOL    HW120621   2.735   0.772   7.371 -0.2673 -0.4736 -1.0945
 3054SOL    HW220622   2.855   0.730   7.438 -1.3990 -0.8101 -0.2279
 3055SOL     OW20623   3.317   0.429   1.010  0.4704 -0.3308 -0.2107
 3055SOL    HW120624   3.249   0.423   1.077 -0.8243  3.1247 -1.2163
 3055SOL    HW220625   3.391   0.413   1.068  0.3887  0.6526  0.1679
 3056SOL     OW20626   4.532   0.906   7.001 -0.1456  0.2592 -0.5424
 3056SOL    HW120627   4.504   0.956   6.924  0.2924  0.4448 -0.5842
 3056SOL    HW220628   4.445   0.894   7.038 -0.4319  0.6675 -1.0721
 3057SOL     OW20629   0.200   1.731  14.513 -0.3484 -0.6203  0.4494
 3057SOL    HW120630   0.227   1.797  14.449  0.2716  1.1932  2.5713
 3057SOL    HW220631   0.290   1.712  14.540 -1.6164 -3.1911  2.8472
 3058SOL     OW20632   1.962   2.403   5.078 -0.1237 -0.5154  0.4808
 3058SOL    HW120633   1.897   2.397   5.008  1.2121 -1.9019 -0.6289
 3058SOL    HW220634   2.043   2.417   5.028 -0.7122 -0.2582 -0.4032
 3059SOL     OW20635   0.945   3.511   3.175 -0.5217 -0.1186  0.4953
 3059SOL    HW120636   0.861   3.470   3.195 -0.5184 -0.5527 -0.3757
 3059SOL    HW220637   1.004   3.439   3.198  1.0661  0.9273 -0.2973
 3060SOL     OW20638   3.749   1.862  13.705  0.2958 -0.5417 -0.0920
 3060SOL    HW120639   3.744   1.780  13.754  0.2236  1.9822  4.1137
 3060SOL    HW220640   3.677   1.909  13.747  1.2124  0.1805  0.6304
 3061SOL     OW20641   4.580   0.214   4.228  0.3357 -0.3320 -0.3818
 3061SOL    HW120642   4.596   0.128   4.189 -2.0065 -1.4673  1.1762
 3061SOL    HW220643   4.538   0.256   4.154  2.3284  0.7024 -0.9289
 3062SOL     OW20644   4.006   3.540   4.826 -0.1101  0.4871  0.6374
 3062SOL    HW120645   3.967   3.627   4.818 -0.2930  0.0379 -3.4703
 3062SOL    HW220646   3.927   3.489   4.810 -1.5517  2.6543  0.7144
 3063SOL     OW20647   3.152   3.869   3.937 -0.4072  0.2422 -0.2930
 3063SOL    HW120648   3.109   3.790   3.970 -0.9207 -0.1705 -1.9760
 3063SOL    HW220649   3.092   3.936   3.968 -0.1689 -0.5304  1.8773
 3064SOL     OW20650   1.448   3.304  14.868 -0.0809  0.3081 -0.1689
 3064SOL    HW120651   1.515   3.247  14.905 -1.0316 -0.8831 -0.2696
 3064SOL    HW220652   1.487   3.319  14.782  2.5594  1.2928  1.2046
 3065SOL     OW20653   0.237   3.212   0.755  0.0284  0.1873 -0.5788
 3065SOL    HW120654   0.310   3.223   0.695  0.7770  0.3987  0.3734
 3065SOL    HW220655   0.237   3.298   0.799 -0.3960  1.3708 -2.8894
 3066SOL     OW20656   2.687   3.387   4.474  0.4114  0.1649 -0.3339
 3066SOL    HW120657   2.665   3.435   4.394  0.7340  2.0800  0.7310
 3066SOL    HW220658   2.613   3.409   4.530  0.6619  2.4889 -0.8986
 3067SOL     OW20659   0.346   3.846   4.835  0.0620 -0.0691  0.2076
 3067SOL    HW120660   0.321   3.860   4.743  0.0488  2.6075  0.6346
 3067SOL    HW220661   0.290   3.771   4.857 -0.9306  1.5323  3.0724
 3068SOL     OW20662   2.710   0.845  13.598 -0.7615 -0.4472 -0.0157
 3068SOL    HW120663   2.651   0.900  13.547 -0.5588  1.7105  2.0783
 3068SOL    HW220664   2.735   0.895  13.676  0.1802 -0.5086 -0.2885
 3069SOL     OW20665   2.639   2.667   3.269 -0.1693  0.5681 -0.6331
 3069SOL    HW120666   2.682   2.641   3.350 -1.3171 -3.7491 -1.4054
 3069SOL    HW220667   2.616   2.584   3.227 -0.7456  0.2245  0.3432
 3070SOL     OW20668   1.829   3.695   5.692  0.2694  0.2311 -0.0191
 3070SOL    HW120669   1.862   3.668   5.778 -1.1966 -0.2401  0.3854
 3070SOL    HW220670   1.831   3.790   5.706 -0.0759  0.3904 -1.1202
 3071SOL     OW20671   0.214   4.520   3.362 -0.6901 -0.2584  0.4231
 3071SOL    HW120672   0.185   4.477   3.443  1.3292 -1.9499  0.2770
 3071SOL    HW220673   0.169   4.472   3.293 -0.6969 -0.0518  0.2857
 3072SOL     OW20674   1.879   2.147  17.262  0.5022 -0.0034  0.1804
 3072SOL    HW120675   1.838   2.226  17.227 -1.2590 -0.3785  1.3497
 3072SOL    HW220676   1.908   2.097  17.186  0.0078 -2.0833  1.3503
 3073SOL     OW20677   4.368   1.976   8.650 -0.2501 -0.6079  0.2999
 3073SOL    HW120678   4.278   1.973   8.684 -0.4939 -2.2347 -0.4676
 3073SOL    HW220679   4.411   2.038   8.708 -1.5662  1.7222 -1.2323
 3074SOL     OW20680   0.904   1.491   2.924  0.1783  0.0402 -0.0235
 3074SOL    HW120681   0.811   1.510   2.936  0.1115  0.3996 -1.0923
 3074SOL    HW220682   0.917   1.545   2.846 -0.9404 -1.6156 -1.3434
 3075SOL     OW20683   1.784   0.566  12.353  0.6666 -0.6808 -0.0640
 3075SOL    HW120684   1.738   0.501  12.301 -0.1402 -0.4499  0.3629
 3075SOL    HW220685   1.744   0.645  12.318  1.1398 -0.1127  0.6735
 3076SOL     OW20686   4.156   2.151  16.383  0.1946  0.5460 -1.3087
 3076SOL    HW120687   4.064   2.175  16.374 -0.5124 -1.6187 -0.0058
 3076SOL    HW220688   4.158   2.062  16.348 -0.7993 -0.0954  0.2471
 3077SOL     OW20689   2.708   1.629  17.428  0.0102 -0.2395  0.0253
 3077SOL    HW120690   2.790   1.588  17.454  0.5966 -0.3303 -1.9717
 3077SOL    HW220691   2.719   1.717  17.463 -0.1192 -0.1366 -0.1935
 3078SOL     OW20692   2.311   4.507   0.341  0.0499 -0.3106  0.1485
 3078SOL    HW120693   2.315   4.591   0.296  0.9084 -0.6937 -0.4901
 3078SOL    HW220694   2.319   4.444   0.270 -3.6900  0.6197 -1.0566
 3079SOL     OW20695   2.248   3.027  15.314  0.2652  0.3255  0.2071
 3079SOL    HW120696   2.286   2.950  15.357 -0.2259 -0.3811 -0.6341
 3079SOL    HW220697   2.308   3.049  15.243  0.6705 -1.1253  0.1141
 3080SOL     OW20698   1.623   0.510  11.911 -0.4030 -0.2028 -0.6777
 3080SOL    HW120699   1.574   0.485  11.989  2.0621  0.5270  1.1217
 3080SOL    HW220700   1.618   0.605  11.920  0.6554 -0.0302 -1.8458
 3081SOL     OW20701   2.817   3.519   4.677 -0.2401  0.5283  0.0112
 3081SOL    HW120702   2.782   3.482   4.596 -0.4372  1.0035 -0.1211
 3081SOL    HW220703   2.906   3.483   4.681 -0.8559 -0.9987 -0.1275
 3082SOL     OW20704   2.955   3.430   0.744  0.2390 -0.9430  0.2747
 3082SOL    HW120705   2.900   3.454   0.669  0.6842  1.9704  0.8734
 3082SOL    HW220706   3.015   3.372   0.697  2.1674  0.3880  1.0528
 3083SOL     OW20707   3.705   0.938   4.378  0.3266  0.5575  0.0965
 3083SOL    HW120708   3.682   1.027   4.406 -0.0847 -0.3236  2.4815
 3083SOL    HW220709   3.721   0.963   4.287  2.6204 -1.6099 -0.1151
 3084SOL     OW20710   0.093   1.396   3.409  0.1809  0.1299  0.6748
 3084SOL    HW120711   0.074   1.467   3.348 -1.4465 -0.0070  1.0414
 3084SOL    HW220712   0.008   1.373   3.447 -1.5848  0.7291 -2.9361
 3085SOL     OW20713   3.044   0.505   4.801 -0.2080  0.4549 -0.1412
 3085SOL    HW120714   3.111   0.471   4.741 -1.2061  0.1281 -1.0599
 3085SOL    HW220715   3.107   0.539   4.865 -1.3581  2.5437 -0.1474
 3086SOL     OW20716   4.374   1.987   9.591  0.3537  0.5696  0.8324
 3086SOL    HW120717   4.356   2.072   9.630  0.4091  1.3856 -0.9020
 3086SOL    HW220718   4.286   1.954   9.606  0.6982 -0.1195  1.3397
 3087SOL     OW20719   1.843   2.357  17.589 -0.0654  0.3201 -0.0845
 3087SOL    HW120720   1.754   2.325  17.574  0.1668  0.5679 -1.9768
 3087SOL    HW220721   1.882   2.311  17.663 -0.6539  0.1548  0.1241
 3088SOL     OW20722   2.343   4.215  11.210 -0.1303  0.8549 -0.3913
 3088SOL    HW120723   2.382   4.133  11.240 -1.2226  0.0166 -1.2877
 3088SOL    HW220724   2.420   4.263  11.241 -1.2433  1.1442  1.9682
 3089SOL     OW20725   3.076   1.643   6.017 -0.7256 -0.7543 -0.4441
 3089SOL    HW120726   3.136   1.617   6.086  1.2911  1.7718 -1.2499
 3089SOL    HW220727   3.139   1.683   5.957 -0.8989  0.6744  0.3345
 3090SOL     OW20728   2.011   0.032   0.451  0.3495 -0.0850 -0.5193
 3090SOL    HW120729   2.004   4.695   0.377 -1.1931 -0.8324  0.2500
 3090SOL    HW220730   1.983   0.113   0.408 -2.2470 -1.6072 -1.7261
 3091SOL     OW20731   2.078   1.175  17.681 -0.3483 -0.3529 -0.4408
 3091SOL    HW120732   2.035   1.172  17.596 -0.1377 -1.0486 -0.5242
 3091SOL    HW220733   2.169   1.166  17.651  0.4467 -1.4043  2.2909
 3092SOL     OW20734   1.893   4.284  13.549  0.6471 -0.5826 -0.0469
 3092SOL    HW120735   1.831   4.353  13.574  1.3147 -0.0536  0.1617
 3092SOL    HW220736   1.957   4.294  13.620 -0.8352 -1.3565  1.4035
 3093SOL     OW20737   2.757   4.219  12.969  0.3046  0.1971  0.5588
 3093SOL    HW120738   2.772   4.126  12.950 -2.3473  0.1351 -1.2464
 3093SOL    HW220739   2.671   4.239  12.934  1.1573  0.6172 -1.3006
 3094SOL     OW20740   1.601   0.962   2.303  0.2300  0.4278 -0.3280
 3094SOL    HW120741   1.590   1.051   2.336 -1.4376  1.1708 -2.8519
 3094SOL    HW220742   1.688   0.931   2.329 -0.2701  1.2292  2.3242
 3095SOL     OW20743   0.138   4.396   3.133 -0.0958 -0.2699 -0.1770
 3095SOL    HW120744   0.152   4.414   3.040  1.3660 -1.5347 -0.2069
 3095SOL    HW220745   0.045   4.375   3.124  0.0825 -0.8483 -0.7298
 3096SOL     OW20746   1.240   0.131   9.579  0.0496  0.0716  0.4214
 3096SOL    HW120747   1.157   0.162   9.614  0.5307 -0.6496  2.2049
 3096SOL    HW220748   1.258   0.190   9.506  0.3429 -0.4698  0.0529
 3097SOL     OW20749   0.795   0.925   6.422 -0.0967  0.2678  0.0416
 3097SOL    HW120750   0.737   0.913   6.497 -0.0395 -1.8211 -0.2570
 3097SOL    HW220751   0.845   0.844   6.415 -2.4555 -1.3009  1.5659
 3098SOL     OW20752   3.256   2.637   9.380  0.0908 -0.0380 -0.6836
 3098SOL    HW120753   3.335   2.675   9.420 -0.0671  0.3001 -0.6879
 3098SOL    HW220754   3.233   2.583   9.455 -0.2096 -0.2235 -0.9128
 3099SOL     OW20755   3.302   3.280   0.810  0.6918 -0.1978 -0.3082
 3099SOL    HW120756   3.328   3.222   0.738 -2.7224  0.3816 -1.9851
 3099SOL    HW220757   3.292   3.366   0.771  0.3942 -0.6050 -1.1238
 3100SOL     OW20758   2.551   2.608  13.717  0.6805  0.1645  0.0166
 3100SOL    HW120759   2.611   2.675  13.749 -1.2412  1.5586  0.6946
 3100SOL    HW220760   2.513   2.589  13.803 -0.0200 -0.2800 -0.3844
 3101SOL     OW20761   0.152   1.171   5.267 -0.2159  0.0786 -0.0834
 3101SOL    HW120762   0.104   1.097   5.303 -0.1333 -0.6348 -1.4509
 3101SOL    HW220763   0.098   1.248   5.285  1.1274  1.2445 -1.0670
 3102SOL     OW20764   3.423   0.235   6.807 -0.6216  0.4948  0.1831
 3102SOL    HW120765   3.500   0.291   6.806 -1.3334  1.4253 -1.4607
 3102SOL    HW220766   3.462   0.148   6.803 -3.6912 -0.9302  0.5113
 3103SOL     OW20767   0.433   0.092   3.435  0.2557 -0.2883 -0.2077
 3103SOL    HW120768   0.338   0.099   3.444  0.2347  1.5094 -1.9045
 3103SOL    HW220769   0.442   0.163   3.499  0.0984 -0.7374  0.3131
 3104SOL     OW20770   1.678   3.563  10.225 -0.0394 -0.2975  0.0271
 3104SOL    HW120771   1.697   3.604  10.140 -0.4254 -0.4595 -0.1340
 3104SOL    HW220772   1.602   3.609  10.259  1.5446  2.3605 -0.0083
 3105SOL     OW20773   0.418   1.501   6.048 -0.1045  0.0170 -0.0447
 3105SOL    HW120774   0.460   1.525   6.130  2.4284 -0.6956 -1.1156
 3105SOL    HW220775   0.498   1.477   6.000  1.3418 -0.5108  2.5950
 3106SOL     OW20776   2.664   0.102   3.773  0.2375  0.3482  0.3909
 3106SOL    HW120777   2.597   0.054   3.820 -0.6744  0.3205 -0.9515
 3106SOL    HW220778   2.647   0.070   3.684 -1.5592 -0.0891  0.9063
 3107SOL     OW20779   4.088   4.211  13.651 -0.3327 -0.0877 -0.3449
 3107SOL    HW120780   4.006   4.257  13.631  0.3818  1.0426 -0.6586
 3107SOL    HW220781   4.107   4.164  13.570  2.4994  0.0656  0.2394
 3108SOL     OW20782   0.724   3.161   9.962 -0.1107  0.5692 -0.6202
 3108SOL    HW120783   0.637   3.159   9.922 -0.5418  1.3995  0.2652
 3108SOL    HW220784   0.767   3.222   9.903  0.1175  2.3785  1.3996
 3109SOL     OW20785   3.111   4.437   8.108  0.0230  0.7579 -0.3236
 3109SOL    HW120786   3.060   4.432   8.189 -1.0525  1.8859 -0.9301
 3109SOL    HW220787   3.188   4.384   8.130 -0.8298 -0.4727 -0.3141
 3110SOL     OW20788   0.661   4.669   6.382  0.7154  0.2156  0.2294
 3110SOL    HW120789   0.665   4.585   6.428 -0.3823  0.3245  0.5030
 3110SOL    HW220790   0.570   4.693   6.369  0.4730 -0.1369  1.2439
 3111SOL     OW20791   0.491   1.655   4.180  0.4983  0.4464 -0.6510
 3111SOL    HW120792   0.446   1.706   4.113 -1.7033 -1.7684 -0.8534
 3111SOL    HW220793   0.478   1.717   4.252  1.5489  1.0387 -0.9810
 3112SOL     OW20794   3.397   3.676   1.657  0.0888  0.4904 -0.7006
 3112SOL    HW120795   3.392   3.747   1.721 -0.7598  0.3720 -0.6455
 3112SOL    HW220796   3.476   3.626   1.682 -0.6336  1.1299  2.9445
 3113SOL     OW20797   0.779   1.099   3.203 -0.6539 -0.1907  0.1640
 3113SOL    HW120798   0.734   1.036   3.260  0.5691 -0.2884  1.0211
 3113SOL    HW220799   0.707   1.148   3.163 -0.6338  0.1984  0.6001
 3114SOL     OW20800   1.629   4.471  14.495  0.6125 -0.1385 -0.3439
 3114SOL    HW120801   1.629   4.390  14.547 -1.1058 -0.0058 -0.1672
 3114SOL    HW220802   1.721   4.494  14.511  0.9842 -1.7629 -0.1397
 3115SOL     OW20803   3.017   4.348   5.490  0.0160  0.2710  0.5876
 3115SOL    HW120804   3.043   4.389   5.408 -1.6328 -0.4598 -0.3042
 3115SOL    HW220805   2.998   4.429   5.537  1.4258  0.9989 -0.1068
 3116SOL     OW20806   4.112   3.513   6.666 -0.1379 -0.0822 -0.3489
 3116SOL    HW120807   4.180   3.452   6.694  0.3372  0.8699  0.5728
 3116SOL    HW220808   4.113   3.567   6.746  0.4386  1.1608 -1.1929
 3117SOL     OW20809   2.809   0.097   6.608  0.1109  0.6079 -0.0838
 3117SOL    HW120810   2.835   0.148   6.685  2.4211 -0.2684 -0.2877
 3117SOL    HW220811   2.717   0.084   6.629 -0.4327  1.5402 -1.8785
 3118SOL     OW20812   4.109   3.458   4.203  1.1148  0.3264 -0.2891
 3118SOL    HW120813   4.058   3.501   4.271 -0.9205  0.4214 -1.8818
 3118SOL    HW220814   4.062   3.375   4.198  1.0787  0.3608 -0.5522
 3119SOL     OW20815   3.829   2.476  10.371 -0.2268 -0.5602 -0.0453
 3119SOL    HW120816   3.859   2.391  10.339 -0.5004 -0.3233 -0.9399
 3119SOL    HW220817   3.863   2.481  10.460 -0.5289  1.8626 -0.0530
 3120SOL     OW20818   3.447   2.740   7.572 -0.2577  0.2451 -0.0505
 3120SOL    HW120819   3.402   2.806   7.520  0.1819 -1.1417 -2.2006
 3120SOL    HW220820   3.536   2.733   7.536 -0.3556 -3.5305  0.4764
 3121SOL     OW20821   3.299   4.515   2.157 -0.3754 -0.1676  0.1185
 3121SOL    HW120822   3.311   4.426   2.189  0.1362 -0.5622 -1.1851
 3121SOL    HW220823   3.338   4.563   2.231 -0.5513 -0.9960  0.7434
 3122SOL     OW20824   2.369   0.610   7.484 -0.1629 -0.5556  0.0481
 3122SOL    HW120825   2.285   0.622   7.440 -0.0605 -0.2679 -0.0735
 3122SOL    HW220826   2.433   0.604   7.413  0.6026  0.6751  0.6340
 3123SOL     OW20827   0.448   1.013   3.749  0.2802 -0.0771 -0.1961
 3123SOL    HW120828   0.364   1.012   3.704 -1.2875  0.9527  2.7179
 3123SOL    HW220829   0.473   0.921   3.751 -0.5484 -0.2343  2.4422
 3124SOL     OW20830   2.632   4.443   3.256  0.0546 -0.5740 -0.4990
 3124SOL    HW120831   2.609   4.387   3.331 -1.4873 -1.2020 -1.4453
 3124SOL    HW220832   2.563   4.509   3.253  1.1380  0.6382  1.2872
 3125SOL     OW20833   0.270   4.561   2.629 -0.1280  0.2380  0.5661
 3125SOL    HW120834   0.219   4.570   2.549 -1.5417 -0.1414  1.4248
 3125SOL    HW220835   0.320   4.480   2.615 -1.6038 -0.7074  0.7992
 3126SOL     OW20836   3.250   3.670   3.376  0.1661 -0.0124  0.5044
 3126SOL    HW120837   3.185   3.685   3.444 -0.0452  0.2607  0.2426
 3126SOL    HW220838   3.328   3.714   3.409  1.4147 -2.7964  1.2578
 3127SOL     OW20839   2.574   4.042   3.486 -0.0177  0.6531  0.6022
 3127SOL    HW120840   2.584   4.134   3.509 -0.2821  0.8240  0.0475
 3127SOL    HW220841   2.613   4.047   3.398 -1.9256 -0.2233 -0.3053
 3128SOL     OW20842   1.653   3.050   2.801 -0.1889 -0.4027 -0.1957
 3128SOL    HW120843   1.662   3.037   2.895 -2.2736 -2.2339 -0.2317
 3128SOL    HW220844   1.665   3.144   2.791  0.7005 -0.1708  3.3317
 3129SOL     OW20845   1.812   2.758   6.895 -0.0785  0.1256  0.2336
 3129SOL    HW120846   1.873   2.832   6.895  1.2626 -0.9764 -0.3134
 3129SOL    HW220847   1.743   2.796   6.840  0.0037 -3.2999 -2.2616
 3130SOL     OW20848   0.407   3.335   2.061  0.2430 -0.0678  1.1626
 3130SOL    HW120849   0.502   3.340   2.053  0.1983 -0.4274  0.3330
 3130SOL    HW220850   0.397   3.355   2.154 -1.3422  0.2798  0.9131
 3131SOL     OW20851   0.155   3.126   5.382 -0.1554  0.4126 -0.0766
 3131SOL    HW120852   0.084   3.063   5.397  1.2244 -0.6199  2.2466
 3131SOL    HW220853   0.203   3.075   5.317  0.3897  0.3110  0.4053
 3132SOL     OW20854   1.581   3.219  14.598 -0.2317  0.4329  0.7903
 3132SOL    HW120855   1.620   3.256  14.519 -0.0966 -2.0693 -0.3212
 3132SOL    HW220856   1.639   3.145  14.613  0.2828  0.9903  1.5431
 3133SOL     OW20857   2.419   4.412   8.208 -0.9288 -0.0294 -0.1156
 3133SOL    HW120858   2.475   4.341   8.176  1.6112  1.8505  0.2341
 3133SOL    HW220859   2.482   4.477   8.238  0.1498 -1.3693  0.4961
 3134SOL     OW20860   4.465   0.832   1.362  0.7842 -0.1787 -0.7207
 3134SOL    HW120861   4.384   0.872   1.333 -0.2361  1.4367  4.3050
 3134SOL    HW220862   4.495   0.790   1.281 -0.4480 -0.4209 -1.0575
 3135SOL     OW20863   4.311   1.000   6.138 -0.5496 -0.3968 -0.4609
 3135SOL    HW120864   4.254   0.998   6.061 -0.3151 -1.2369 -0.6164
 3135SOL    HW220865   4.365   1.078   6.128 -0.0143 -0.6446  0.4938
 3136SOL     OW20866   3.770   0.845   6.538 -0.3215 -0.1945 -0.6945
 3136SOL    HW120867   3.694   0.878   6.586 -0.8005  1.2219 -2.4680
 3136SOL    HW220868   3.835   0.867   6.605 -0.7055  1.0991 -0.7626
 3137SOL     OW20869   0.691   0.031   6.094  0.2569  0.1424  0.2557
 3137SOL    HW120870   0.656   4.666   6.085 -0.3119  0.3676  0.2259
 3137SOL    HW220871   0.713   0.021   6.186 -2.5597  1.6711  1.0872
 3138SOL     OW20872   4.654   1.135   3.765  0.3866 -0.0474  0.0424
 3138SOL    HW120873   4.613   1.221   3.760  1.8634  0.6430 -0.1391
 3138SOL    HW220874   4.577   1.087   3.797  1.5111 -1.2721  0.9063
 3139SOL     OW20875   1.224   0.900   2.328  0.9698 -0.2789  0.0256
 3139SOL    HW120876   1.239   0.968   2.263 -2.6953  0.8180  0.3360
 3139SOL    HW220877   1.237   0.952   2.408 -0.0910 -1.2368  0.8254
 3140SOL     OW20878   3.388   3.981   7.793  0.6969  0.1944  0.3584
 3140SOL    HW120879   3.467   4.013   7.749  1.4923 -0.1357  1.5692
 3140SOL    HW220880   3.327   4.051   7.768 -1.5777 -1.2499  1.9213
 3141SOL     OW20881   2.433   3.448   5.891 -0.4940  0.2879 -0.0648
 3141SOL    HW120882   2.513   3.400   5.874 -1.1015 -1.5891  2.3345
 3141SOL    HW220883   2.370   3.405   5.834  1.0434  0.0748 -1.5975
 3142SOL     OW20884   2.431   2.865   2.760 -0.4338 -0.1149  0.1962
 3142SOL    HW120885   2.372   2.864   2.836 -0.0087  0.7060  0.5502
 3142SOL    HW220886   2.396   2.797   2.703  0.1976 -0.0869 -0.2213
 3143SOL     OW20887   4.293   1.927   8.268  0.0761 -0.5572 -0.3303
 3143SOL    HW120888   4.260   2.011   8.299  3.1324 -0.1850  1.9730
 3143SOL    HW220889   4.385   1.921   8.296  0.5317  0.5718 -1.5916
 3144SOL     OW20890   2.032   2.077   2.910 -0.0916  0.1467  0.1062
 3144SOL    HW120891   1.977   2.073   2.832 -1.8502  3.2942  1.2022
 3144SOL    HW220892   2.085   1.998   2.895 -0.9365 -0.6444  1.3405
 3145SOL     OW20893   1.833   3.721  11.506 -0.0953  0.6072  0.3110
 3145SOL    HW120894   1.843   3.732  11.411 -1.2627  1.2321  0.2581
 3145SOL    HW220895   1.822   3.806  11.548 -0.7762  1.6326 -1.9102
 3146SOL     OW20896   2.888   1.833   1.988 -0.3107  0.4360  0.2176
 3146SOL    HW120897   2.943   1.831   2.066 -0.0254 -0.2306  0.0030
 3146SOL    HW220898   2.837   1.913   1.998 -0.7346  0.0572  1.1276
 3147SOL     OW20899   3.467   3.369  15.748  0.8905 -0.0106 -0.6122
 3147SOL    HW120900   3.420   3.376  15.832  1.5621 -1.0672 -0.1496
 3147SOL    HW220901   3.495   3.459  15.737 -0.7980  0.5871 -0.0979
 3148SOL     OW20902   2.077   0.944   9.971 -0.4281  0.2391  0.3252
 3148SOL    HW120903   2.135   0.983   9.905  0.1290 -2.4095 -0.7497
 3148SOL    HW220904   2.118   0.976  10.051 -0.8201  0.8186  0.2981
 3149SOL     OW20905   4.486   2.452   6.802  0.3881  0.2817  0.0109
 3149SOL    HW120906   4.465   2.361   6.822  0.5571  0.1682 -0.3248
 3149SOL    HW220907   4.435   2.505   6.863 -0.5273  1.4783 -1.8454
 3150SOL     OW20908   2.442   1.351   3.827 -0.0933 -0.6440  0.3832
 3150SOL    HW120909   2.379   1.371   3.897 -0.0020 -0.4781  0.4175
 3150SOL    HW220910   2.510   1.416   3.842  1.3662 -2.0955 -0.0450
 3151SOL     OW20911   2.409   3.500   7.847  0.0480  0.0785 -0.0201
 3151SOL    HW120912   2.380   3.571   7.904  0.7479 -0.2050  0.6885
 3151SOL    HW220913   2.504   3.499   7.861  0.1022 -2.8345 -0.6167
 3152SOL     OW20914   2.306   1.369   6.544  0.4041  0.4164  0.6944
 3152SOL    HW120915   2.287   1.456   6.578  0.3318  0.7165 -0.1166
 3152SOL    HW220916   2.226   1.321   6.566  0.1113  1.1195  1.1542
 3153SOL     OW20917   2.638   1.444   2.869 -0.5093  0.1105  0.1585
 3153SOL    HW120918   2.572   1.512   2.854 -1.9362 -1.4863 -0.8602
 3153SOL    HW220919   2.601   1.367   2.825 -2.3994  0.5644  0.9644
 3154SOL     OW20920   1.286   3.979  16.848  0.2008  0.0121 -0.2495
 3154SOL    HW120921   1.194   3.962  16.831  0.3820 -0.4043 -0.8187
 3154SOL    HW220922   1.319   4.006  16.762  0.1352 -0.8488 -0.5526
 3155SOL     OW20923   2.291   1.850   5.185 -0.0222 -0.2125 -0.4589
 3155SOL    HW120924   2.302   1.775   5.243  1.7857 -0.3466 -0.9559
 3155SOL    HW220925   2.371   1.843   5.132  0.1600  0.4760 -0.2651
 3156SOL     OW20926   1.337   0.319   2.486  0.1109 -0.4077  0.0845
 3156SOL    HW120927   1.338   0.355   2.398  1.4223  0.4876  0.4715
 3156SOL    HW220928   1.341   0.224   2.472 -0.6007 -0.3119 -0.7529
 3157SOL     OW20929   1.608   1.123   6.006 -0.1687  0.3279 -0.2151
 3157SOL    HW120930   1.554   1.180   5.951 -0.6645  1.2174  1.2094
 3157SOL    HW220931   1.566   1.137   6.091 -1.0181  2.0710 -0.9159
 3158SOL     OW20932   0.629   2.564   1.599 -0.1051 -0.1193 -0.5454
 3158SOL    HW120933   0.651   2.652   1.569 -1.1383 -0.1713 -1.4251
 3158SOL    HW220934   0.594   2.524   1.519  4.1174 -0.7476 -2.0805
 3159SOL     OW20935   1.675   4.000  12.458  0.0969 -0.6099  0.3847
 3159SOL    HW120936   1.623   3.938  12.408  0.9271 -0.2521 -0.9300
 3159SOL    HW220937   1.727   4.036  12.386  0.8234 -2.7458 -0.1756
 3160SOL     OW20938   1.839   2.355   1.869 -0.5594  0.2849  0.0567
 3160SOL    HW120939   1.842   2.286   1.802  1.1539  0.9124 -0.5156
 3160SOL    HW220940   1.896   2.326   1.940 -1.2563  0.9128  0.8539
 3161SOL     OW20941   4.091   2.999   6.936  0.0679  0.4133 -0.6387
 3161SOL    HW120942   4.131   2.927   6.888  1.1499 -1.1860  2.6342
 3161SOL    HW220943   3.998   2.979   6.929  0.3851 -2.5452  3.9838
 3162SOL     OW20944   3.146   0.228   8.501 -0.4717 -0.0784  0.1441
 3162SOL    HW120945   3.166   0.318   8.523  0.3439  0.4688 -2.8676
 3162SOL    HW220946   3.235   0.198   8.481  0.3340 -0.4005  4.1380
 3163SOL     OW20947   3.378   2.745   0.150 -0.2695 -0.0795 -0.5986
 3163SOL    HW120948   3.471   2.765   0.135 -0.2165 -0.4815 -0.8011
 3163SOL    HW220949   3.373   2.657   0.186 -0.8186  0.2170  0.0489
 3164SOL     OW20950   1.878   2.289   2.958  0.2378  0.3724 -0.4363
 3164SOL    HW120951   1.944   2.221   2.956 -2.4251 -2.2867  1.6942
 3164SOL    HW220952   1.797   2.239   2.967 -1.0128  2.4989  0.3081
 3165SOL     OW20953   0.448   4.445   0.648 -0.1196  0.2738  0.9935
 3165SOL    HW120954   0.431   4.367   0.701 -0.9889 -1.1297 -1.2946
 3165SOL    HW220955   0.517   4.413   0.590 -0.7680  1.2659 -0.3249
 3166SOL     OW20956   4.218   0.418   0.042  0.4462  0.5011  0.0289
 3166SOL    HW120957   4.204   0.501   0.088  0.9891 -0.2059  1.4772
 3166SOL    HW220958   4.209   0.359   0.117 -1.5376 -0.1506 -0.7241
 3167SOL     OW20959   1.272   1.716   4.047  0.6215  0.2627 -0.0214
 3167SOL    HW120960   1.297   1.712   4.140  0.6791 -2.0433 -0.1228
 3167SOL    HW220961   1.361   1.722   4.014 -0.2628  0.9550 -2.2292
 3168SOL     OW20962   1.352   0.825   7.819 -0.7638  0.7866  0.6693
 3168SOL    HW120963   1.360   0.921   7.822  1.6552  0.4929  3.2645
 3168SOL    HW220964   1.445   0.806   7.827 -0.8336  0.7386  1.3411
 3169SOL     OW20965   1.026   1.203  14.963 -0.9255  0.2222  0.1271
 3169SOL    HW120966   1.016   1.142  14.890 -2.5247 -0.1419  0.6570
 3169SOL    HW220967   1.116   1.228  14.942 -0.5912 -0.0260  1.2805
 3170SOL     OW20968   2.468   2.216   8.259  0.1032 -0.2342  1.2329
 3170SOL    HW120969   2.412   2.291   8.278  1.8592  1.5180 -0.4746
 3170SOL    HW220970   2.549   2.268   8.264 -0.5935  1.0674 -1.2876
 3171SOL     OW20971   3.738   4.664   2.130  0.5511 -0.5107  0.1721
 3171SOL    HW120972   3.815   4.631   2.083  0.3699 -1.5835  0.6299
 3171SOL    HW220973   3.697   4.587   2.169 -0.2621 -0.4190 -0.5170
 3172SOL     OW20974   0.427   0.154   5.214 -0.2960  0.5594  0.2538
 3172SOL    HW120975   0.464   0.189   5.133  0.3081  0.0018  0.2921
 3172SOL    HW220976   0.336   0.134   5.191  0.1532  0.4717 -1.4476
 3173SOL     OW20977   1.443   1.522   0.750 -0.0076 -0.3278 -0.1991
 3173SOL    HW120978   1.407   1.460   0.686  1.2951  0.9941 -2.1956
 3173SOL    HW220979   1.513   1.474   0.795 -1.8356  0.3520  3.4192
 3174SOL     OW20980   0.270   3.470   7.858 -0.4511 -0.5873 -0.1722
 3174SOL    HW120981   0.338   3.443   7.920 -0.0132  1.9867  0.4500
 3174SOL    HW220982   0.316   3.548   7.827 -1.9773 -0.2644 -1.6008
 3175SOL     OW20983   1.858   1.697  10.174  0.6662 -0.5888 -0.3967
 3175SOL    HW120984   1.823   1.740  10.253  1.0696  2.5662 -1.9554
 3175SOL    HW220985   1.784   1.679  10.117 -0.5112  0.3616  0.8189
 3176SOL     OW20986   0.745   2.357   6.148 -0.1729  0.5981  0.3861
 3176SOL    HW120987   0.830   2.370   6.105 -0.5826  0.6251 -0.3961
 3176SOL    HW220988   0.721   2.287   6.087 -0.5135  0.6413  0.4745
 3177SOL     OW20989   1.019   3.052   8.220  0.1991 -0.1046 -0.2774
 3177SOL    HW120990   1.013   2.978   8.160  1.8424 -0.7941  0.3987
 3177SOL    HW220991   0.927   3.047   8.246 -0.6027  1.4780 -2.8268
 3178SOL     OW20992   2.469   0.732  15.781  0.2060 -0.4774 -0.2362
 3178SOL    HW120993   2.544   0.747  15.839 -1.0255  0.4599  1.0928
 3178SOL    HW220994   2.490   0.641  15.760 -1.3553 -0.8721 -0.0436
 3179SOL     OW20995   2.939   1.028   3.958  0.0948 -0.1114  0.3401
 3179SOL    HW120996   2.847   1.005   3.947  0.3869 -1.9898  1.7858
 3179SOL    HW220997   2.970   0.972   4.030 -0.1090  1.0403  1.3214
 3180SOL     OW20998   0.175   0.882  16.763  0.0373  0.1460 -0.0133
 3180SOL    HW120999   0.133   0.906  16.680  0.0948 -0.1022 -0.1147
 3180SOL    HW221000   0.267   0.880  16.737 -0.2636  1.1487 -1.1818
 3181SOL     OW21001   2.964   3.987   5.182 -0.4894  0.8184  0.0297
 3181SOL    HW121002   2.973   4.081   5.171  0.1511  0.6933 -0.5567
 3181SOL    HW221003   2.979   3.953   5.094 -2.1458  0.5229 -0.1311
 3182SOL     OW21004   1.092   4.243  15.689 -0.2744 -0.1270 -0.1859
 3182SOL    HW121005   1.162   4.241  15.755 -1.0530  3.0487  0.7095
 3182SOL    HW221006   1.027   4.185  15.728 -0.7084 -1.6713 -3.2584
 3183SOL     OW21007   0.814   2.109  11.436  0.2105 -0.0794 -0.3984
 3183SOL    HW121008   0.810   2.094  11.531 -0.1289  2.2189 -0.0532
 3183SOL    HW221009   0.844   2.024  11.405 -2.3026 -1.2524  0.3840
 3184SOL     OW21010   2.745   0.629   8.110 -0.0657 -0.1550  0.1917
 3184SOL    HW121011   2.758   0.544   8.069 -0.5041 -1.2653  2.3434
 3184SOL    HW221012   2.832   0.644   8.146 -0.1254  1.5859 -0.3891
 3185SOL     OW21013   1.560   3.000   5.216  0.1645  0.6116  0.0450
 3185SOL    HW121014   1.498   3.010   5.288  1.2320 -1.0075  1.1919
 3185SOL    HW221015   1.635   3.040   5.259  1.0296 -1.5051  0.5041
 3186SOL     OW21016   4.512   1.652   1.666 -0.5450 -0.0976 -0.6287
 3186SOL    HW121017   4.422   1.648   1.633 -0.3821 -0.4441 -1.0243
 3186SOL    HW221018   4.491   1.686   1.753  1.6317  0.6269 -0.3819
 3187SOL     OW21019   1.439   1.050  15.354 -0.3684 -0.6841 -0.1037
 3187SOL    HW121020   1.529   1.016  15.353 -0.3696 -0.6305 -2.4610
 3187SOL    HW221021   1.396   0.980  15.305  0.4671 -1.2371 -0.0612
 3188SOL     OW21022   4.347   0.397   2.124  0.0949  0.1584 -0.0958
 3188SOL    HW121023   4.424   0.451   2.143  0.9980 -0.8828 -0.7757
 3188SOL    HW221024   4.293   0.467   2.087  1.3057 -0.0691 -2.3145
 3189SOL     OW21025   2.132   0.470   6.755  0.2020 -0.8188 -0.1991
 3189SOL    HW121026   2.133   0.552   6.803 -0.2475 -0.6824 -0.4236
 3189SOL    HW221027   2.041   0.443   6.762  0.4124 -0.9022  2.0453
 3190SOL     OW21028   4.695   3.582   4.772  0.5495 -0.3187  0.1904
 3190SOL    HW121029   4.623   3.645   4.767  1.2560  0.4153 -0.6375
 3190SOL    HW221030   4.710   3.554   4.682  2.1825  0.7162  0.1494
 3191SOL     OW21031   1.307   2.151   2.273 -0.4238  0.3039 -0.0839
 3191SOL    HW121032   1.380   2.137   2.212  0.9547 -1.3758  1.9306
 3191SOL    HW221033   1.339   2.221   2.330  0.7650  0.4735 -0.9418
 3192SOL     OW21034   3.697   4.217   9.850 -0.0871  0.2240 -0.4131
 3192SOL    HW121035   3.668   4.129   9.826  1.4991 -0.5653  0.5175
 3192SOL    HW221036   3.674   4.223   9.942 -2.8305 -0.7089 -1.0560
 3193SOL     OW21037   3.507   1.095  13.197 -0.7365 -0.3098 -0.6105
 3193SOL    HW121038   3.583   1.140  13.158 -0.6201  0.7916  0.8876
 3193SOL    HW221039   3.545   1.018  13.240  1.2329  0.8217 -0.2958
 3194SOL     OW21040   0.303   0.303  11.487  0.8446 -0.0491  0.3843
 3194SOL    HW121041   0.380   0.248  11.472 -0.8205 -1.8667 -1.5238
 3194SOL    HW221042   0.240   0.235  11.509 -0.6131  1.2361  0.1509
 3195SOL     OW21043   0.848   1.476   4.550  0.4187  0.2578  0.4214
 3195SOL    HW121044   0.818   1.386   4.540 -0.3287  0.3384  1.8875
 3195SOL    HW221045   0.931   1.457   4.596  1.0983  1.5346 -0.2810
 3196SOL     OW21046   0.364   1.885   6.771 -0.0105  0.3843 -0.2941
 3196SOL    HW121047   0.278   1.847   6.751  0.6304 -1.3296  0.1635
 3196SOL    HW221048   0.422   1.810   6.761 -2.7283 -1.6746 -0.8159
 3197SOL     OW21049   0.720   3.897   4.897  0.8578  0.3464  0.4935
 3197SOL    HW121050   0.768   3.963   4.946 -1.5537  0.5715  2.5287
 3197SOL    HW221051   0.785   3.838   4.859  0.8048  0.8971 -0.4623
 3198SOL     OW21052   1.953   1.719  15.749  0.0073 -0.2007 -0.1172
 3198SOL    HW121053   1.996   1.805  15.744 -1.5307  0.4886 -1.2401
 3198SOL    HW221054   1.896   1.719  15.672  0.9194 -0.4875 -0.7980
 3199SOL     OW21055   1.516   4.458   2.986  0.1045 -0.0216  0.6782
 3199SOL    HW121056   1.465   4.491   3.060 -0.1618 -0.8042  0.8464
 3199SOL    HW221057   1.548   4.374   3.019 -1.6918 -1.7338 -1.9101
 3200SOL     OW21058   0.707   4.073  16.120 -0.3463  0.1521  0.1923
 3200SOL    HW121059   0.623   4.106  16.149  1.2665  3.9689  0.4594
 3200SOL    HW221060   0.693   3.978  16.112  0.1644  0.1124 -0.2250
 3201SOL     OW21061   2.813   2.634   1.950  0.0891  0.1970  0.4199
 3201SOL    HW121062   2.875   2.679   2.006 -0.8143  0.2232  1.3932
 3201SOL    HW221063   2.856   2.556   1.916 -0.0109  0.8883 -1.3305
 3202SOL     OW21064   0.084   0.671   0.794 -0.1923 -0.6725  0.0578
 3202SOL    HW121065   4.715   0.648   0.788 -0.6315  0.9604  0.7180
 3202SOL    HW221066   0.086   0.717   0.877  0.8179 -1.5157  0.5084
 3203SOL     OW21067   4.390   3.887  17.212  0.1030 -0.7425  0.3209
 3203SOL    HW121068   4.392   3.966  17.158  2.2432  0.1066  1.6224
 3203SOL    HW221069   4.332   3.824  17.170 -0.9066  0.2736  0.1943
 3204SOL     OW21070   2.239   2.744   6.900  0.9421 -1.2012  0.6043
 3204SOL    HW121071   2.279   2.658   6.891 -0.7710 -2.1057  1.6487
 3204SOL    HW221072   2.314   2.795   6.932  0.9301  0.0062 -1.3297
 3205SOL     OW21073   2.621   2.265   8.538 -0.0024  0.3094  0.3980
 3205SOL    HW121074   2.695   2.258   8.478  0.9536  1.3899  1.4834
 3205SOL    HW221075   2.596   2.173   8.551 -1.0642  0.6015  0.4539
 3206SOL     OW21076   3.170   3.557   3.978 -0.5628 -0.2493 -0.0363
 3206SOL    HW121077   3.227   3.497   4.025 -0.9890  0.7196  1.7257
 3206SOL    HW221078   3.085   3.539   4.020 -0.3409  0.7445  0.8537
 3207SOL     OW21079   2.870   1.480  13.246  0.6335 -0.5506 -0.2523
 3207SOL    HW121080   2.959   1.508  13.267 -0.2390  0.5765  2.0152
 3207SOL    HW221081   2.827   1.447  13.325 -1.8364  1.9299 -0.5578
 3208SOL     OW21082   2.678   4.609   8.892  0.3464 -0.1748 -0.2098
 3208SOL    HW121083   2.588   4.608   8.925  0.7828 -1.3278  0.9773
 3208SOL    HW221084   2.730   4.631   8.970 -0.9128  1.0146  0.2843
 3209SOL     OW21085   3.237   0.833  16.326 -0.2250  0.1338  0.3565
 3209SOL    HW121086   3.266   0.775  16.397  0.2820  2.2180  1.8475
 3209SOL    HW221087   3.245   0.919  16.368  1.0021  0.2061 -0.0286
 3210SOL     OW21088   3.095   2.726   1.396  0.1449  0.0736  0.4098
 3210SOL    HW121089   3.173   2.779   1.412  0.7502 -0.9611  0.9196
 3210SOL    HW221090   3.133   2.641   1.374 -2.7066 -0.3193 -3.1108
 3211SOL     OW21091   1.869   1.119   3.965  0.9008 -0.6422 -0.0285
 3211SOL    HW121092   1.898   1.074   3.886  0.2938 -0.3127 -0.4425
 3211SOL    HW221093   1.835   1.201   3.927 -1.8411 -1.6853  0.1708
 3212SOL     OW21094   1.261   2.974   6.570  0.2831 -0.2184  0.1458
 3212SOL    HW121095   1.268   3.028   6.491 -2.7801  1.5288  1.0657
 3212SOL    HW221096   1.352   2.973   6.602 -0.1502  1.0740  1.4317
 3213SOL     OW21097   2.375   2.217   2.374 -0.3263 -0.0082  0.1775
 3213SOL    HW121098   2.351   2.138   2.325 -2.0988  0.3747  0.4451
 3213SOL    HW221099   2.425   2.261   2.305 -0.3953  2.3878  1.6794
 3214SOL     OW21100   1.925   3.117  13.145  0.3411 -0.3850  0.4368
 3214SOL    HW121101   1.957   3.138  13.233  0.4074  2.4716 -0.2380
 3214SOL    HW221102   1.864   3.191  13.142  1.0461  0.1544 -0.8529
 3215SOL     OW21103   3.678   3.560  11.487  0.2878  0.2591 -0.2445
 3215SOL    HW121104   3.683   3.652  11.462  1.4978 -0.1033 -1.2944
 3215SOL    HW221105   3.670   3.529  11.397  1.5509 -2.9549  0.7663
 3216SOL     OW21106   2.959   4.355   8.911  1.4262 -0.4738 -0.0305
 3216SOL    HW121107   2.890   4.349   8.845  0.0861  2.6563  1.1032
 3216SOL    HW221108   2.993   4.444   8.908 -0.5900  0.2433 -1.8465
 3217SOL     OW21109   1.880   0.478  11.809  0.5178  0.0916 -0.3681
 3217SOL    HW121110   1.910   0.388  11.819 -0.0978 -0.1281 -0.5173
 3217SOL    HW221111   1.810   0.480  11.875  1.6009 -0.8937  0.7994
 3218SOL     OW21112   3.528   0.400   8.514 -0.5375 -0.1648  0.4443
 3218SOL    HW121113   3.557   0.438   8.431 -1.1143 -3.8285 -1.4151
 3218SOL    HW221114   3.607   0.407   8.568 -1.7260 -1.2332  2.3390
 3219SOL     OW21115   4.556   2.816  14.299  0.2704  0.3791 -0.2810
 3219SOL    HW121116   4.527   2.740  14.248  0.7421  0.1466 -0.2036
 3219SOL    HW221117   4.564   2.883  14.232  0.4909  0.5075 -0.1238
 3220SOL     OW21118   1.210   0.497  15.441 -0.2018 -0.0284 -0.2792
 3220SOL    HW121119   1.235   0.425  15.498  1.2131  1.6836  1.2638
 3220SOL    HW221120   1.292   0.539  15.416  0.3286  0.2262  1.9086
 3221SOL     OW21121   2.131   4.670   2.487  0.0250 -0.0427 -0.4437
 3221SOL    HW121122   2.109   4.585   2.449  1.7099 -1.2118  1.2142
 3221SOL    HW221123   2.222   4.656   2.513  0.1905  2.0597  0.1386
 3222SOL     OW21124   3.911   2.984  13.132  0.9021  0.5426  0.3188
 3222SOL    HW121125   3.988   2.933  13.110 -0.2556 -0.5416 -1.1843
 3222SOL    HW221126   3.946   3.069  13.159  2.1397 -0.2669  1.2617
 3223SOL     OW21127   1.521   0.517   4.810  0.2293  0.4435  0.5271
 3223SOL    HW121128   1.588   0.533   4.743 -0.8281  1.5277 -0.2539
 3223SOL    HW221129   1.454   0.490   4.747 -0.2582 -0.6507  1.5112
 3224SOL     OW21130   2.500   2.547   6.914 -0.4528 -0.3101 -0.1337
 3224SOL    HW121131   2.539   2.463   6.940 -0.5850 -0.1689  0.5325
 3224SOL    HW221132   2.516   2.594   6.996 -0.6934 -0.0923 -0.2131
 3225SOL     OW21133   0.440   4.295   3.425  0.3699  0.5841 -0.2497
 3225SOL    HW121134   0.375   4.249   3.371  1.4766 -0.6905 -0.5235
 3225SOL    HW221135   0.388   4.297   3.505  0.0795  0.4049 -0.4308
 3226SOL     OW21136   3.737   1.258  13.173 -0.1557 -0.3449 -0.2072
 3226SOL    HW121137   3.781   1.185  13.215 -0.1057  1.4650  2.8508
 3226SOL    HW221138   3.755   1.332  13.232  0.7646  0.9228 -2.0488
 3227SOL     OW21139   1.445   1.470  15.534 -0.6401  0.2065 -0.8638
 3227SOL    HW121140   1.450   1.401  15.600 -0.8713  2.6152  1.6681
 3227SOL    HW221141   1.389   1.433  15.466  2.0434 -3.6549 -0.9729
 3228SOL     OW21142   0.392   1.278   7.231  0.3030  0.4607  0.2592
 3228SOL    HW121143   0.353   1.222   7.299  1.7637  0.8235  1.3807
 3228SOL    HW221144   0.356   1.365   7.246 -0.1725  0.6847 -2.2172
 3229SOL     OW21145   2.057   4.509   1.528  0.3792 -0.1735 -0.0719
 3229SOL    HW121146   2.098   4.458   1.458 -1.0424 -0.4434 -0.7118
 3229SOL    HW221147   1.965   4.495   1.503  0.4311 -1.7129  0.6444
 3230SOL     OW21148   0.741   2.523   6.903 -0.2635  0.4085  0.5001
 3230SOL    HW121149   0.686   2.452   6.870 -2.7300  1.2602  2.8362
 3230SOL    HW221150   0.723   2.594   6.841 -0.2798  2.8165  3.2615
 3231SOL     OW21151   1.010   1.651   4.950  0.3392 -0.1842  0.1412
 3231SOL    HW121152   0.992   1.559   4.929 -1.1836 -0.3104  2.0471
 3231SOL    HW221153   1.059   1.681   4.873  2.5862  0.1803  1.7083
 3232SOL     OW21154   2.546   0.801   7.766 -0.1360 -0.3103  0.8772
 3232SOL    HW121155   2.619   0.822   7.824  1.1700 -2.0600 -0.1298
 3232SOL    HW221156   2.516   0.888   7.739 -1.4618 -0.4864  1.8181
 3233SOL     OW21157   0.119   2.606   6.788 -0.4788  0.1276 -1.2445
 3233SOL    HW121158   0.136   2.692   6.750 -0.8068  0.0480 -1.5748
 3233SOL    HW221159   0.063   2.627   6.862  0.2540 -0.2634 -0.5795
 3234SOL     OW21160   3.912   3.555   2.752  0.1664 -0.3542 -0.2473
 3234SOL    HW121161   3.957   3.508   2.822 -0.4112  0.5325  0.7125
 3234SOL    HW221162   3.980   3.618   2.728  1.4113 -2.3911 -2.0946
 3235SOL     OW21163   1.005   1.184  12.380  0.2119  0.3890  0.5404
 3235SOL    HW121164   1.054   1.266  12.376 -1.0914  1.1591  0.4992
 3235SOL    HW221165   1.048   1.149  12.302  0.0279  1.0958  0.1229
 3236SOL     OW21166   0.463   0.370   3.497 -0.3676  0.2954  0.0298
 3236SOL    HW121167   0.438   0.369   3.405 -1.3997 -2.5081  0.3360
 3236SOL    HW221168   0.536   0.432   3.501 -0.4195  0.2995  1.0638
 3237SOL     OW21169   0.162   1.627   7.771  0.0742  0.5526 -1.1812
 3237SOL    HW121170   0.090   1.576   7.735  1.6501 -1.3114 -1.7095
 3237SOL    HW221171   0.231   1.602   7.708  1.9292  1.8285  0.3388
 3238SOL     OW21172   3.814   0.260   1.251 -0.1395  0.8192  0.2896
 3238SOL    HW121173   3.843   0.294   1.335  0.5703  1.6259 -0.2803
 3238SOL    HW221174   3.897   0.273   1.205  0.2793 -1.3700  0.4218
 3239SOL     OW21175   4.197   1.094   3.186  0.7582  0.0474 -0.1732
 3239SOL    HW121176   4.249   1.143   3.250 -0.5252 -0.3794  1.1834
 3239SOL    HW221177   4.256   1.035   3.138  0.8874 -0.0186  0.0672
 3240SOL     OW21178   0.109   2.628  15.318  0.2981  0.1631  0.4687
 3240SOL    HW121179   0.179   2.644  15.381 -0.8780 -1.1913  2.1123
 3240SOL    HW221180   0.156   2.584  15.247 -0.6112 -1.2338  0.7275
 3241SOL     OW21181   0.167   1.521   6.514 -0.0873  0.0475  0.1340
 3241SOL    HW121182   0.158   1.455   6.446 -1.7314  1.1077 -0.6560
 3241SOL    HW221183   0.113   1.589   6.475  0.2444  0.5374  0.5271
 3242SOL     OW21184   2.761   4.259   4.305 -0.2868 -0.7636 -1.1596
 3242SOL    HW121185   2.673   4.234   4.275 -1.1632  2.3080 -1.2245
 3242SOL    HW221186   2.805   4.175   4.301 -0.1692 -0.7314 -0.5786
 3243SOL     OW21187   2.914   3.631   2.066  0.1064  0.3035 -0.3713
 3243SOL    HW121188   2.990   3.575   2.084  0.0845  0.1783 -0.6718
 3243SOL    HW221189   2.889   3.580   1.989 -1.6398  0.3955  0.1371
 3244SOL     OW21190   1.612   1.450   4.028 -0.5780 -0.0930  0.0996
 3244SOL    HW121191   1.651   1.460   4.115  0.1631  2.2803 -0.5069
 3244SOL    HW221192   1.548   1.380   4.043 -0.4409 -0.1014  0.6407
 3245SOL     OW21193   4.269   3.247   1.966  0.3081 -0.5027 -0.0811
 3245SOL    HW121194   4.355   3.288   1.975 -0.2269  0.5726  0.0272
 3245SOL    HW221195   4.268   3.205   1.880  3.3898  0.7753 -0.7365
 3246SOL     OW21196   3.977   2.159   7.204  0.0942  0.2156 -0.4293
 3246SOL    HW121197   3.932   2.198   7.278 -1.4626  0.8912 -1.7386
 3246SOL    HW221198   4.059   2.139   7.250 -1.7760 -2.7795  1.6202
 3247SOL     OW21199   0.516   4.681  10.723  0.1237 -1.0991  0.0131
 3247SOL    HW121200   0.434   0.001  10.745  1.1036  0.4875  0.5083
 3247SOL    HW221201   0.544   4.701  10.633 -0.5807 -1.2699 -0.2459
 3248SOL     OW21202   4.304   1.937  12.517 -0.2001  0.2508 -0.1109
 3248SOL    HW121203   4.318   1.988  12.438 -1.5377  0.3884 -0.2613
 3248SOL    HW221204   4.215   1.959  12.545 -0.0415 -0.0276  0.6347
 3249SOL     OW21205   4.416   2.171   1.438 -0.7234 -0.5236 -0.0529
 3249SOL    HW121206   4.401   2.175   1.532  0.3569  0.9202  0.0577
 3249SOL    HW221207   4.340   2.116   1.422 -1.4562  0.5693 -0.2984
 3250SOL     OW21208   4.544   1.708   5.881  0.1929 -0.1499 -0.0187
 3250SOL    HW121209   4.451   1.734   5.886  0.1556  0.0189 -1.6195
 3250SOL    HW221210   4.534   1.613   5.872  1.2967 -0.2140 -0.5286
 3251SOL     OW21211   1.422   0.056   5.391 -0.4202  0.4879  0.0751
 3251SOL    HW121212   1.430   0.144   5.354  1.6970 -0.4237 -1.6942
 3251SOL    HW221213   1.457   0.061   5.480 -0.5673  2.0295  0.0385
 3252SOL     OW21214   1.691   0.983   5.323  0.1451 -0.0877  0.5808
 3252SOL    HW121215   1.597   0.974   5.339  0.4503 -1.6721  1.4781
 3252SOL    HW221216   1.710   0.889   5.318 -3.0808 -0.8168  2.1804
 3253SOL     OW21217   4.604   1.247   2.194  0.7119 -1.1986 -0.5277
 3253SOL    HW121218   4.653   1.265   2.114  1.1134 -0.4425 -0.1046
 3253SOL    HW221219   4.515   1.264   2.161  1.3790 -0.6148 -2.0084
 3254SOL     OW21220   3.472   2.618  11.726 -0.4178 -0.3524  0.3002
 3254SOL    HW121221   3.435   2.607  11.639 -1.6480  1.5951  0.5631
 3254SOL    HW221222   3.533   2.688  11.702  0.8350 -0.6035  2.6935
 3255SOL     OW21223   1.505   0.464  11.411  0.3525 -0.1588  0.0634
 3255SOL    HW121224   1.571   0.513  11.461 -1.8474  0.4052  2.4403
 3255SOL    HW221225   1.435   0.442  11.473 -0.2746 -1.6996 -1.1997
 3256SOL     OW21226   3.494   4.255   6.472 -0.4081 -0.5232  0.4721
 3256SOL    HW121227   3.435   4.274   6.545  0.1486 -1.2364  1.1223
 3256SOL    HW221228   3.556   4.191   6.509 -2.3971 -0.8802  3.2336
 3257SOL     OW21229   0.688   3.006   6.610  0.5343 -0.1690  0.0972
 3257SOL    HW121230   0.726   3.080   6.657  2.0400 -0.9227  0.0649
 3257SOL    HW221231   0.636   3.046   6.541  2.2375  0.0275 -1.0713
 3258SOL     OW21232   4.702   1.206  13.274  0.3724 -0.2913  0.2436
 3258SOL    HW121233   4.673   1.154  13.349 -1.5508  0.3644 -0.0526
 3258SOL    HW221234   4.704   1.293  13.314  1.4328 -0.4269  0.4731
 3259SOL     OW21235   4.337   0.298   6.485  0.2031 -0.6282  0.2738
 3259SOL    HW121236   4.415   0.275   6.434  0.0578 -0.8617  0.1531
 3259SOL    HW221237   4.278   0.306   6.409  0.8810 -0.3217 -0.2228
 3260SOL     OW21238   4.554   3.148  10.840 -0.2726 -0.1188  0.1415
 3260SOL    HW121239   4.499   3.071  10.855  2.2140 -2.0223 -0.5358
 3260SOL    HW221240   4.489   3.212  10.811 -0.2716  0.0144  0.4280
 3261SOL     OW21241   4.338   2.084   9.144 -0.1312  0.3173  0.1857
 3261SOL    HW121242   4.409   2.106   9.205  0.0277 -0.9086  0.4405
 3261SOL    HW221243   4.343   2.154   9.079 -0.0665 -1.0894 -1.3147
 3262SOL     OW21244   3.598   3.004   5.608 -0.3669  0.1384  0.1519
 3262SOL    HW121245   3.659   3.012   5.535 -0.9695  2.0163 -0.1614
 3262SOL    HW221246   3.567   3.094   5.618 -0.5080  0.1436 -0.3495
 3263SOL     OW21247   2.179   2.540   8.439  0.5008 -0.2956  0.3932
 3263SOL    HW121248   2.124   2.586   8.501 -0.0832 -0.3541 -0.0829
 3263SOL    HW221249   2.113   2.510   8.377  0.5719 -1.7666  1.0326
 3264SOL     OW21250   2.632   1.532   3.879 -0.5517  0.5935 -0.0052
 3264SOL    HW121251   2.718   1.562   3.848  0.3136 -1.2409  0.6086
 3264SOL    HW221252   2.648   1.545   3.972 -1.3432  0.8733  0.0835
 3265SOL     OW21253   3.556   0.103   4.556  0.0699  0.5886 -0.0739
 3265SOL    HW121254   3.478   0.078   4.507 -0.7725  1.7489  0.6738
 3265SOL    HW221255   3.550   0.042   4.630  0.4535  1.9495  1.0725
 3266SOL     OW21256   1.756   4.283   3.562  0.1670  0.5858 -0.2195
 3266SOL    HW121257   1.668   4.302   3.528  0.8647  1.9352 -1.2543
 3266SOL    HW221258   1.726   4.213   3.619 -0.7937  0.5050 -0.8213
 3267SOL     OW21259   1.732   1.718   3.564  0.1779  0.0264  0.0592
 3267SOL    HW121260   1.819   1.753   3.544  1.5751 -2.3833  1.9400
 3267SOL    HW221261   1.678   1.797   3.556  0.7347  0.1286 -2.6001
 3268SOL     OW21262   4.349   2.234   1.688 -0.5156 -0.4086 -0.1295
 3268SOL    HW121263   4.373   2.200   1.774 -3.3147 -0.3046  0.6778
 3268SOL    HW221264   4.288   2.308   1.697 -1.7264 -1.3374 -0.7938
 3269SOL     OW21265   2.369   1.762   8.637 -0.4045 -0.3099 -0.2687
 3269SOL    HW121266   2.292   1.720   8.598 -0.2419 -1.3024  0.4774
 3269SOL    HW221267   2.438   1.702   8.607 -2.0403 -2.9339  1.2823
 3270SOL     OW21268   1.055   1.325   6.897 -0.0289  0.1099  0.4908
 3270SOL    HW121269   1.015   1.240   6.912 -1.7199  0.6984 -0.7271
 3270SOL    HW221270   0.980   1.375   6.929 -1.0901 -0.6397 -0.8506
 3271SOL     OW21271   3.772   1.515   6.037  0.0000 -0.0235  0.0609
 3271SOL    HW121272   3.867   1.526   6.032  0.0936 -0.4592  0.8302
 3271SOL    HW221273   3.762   1.479   6.125  0.0068 -0.6451 -0.1942
 3272SOL     OW21274   4.704   3.508   5.228  0.1582  0.4482  0.5506
 3272SOL    HW121275   0.049   3.573   5.220  0.3831  0.2247  0.7018
 3272SOL    HW221276   4.699   3.488   5.321 -0.4070  1.6102  0.7721
 3273SOL     OW21277   0.149   0.546   7.084  0.1189 -0.1023 -0.0758
 3273SOL    HW121278   0.156   0.636   7.118  1.4006  0.0320 -0.7085
 3273SOL    HW221279   0.062   0.544   7.046  0.1630  1.1087 -0.2489
 3274SOL     OW21280   4.047   2.873  10.166 -0.2475 -0.1392 -0.0815
 3274SOL    HW121281   4.002   2.789  10.175 -2.1634  0.8758 -0.0364
 3274SOL    HW221282   4.129   2.844  10.127 -0.4245 -0.1076 -0.4713
 3275SOL     OW21283   3.448   3.296   6.466 -0.3995  0.3569  0.7752
 3275SOL    HW121284   3.379   3.235   6.489  0.3931  0.0164  2.2383
 3275SOL    HW221285   3.502   3.276   6.542  1.2985  1.7320 -0.0512
 3276SOL     OW21286   2.342   0.283   3.553 -0.1626 -0.2013  0.6561
 3276SOL    HW121287   2.375   0.289   3.642  0.9099  1.5269  0.1427
 3276SOL    HW221288   2.356   0.374   3.527 -1.2520 -0.3018 -0.3144
 3277SOL     OW21289   2.953   2.052   3.568  0.3067 -0.5256  0.4610
 3277SOL    HW121290   2.965   2.008   3.652 -0.9238 -0.6734  0.5547
 3277SOL    HW221291   2.895   2.126   3.586  1.7061  0.6073  0.3644
 3278SOL     OW21292   4.341   3.321   7.916 -0.7346  0.3663 -0.1237
 3278SOL    HW121293   4.365   3.242   7.868 -0.1330  1.9297 -2.3684
 3278SOL    HW221294   4.335   3.383   7.844 -2.9346 -1.6503 -1.6849
 3279SOL     OW21295   0.932   4.068   6.078  0.3079  0.0328 -0.9619
 3279SOL    HW121296   0.879   4.110   6.146  1.0439  0.0863 -0.4185
 3279SOL    HW221297   0.949   4.143   6.022  0.9832 -0.2285 -1.1123
 3280SOL     OW21298   3.362   0.945   0.558  0.1645 -0.6329  0.0963
 3280SOL    HW121299   3.361   0.919   0.466  4.1236  2.1887 -0.7783
 3280SOL    HW221300   3.278   0.908   0.584 -0.2938 -1.3287 -2.4118
 3281SOL     OW21301   4.380   2.596   2.995 -0.1887 -0.3201 -0.5518
 3281SOL    HW121302   4.388   2.513   3.042  0.1230 -0.3084 -0.5908
 3281SOL    HW221303   4.470   2.627   3.002 -0.1317 -0.4750 -0.6071
 3282SOL     OW21304   2.799   1.165  10.925 -0.7312  0.0266  0.4239
 3282SOL    HW121305   2.720   1.111  10.922 -0.5024 -0.1992 -1.7046
 3282SOL    HW221306   2.847   1.125  10.853 -1.9019 -0.8874  0.1521
 3283SOL     OW21307   1.010   2.153  14.784 -0.0739  0.0248  0.1411
 3283SOL    HW121308   1.076   2.123  14.847 -0.6734 -0.0351  0.7339
 3283SOL    HW221309   0.937   2.174  14.842  0.1225  1.1715 -0.0091
 3284SOL     OW21310   3.684   1.100   7.280  0.0365 -0.0232 -0.4453
 3284SOL    HW121311   3.596   1.137   7.277 -0.6213 -1.2972  2.4795
 3284SOL    HW221312   3.735   1.177   7.305 -0.6581  0.6213 -1.0073
 3285SOL     OW21313   3.211   1.654   2.807 -0.9167  0.1901 -0.0234
 3285SOL    HW121314   3.266   1.579   2.786 -0.7207  0.6416 -1.1210
 3285SOL    HW221315   3.269   1.675   2.880 -1.5408 -0.4820  0.6702
 3286SOL     OW21316   1.096   2.312   6.840  0.8929 -0.4272  0.2589
 3286SOL    HW121317   1.008   2.291   6.806  0.7670  0.6939 -0.0802
 3286SOL    HW221318   1.070   2.326   6.931 -0.0259  0.3258 -0.1211
 3287SOL     OW21319   0.476   1.748   7.075  0.0598  0.2061 -0.3179
 3287SOL    HW121320   0.440   1.837   7.069 -0.6632 -0.0352  0.2794
 3287SOL    HW221321   0.552   1.764   7.130  0.3164 -0.8447 -0.3627
 3288SOL     OW21322   1.373   1.193  17.011  0.3223 -0.4530  0.2210
 3288SOL    HW121323   1.369   1.272  16.956  1.5684 -2.0657 -2.1692
 3288SOL    HW221324   1.444   1.209  17.073 -0.6736  0.0290  1.2271
 3289SOL     OW21325   0.033   2.529  15.589  0.0074 -0.0959  0.2327
 3289SOL    HW121326   0.090   2.490  15.654 -0.7694  2.0153  2.1646
 3289SOL    HW221327   0.097   2.579  15.538  0.1755  0.8421  1.3530
 3290SOL     OW21328   3.589   3.591   6.004 -0.0919  0.3020  0.7327
 3290SOL    HW121329   3.613   3.552   6.088  0.9220 -1.6353 -0.4638
 3290SOL    HW221330   3.664   3.583   5.946 -0.7483 -0.3739 -0.0344
 3291SOL     OW21331   4.629   4.606   5.717  0.0829 -0.1603 -0.2058
 3291SOL    HW121332   4.713   4.569   5.689 -0.9614 -1.7873 -1.1667
 3291SOL    HW221333   4.629   4.684   5.661  0.5745 -0.8159 -1.1170
 3292SOL     OW21334   3.504   1.641   2.670 -0.0679 -0.8507  0.0938
 3292SOL    HW121335   3.448   1.565   2.663 -1.1060  0.0122 -0.9450
 3292SOL    HW221336   3.593   1.605   2.666 -0.6951 -2.2258 -1.6901
 3293SOL     OW21337   2.744   2.336  15.798 -0.0048  0.2041  0.3327
 3293SOL    HW121338   2.691   2.415  15.794 -0.1862  0.0460 -0.2484
 3293SOL    HW221339   2.828   2.370  15.767 -1.0127  1.3613 -1.0894
 3294SOL     OW21340   2.003   4.554  10.475 -0.2067  0.0945  0.4442
 3294SOL    HW121341   1.910   4.547  10.453  0.2214  0.1056 -1.3447
 3294SOL    HW221342   1.992   4.617  10.547 -0.4046 -0.2113  0.6822
 3295SOL     OW21343   1.981   1.718   8.146 -0.4625  0.5997 -0.2834
 3295SOL    HW121344   1.939   1.654   8.204  0.3541 -1.3680 -1.8363
 3295SOL    HW221345   2.074   1.697   8.153 -0.7338 -0.9758 -1.3406
 3296SOL     OW21346   2.631   0.186  14.961 -0.1275  0.5531 -0.3975
 3296SOL    HW121347   2.543   0.203  14.994 -0.3177 -0.5756 -0.3209
 3296SOL    HW221348   2.610   0.125  14.891 -0.2707  1.3357 -1.0329
 3297SOL     OW21349   2.710   2.738  13.514 -0.2167 -0.2151  0.5961
 3297SOL    HW121350   2.684   2.828  13.495  1.1266 -0.0413 -0.4312
 3297SOL    HW221351   2.628   2.704  13.548 -0.1325 -0.1757  0.8424
 3298SOL     OW21352   1.476   2.073   1.642 -0.3748  0.2906  0.4050
 3298SOL    HW121353   1.555   2.101   1.595  0.0580  0.7551  1.4063
 3298SOL    HW221354   1.415   2.133   1.600  0.7254  2.2891  1.6462
 3299SOL     OW21355   3.308   2.782   8.920 -0.0800  0.1106  0.3480
 3299SOL    HW121356   3.368   2.824   8.982 -0.7414  1.2603  0.2044
 3299SOL    HW221357   3.291   2.694   8.953 -0.2019  0.7340  1.9279
 3300SOL     OW21358   1.404   1.632  17.129 -0.7545 -0.1401  0.2910
 3300SOL    HW121359   1.493   1.596  17.129 -1.5499 -1.9872 -2.7564
 3300SOL    HW221360   1.414   1.725  17.109  3.2907 -0.4149  0.9908
 3301SOL     OW21361   3.549   2.328   5.474 -0.4282  0.2344  0.2798
 3301SOL    HW121362   3.461   2.325   5.511 -0.5042  1.4800  0.1948
 3301SOL    HW221363   3.530   2.390   5.404 -0.9114 -1.4871 -1.1242
 3302SOL     OW21364   1.197   2.563   8.100 -0.3603  0.5174 -0.7276
 3302SOL    HW121365   1.284   2.599   8.117  0.4313 -0.8412 -1.8737
 3302SOL    HW221366   1.193   2.503   8.174 -0.3216 -0.5108 -1.5691
 3303SOL     OW21367   3.052   0.400   5.754 -0.4303  0.7971 -0.3765
 3303SOL    HW121368   2.998   0.441   5.687 -1.6093 -2.2141 -1.2668
 3303SOL    HW221369   3.070   0.472   5.815 -1.8054  0.2181  0.6948
 3304SOL     OW21370   3.450   2.529   5.275 -0.1443 -0.8070 -0.5767
 3304SOL    HW121371   3.427   2.470   5.203 -1.0114 -1.1191 -0.0485
 3304SOL    HW221372   3.367   2.567   5.305  1.7628  0.0763  3.6047
 3305SOL     OW21373   0.562   1.054   1.814 -0.3571 -0.2649 -0.6674
 3305SOL    HW121374   0.532   1.039   1.724 -0.8559 -0.7836 -0.4157
 3305SOL    HW221375   0.648   1.090   1.792 -0.0895  0.3184  1.3581
 3306SOL     OW21376   1.083   1.703   6.079  1.0101 -0.7670 -0.7802
 3306SOL    HW121377   1.090   1.784   6.028  0.4996  0.5980  1.3394
 3306SOL    HW221378   1.105   1.739   6.164  0.6578 -0.3635 -0.8649
 3307SOL     OW21379   0.222   2.507   8.373 -0.3089  0.5605 -0.1195
 3307SOL    HW121380   0.220   2.592   8.416 -0.4230  0.4673  0.0535
 3307SOL    HW221381   0.131   2.500   8.345 -0.5485  1.3981  0.4747
 3308SOL     OW21382   4.412   0.380   4.089  0.2466  0.7557 -0.2788
 3308SOL    HW121383   4.423   0.459   4.142 -1.0028 -0.0659  1.2302
 3308SOL    HW221384   4.409   0.410   3.998 -0.2174 -1.4843 -1.0281
 3309SOL     OW21385   3.655   4.459   8.256 -0.8509  0.5983 -0.2597
 3309SOL    HW121386   3.597   4.512   8.310 -1.2652 -0.1925  0.0686
 3309SOL    HW221387   3.711   4.428   8.328 -0.5199 -1.0259 -1.2121
 3310SOL     OW21388   4.346   4.222   2.963 -0.2902  0.2600  0.5452
 3310SOL    HW121389   4.328   4.179   3.046  0.1534 -3.1255 -1.0870
 3310SOL    HW221390   4.425   4.176   2.934 -0.6785 -1.4898  2.2624
 3311SOL     OW21391   3.992   4.661  15.761 -0.4213  0.0622 -0.0616
 3311SOL    HW121392   3.899   4.665  15.781 -0.1147 -1.1636  1.6311
 3311SOL    HW221393   4.026   4.573  15.781 -0.8968  0.1079  0.9610
 3312SOL     OW21394   1.538   0.411  12.441 -0.2860  0.2165 -0.4881
 3312SOL    HW121395   1.569   0.499  12.461  3.4302 -0.9456 -1.0721
 3312SOL    HW221396   1.519   0.435  12.350  1.4286  3.2063 -0.0537
 3313SOL     OW21397   3.770   2.374   8.990 -0.5542 -0.0895 -0.1835
 3313SOL    HW121398   3.850   2.351   9.036 -1.2276 -2.4500 -0.2394
 3313SOL    HW221399   3.711   2.392   9.063  2.2097  1.7223  1.5950
 3314SOL     OW21400   0.549   0.851   0.822 -0.6943 -0.1566  0.1157
 3314SOL    HW121401   0.594   0.925   0.780 -2.7079  0.7594 -0.4408
 3314SOL    HW221402   0.473   0.896   0.859  0.4968  1.0898  1.0946
 3315SOL     OW21403   1.148   3.580   6.858  0.3881 -0.5428 -0.4499
 3315SOL    HW121404   1.079   3.551   6.799 -0.4145 -2.7879  1.6099
 3315SOL    HW221405   1.155   3.667   6.819 -2.2027  1.3860  3.4013
 3316SOL     OW21406   2.207   3.857   1.644  0.2017 -0.4469 -0.1173
 3316SOL    HW121407   2.294   3.882   1.611 -0.3098  0.3727 -0.8430
 3316SOL    HW221408   2.189   3.944   1.680  3.3267  0.1495  0.0097
 3317SOL     OW21409   1.345   3.250   1.405 -0.3041 -0.1060 -0.1145
 3317SOL    HW121410   1.289   3.311   1.359  1.6063  0.5342 -1.5868
 3317SOL    HW221411   1.377   3.191   1.337 -0.0957  0.1814 -0.2650
 3318SOL     OW21412   4.598   0.387   2.320  0.5910 -0.3945  0.1576
 3318SOL    HW121413   4.659   0.457   2.299 -0.3391  0.1977 -0.5693
 3318SOL    HW221414   4.601   0.400   2.415  0.3404  2.0660 -0.1924
 3319SOL     OW21415   4.299   0.647  17.503  0.2366 -0.2457  0.4422
 3319SOL    HW121416   4.225   0.701  17.529  1.1131  0.8169  0.7147
 3319SOL    HW221417   4.352   0.659  17.582  1.4271 -1.6631 -0.1328
 3320SOL     OW21418   4.506   1.277   6.577 -0.4050  0.7076  0.2664
 3320SOL    HW121419   4.504   1.369   6.601  3.3615 -0.0798  3.6287
 3320SOL    HW221420   4.476   1.278   6.486  0.5758  2.7464 -0.0169
 3321SOL     OW21421   3.840   3.692   3.729  1.0224  0.0366 -0.2831
 3321SOL    HW121422   3.756   3.647   3.736  1.4109 -0.4600  1.2065
 3321SOL    HW221423   3.865   3.685   3.637 -0.2840 -1.6423 -0.5139
 3322SOL     OW21424   4.161   3.153   8.754  0.5501 -0.3663 -0.0350
 3322SOL    HW121425   4.252   3.181   8.750 -0.1024  1.8260  0.6953
 3322SOL    HW221426   4.172   3.062   8.781 -0.5371 -1.1995 -2.3876
 3323SOL     OW21427   1.212   4.550   4.461  0.1108  0.5809  0.1200
 3323SOL    HW121428   1.272   4.623   4.448 -0.7841  1.4510  0.8224
 3323SOL    HW221429   1.172   4.538   4.376 -0.9337  1.2939  0.5111
 3324SOL     OW21430   4.576   2.206   2.354  0.3130  0.2848 -0.0041
 3324SOL    HW121431   4.618   2.126   2.323 -0.8485 -0.4865  0.4050
 3324SOL    HW221432   4.584   2.191   2.448 -1.4485  1.2896  0.3019
 3325SOL     OW21433   1.364   0.619   7.318 -0.4822  0.3045 -0.2727
 3325SOL    HW121434   1.349   0.711   7.337  3.0898  0.5376  1.4788
 3325SOL    HW221435   1.371   0.594   7.411  0.5548  0.4536 -0.3111
 3326SOL     OW21436   4.525   4.322   1.519  0.0374  0.0655 -0.2173
 3326SOL    HW121437   4.497   4.282   1.602 -2.2021  0.4072 -0.8060
 3326SOL    HW221438   4.618   4.301   1.521 -0.4523 -1.9856  1.0242
 3327SOL     OW21439   2.575   3.044  13.993 -0.3247 -0.7865 -0.1169
 3327SOL    HW121440   2.617   3.034  14.079 -1.1916 -2.1361  0.1350
 3327SOL    HW221441   2.498   3.095  14.020 -1.4992 -2.4368 -0.4107
 3328SOL     OW21442   4.190   1.363   2.299 -0.2276 -0.2018  0.3789
 3328SOL    HW121443   4.276   1.404   2.283 -0.7717 -0.0992 -2.3909
 3328SOL    HW221444   4.127   1.419   2.254  0.4110  1.2180  1.2551
 3329SOL     OW21445   2.268   1.699   3.133  0.0685 -0.2080 -0.4120
 3329SOL    HW121446   2.239   1.789   3.115  0.4483  0.0637  0.3395
 3329SOL    HW221447   2.201   1.654   3.082  0.5029 -0.0501 -1.1225
 3330SOL     OW21448   3.128   3.138  10.887  0.0249 -0.2172 -0.1434
 3330SOL    HW121449   3.167   3.054  10.910  1.1000  0.5707  0.8794
 3330SOL    HW221450   3.191   3.188  10.836 -0.0023 -0.7304 -0.6834
 3331SOL     OW21451   4.293   4.389   3.812 -0.1811 -0.3211 -0.4637
 3331SOL    HW121452   4.247   4.403   3.729  0.5555  1.2393 -0.6144
 3331SOL    HW221453   4.384   4.392   3.783  0.0169  0.6057  0.2610
 3332SOL     OW21454   1.419   3.859  11.141 -0.0836 -0.5625  0.3481
 3332SOL    HW121455   1.343   3.909  11.112 -0.2183 -1.0811 -0.1997
 3332SOL    HW221456   1.395   3.819  11.225 -0.3382 -2.3814 -0.5804
 3333SOL     OW21457   1.138   0.890   1.340  0.5857  0.4856  0.1328
 3333SOL    HW121458   1.075   0.824   1.313  2.0108 -0.0962 -1.7336
 3333SOL    HW221459   1.127   0.884   1.435  1.6218 -0.9765  0.1697
 3334SOL     OW21460   1.016   4.043  17.468 -0.5532 -0.0613 -0.4190
 3334SOL    HW121461   0.998   3.952  17.490 -0.1949 -0.1576 -0.5184
 3334SOL    HW221462   0.928   4.080  17.471  0.1609  1.6950 -0.9216
 3335SOL     OW21463   3.886   2.833   0.712 -0.0086 -0.4573  0.0066
 3335SOL    HW121464   3.825   2.868   0.647  2.2709  0.4088 -1.6667
 3335SOL    HW221465   3.952   2.813   0.646  1.2469  1.1900  0.7737
 3336SOL     OW21466   1.947   0.162   0.019  0.0637  0.3607  0.1325
 3336SOL    HW121467   2.001   0.199  17.646  0.7898  0.8138  0.9195
 3336SOL    HW221468   2.014   0.171   0.087 -0.9612  0.7462  1.0930
 3337SOL     OW21469   0.503   3.090   8.799 -0.0331 -0.2752 -0.0312
 3337SOL    HW121470   0.534   3.169   8.753 -2.0785 -0.4638 -1.7248
 3337SOL    HW221471   0.495   3.118   8.890  2.0371  1.0647 -0.2637
 3338SOL     OW21472   4.693   1.236   6.057  0.0452  0.2522  0.1901
 3338SOL    HW121473   4.661   1.161   6.008  1.1649  0.3354 -0.6879
 3338SOL    HW221474   0.064   1.231   6.048  0.0519 -0.5172  0.7261
 3339SOL     OW21475   1.767   2.941  15.081 -0.1091 -0.3820  0.0220
 3339SOL    HW121476   1.851   2.981  15.103 -0.1185 -0.7225  0.6675
 3339SOL    HW221477   1.813   2.861  15.056 -1.6258 -2.0690  2.7315
 3340SOL     OW21478   0.133   2.771   4.595  0.0131  0.1517  0.1779
 3340SOL    HW121479   0.122   2.855   4.641 -0.2815 -0.2633  0.8612
 3340SOL    HW221480   0.129   2.806   4.505  2.9382  0.3842  0.1428
 3341SOL     OW21481   4.304   3.366   6.804  0.4021  0.1583  0.1745
 3341SOL    HW121482   4.353   3.422   6.865  0.3208  0.3819  0.0364
 3341SOL    HW221483   4.272   3.295   6.859  0.2054  0.6176  0.6600
 3342SOL     OW21484   4.171   2.301   0.470 -0.2176  0.2267  0.0381
 3342SOL    HW121485   4.242   2.274   0.412 -1.8865 -2.0679 -0.9762
 3342SOL    HW221486   4.201   2.386   0.502  0.2286  0.0907 -0.0196
 3343SOL     OW21487   0.926   2.767  13.284 -0.5814  0.0116  0.4823
 3343SOL    HW121488   0.868   2.767  13.361 -0.4742 -1.1035  0.5590
 3343SOL    HW221489   0.992   2.699  13.299 -0.0112 -0.5545 -4.7362
 3344SOL     OW21490   0.424   1.464   6.520  0.4632 -0.1790  0.2067
 3344SOL    HW121491   0.331   1.481   6.533  0.6495 -0.6699  2.0899
 3344SOL    HW221492   0.451   1.555   6.506 -2.5827  0.4555 -1.4777
 3345SOL     OW21493   3.194   2.311  15.610 -0.2861 -0.5559  0.6820
 3345SOL    HW121494   3.184   2.231  15.559  0.8607 -1.0909  1.3119
 3345SOL    HW221495   3.282   2.296  15.644  0.1755  0.3671 -0.1126
 3346SOL     OW21496   1.330   4.132   0.287  0.5577 -0.2829 -0.3172
 3346SOL    HW121497   1.371   4.218   0.293  0.8634 -0.6253  2.6894
 3346SOL    HW221498   1.400   4.073   0.259  1.4195  0.9264 -0.6830
 3347SOL     OW21499   0.552   1.442   1.190  0.1182 -0.1681  1.2460
 3347SOL    HW121500   0.498   1.364   1.175 -0.0245 -0.4923  3.4217
 3347SOL    HW221501   0.636   1.401   1.211 -0.1070 -0.7223  1.0693
 3348SOL     OW21502   0.194   0.858   4.263 -0.1035 -0.2069 -0.7871
 3348SOL    HW121503   0.271   0.879   4.316  0.2893 -2.3343 -0.5152
 3348SOL    HW221504   0.226   0.776   4.226 -0.2280 -0.6808  0.1316
 3349SOL     OW21505   4.400   4.230  10.085  0.3075 -0.2318 -0.6581
 3349SOL    HW121506   4.485   4.251  10.047  1.5139 -2.3930  0.7849
 3349SOL    HW221507   4.404   4.254  10.178 -0.9743  2.8657 -1.4251
 3350SOL     OW21508   1.205   4.115   4.122  0.3327 -0.2034  0.3974
 3350SOL    HW121509   1.165   4.059   4.189  2.9861 -3.2867 -0.6270
 3350SOL    HW221510   1.130   4.149   4.073  0.5956  0.0265  0.1560
 3351SOL     OW21511   2.151   1.330   3.180  0.3660  0.2406 -0.5364
 3351SOL    HW121512   2.090   1.287   3.241 -0.9458  1.3656 -1.0554
 3351SOL    HW221513   2.193   1.379   3.250 -1.0101  0.9070 -0.1734
 3352SOL     OW21514   0.343   0.665   0.994  0.6144  0.3581 -0.3021
 3352SOL    HW121515   0.273   0.599   0.998  1.6386 -0.7958 -1.1697
 3352SOL    HW221516   0.282   0.738   0.987  1.5983  0.9459 -2.7086
 3353SOL     OW21517   3.400   0.228   7.724  0.4702 -0.3798  0.5533
 3353SOL    HW121518   3.370   0.139   7.742  0.0784 -0.4130 -0.2790
 3353SOL    HW221519   3.485   0.229   7.768 -0.4587  0.4122  2.3468
 3354SOL     OW21520   2.756   2.108   4.054 -0.4697  0.3102  0.1890
 3354SOL    HW121521   2.718   2.038   4.002  1.0765  0.9187 -1.7692
 3354SOL    HW221522   2.701   2.183   4.030 -0.1395  0.6214  0.3856
 3355SOL     OW21523   1.539   2.609   2.349  0.1156 -0.1184  0.3068
 3355SOL    HW121524   1.623   2.644   2.379  0.3614 -0.4759  0.0442
 3355SOL    HW221525   1.578   2.535   2.301  0.8112  0.2260  0.3383
 3356SOL     OW21526   4.422   1.335   7.760 -0.7989  0.3899 -0.0184
 3356SOL    HW121527   4.346   1.393   7.764 -1.1189 -0.0895  0.9639
 3356SOL    HW221528   4.387   1.256   7.800 -3.2978  2.0387  1.0346
 3357SOL     OW21529   2.198   3.345   3.957  0.0950 -0.5551 -0.0770
 3357SOL    HW121530   2.210   3.377   3.867  3.5052  0.1384  0.6173
 3357SOL    HW221531   2.108   3.374   3.975  0.0233 -0.6390 -0.2937
 3358SOL     OW21532   1.257   4.085   2.798  0.1888 -0.4044  0.3408
 3358SOL    HW121533   1.326   4.075   2.733  0.5767  2.6396  0.2809
 3358SOL    HW221534   1.224   3.995   2.801 -1.3890  0.1131 -1.2166
 3359SOL     OW21535   1.481   2.826   3.066 -0.0501 -0.8200  0.4538
 3359SOL    HW121536   1.536   2.778   3.004  1.1128 -0.7686  1.4559
 3359SOL    HW221537   1.536   2.904   3.076 -1.1204 -0.4144  3.1549
 3360SOL     OW21538   2.499   3.164   4.372 -0.2228  0.1438 -0.0043
 3360SOL    HW121539   2.493   3.253   4.407  1.0365  0.1873  0.1204
 3360SOL    HW221540   2.458   3.170   4.286 -0.8292 -0.6374  0.2332
 3361SOL     OW21541   3.833   4.240   7.150  0.1573  0.7078 -0.2615
 3361SOL    HW121542   3.831   4.329   7.113 -3.7177  0.5002 -0.5209
 3361SOL    HW221543   3.767   4.237   7.218 -0.4730 -2.1319 -1.0162
 3362SOL     OW21544   0.487   1.220   5.550 -0.1207  0.2071  0.6111
 3362SOL    HW121545   0.400   1.244   5.582  0.0889  1.8339 -0.0130
 3362SOL    HW221546   0.464   1.141   5.501  1.7700 -0.1609  0.3201
 3363SOL     OW21547   0.804   3.030  16.850  0.3777 -0.2923 -0.0937
 3363SOL    HW121548   0.743   3.019  16.923 -0.6197 -0.2332 -0.9235
 3363SOL    HW221549   0.786   2.948  16.805  1.2891  0.4891 -1.8859
 3364SOL     OW21550   0.992   1.736   4.068 -0.3957 -0.0917 -0.1589
 3364SOL    HW121551   1.076   1.773   4.092 -0.6571 -0.8221  1.8343
 3364SOL    HW221552   0.988   1.769   3.978 -0.9516  0.0328 -0.0897
 3365SOL     OW21553   4.662   0.957   3.444  0.0366  0.2001  0.1132
 3365SOL    HW121554   4.680   0.899   3.370  0.8815  0.1282  0.3679
 3365SOL    HW221555   4.604   0.904   3.498  0.8356  0.3794  1.1367
 3366SOL     OW21556   2.443   2.247   5.795 -0.1566 -0.0314 -0.3952
 3366SOL    HW121557   2.524   2.296   5.791 -0.4683  0.4386 -0.8824
 3366SOL    HW221558   2.439   2.214   5.885 -1.6350  2.8191  0.5787
 3367SOL     OW21559   2.486   4.247   1.388 -0.5353  0.8168  0.2104
 3367SOL    HW121560   2.535   4.167   1.369 -1.4349  0.3218 -0.0214
 3367SOL    HW221561   2.402   4.235   1.344 -0.9617 -0.2426  1.2980
 3368SOL     OW21562   4.549   0.468   7.190  0.3728  0.3816  0.0434
 3368SOL    HW121563   4.517   0.379   7.175 -1.3811  1.2876 -1.5047
 3368SOL    HW221564   4.556   0.506   7.103 -0.6302 -0.9348 -0.6124
 3369SOL     OW21565   0.114   3.084  16.758 -0.9399 -0.5249  0.0677
 3369SOL    HW121566   0.037   3.031  16.780 -0.5212 -0.4219  1.7937
 3369SOL    HW221567   0.180   3.039  16.810 -1.8603  0.9576  2.5633
 3370SOL     OW21568   2.690   4.501  13.252  0.1054 -0.2267 -0.1143
 3370SOL    HW121569   2.658   4.488  13.341 -1.0005  0.6120 -0.3906
 3370SOL    HW221570   2.735   4.417  13.246 -1.6945 -1.1526 -0.6077
 3371SOL     OW21571   0.340   2.955   4.910  0.0604  0.8723  0.2414
 3371SOL    HW121572   0.259   2.967   4.860  0.6562 -0.5159 -1.0525
 3371SOL    HW221573   0.408   2.941   4.844 -0.7849 -1.8571 -0.0531
 3372SOL     OW21574   0.433   0.726   4.779  0.0105  0.8590  0.4891
 3372SOL    HW121575   0.448   0.723   4.873 -0.0713  2.0069  0.5388
 3372SOL    HW221576   0.356   0.784   4.775  0.2090  1.0343 -0.8473
 3373SOL     OW21577   2.296   1.289   5.273  0.0262  0.2305 -0.4689
 3373SOL    HW121578   2.368   1.226   5.271  0.0984  0.3144 -0.5487
 3373SOL    HW221579   2.290   1.273   5.367  1.6419  1.0402 -0.2171
 3374SOL     OW21580   2.062   0.530   5.151 -0.0237 -0.2221  1.1717
 3374SOL    HW121581   2.023   0.549   5.066  1.8844  0.2795  0.4105
 3374SOL    HW221582   2.153   0.550   5.129 -0.0228 -1.0304  0.4864
 3375SOL     OW21583   2.753   2.659   4.329  0.2372  0.8503  0.0559
 3375SOL    HW121584   2.664   2.663   4.366  0.8349 -0.3911  1.6298
 3375SOL    HW221585   2.771   2.752   4.344  0.1327  0.8217  0.3603
 3376SOL     OW21586   2.243   4.452  14.782  0.4327 -0.1213 -0.0965
 3376SOL    HW121587   2.163   4.504  14.772 -0.4803 -1.3279  0.9283
 3376SOL    HW221588   2.222   4.374  14.730  1.3510 -0.1803 -0.3779
 3377SOL     OW21589   1.238   3.477   3.383  0.5963 -0.2092  0.1067
 3377SOL    HW121590   1.326   3.509   3.401  0.9343 -1.9321  1.6556
 3377SOL    HW221591   1.257   3.394   3.339  1.1765 -0.1555  0.2674
 3378SOL     OW21592   3.224   1.335   3.162  0.0625 -0.7593 -0.0705
 3378SOL    HW121593   3.314   1.364   3.147 -0.1882 -0.7733 -1.6486
 3378SOL    HW221594   3.249   1.267   3.225  1.9437 -1.4667 -1.5938
 3379SOL     OW21595   1.109   3.041   0.589  0.2550  0.2259  0.0753
 3379SOL    HW121596   1.083   3.133   0.584  0.8762  0.1934 -3.8586
 3379SOL    HW221597   1.106   3.024   0.495 -2.9505  0.6704  0.1094
 3380SOL     OW21598   2.702   4.284  16.334 -0.1535 -0.3925  0.8853
 3380SOL    HW121599   2.644   4.347  16.292  0.0965  0.0893  1.2580
 3380SOL    HW221600   2.783   4.320  16.298 -1.3480  0.6312 -0.7508
 3381SOL     OW21601   1.162   1.139  16.350 -0.0914 -0.0540  0.8380
 3381SOL    HW121602   1.069   1.117  16.357 -0.6540  1.9664 -0.2338
 3381SOL    HW221603   1.177   1.065  16.291  0.1484 -0.2413  1.1321
 3382SOL     OW21604   3.228   2.345   7.525 -0.0839  0.1009 -0.4519
 3382SOL    HW121605   3.221   2.406   7.598 -2.0245 -0.7668  0.0780
 3382SOL    HW221606   3.316   2.311   7.543  0.4586  0.8460 -1.6626
 3383SOL     OW21607   3.379   1.309  16.819  0.1380 -0.3776  0.3435
 3383SOL    HW121608   3.318   1.358  16.763  0.8633 -0.5260 -0.5752
 3383SOL    HW221609   3.334   1.226  16.833  0.8624 -0.9120 -0.4737
 3384SOL     OW21610   3.491   1.769   6.916  0.0480  0.5204  0.4867
 3384SOL    HW121611   3.554   1.842   6.923  0.7296 -0.1118  1.0171
 3384SOL    HW221612   3.429   1.806   6.854 -0.8637  0.2783  1.2587
 3385SOL     OW21613   1.102   4.151   5.520 -0.4076  0.1655 -0.2983
 3385SOL    HW121614   1.103   4.211   5.446 -1.0245 -0.7936 -1.0698
 3385SOL    HW221615   1.029   4.176   5.577  0.6420 -2.5276  2.2335
 3386SOL     OW21616   1.128   3.320   4.588  0.5520 -0.4915 -0.2557
 3386SOL    HW121617   1.091   3.300   4.674  0.5443  0.7211  0.0241
 3386SOL    HW221618   1.188   3.245   4.582 -0.5529 -1.4555  0.7684
 3387SOL     OW21619   4.473   1.490   6.221 -0.5297 -1.0120 -0.0655
 3387SOL    HW121620   4.402   1.461   6.278 -0.2149 -1.5996  0.0261
 3387SOL    HW221621   4.436   1.567   6.178  1.4819  0.1501  0.3217
 3388SOL     OW21622   0.785   0.032   5.837  0.1802  0.3666 -0.0619
 3388SOL    HW121623   0.781   0.049   5.931 -0.5782 -2.8358  0.4808
 3388SOL    HW221624   0.794   0.120   5.801 -0.2933  0.1793 -0.6278
 3389SOL     OW21625   0.169   4.055   7.896 -0.0909 -0.3262 -0.2673
 3389SOL    HW121626   0.256   4.076   7.862 -0.0821 -1.9871 -1.2558
 3389SOL    HW221627   0.127   4.138   7.874  0.7386  0.5042  1.2494
 3390SOL     OW21628   1.686   1.674   6.323 -0.0327  0.8265 -0.2475
 3390SOL    HW121629   1.700   1.659   6.230  2.7514 -1.9163  0.6229
 3390SOL    HW221630   1.737   1.752   6.345 -2.5867  2.2884  0.5195
 3391SOL     OW21631   1.818   3.499  15.206 -0.6759  0.1044 -0.3863
 3391SOL    HW121632   1.766   3.571  15.168 -2.4239 -1.0249 -0.1164
 3391SOL    HW221633   1.769   3.483  15.287  0.6834 -1.9482  0.0009
 3392SOL     OW21634   3.894   2.269   9.961 -0.1685 -1.0536  0.3461
 3392SOL    HW121635   3.897   2.210  10.036 -0.5106  1.9700  2.7683
 3392SOL    HW221636   3.960   2.329   9.994 -0.5271 -0.9542  0.8872
 3393SOL     OW21637   2.055   3.108   9.727 -0.7520  0.0745  0.3735
 3393SOL    HW121638   2.029   3.195   9.758  2.0696  1.0677 -0.0061
 3393SOL    HW221639   2.150   3.121   9.720 -0.4190 -2.1147  0.8455
 3394SOL     OW21640   2.678   1.661   5.979 -0.3844  0.1535 -0.1098
 3394SOL    HW121641   2.609   1.683   5.916 -1.5427 -0.0368  1.0959
 3394SOL    HW221642   2.729   1.593   5.935 -0.7057 -1.3802  1.8783
 3395SOL     OW21643   3.462   4.129   7.010 -0.3584  0.1442 -0.7382
 3395SOL    HW121644   3.512   4.062   6.964 -0.6026 -1.0290  0.6875
 3395SOL    HW221645   3.369   4.117   6.995 -0.5054  1.0333 -0.5222
 3396SOL     OW21646   1.554   2.663   5.281  0.5393  0.2978 -0.4091
 3396SOL    HW121647   1.576   2.663   5.188  1.1712  3.7905 -0.2855
 3396SOL    HW221648   1.632   2.687   5.331  1.7789 -1.1679 -1.6467
 3397SOL     OW21649   3.037   1.682  16.177 -0.1269 -0.0877 -0.0040
 3397SOL    HW121650   3.059   1.770  16.206 -0.5358 -0.0624  0.2225
 3397SOL    HW221651   2.965   1.649  16.231  0.0346 -0.3533  0.0484
 3398SOL     OW21652   3.949   0.357   2.292 -0.0143 -0.3451  0.3921
 3398SOL    HW121653   3.963   0.410   2.370  0.3859  2.3057 -1.4761
 3398SOL    HW221654   4.010   0.284   2.303  0.8051  0.2494 -0.1938
 3399SOL     OW21655   2.295   2.550   3.370  0.0412 -0.2928  0.2876
 3399SOL    HW121656   2.383   2.512   3.364 -0.2152 -0.7021 -0.9143
 3399SOL    HW221657   2.242   2.470   3.376  0.0315 -0.3681 -0.7508
 3400SOL     OW21658   0.271   3.868   6.097  0.1189  0.1650 -0.5003
 3400SOL    HW121659   0.337   3.863   6.028 -0.4187 -1.5154 -0.8842
 3400SOL    HW221660   0.278   3.959   6.127 -0.3746 -0.2248  0.8193
 3401SOL     OW21661   2.082   4.587   1.806  0.3975 -0.2803 -0.0092
 3401SOL    HW121662   2.169   4.626   1.802  1.6878 -3.4340 -3.1340
 3401SOL    HW221663   2.076   4.539   1.723 -2.6640 -0.4820  0.3415
 3402SOL     OW21664   0.749   0.264   1.745  0.0807 -0.7847 -0.0267
 3402SOL    HW121665   0.759   0.200   1.815 -2.0510 -1.8384 -0.6961
 3402SOL    HW221666   0.746   0.343   1.798 -1.1616 -0.8102 -0.0723
 3403SOL     OW21667   2.670   2.662   6.312  0.4938 -0.2439  0.2453
 3403SOL    HW121668   2.582   2.625   6.309  0.5397 -0.2446 -1.0273
 3403SOL    HW221669   2.658   2.722   6.238 -0.0461  0.9941  1.3346
 3404SOL     OW21670   1.892   1.146   6.068  0.1211  0.1557 -0.2431
 3404SOL    HW121671   1.919   1.066   6.022  0.6206  2.3907 -3.7386
 3404SOL    HW221672   1.811   1.173   6.025  1.7694  2.0791 -2.1476
 3405SOL     OW21673   0.759   0.248   5.268  0.0046  0.0101  0.0873
 3405SOL    HW121674   0.697   0.320   5.256  2.8856  2.1962 -1.4430
 3405SOL    HW221675   0.836   0.304   5.273 -0.3727  0.4930  0.4502
 3406SOL     OW21676   2.090   0.383  12.143 -0.5404  0.2414  0.8981
 3406SOL    HW121677   2.093   0.339  12.058  4.0134  0.0579  1.1297
 3406SOL    HW221678   2.157   0.451  12.129  0.8935 -1.3353  0.0675
 3407SOL     OW21679   2.481   1.735   5.802  0.6444 -0.7287  0.1499
 3407SOL    HW121680   2.521   1.822   5.801  0.2195 -0.5087  1.3687
 3407SOL    HW221681   2.389   1.755   5.786  0.4796 -2.3644 -0.9764
 3408SOL     OW21682   0.374   2.059   2.835  0.1397  0.2997 -0.2508
 3408SOL    HW121683   0.332   1.982   2.798 -0.6285  0.0563  1.1109
 3408SOL    HW221684   0.393   2.114   2.759 -2.8754  1.2150 -0.3505
 3409SOL     OW21685   0.254   0.030   6.995 -0.1332  0.0218 -0.4557
 3409SOL    HW121686   0.160   0.017   7.005  0.0115 -1.1887 -0.6457
 3409SOL    HW221687   0.260   0.108   7.051 -1.5697 -0.5190  0.4389
 3410SOL     OW21688   2.148   1.437  13.291  0.2949  0.0719  0.3727
 3410SOL    HW121689   2.227   1.467  13.334  0.9875  0.9148 -1.4730
 3410SOL    HW221690   2.179   1.352  13.259  0.7103 -0.7400  2.9139
 3411SOL     OW21691   1.898   4.351  17.592  0.5313 -0.2391  0.3551
 3411SOL    HW121692   1.847   4.286  17.543 -0.0049  0.7763 -0.4364
 3411SOL    HW221693   1.847   4.377  17.669  2.4997  0.9172  1.2602
 3412SOL     OW21694   1.252   4.218   7.797  0.4634 -0.2465  0.4059
 3412SOL    HW121695   1.278   4.274   7.725  0.6855  1.2626  1.6521
 3412SOL    HW221696   1.327   4.224   7.856  1.8498  0.9867 -1.4966
 3413SOL     OW21697   1.901   4.253   7.298 -0.2393 -0.0407  1.1419
 3413SOL    HW121698   1.957   4.175   7.299  2.0811  1.5687 -1.1433
 3413SOL    HW221699   1.922   4.292   7.383  1.0441 -1.4882  1.4914
 3414SOL     OW21700   2.097   3.014   0.480 -0.3568 -0.3209  0.3898
 3414SOL    HW121701   2.010   3.016   0.439 -0.4361  0.2198  0.5831
 3414SOL    HW221702   2.151   2.960   0.423 -1.4089 -0.8123 -0.1465
 3415SOL     OW21703   2.658   1.442   3.428 -0.0530 -0.0097  0.0211
 3415SOL    HW121704   2.620   1.484   3.351  0.3894  0.8936  0.2982
 3415SOL    HW221705   2.584   1.398   3.469  1.9212 -3.2872  0.1123
 3416SOL     OW21706   1.495   4.360   2.087  0.4652 -0.4573  0.2107
 3416SOL    HW121707   1.489   4.377   1.993  2.0972  0.1281  0.2171
 3416SOL    HW221708   1.589   4.372   2.097  0.3266 -0.6393  1.7255
 3417SOL     OW21709   1.724   0.336   3.242 -0.3621 -0.2406  0.1969
 3417SOL    HW121710   1.777   0.258   3.224 -1.7475 -1.2213  0.4131
 3417SOL    HW221711   1.633   0.306   3.242  0.0294 -1.3994  0.5302
 3418SOL     OW21712   3.847   3.411  14.897 -0.1454 -0.2662 -0.0902
 3418SOL    HW121713   3.862   3.368  14.813 -0.8398 -1.3602  0.3390
 3418SOL    HW221714   3.761   3.441  14.868  0.8648  2.2476 -0.4201
 3419SOL     OW21715   4.445   3.414  12.188  0.0683 -0.1736  0.0395
 3419SOL    HW121716   4.370   3.411  12.128 -1.4637 -0.7105  1.9900
 3419SOL    HW221717   4.500   3.474  12.137  0.5678 -0.0671  0.7037
 3420SOL     OW21718   0.916   2.429   7.095  0.2384 -0.9014  0.0048
 3420SOL    HW121719   0.843   2.451   7.036  0.2265  0.2620  0.4652
 3420SOL    HW221720   0.904   2.337   7.118  2.0760 -0.7894  1.3188
 3421SOL     OW21721   3.295   1.271  12.781 -0.5667  0.5013  0.5001
 3421SOL    HW121722   3.293   1.212  12.856 -1.3348 -1.1782 -0.8600
 3421SOL    HW221723   3.273   1.355  12.821 -0.4994  1.3102 -1.1734
 3422SOL     OW21724   1.503   2.023   6.901  0.2067 -0.0152 -0.0603
 3422SOL    HW121725   1.483   2.091   6.965  0.3780  0.1986 -0.2391
 3422SOL    HW221726   1.451   1.947   6.929  0.2063  0.3645  1.0035
 3423SOL     OW21727   3.735   3.550   9.042  0.0495  0.1047  0.3040
 3423SOL    HW121728   3.675   3.607   9.090 -1.0528  0.6892 -1.7762
 3423SOL    HW221729   3.767   3.617   8.982  0.7502 -1.9488 -1.6326
 3424SOL     OW21730   3.584   3.380   1.603  0.3986  0.0039  0.2227
 3424SOL    HW121731   3.506   3.361   1.656 -0.5239  0.2448 -1.0543
 3424SOL    HW221732   3.637   3.303   1.623  1.6927  0.7794 -0.1971
 3425SOL     OW21733   2.208   0.413   0.893  0.6048  0.0772 -0.3161
 3425SOL    HW121734   2.226   0.325   0.926 -1.0210 -0.5795 -1.1967
 3425SOL    HW221735   2.113   0.425   0.891  0.7447  1.2202 -0.1862
 3426SOL     OW21736   3.542   0.098   1.679 -0.0225  0.0005 -0.4457
 3426SOL    HW121737   3.580   0.162   1.739  0.7237  0.7384 -1.7073
 3426SOL    HW221738   3.453   0.094   1.714  1.3680  0.9926  3.2567
 3427SOL     OW21739   4.395   4.240  15.051 -0.1533 -0.0445  0.0492
 3427SOL    HW121740   4.430   4.151  15.047  2.1428  0.8096  1.0625
 3427SOL    HW221741   4.307   4.219  15.081  0.2971 -0.5564  1.0077
 3428SOL     OW21742   3.551   0.750   8.672  0.2745 -0.4385  0.3294
 3428SOL    HW121743   3.513   0.716   8.753  1.2306  0.5637  1.1920
 3428SOL    HW221744   3.621   0.685   8.661 -0.7431 -1.2504 -1.2839
 3429SOL     OW21745   3.725   4.252   3.161  0.4798  0.4986  0.3536
 3429SOL    HW121746   3.711   4.254   3.066 -1.6086 -1.5218  0.6247
 3429SOL    HW221747   3.779   4.329   3.180 -0.3807  1.0186  0.6853
 3430SOL     OW21748   1.140   2.665  10.606  0.0151  0.0442 -0.7479
 3430SOL    HW121749   1.208   2.648  10.672 -0.2708  0.4036 -0.3635
 3430SOL    HW221750   1.066   2.685  10.663  0.6495  2.1915 -0.6942
 3431SOL     OW21751   3.827   1.279  10.866 -0.1044  0.1298 -0.5420
 3431SOL    HW121752   3.734   1.302  10.871 -0.0908 -0.0930  0.5886
 3431SOL    HW221753   3.859   1.365  10.893  0.5176 -0.8469  1.8086
 3432SOL     OW21754   4.632   3.155  10.086  0.4929  0.0134 -0.2019
 3432SOL    HW121755   4.641   3.179  10.178  2.0740  1.2411 -0.6731
 3432SOL    HW221756   4.652   3.061  10.088 -1.4710 -0.4886 -2.7819
 3433SOL     OW21757   0.161   0.446  12.516  0.6208 -0.3051 -0.2656
 3433SOL    HW121758   0.080   0.429  12.468 -0.1653  0.9028  0.6267
 3433SOL    HW221759   0.193   0.522  12.468  1.8602  1.7249  3.7770
 3434SOL     OW21760   4.654   2.655   4.284  0.2118  0.0276  0.5376
 3434SOL    HW121761   4.582   2.598   4.257  1.0700 -0.7412 -0.1251
 3434SOL    HW221762   4.611   2.740   4.297 -1.9495 -1.0113  0.1484
 3435SOL     OW21763   2.732   0.797   5.174 -0.0661 -0.2681  0.3997
 3435SOL    HW121764   2.717   0.848   5.095 -0.5073 -1.6294 -0.3795
 3435SOL    HW221765   2.788   0.724   5.147  0.5362  1.0142 -1.8474
 3436SOL     OW21766   1.803   0.599   2.546  0.1617 -0.4858 -0.4178
 3436SOL    HW121767   1.820   0.675   2.491  3.6467 -1.4330 -0.6896
 3436SOL    HW221768   1.717   0.580   2.510 -0.4249 -0.7394  1.0965
 3437SOL     OW21769   1.764   4.634   1.917  0.0981  0.1041  0.3496
 3437SOL    HW121770   1.760   0.004   1.899 -3.0927  0.4529  2.9017
 3437SOL    HW221771   1.855   4.629   1.947  0.6746 -1.8541 -1.7199
 3438SOL     OW21772   3.288   1.354  16.078  0.2086 -0.2806 -0.3765
 3438SOL    HW121773   3.381   1.330  16.081  0.6562  1.6051  0.6223
 3438SOL    HW221774   3.298   1.444  16.048 -2.9602  0.9890  2.4111
 3439SOL     OW21775   3.251   3.501  16.438 -0.4765  0.0968  0.2240
 3439SOL    HW121776   3.274   3.421  16.390 -2.2646 -0.4755  0.3391
 3439SOL    HW221777   3.258   3.560  16.363  1.0312 -1.2107 -0.6678
 3440SOL     OW21778   0.224   1.643   5.946  0.1182  0.0037  0.0029
 3440SOL    HW121779   0.298   1.588   5.971  1.5964  2.5178  1.1995
 3440SOL    HW221780   0.222   1.640   5.851 -0.1885 -0.6823  0.0263
 3441SOL     OW21781   4.582   4.268   5.490  0.3829 -0.2632 -1.0562
 3441SOL    HW121782   4.520   4.203   5.522  1.8721 -0.1993  1.9429
 3441SOL    HW221783   4.633   4.277   5.570 -1.0250  2.9582 -0.5380
 3442SOL     OW21784   2.295   2.951   3.124  0.1708  0.3474  0.2219
 3442SOL    HW121785   2.375   2.904   3.148 -0.9872 -1.9632 -0.4340
 3442SOL    HW221786   2.309   3.035   3.169  3.7052 -0.0855 -0.0891
 3443SOL     OW21787   0.036   0.249   7.867 -0.1109  0.0453 -0.4924
 3443SOL    HW121788   0.128   0.257   7.890 -1.1336  0.7414  3.3908
 3443SOL    HW221789   4.722   0.307   7.934 -0.1378  1.6272 -1.8891
 3444SOL     OW21790   2.645   2.801   3.588 -0.1421  0.3694  0.3676
 3444SOL    HW121791   2.608   2.770   3.671  3.5926 -1.6580  1.2750
 3444SOL    HW221792   2.687   2.720   3.558 -0.0558  0.7461 -0.5147
 3445SOL     OW21793   3.545   3.635   9.444  0.2979  0.6503  0.3021
 3445SOL    HW121794   3.615   3.582   9.407  0.3171  1.5260 -0.8893
 3445SOL    HW221795   3.600   3.705   9.478 -1.7543  1.8730  1.1042
 3446SOL     OW21796   0.362   0.279   0.567 -0.1331 -0.3280  0.6402
 3446SOL    HW121797   0.428   0.334   0.611  1.1886  0.0269 -1.7605
 3446SOL    HW221798   0.422   0.212   0.534 -0.2162 -0.2118  0.2637
 3447SOL     OW21799   0.820   1.641   6.142  0.3158  0.4704  0.0927
 3447SOL    HW121800   0.891   1.648   6.078 -1.1821 -2.3512 -1.9058
 3447SOL    HW221801   0.864   1.600   6.216 -1.1994 -0.5535  0.4226
 3448SOL     OW21802   2.349   3.341  15.488 -0.2252  0.0040 -0.2596
 3448SOL    HW121803   2.274   3.314  15.435 -0.7426  0.6338  0.1565
 3448SOL    HW221804   2.309   3.352  15.574  0.3249 -0.5881  0.0736
 3449SOL     OW21805   2.789   2.510   4.668  0.1579 -0.2997  0.1633
 3449SOL    HW121806   2.829   2.450   4.605 -0.5914  1.1005 -1.6597
 3449SOL    HW221807   2.698   2.488   4.647 -0.7092  1.2569  2.2713
 3450SOL     OW21808   2.502   1.575   6.917  0.0277  0.0767  0.4491
 3450SOL    HW121809   2.543   1.537   6.995  1.6208  1.0694  0.0899
 3450SOL    HW221810   2.530   1.667   6.920  0.0708  0.0756  0.0624
 3451SOL     OW21811   0.682   3.414   3.330 -0.2136 -0.4176  0.2270
 3451SOL    HW121812   0.706   3.488   3.386 -2.4852  0.1425  0.4582
 3451SOL    HW221813   0.590   3.441   3.326 -0.4722 -1.6816 -2.1571
 3452SOL     OW21814   1.785   1.443   9.995  0.1113  0.5120 -0.1533
 3452SOL    HW121815   1.738   1.526  10.006  0.2953  0.4875  0.8515
 3452SOL    HW221816   1.769   1.412  10.084  0.2005  0.6343 -0.0934
 3453SOL     OW21817   2.486   4.186   4.225 -0.1212  0.1291 -0.2772
 3453SOL    HW121818   2.413   4.234   4.185  0.5710  1.1754 -0.2662
 3453SOL    HW221819   2.440   4.147   4.300 -0.4743 -0.0879 -0.6061
 3454SOL     OW21820   3.363   1.792   2.458 -0.0672 -0.2831 -0.3350
 3454SOL    HW121821   3.414   1.831   2.387 -0.2785  1.1700  0.3090
 3454SOL    HW221822   3.408   1.713   2.489 -0.5094 -0.4862 -0.2048
 3455SOL     OW21823   2.553   3.646  15.676 -0.2879  0.2983  0.0258
 3455SOL    HW121824   2.622   3.673  15.737 -0.1984  0.3170 -0.0845
 3455SOL    HW221825   2.603   3.641  15.594 -3.3773 -0.3439 -1.8012
 3456SOL     OW21826   3.724   0.407   2.503 -0.6889 -0.8133  0.6030
 3456SOL    HW121827   3.740   0.313   2.496  2.0241 -0.2949  0.2288
 3456SOL    HW221828   3.806   0.452   2.486 -0.2653 -2.2075 -1.0419
 3457SOL     OW21829   2.119   4.107   5.700 -0.2993  0.0838  0.3408
 3457SOL    HW121830   2.078   4.178   5.749 -0.6967  0.2182 -0.1931
 3457SOL    HW221831   2.192   4.087   5.759 -1.0192  0.0756  1.2338
 3458SOL     OW21832   4.449   3.848  15.005 -0.2469 -0.0096  0.3227
 3458SOL    HW121833   4.496   3.774  15.043 -2.7451 -1.0856  1.3502
 3458SOL    HW221834   4.519   3.911  15.018 -0.6299  0.1766  1.5138
 3459SOL     OW21835   0.052   1.217   2.000  0.2561  0.2567 -0.2275
 3459SOL    HW121836   0.042   1.176   1.914  0.6825 -2.5903  1.0793
 3459SOL    HW221837   0.143   1.196   2.020  0.8405  1.0268 -2.0376
 3460SOL     OW21838   0.512   0.741   3.654  0.2899 -0.0133  0.0660
 3460SOL    HW121839   0.568   0.724   3.730  0.0271 -2.3897 -0.2493
 3460SOL    HW221840   0.566   0.699   3.586 -0.1841  3.9571 -2.7147
 3461SOL     OW21841   2.761   0.528  17.216 -0.5965 -0.0137  0.2242
 3461SOL    HW121842   2.845   0.571  17.201  0.1997 -1.3451  0.8824
 3461SOL    HW221843   2.733   0.529  17.125  2.2523  1.2806 -0.6261
 3462SOL     OW21844   0.186   3.782  17.365  0.3836  0.1036  0.6977
 3462SOL    HW121845   0.094   3.800  17.344  1.9268  2.8573 -3.6780
 3462SOL    HW221846   0.175   3.780  17.460 -2.8149 -0.6420  0.3128
 3463SOL     OW21847   3.648   0.867  10.368  0.5510  0.0607 -0.6429
 3463SOL    HW121848   3.725   0.922  10.384  1.0471 -1.8559  3.3848
 3463SOL    HW221849   3.622   0.852  10.458 -0.8019 -0.7559 -1.1786
 3464SOL     OW21850   3.055   0.626   3.018 -0.3510 -0.2925  0.7989
 3464SOL    HW121851   3.099   0.707   3.044 -1.2698  0.2492  0.6639
 3464SOL    HW221852   3.127   0.564   3.034 -0.6571 -1.1125 -0.9610
 3465SOL     OW21853   4.216   2.617   9.896  0.0630 -0.0999 -0.1187
 3465SOL    HW121854   4.269   2.667   9.958 -0.5768  1.2169 -0.6557
 3465SOL    HW221855   4.196   2.681   9.828 -3.0247 -1.8122 -0.8290
 3466SOL     OW21856   1.672   3.612   5.163 -0.0430  0.3466 -0.0498
 3466SOL    HW121857   1.699   3.618   5.071  0.3439 -1.5061 -0.0368
 3466SOL    HW221858   1.651   3.706   5.170 -2.3472 -0.2135  0.6777
 3467SOL     OW21859   3.897   0.724   2.640 -0.1094  0.4476  0.2315
 3467SOL    HW121860   3.860   0.803   2.600 -2.8738 -1.0470 -0.1673
 3467SOL    HW221861   3.983   0.756   2.667 -0.3883  0.3993  1.1616
 3468SOL     OW21862   1.867   0.795   3.266 -0.2480 -0.2203 -0.3146
 3468SOL    HW121863   1.960   0.811   3.282  0.0600 -2.0585 -0.2849
 3468SOL    HW221864   1.874   0.708   3.227  1.7570 -0.6988  1.0851
 3469SOL     OW21865   0.988   4.536   7.649  0.2098 -0.5663  0.1544
 3469SOL    HW121866   0.915   4.524   7.588 -0.2602 -0.5069  0.7052
 3469SOL    HW221867   1.057   4.530   7.583  1.0682 -1.8874  1.1720
 3470SOL     OW21868   1.584   3.869   4.330  0.0379 -0.7936 -0.3929
 3470SOL    HW121869   1.509   3.832   4.376 -0.8617  0.3483 -0.9305
 3470SOL    HW221870   1.543   3.901   4.249  0.8990 -2.3654 -1.4418
 3471SOL     OW21871   3.823   3.781   7.268  0.2898 -0.2202  0.0532
 3471SOL    HW121872   3.878   3.806   7.342 -1.1011 -2.2512  1.7928
 3471SOL    HW221873   3.747   3.753   7.320 -1.1068  2.2518 -0.6402
 3472SOL     OW21874   3.047   0.479   4.464  0.4217  0.2260 -0.6386
 3472SOL    HW121875   3.126   0.533   4.463 -0.5981  1.7481  1.5481
 3472SOL    HW221876   3.083   0.393   4.445  0.0109 -0.2366  0.7065
 3473SOL     OW21877   2.795   2.980  13.196 -0.3392 -0.2838 -0.2583
 3473SOL    HW121878   2.770   3.070  13.216 -1.6988 -0.9386  0.9596
 3473SOL    HW221879   2.760   2.946  13.278  2.2364  0.5735  1.2040
 3474SOL     OW21880   0.721   2.758   1.131  0.2865  0.4635  0.3850
 3474SOL    HW121881   0.660   2.744   1.203  0.2806  3.5841  0.9621
 3474SOL    HW221882   0.675   2.726   1.054  0.3131  0.9408  0.1759
 3475SOL     OW21883   3.911   2.374   3.624  0.2811 -0.0318  0.0642
 3475SOL    HW121884   3.855   2.410   3.693  2.2475  0.6578  1.3014
 3475SOL    HW221885   3.968   2.451   3.620 -1.0997  0.9903 -0.3177
 3476SOL     OW21886   0.868   3.628   0.005  0.2355 -0.0283 -0.0174
 3476SOL    HW121887   0.786   3.586   0.032  0.4949 -0.2320  0.4525
 3476SOL    HW221888   0.836   3.708  17.660  0.6335  2.1776  3.8383
 3477SOL     OW21889   2.075   0.440   9.447 -0.4077  0.5612  0.2898
 3477SOL    HW121890   2.071   0.508   9.514 -1.6775 -0.9484  1.7703
 3477SOL    HW221891   2.044   0.366   9.499  2.0025 -0.5783  0.1152
 3478SOL     OW21892   4.669   0.383   3.403  0.6654  0.8191 -0.6152
 3478SOL    HW121893   4.717   0.358   3.324  0.5660 -0.9119 -0.1434
 3478SOL    HW221894   4.588   0.419   3.368  0.9664  1.5688 -0.5291
 3479SOL     OW21895   3.051   0.406   3.640 -0.1731 -0.6379 -0.0796
 3479SOL    HW121896   3.063   0.383   3.548 -1.6045  1.5128 -0.8180
 3479SOL    HW221897   2.999   0.485   3.622  1.4087  0.5428  0.5161
 3480SOL     OW21898   2.801   4.007   7.562  0.5298  0.3296  0.4600
 3480SOL    HW121899   2.744   4.002   7.485  2.7661  0.2008 -1.2110
 3480SOL    HW221900   2.886   3.976   7.530  0.1363  2.2568 -2.4658
 3481SOL     OW21901   2.018   4.619   3.510 -0.4737 -0.3409  0.2585
 3481SOL    HW121902   1.960   4.694   3.520  0.7889  0.5730  0.6599
 3481SOL    HW221903   1.983   4.590   3.425  2.4664  3.6063 -2.3131
 3482SOL     OW21904   0.140   4.234   9.272  0.3145 -0.2288 -0.1067
 3482SOL    HW121905   0.214   4.205   9.218 -0.8142 -0.4650 -1.5110
 3482SOL    HW221906   0.082   4.272   9.206  0.2697 -1.6711 -0.9093
 3483SOL     OW21907   4.403   4.657   1.325 -0.0719  0.2825  0.5020
 3483SOL    HW121908   4.414   4.563   1.313 -0.8625  0.4233 -1.4056
 3483SOL    HW221909   4.333   4.683   1.265  1.7970 -0.6040 -2.0759
 3484SOL     OW21910   0.357   3.407   8.595 -0.8210  0.3700 -0.2836
 3484SOL    HW121911   0.385   3.359   8.517  0.0953  1.5760 -0.7156
 3484SOL    HW221912   0.266   3.379   8.603 -1.6409  1.7139 -4.7583
 3485SOL     OW21913   4.393   1.486   2.147 -0.4708 -0.1820  0.0396
 3485SOL    HW121914   4.430   1.531   2.223 -0.4988  0.0292 -0.0736
 3485SOL    HW221915   4.463   1.500   2.083 -1.7555  0.4828 -1.1920
 3486SOL     OW21916   0.555   1.109   8.842  0.1783  0.2803  0.1751
 3486SOL    HW121917   0.498   1.056   8.786 -0.8341  0.6633  0.8243
 3486SOL    HW221918   0.624   1.139   8.783 -1.5088  3.3517 -0.2981
 3487SOL     OW21919   1.776   0.798   0.452 -0.1550 -0.2184 -0.4946
 3487SOL    HW121920   1.716   0.821   0.523 -0.4482  0.8764 -1.1048
 3487SOL    HW221921   1.844   0.752   0.501 -1.3066 -1.4750 -0.0794
 3488SOL     OW21922   1.201   0.521   3.127  0.0376  0.0165 -0.1625
 3488SOL    HW121923   1.242   0.446   3.170 -1.2338  0.0094  1.0406
 3488SOL    HW221924   1.248   0.525   3.044  2.1149  0.8132  1.0458
 3489SOL     OW21925   2.599   2.187   7.781  0.2338 -0.4605 -0.0977
 3489SOL    HW121926   2.615   2.161   7.871  1.0035  1.4947  0.3362
 3489SOL    HW221927   2.685   2.174   7.741  0.5584 -0.5388  0.6254
 3490SOL     OW21928   3.229   0.439   3.090  0.8282  0.1132  0.1082
 3490SOL    HW121929   3.229   0.379   3.164  0.6786  0.8088  0.6765
 3490SOL    HW221930   3.314   0.427   3.048  1.3252 -0.4440  1.2917
 3491SOL     OW21931   1.276   0.640   2.009 -0.3732 -0.3796  0.2472
 3491SOL    HW121932   1.334   0.695   2.062  0.8909 -1.2517 -0.2289
 3491SOL    HW221933   1.245   0.577   2.074  0.9858  0.2441  1.4936
 3492SOL     OW21934   2.249   1.317   5.570 -0.3930 -0.1944  0.2511
 3492SOL    HW121935   2.203   1.291   5.650  1.6754 -0.1545  1.4766
 3492SOL    HW221936   2.296   1.390   5.609  1.4104 -0.0946 -2.1299
 3493SOL     OW21937   3.318   1.202   4.704 -0.3993  0.6322  0.1554
 3493SOL    HW121938   3.387   1.137   4.714 -2.0485 -1.1320  0.0237
 3493SOL    HW221939   3.315   1.256   4.783 -0.3487  0.6239  0.1626
 3494SOL     OW21940   0.378   0.110   1.367  0.3835 -0.3260 -0.3998
 3494SOL    HW121941   0.328   0.189   1.387 -0.3941 -0.3899 -2.1325
 3494SOL    HW221942   0.396   0.131   1.276  2.4850  0.6916  0.2574
 3495SOL     OW21943   1.138   3.761  11.516  0.2361  0.0808  0.3759
 3495SOL    HW121944   1.127   3.843  11.468 -1.6608 -0.0324  0.6108
 3495SOL    HW221945   1.051   3.723  11.503 -0.7083  1.2907  2.9886
 3496SOL     OW21946   2.522   4.695   3.968  0.5498 -0.0070  0.1476
 3496SOL    HW121947   2.435   4.717   4.001  1.5428  2.7575  0.8736
 3496SOL    HW221948   2.498   4.611   3.927  0.6660  0.3124 -0.5756
 3497SOL     OW21949   0.638   3.006   2.933 -0.5010  0.0986 -0.4300
 3497SOL    HW121950   0.652   3.062   2.857  0.1027  0.7626  0.1758
 3497SOL    HW221951   0.566   3.044   2.984 -0.1673 -1.6025  1.3258
 3498SOL     OW21952   2.869   2.809  17.015 -0.8142 -0.3635 -0.0745
 3498SOL    HW121953   2.935   2.777  16.953  0.6909 -0.4954  1.5873
 3498SOL    HW221954   2.833   2.724  17.037 -0.4510 -1.0557 -2.2292
 3499SOL     OW21955   3.188   0.154   4.590 -0.2691 -0.7404 -0.1208
 3499SOL    HW121956   3.215   0.237   4.627 -2.8283 -0.7051  1.6775
 3499SOL    HW221957   3.195   0.096   4.665  0.9090 -0.8957 -0.3551
 3500SOL     OW21958   0.977   3.013   4.928  0.2133  0.3023 -0.0267
 3500SOL    HW121959   0.955   2.979   4.841  1.2923  1.3699 -0.7276
 3500SOL    HW221960   0.902   2.981   4.978 -0.6154  3.4136  0.6742
 3501SOL     OW21961   2.094   4.331  13.720 -0.0825 -0.0420  0.0283
 3501SOL    HW121962   2.099   4.246  13.762 -1.4631 -1.0311 -1.8138
 3501SOL    HW221963   2.087   4.384  13.799 -0.8292 -0.8120  0.4656
 3502SOL     OW21964   1.020   0.420   8.145  0.3373 -0.1121 -0.0251
 3502SOL    HW121965   1.082   0.452   8.080 -1.2773  1.7076 -0.6368
 3502SOL    HW221966   0.967   0.360   8.092  1.0524 -2.3643  1.7799
 3503SOL     OW21967   3.243   1.701   7.822  0.4720 -0.0902 -0.4403
 3503SOL    HW121968   3.239   1.608   7.846  3.0716  0.3462  1.6851
 3503SOL    HW221969   3.255   1.691   7.728 -0.2713 -3.0655 -0.2257
 3504SOL     OW21970   3.457   3.021   3.537 -0.2126 -0.1859 -0.0263
 3504SOL    HW121971   3.534   2.970   3.513 -1.0871 -2.7928  2.7079
 3504SOL    HW221972   3.478   3.108   3.503  1.6725 -0.5914  0.1196
 3505SOL     OW21973   1.047   2.783   1.696  0.0955 -0.0650 -0.1818
 3505SOL    HW121974   0.984   2.849   1.666  0.2752 -0.2904 -1.0770
 3505SOL    HW221975   1.122   2.820   1.650  0.4695 -2.3896 -1.4531
 3506SOL     OW21976   2.313   0.859  13.284 -0.0871  0.1601 -0.1287
 3506SOL    HW121977   2.234   0.909  13.307 -1.6510 -1.8091 -1.2377
 3506SOL    HW221978   2.329   0.885  13.194 -2.3407  0.4882 -0.4300
 3507SOL     OW21979   2.459   4.207  11.714 -0.0997  0.1510 -0.4868
 3507SOL    HW121980   2.534   4.158  11.680 -0.7859  0.5843 -2.6686
 3507SOL    HW221981   2.404   4.133  11.741 -0.2702  0.1303 -0.8854
 3508SOL     OW21982   3.253   3.583  15.945  0.4167 -0.4872 -0.3208
 3508SOL    HW121983   3.217   3.604  16.031 -0.4772 -1.6078 -0.4124
 3508SOL    HW221984   3.286   3.494  15.962  3.6702  0.6087 -0.9871
 3509SOL     OW21985   4.309   3.675   4.696  0.4238  0.4775 -0.5731
 3509SOL    HW121986   4.351   3.710   4.775  0.8827 -0.5372 -0.3612
 3509SOL    HW221987   4.262   3.603   4.739  0.4896  0.4452 -0.5550
 3510SOL     OW21988   3.157   2.336  10.613 -0.0366 -0.0974 -0.1694
 3510SOL    HW121989   3.208   2.255  10.611 -2.8248 -1.7937 -1.7084
 3510SOL    HW221990   3.177   2.359  10.704  0.1343  0.8990 -0.4634
 3511SOL     OW21991   4.463   0.385  15.206  0.1056  0.0174  0.3745
 3511SOL    HW121992   4.395   0.417  15.265  1.1594  1.8122  0.6199
 3511SOL    HW221993   4.543   0.419  15.247 -1.1504  0.8433  2.1207
 3512SOL     OW21994   4.320   0.364   1.800 -0.1589 -0.1011  0.2054
 3512SOL    HW121995   4.399   0.406   1.836  0.0342 -1.1924  1.0536
 3512SOL    HW221996   4.355   0.276   1.789 -0.3113 -0.2933  1.2952
 3513SOL     OW21997   1.876   4.292   6.888 -0.5940 -0.6496  0.1835
 3513SOL    HW121998   1.857   4.198   6.879  1.7415 -1.0674 -0.4180
 3513SOL    HW221999   1.786   4.325   6.885 -1.0293 -1.9116 -0.7883
 3514SOL     OW22000   2.596   4.489  12.998 -0.2133 -0.1530 -0.4006
 3514SOL    HW122001   2.639   4.486  13.083 -0.0834 -0.0873 -0.4649
 3514SOL    HW222002   2.659   4.496  12.927 -0.4603  0.9090 -0.5163
 3515SOL     OW22003   2.915   0.765   2.015 -0.3263 -0.4733 -0.0467
 3515SOL    HW122004   3.000   0.793   1.981 -0.9955  1.5102 -0.1231
 3515SOL    HW222005   2.862   0.809   1.948  1.8858 -0.7731 -1.9662
 3516SOL     OW22006   1.256   4.043  15.454  0.0224 -0.0232 -0.2420
 3516SOL    HW122007   1.240   4.109  15.387 -2.3314  1.7407  2.0328
 3516SOL    HW222008   1.238   4.098  15.531 -1.5267  0.0710 -0.6836
 3517SOL     OW22009   0.701   0.195  13.117 -0.1536  0.4191  0.1053
 3517SOL    HW122010   0.648   0.146  13.180  0.3055 -0.9591 -0.5711
 3517SOL    HW222011   0.685   0.143  13.038  0.4660  2.3112 -1.2744
 3518SOL     OW22012   0.616   3.148   1.692 -1.0110  0.5693  0.1265
 3518SOL    HW122013   0.542   3.203   1.717 -0.5431  1.4936 -0.5486
 3518SOL    HW222014   0.682   3.217   1.690 -0.8457  0.3740 -1.1223
 3519SOL     OW22015   3.380   1.769   5.173 -0.4263  0.4173  0.1001
 3519SOL    HW122016   3.335   1.804   5.096 -0.7250  0.0782  0.1184
 3519SOL    HW222017   3.440   1.707   5.131  0.0992  1.0228 -0.0387
 3520SOL     OW22018   4.550   1.030   5.180  0.3306  0.0453  0.1238
 3520SOL    HW122019   4.580   1.111   5.221  0.7202  0.5302 -1.0994
 3520SOL    HW222020   4.544   0.981   5.262  1.8854 -0.0403  0.1974
 3521SOL     OW22021   3.005   4.180   0.426 -0.1289  0.2108  0.3766
 3521SOL    HW122022   3.040   4.125   0.355 -1.9674 -0.5638  0.0677
 3521SOL    HW222023   3.056   4.261   0.431  1.0703 -0.6034  1.2457
 3522SOL     OW22024   1.400   2.242  12.515 -0.2576  0.4956  0.1130
 3522SOL    HW122025   1.473   2.276  12.463 -1.5380  2.2509 -0.5265
 3522SOL    HW222026   1.355   2.326  12.526 -1.6029 -0.2460  0.1798
 3523SOL     OW22027   1.012   1.101  17.519  0.0968 -1.2731  0.2216
 3523SOL    HW122028   0.922   1.112  17.549 -0.9820 -1.7826 -2.7831
 3523SOL    HW222029   1.057   1.045  17.583  2.2450 -0.2852 -0.4108
 3524SOL     OW22030   3.018   1.431   4.047  0.2790  0.0444 -0.3229
 3524SOL    HW122031   3.032   1.361   3.983 -0.6690  0.9696 -1.5544
 3524SOL    HW222032   3.096   1.420   4.102  0.2007 -0.6846 -0.3574
 3525SOL     OW22033   4.493   2.807  11.819  0.1985 -0.2656  0.2540
 3525SOL    HW122034   4.548   2.862  11.763 -2.1388  1.7833 -0.0498
 3525SOL    HW222035   4.533   2.721  11.817  2.2019  0.6045  2.2214
 3526SOL     OW22036   1.658   2.477  12.571 -0.0221 -0.0154 -0.3567
 3526SOL    HW122037   1.588   2.503  12.631  1.2415 -0.2190  1.1949
 3526SOL    HW222038   1.622   2.507  12.487 -1.2731  0.5410  0.3798
 3527SOL     OW22039   1.944   0.604   4.914 -0.2914 -0.4842  0.0952
 3527SOL    HW122040   1.877   0.544   4.947 -0.1151  0.1980  1.7368
 3527SOL    HW222041   1.888   0.650   4.852  0.2776  0.0526 -0.0161
 3528SOL     OW22042   4.226   3.879  16.893  0.1174 -0.1813 -0.1664
 3528SOL    HW122043   4.287   3.806  16.907  2.0387  1.2519 -1.0970
 3528SOL    HW222044   4.140   3.843  16.914  0.7402 -2.0311 -0.8186
 3529SOL     OW22045   2.947   2.653  17.281  0.3888  0.7059 -0.0035
 3529SOL    HW122046   3.023   2.622  17.231 -0.9399  2.1775 -2.9569
 3529SOL    HW222047   2.945   2.598  17.359  1.0760 -2.7508 -2.3888
 3530SOL     OW22048   2.952   1.071   3.167 -0.0948 -0.1580  0.4158
 3530SOL    HW122049   2.864   1.109   3.161 -1.0810 -2.3497  0.8944
 3530SOL    HW222050   2.953   1.041   3.258 -3.0345  3.2876  1.6076
 3531SOL     OW22051   4.158   2.873  13.095 -0.5048  0.2503 -0.6046
 3531SOL    HW122052   4.240   2.909  13.129 -1.0828 -0.5551  1.6730
 3531SOL    HW222053   4.178   2.865  13.002  1.3870  1.2624 -0.2865
 3532SOL     OW22054   1.705   0.975  14.232 -0.1037  0.3028  0.2936
 3532SOL    HW122055   1.725   0.893  14.187 -2.4567  0.8813 -1.8263
 3532SOL    HW222056   1.748   0.956  14.315  2.9851  2.4118 -0.8375
 3533SOL     OW22057   1.196   0.927   3.658  0.0978  0.6181  1.0847
 3533SOL    HW122058   1.286   0.948   3.634  0.5033 -2.8596 -0.5138
 3533SOL    HW222059   1.155   1.009   3.630  3.1601  0.9403 -2.4548
 3534SOL     OW22060   4.637   0.483  12.972  0.6662 -0.1678  0.2731
 3534SOL    HW122061   4.641   0.387  12.968  1.5634 -0.2139  2.1689
 3534SOL    HW222062   4.545   0.494  12.948  0.8674  1.6719  0.3662
 3535SOL     OW22063   3.418   4.507   8.921 -0.4896 -0.1814 -0.4078
 3535SOL    HW122064   3.466   4.534   8.842  1.0617 -0.9781  0.2635
 3535SOL    HW222065   3.431   4.584   8.977 -0.6342  0.0856 -0.7406
 3536SOL     OW22066   3.154   3.998  11.822  0.5218  0.0581  0.0314
 3536SOL    HW122067   3.158   4.093  11.815 -0.2588  0.0500 -0.4753
 3536SOL    HW222068   3.163   3.991  11.917 -0.9247  0.5762  0.2078
 3537SOL     OW22069   3.321   1.999   7.740  0.5916  0.0683  0.2653
 3537SOL    HW122070   3.410   2.032   7.726  0.2707  0.9527  0.2942
 3537SOL    HW222071   3.339   1.909   7.767  0.3615 -0.5705 -1.6647
 3538SOL     OW22072   1.661   4.330  11.317  0.5594  0.2424 -0.6961
 3538SOL    HW122073   1.596   4.329  11.387  1.7653  1.7005  0.4576
 3538SOL    HW222074   1.612   4.340  11.235 -0.6025 -1.5078 -0.2080
 3539SOL     OW22075   0.115   2.092   2.930 -0.0321 -0.1290  0.1674
 3539SOL    HW122076   0.203   2.081   2.896 -0.8198 -0.8579 -1.6080
 3539SOL    HW222077   0.098   2.008   2.972  2.9004 -1.3907 -1.1702
 3540SOL     OW22078   4.224   1.697   2.799  0.3761 -0.1874 -0.0627
 3540SOL    HW122079   4.129   1.702   2.797  0.3521 -0.4230  0.5682
 3540SOL    HW222080   4.236   1.614   2.846  2.7840 -0.2634 -0.8056
 3541SOL     OW22081   1.145   4.076   8.370  0.0501  0.3574 -0.3143
 3541SOL    HW122082   1.136   4.010   8.439  1.5099 -0.1110 -0.5736
 3541SOL    HW222083   1.103   4.152   8.410  0.6594 -0.8407  2.6318
 3542SOL     OW22084   1.227   4.172  17.368 -0.1434 -0.6360  0.4040
 3542SOL    HW122085   1.218   4.143  17.278  0.0378  0.7020 -0.0464
 3542SOL    HW222086   1.162   4.123  17.418 -0.4292  0.9002  1.5487
 3543SOL     OW22087   2.030   3.854  14.800  0.6700 -0.1370  0.0801
 3543SOL    HW122088   2.116   3.881  14.769  0.5021  0.9648  0.5940
 3543SOL    HW222089   2.054   3.845  14.892  2.7637 -0.6433 -0.5256
 3544SOL     OW22090   1.455   2.283  14.100  0.2690 -0.1041  0.8011
 3544SOL    HW122091   1.535   2.231  14.095  0.3220  0.1114 -0.5097
 3544SOL    HW222092   1.432   2.303  14.009  1.2416 -0.0107  0.5755
 3545SOL     OW22093   1.301   2.494  12.542 -0.1199 -0.4116  0.0346
 3545SOL    HW122094   1.285   2.583  12.508 -0.5504  0.0017  1.3327
 3545SOL    HW222095   1.353   2.516  12.619  0.1352  0.6366 -0.4392
 3546SOL     OW22096   0.413   4.335   8.124  0.3219 -0.1662 -0.3886
 3546SOL    HW122097   0.356   4.271   8.167  2.2315 -0.6305  1.4444
 3546SOL    HW222098   0.490   4.330   8.180  0.1114  0.4576 -0.0410
 3547SOL     OW22099   0.311   0.367   5.334  0.6844 -0.3821  0.5804
 3547SOL    HW122100   0.347   0.388   5.420 -0.5709 -0.3123  1.0854
 3547SOL    HW222101   0.378   0.310   5.296  1.9982  1.3226  0.3165
 3548SOL     OW22102   2.302   2.489   2.809 -0.0681  0.0722 -0.3782
 3548SOL    HW122103   2.287   2.583   2.800  1.4434  0.3213 -0.2571
 3548SOL    HW222104   2.308   2.459   2.718 -1.7280 -3.0601  0.5137
 3549SOL     OW22105   3.488   1.933   9.739 -0.6556  0.5206 -0.2976
 3549SOL    HW122106   3.540   1.894   9.669  0.9315  1.1310  0.5393
 3549SOL    HW222107   3.561   1.983   9.775  0.9283  0.1615 -2.9712
 3550SOL     OW22108   3.837   2.189   0.455 -0.0501  0.1954 -0.1375
 3550SOL    HW122109   3.929   2.195   0.481  0.3712  0.3973 -1.6504
 3550SOL    HW222110   3.817   2.282   0.449  0.1526  0.3548  1.8386
 3551SOL     OW22111   4.200   0.271   0.270  0.2817  0.0172 -0.4531
 3551SOL    HW122112   4.274   0.221   0.303 -0.2944 -0.0134  0.8067
 3551SOL    HW222113   4.163   0.302   0.353  0.7253 -1.6049  0.3369
 3552SOL     OW22114   0.958   2.687   9.558 -0.2516 -0.5667 -0.0371
 3552SOL    HW122115   0.902   2.744   9.612 -1.2820 -1.2625 -0.3673
 3552SOL    HW222116   1.030   2.749   9.549 -0.4579 -0.7019 -2.5066
 3553SOL     OW22117   1.123   1.807  14.048  0.6124 -0.1737 -0.0229
 3553SOL    HW122118   1.156   1.837  13.964 -2.3581 -1.1748 -1.5557
 3553SOL    HW222119   1.028   1.822  14.055  1.0387  2.6540 -0.0698
 3554SOL     OW22120   1.628   3.551  17.562  0.5007 -0.3886 -0.2327
 3554SOL    HW122121   1.665   3.463  17.573 -0.9462 -0.9667 -0.0237
 3554SOL    HW222122   1.709   3.596  17.587  1.0004  0.3504 -3.1717
 3555SOL     OW22123   0.997   0.624   2.900 -0.1532  0.9019  0.3258
 3555SOL    HW122124   1.062   0.694   2.907  0.8448 -0.0422  0.3636
 3555SOL    HW222125   1.036   0.558   2.956 -1.3546 -0.6343 -0.6390
 3556SOL     OW22126   2.413   3.509   5.503 -0.5855  0.3012 -0.7229
 3556SOL    HW122127   2.493   3.463   5.478  0.1374  1.5419 -0.6886
 3556SOL    HW222128   2.435   3.594   5.466 -0.3225  0.4016 -0.3465
 3557SOL     OW22129   3.365   2.751   6.574  0.1081  0.2766  0.0667
 3557SOL    HW122130   3.399   2.723   6.659 -0.2065 -0.7978 -0.1646
 3557SOL    HW222131   3.412   2.834   6.563  0.1980  0.0099 -1.6336
 3558SOL     OW22132   2.898   1.705   8.997  0.3126  0.0638  0.2721
 3558SOL    HW122133   2.883   1.729   8.906 -0.1426  0.1730  0.3768
 3558SOL    HW222134   2.983   1.660   8.992 -0.0762 -0.7853  1.3906
 3559SOL     OW22135   4.535   2.386   3.384 -0.1392 -0.6955 -0.2448
 3559SOL    HW122136   4.453   2.429   3.361 -0.1753 -0.1379  0.9672
 3559SOL    HW222137   4.570   2.377   3.295  0.1233  0.2455 -0.2405
 3560SOL     OW22138   0.033   0.204   1.021  0.4172  0.5685 -0.7292
 3560SOL    HW122139   0.101   0.144   1.051 -0.0136  1.1937  1.4808
 3560SOL    HW222140   4.701   0.152   0.963 -3.9205  0.5537  3.4816
 3561SOL     OW22141   4.623   0.301   8.595  0.5689  0.0027  0.7895
 3561SOL    HW122142   4.707   0.292   8.549  0.6992 -0.2660  1.0807
 3561SOL    HW222143   4.587   0.213   8.582  1.6310 -0.4761  1.0966
 3562SOL     OW22144   3.921   4.507   6.380  0.2921 -0.3054 -0.3230
 3562SOL    HW122145   3.844   4.518   6.436 -1.6915 -2.1161 -2.6705
 3562SOL    HW222146   3.985   4.568   6.416 -0.5064  1.4954 -1.9709
 3563SOL     OW22147   2.058   4.504   2.093 -0.1278 -0.6461 -0.0076
 3563SOL    HW122148   2.144   4.464   2.104 -0.1480 -0.4105  1.0425
 3563SOL    HW222149   2.063   4.567   2.021 -2.2469 -1.2349 -0.6779
 3564SOL     OW22150   2.413   0.237   1.090  0.0813 -0.1741 -0.6723
 3564SOL    HW122151   2.358   0.189   1.028 -0.4281 -1.4843  0.8034
 3564SOL    HW222152   2.486   0.260   1.032  1.3504  1.4696  1.5752
 3565SOL     OW22153   2.810   0.563  14.835  0.1076 -0.0757  0.1928
 3565SOL    HW122154   2.766   0.616  14.901  0.2003  0.4310 -0.1575
 3565SOL    HW222155   2.899   0.555  14.869 -0.5599 -1.4757  1.6078
 3566SOL     OW22156   0.374   3.681  14.002  0.4069  0.1329 -0.1483
 3566SOL    HW122157   0.388   3.589  13.981  0.7239  0.0823  0.2961
 3566SOL    HW222158   0.281   3.677  14.025  0.9202 -0.9228  1.7114
 3567SOL     OW22159   0.098   3.275   2.212 -0.2639 -0.5000 -0.4391
 3567SOL    HW122160   0.066   3.318   2.133  3.3342 -0.1899 -1.6913
 3567SOL    HW222161   0.092   3.185   2.180 -0.2687  0.6510 -3.6527
 3568SOL     OW22162   0.936   0.124  17.376  0.2948 -0.0583 -0.5682
 3568SOL    HW122163   0.990   0.046  17.392 -0.3743 -0.3073  0.4364
 3568SOL    HW222164   0.852   0.087  17.402 -0.5982  1.2173 -1.6561
 3569SOL     OW22165   1.016   2.120   4.801  0.1631 -0.2177  0.2437
 3569SOL    HW122166   0.935   2.134   4.851  0.2845 -0.3290  0.4737
 3569SOL    HW222167   1.055   2.076   4.877 -1.1483  0.2586  1.1977
 3570SOL     OW22168   0.015   1.428   5.332 -0.4099 -0.6021 -0.6996
 3570SOL    HW122169   4.701   1.480   5.261 -1.8162 -2.2543 -1.1771
 3570SOL    HW222170   0.029   1.495   5.399  0.6689 -0.0161 -1.5261
 3571SOL     OW22171   2.137   0.840   2.506 -0.1353  0.5528  0.1790
 3571SOL    HW122172   2.074   0.874   2.570  0.2178  2.3966 -0.4594
 3571SOL    HW222173   2.118   0.883   2.423  2.0622 -0.1619 -0.6956
 3572SOL     OW22174   1.644   2.862   7.713  0.1638 -0.3777  0.5039
 3572SOL    HW122175   1.567   2.917   7.700 -0.7200 -1.6712  0.3155
 3572SOL    HW222176   1.714   2.927   7.714 -1.1111  1.0423 -2.6677
 3573SOL     OW22177   4.128   4.501   8.876  0.2541 -0.3668 -0.5741
 3573SOL    HW122178   4.101   4.474   8.964 -0.3462  1.3251 -0.2356
 3573SOL    HW222179   4.196   4.564   8.901  1.0219 -1.2984 -0.3173
 3574SOL     OW22180   4.653   1.107  11.781  0.0390  0.0290 -0.0535
 3574SOL    HW122181   4.722   1.040  11.776  2.4850  2.3739  1.9890
 3574SOL    HW222182   4.694   1.191  11.761  0.9922 -0.1972  0.9545
 3575SOL     OW22183   0.209   1.971   6.024  0.0706 -0.2539 -0.4953
 3575SOL    HW122184   0.187   1.886   5.986 -0.4645 -0.1986 -0.2992
 3575SOL    HW222185   0.296   1.992   5.989  0.3016  0.1313  0.3125
 3576SOL     OW22186   4.087   1.879   8.684 -0.0630 -0.1962  0.2672
 3576SOL    HW122187   4.009   1.831   8.713 -1.1999  2.3691  1.5489
 3576SOL    HW222188   4.068   1.881   8.590  1.3276  1.2635  0.0201
 3577SOL     OW22189   1.290   2.863   1.557  0.4996  0.0544  0.1023
 3577SOL    HW122190   1.284   2.861   1.461 -0.2895 -1.3204  0.1675
 3577SOL    HW222191   1.379   2.830   1.564  0.6017  0.1418 -0.7496
 3578SOL     OW22192   3.553   0.384   3.366 -0.4308  0.0040 -0.3692
 3578SOL    HW122193   3.617   0.365   3.435 -1.0495 -0.6413  0.0241
 3578SOL    HW222194   3.504   0.453   3.411  2.3355  0.7184  1.5789
 3579SOL     OW22195   1.030   0.215   7.899  0.0142  0.3767  0.0721
 3579SOL    HW122196   0.999   0.126   7.916  0.4732  0.1478 -0.2908
 3579SOL    HW222197   1.118   0.206   7.936 -0.7166 -0.5444  1.5800
 3580SOL     OW22198   1.203   3.111   2.238 -0.0088  0.2277  0.2232
 3580SOL    HW122199   1.206   3.029   2.288 -0.8360 -1.0319 -1.7686
 3580SOL    HW222200   1.298   3.124   2.231 -0.0572 -0.4062 -1.6300
 3581SOL     OW22201   3.874   0.676   3.932 -0.1222 -0.3427  0.4087
 3581SOL    HW122202   3.788   0.709   3.908 -0.0072 -0.8646 -0.7460
 3581SOL    HW222203   3.860   0.592   3.975 -1.5150 -0.5689 -0.5036
 3582SOL     OW22204   3.765   3.833   6.993 -0.3347 -0.4851  0.4619
 3582SOL    HW122205   3.789   3.925   6.979  1.2987 -1.3927 -2.6661
 3582SOL    HW222206   3.804   3.816   7.079 -2.2053  2.3598  1.8825
 3583SOL     OW22207   3.027   2.642   2.573  0.1046  0.5906  0.0381
 3583SOL    HW122208   3.039   2.589   2.653 -1.4222 -1.1588 -0.8851
 3583SOL    HW222209   2.964   2.698   2.619  1.1471 -0.0329  2.2549
 3584SOL     OW22210   1.104   4.301  13.763  0.2551  0.1334 -0.3896
 3584SOL    HW122211   1.045   4.302  13.688  0.0446 -3.4532 -0.2721
 3584SOL    HW222212   1.157   4.226  13.735 -0.4594 -0.1268 -1.0220
 3585SOL     OW22213   3.434   0.048   8.180 -0.4342  0.1864 -0.2045
 3585SOL    HW122214   3.405   4.682   8.164  1.7926 -0.6605  0.5566
 3585SOL    HW222215   3.513   0.062   8.127  0.1802  2.3824  1.2723
 3586SOL     OW22216   3.658   3.778   2.721  0.4273  0.1711  0.6029
 3586SOL    HW122217   3.692   3.691   2.699 -0.8130 -0.1534 -0.0370
 3586SOL    HW222218   3.725   3.833   2.680 -0.6271  1.5354  0.7295
 3587SOL     OW22219   3.177   2.172   5.760  0.1947 -0.1225  0.6657
 3587SOL    HW122220   3.200   2.096   5.707  0.1007  0.9683 -0.9660
 3587SOL    HW222221   3.169   2.135   5.847 -0.9146 -0.4917  0.4076
 3588SOL     OW22222   4.414   2.733   8.373  0.0168 -0.4481  0.4459
 3588SOL    HW122223   4.351   2.799   8.346 -0.8993 -1.5590 -0.1477
 3588SOL    HW222224   4.367   2.656   8.339 -0.3082 -0.2798  0.5163
 3589SOL     OW22225   1.679   3.984   4.562  0.7202  0.7693 -0.7254
 3589SOL    HW122226   1.633   3.951   4.485 -1.1316 -1.3497  1.2999
 3589SOL    HW222227   1.637   4.069   4.578  0.7532  0.4333  1.1351
 3590SOL     OW22228   0.788   2.222   0.092  0.0610  0.5860  0.0339
 3590SOL    HW122229   0.844   2.149   0.067 -1.4314  0.1869 -2.0859
 3590SOL    HW222230   0.776   2.260   0.005 -0.1635 -0.0379 -0.2083
 3591SOL     OW22231   0.896   2.295   9.877 -0.3764 -0.2742 -0.4614
 3591SOL    HW122232   0.809   2.263   9.897 -0.1058 -0.9663 -0.3952
 3591SOL    HW222233   0.883   2.374   9.824 -2.9126 -0.3459  0.0861
 3592SOL     OW22234   2.623   1.543   8.152 -0.3288 -0.2159 -0.8716
 3592SOL    HW122235   2.559   1.615   8.158  1.5426  1.3077  0.8749
 3592SOL    HW222236   2.573   1.473   8.194 -0.1624 -1.0509 -2.0717
 3593SOL     OW22237   3.126   3.994   9.863 -0.2274 -0.1095  0.5523
 3593SOL    HW122238   3.133   3.963   9.954 -0.7750 -1.7115  0.0617
 3593SOL    HW222239   3.112   4.088   9.868  0.7731  0.0050  1.1171
 3594SOL     OW22240   2.261   1.811   7.089 -0.0035  0.4471 -0.0949
 3594SOL    HW122241   2.290   1.898   7.114  3.2418 -0.2514 -1.4937
 3594SOL    HW222242   2.169   1.806   7.115  0.6068 -1.1421  1.7423
 3595SOL     OW22243   0.793   3.123   5.875 -0.4515 -0.3495 -0.6101
 3595SOL    HW122244   0.867   3.080   5.918  0.1308  0.6625 -0.5950
 3595SOL    HW222245   0.728   3.105   5.942 -1.2651 -0.1416 -1.3430
 3596SOL     OW22246   4.037   2.743   7.997 -0.8767  0.0301  0.3106
 3596SOL    HW122247   4.072   2.831   7.986 -2.2757  0.6061  0.4879
 3596SOL    HW222248   4.099   2.689   7.947  0.3841  2.4158 -0.6940
 3597SOL     OW22249   2.195   2.359   0.342  0.2926  0.6200 -0.2254
 3597SOL    HW122250   2.197   2.432   0.403 -0.3945 -0.2340  0.8304
 3597SOL    HW222251   2.278   2.316   0.365  0.2837  0.5114 -0.3953
 3598SOL     OW22252   0.306   3.404  13.027 -0.0549 -0.0346  0.0271
 3598SOL    HW122253   0.317   3.445  12.942 -1.3045  1.9532  0.8360
 3598SOL    HW222254   0.215   3.374  13.021 -0.5646  1.3472  0.8317
 3599SOL     OW22255   4.212   4.509   2.804  0.2225 -0.3953  0.3745
 3599SOL    HW122256   4.280   4.539   2.744  1.0141  0.5890  1.7714
 3599SOL    HW222257   4.262   4.447   2.858 -1.4639 -2.1495 -0.0792
 3600SOL     OW22258   1.430   0.717   9.526  0.9205 -0.0575  0.0397
 3600SOL    HW122259   1.392   0.794   9.568 -1.4694 -1.7304  0.9568
 3600SOL    HW222260   1.517   0.751   9.503  0.0368  2.7515  0.8934
 3601SOL     OW22261   2.649   1.390  12.206  0.7129  0.5587 -0.3495
 3601SOL    HW122262   2.698   1.308  12.205 -1.1480 -0.5527  0.2416
 3601SOL    HW222263   2.673   1.430  12.290  0.7078 -1.1852  0.4668
 3602SOL     OW22264   4.507   0.366   0.810 -0.4472 -0.5458  0.0116
 3602SOL    HW122265   4.597   0.366   0.776 -0.5142 -1.3772 -0.1798
 3602SOL    HW222266   4.470   0.301   0.750  0.7347  1.2913 -2.7092
 3603SOL     OW22267   4.223   0.277   3.227 -0.1852 -0.2899 -0.9861
 3603SOL    HW122268   4.275   0.199   3.247  0.3577  0.1219 -0.7759
 3603SOL    HW222269   4.245   0.284   3.135 -0.2529 -0.4614 -1.0145
 3604SOL     OW22270   2.334   0.941   1.828  0.5877 -0.2860  0.0341
 3604SOL    HW122271   2.341   0.855   1.870  0.1326 -0.1931  0.2908
 3604SOL    HW222272   2.397   0.992   1.880  0.5707  0.5190 -0.7334
 3605SOL     OW22273   3.493   2.415   6.893 -0.0995  0.0324  0.2474
 3605SOL    HW122274   3.552   2.489   6.909  1.2066 -0.9362 -0.0153
 3605SOL    HW222275   3.532   2.343   6.942 -1.4512 -0.5585  0.4541
 3606SOL     OW22276   1.367   4.044   2.535  0.1136 -0.3335 -0.0992
 3606SOL    HW122277   1.311   4.115   2.503 -0.7348 -1.2332 -0.5993
 3606SOL    HW222278   1.329   3.974   2.481 -1.5480 -0.9098  1.8425
 3607SOL     OW22279   3.561   1.119  17.388  0.3049 -0.0938 -0.0654
 3607SOL    HW122280   3.481   1.170  17.373  0.6519  0.5344  0.1852
 3607SOL    HW222281   3.596   1.115  17.299  0.9439  1.6018  0.0990
 3608SOL     OW22282   3.583   4.666   5.311 -0.1292 -0.5622 -0.0270
 3608SOL    HW122283   3.512   4.706   5.262  1.3266  0.9380 -0.9328
 3608SOL    HW222284   3.535   4.626   5.383  1.4454 -1.4674  0.5151
 3609SOL     OW22285   2.507   0.958   3.314 -0.5109 -0.1657  0.1474
 3609SOL    HW122286   2.503   0.998   3.401  0.1276 -1.2731  0.6867
 3609SOL    HW222287   2.421   0.990   3.286 -0.1558 -1.5602 -2.5024
 3610SOL     OW22288   1.929   1.098   6.388 -0.0603 -0.1663  0.0772
 3610SOL    HW122289   1.870   1.085   6.314  1.1446 -0.4447 -0.8315
 3610SOL    HW222290   1.988   1.023   6.378  0.5081  0.3584 -0.4832
 3611SOL     OW22291   1.921   0.388  15.209 -0.1488 -0.1594  0.2083
 3611SOL    HW122292   1.926   0.301  15.168  0.9363  0.7810 -1.7008
 3611SOL    HW222293   1.923   0.441  15.129 -0.5937 -2.0467 -1.0829
 3612SOL     OW22294   0.151   3.894   3.192  0.1923 -0.3366  0.2517
 3612SOL    HW122295   0.181   3.812   3.230 -2.3839 -2.2940 -1.9084
 3612SOL    HW222296   0.120   3.945   3.268 -1.2773 -1.4779  0.4152
 3613SOL     OW22297   0.456   2.087   8.496  0.3068 -1.1674  0.0656
 3613SOL    HW122298   0.476   2.130   8.413 -2.5652 -1.0809 -0.5601
 3613SOL    HW222299   0.406   2.009   8.473  0.8759 -1.2974 -0.7092
 3614SOL     OW22300   4.660   4.218   3.608 -0.0292 -0.1480 -0.7966
 3614SOL    HW122301   4.712   4.193   3.684 -0.8440  0.8204  0.0995
 3614SOL    HW222302   4.619   4.301   3.634 -1.0278 -1.6843  2.5050
 3615SOL     OW22303   0.188   2.228   8.432 -0.4679 -0.2923 -0.2828
 3615SOL    HW122304   0.200   2.166   8.504 -0.6173  0.4171  0.3550
 3615SOL    HW222305   0.224   2.307   8.472  0.3712 -0.7163 -0.2099
 3616SOL     OW22306   0.831   0.723   5.273 -0.0980 -0.0042  0.0147
 3616SOL    HW122307   0.808   0.631   5.284  0.4367  0.1594  2.6081
 3616SOL    HW222308   0.925   0.719   5.256  0.2928 -1.4726  2.4296
 3617SOL     OW22309   3.121   3.595   5.051  0.8121  0.2589 -0.2919
 3617SOL    HW122310   3.032   3.594   5.017  1.0894 -0.8778 -0.9548
 3617SOL    HW222311   3.104   3.656   5.123 -1.2109  0.1402 -0.6645
 3618SOL     OW22312   2.346   1.065  17.098 -0.0646 -0.1478 -0.2155
 3618SOL    HW122313   2.387   1.030  17.177  0.4983 -0.6139 -0.7136
 3618SOL    HW222314   2.414   1.078  17.032 -0.2829  0.3495 -0.3452
 3619SOL     OW22315   3.892   1.858   3.786  0.5486  0.5473 -0.1966
 3619SOL    HW122316   3.978   1.860   3.830 -0.1679 -0.8436  1.2758
 3619SOL    HW222317   3.860   1.945   3.809  1.3121  0.7776  0.0113
 3620SOL     OW22318   2.513   1.762  14.691  0.4484  0.7637  0.3213
 3620SOL    HW122319   2.556   1.838  14.652  0.8583 -0.5743 -1.8075
 3620SOL    HW222320   2.433   1.750  14.639  1.0742  0.4872 -0.5808
 3621SOL     OW22321   3.148   2.984   9.180 -1.2410 -0.6092  0.4985
 3621SOL    HW122322   3.108   3.068   9.204 -0.8515 -0.4043  0.4346
 3621SOL    HW222323   3.113   2.929   9.250 -3.3411  1.0089  0.7201
 3622SOL     OW22324   1.969   4.481   7.110 -0.0233  0.1237  0.2787
 3622SOL    HW122325   1.910   4.445   7.177  1.2163  0.6768  1.6537
 3622SOL    HW222326   2.055   4.463   7.147  0.6932  0.8805 -0.9914
 3623SOL     OW22327   3.669   1.829   4.397 -0.1414 -0.1745 -0.4128
 3623SOL    HW122328   3.606   1.873   4.454  0.1095  1.3161 -1.2755
 3623SOL    HW222329   3.615   1.802   4.323 -0.9505 -0.3662  0.2531
 3624SOL     OW22330   1.661   1.222   2.152  0.0497  0.5144 -0.0436
 3624SOL    HW122331   1.652   1.149   2.091 -1.1373  0.5156  0.1349
 3624SOL    HW222332   1.749   1.250   2.124  0.8083 -1.7714  0.0560
 3625SOL     OW22333   4.597   0.342   4.472 -0.7662  0.5218 -0.0325
 3625SOL    HW122334   4.648   0.408   4.424  0.9414 -0.6953  0.1099
 3625SOL    HW222335   4.559   0.298   4.396  0.6290 -0.6249 -0.0738
 3626SOL     OW22336   0.743   2.571   8.347 -0.5877  0.3255 -0.2911
 3626SOL    HW122337   0.713   2.648   8.394 -3.4202 -0.3570 -0.9745
 3626SOL    HW222338   0.737   2.615   8.262 -0.6588 -0.6469 -0.7937
 3627SOL     OW22339   4.287   4.247   7.183 -0.8533  0.2825  0.3250
 3627SOL    HW122340   4.231   4.172   7.201  1.6215 -1.4274  0.9203
 3627SOL    HW222341   4.378   4.220   7.200 -0.4169  1.1241 -0.6388
 3628SOL     OW22342   4.417   0.432  15.995  0.0001  0.2184 -0.0989
 3628SOL    HW122343   4.328   0.398  16.008 -0.5812  2.1289  0.9769
 3628SOL    HW222344   4.397   0.513  16.042 -2.4665 -0.4384  0.0062
 3629SOL     OW22345   2.091   4.138   2.367  0.3861  0.3928 -0.1027
 3629SOL    HW122346   2.124   4.086   2.441  1.5009  1.7380  0.3482
 3629SOL    HW222347   2.068   4.079   2.295  0.9807  0.2063 -0.1466
 3630SOL     OW22348   2.735   2.562  17.044  0.4085 -0.1716  0.2493
 3630SOL    HW122349   2.794   2.512  17.100  1.5074  4.0114  2.8419
 3630SOL    HW222350   2.693   2.499  16.986  0.4891 -0.7402  0.8075
 3631SOL     OW22351   0.276   3.883   5.615  0.0821  0.0582 -0.4991
 3631SOL    HW122352   0.304   3.797   5.585  0.4925  0.1430 -0.3643
 3631SOL    HW222353   0.195   3.887   5.564  0.5923  0.2715 -1.3049
 3632SOL     OW22354   2.318   1.775  12.576 -0.3876 -0.3469 -0.0409
 3632SOL    HW122355   2.230   1.751  12.606 -0.1324 -3.4995 -1.8609
 3632SOL    HW222356   2.292   1.859  12.537  0.3255 -1.0463 -1.9801
 3633SOL     OW22357   1.463   2.065   6.370  0.3097 -0.1077  0.3851
 3633SOL    HW122358   1.467   2.111   6.455  1.6196 -1.1844  0.9137
 3633SOL    HW222359   1.467   1.972   6.390  2.4667  0.1434  1.2285
 3634SOL     OW22360   0.849   3.961   2.150  0.0572 -0.1171 -0.1616
 3634SOL    HW122361   0.831   3.908   2.228  0.0942 -1.3106 -0.9753
 3634SOL    HW222362   0.883   4.037   2.199  2.4788 -0.2868 -1.5615
 3635SOL     OW22363   3.639   1.343  12.929 -0.5143  0.0367  0.4739
 3635SOL    HW122364   3.598   1.419  12.972  0.2828  0.9128 -0.3186
 3635SOL    HW222365   3.684   1.297  13.000  0.2247 -0.6411 -0.4413
 3636SOL     OW22366   1.234   3.154  13.320  0.5266 -0.3234  0.5701
 3636SOL    HW122367   1.293   3.080  13.333  3.1012  1.1945 -2.5905
 3636SOL    HW222368   1.179   3.118  13.251  1.7330  0.5758 -0.8747
 3637SOL     OW22369   1.075   0.644   5.469  0.2783  0.1662 -0.2398
 3637SOL    HW122370   1.100   0.562   5.427 -1.8433 -0.4259 -0.3427
 3637SOL    HW222371   1.076   0.700   5.392 -1.8088  0.2437 -0.2161
 3638SOL     OW22372   2.806   0.683   7.626 -0.8488 -0.1442 -0.2578
 3638SOL    HW122373   2.717   0.701   7.658 -0.9418 -0.9589 -0.0529
 3638SOL    HW222374   2.833   0.602   7.668  3.0256  0.8625 -0.8800
 3639SOL     OW22375   4.421   2.417  10.863 -0.7918 -0.2422 -0.5074
 3639SOL    HW122376   4.404   2.366  10.784 -0.7672  0.0747 -0.7200
 3639SOL    HW222377   4.434   2.351  10.930  0.6751 -1.1375 -1.6817
 3640SOL     OW22378   3.156   4.097   3.197  0.2705 -0.1399 -0.4606
 3640SOL    HW122379   3.079   4.088   3.140  1.0162 -0.0365 -1.4836
 3640SOL    HW222380   3.117   4.091   3.285  2.4250 -1.3223  0.4090
 3641SOL     OW22381   3.669   1.110  15.618  0.2792 -0.5100  0.2666
 3641SOL    HW122382   3.633   1.052  15.551 -0.4393 -0.7518  0.8637
 3641SOL    HW222383   3.756   1.078  15.643  0.2848 -1.4980 -1.0216
 3642SOL     OW22384   3.446   2.484   5.811 -0.4064 -0.2891  0.0270
 3642SOL    HW122385   3.449   2.566   5.861 -0.5031 -0.0769 -0.3160
 3642SOL    HW222386   3.511   2.495   5.742 -1.0467 -1.3697 -0.7343
 3643SOL     OW22387   0.630   2.878   3.875  0.1000  0.8920  0.2361
 3643SOL    HW122388   0.671   2.964   3.870 -1.1898  1.5025  0.0193
 3643SOL    HW222389   0.630   2.846   3.785 -1.4934  3.1105 -0.5547
 3644SOL     OW22390   4.585   0.272   7.651  0.4361  0.4626  0.0930
 3644SOL    HW122391   4.635   0.244   7.728  1.6668 -0.1653 -0.9393
 3644SOL    HW222392   4.512   0.318   7.692 -0.5813  0.5921 -1.8926
 3645SOL     OW22393   0.709   3.290   2.084  0.6021  0.1137 -0.0120
 3645SOL    HW122394   0.730   3.208   2.041 -0.2168 -0.1168  0.0201
 3645SOL    HW222395   0.799   3.323   2.081  0.0144  1.7538  0.1155
 3646SOL     OW22396   2.179   4.327   1.374 -0.2961 -0.2501  0.0370
 3646SOL    HW122397   2.154   4.243   1.336 -4.5869  1.1682 -0.2479
 3646SOL    HW222398   2.161   4.385   1.300  1.7885  1.0594  0.5488
 3647SOL     OW22399   2.858   0.609   4.320 -0.0148 -0.0426 -0.1869
 3647SOL    HW122400   2.939   0.577   4.361  0.0172 -2.1778 -1.9605
 3647SOL    HW222401   2.807   0.531   4.339  2.7431 -1.4531  1.5632
 3648SOL     OW22402   2.182   0.740  15.764  0.6648 -0.2252  0.2511
 3648SOL    HW122403   2.272   0.718  15.788  0.9080 -0.9026 -1.2671
 3648SOL    HW222404   2.164   0.812  15.823 -1.2575 -1.5340  1.2663
 3649SOL     OW22405   0.060   0.587   2.977 -0.3098 -0.2256  0.2086
 3649SOL    HW122406   0.062   0.541   2.893 -3.1106  1.3629 -0.7208
 3649SOL    HW222407   4.716   0.538   3.022 -0.3878  0.0289  0.3669
 3650SOL     OW22408   2.973   3.533   2.716  0.7996  0.4565 -0.8073
 3650SOL    HW122409   2.993   3.590   2.642  0.6528 -0.8661 -1.8476
 3650SOL    HW222410   3.037   3.465   2.699  1.7703  1.1453  0.0392
 3651SOL     OW22411   2.269   2.830   4.293  0.1321 -0.0640  0.1268
 3651SOL    HW122412   2.250   2.924   4.289 -0.9936 -0.3623 -1.7087
 3651SOL    HW222413   2.185   2.786   4.281  0.0919  0.0771 -0.1264
 3652SOL     OW22414   4.258   1.671   5.370 -0.3158  0.0641 -0.4519
 3652SOL    HW122415   4.314   1.725   5.314  0.0916  0.3531  0.2266
 3652SOL    HW222416   4.179   1.726   5.376 -1.5653 -1.9825  1.9411
 3653SOL     OW22417   0.718   2.314   8.381  0.0421 -0.4047 -0.0992
 3653SOL    HW122418   0.743   2.405   8.362  0.9575 -0.1724  2.2754
 3653SOL    HW222419   0.625   2.335   8.382  0.1281 -0.0671  0.5288
 3654SOL     OW22420   0.026   2.659   9.107  0.1574  0.0638  0.2635
 3654SOL    HW122421   0.060   2.693   9.190  0.6394 -2.2485  1.0216
 3654SOL    HW222422   0.061   2.569   9.106 -0.2243 -0.1066  1.4802
 3655SOL     OW22423   3.686   2.476  11.904 -0.3137 -0.0518 -0.9367
 3655SOL    HW122424   3.710   2.398  11.853  1.0902 -2.6888  3.7717
 3655SOL    HW222425   3.612   2.509  11.853 -0.7362 -2.6016 -2.0256
 3656SOL     OW22426   0.728   3.739  13.105  0.0730  0.6989  0.5862
 3656SOL    HW122427   0.799   3.718  13.166 -1.1462  1.2063  2.1959
 3656SOL    HW222428   0.666   3.669  13.125 -0.2931  0.3128 -1.9419
 3657SOL     OW22429   1.662   3.529   4.158  0.6340 -0.5683 -0.1085
 3657SOL    HW122430   1.579   3.495   4.189  1.0723 -0.3907  1.2402
 3657SOL    HW222431   1.713   3.453   4.186  3.3643  0.3934 -2.4308
 3658SOL     OW22432   1.331   2.413   6.487  0.5672  1.1319  0.5870
 3658SOL    HW122433   1.246   2.445   6.456  1.3266  3.0793  0.5370
 3658SOL    HW222434   1.397   2.444   6.425  0.0369  1.2003  0.0650
 3659SOL     OW22435   1.964   1.878   3.451 -0.0993 -0.3257  0.3213
 3659SOL    HW122436   2.050   1.908   3.481 -0.6332  3.6829 -2.2358
 3659SOL    HW222437   1.911   1.957   3.449 -0.0186 -0.3240 -1.5447
 3660SOL     OW22438   0.001   4.339   9.067  0.0825 -0.5592 -0.4500
 3660SOL    HW122439   4.649   4.395   9.085 -0.1779 -0.4094 -1.9930
 3660SOL    HW222440   4.683   4.272   9.013  1.1721  0.4695 -2.5950
 3661SOL     OW22441   3.946   1.171   4.639  0.2727 -0.0786 -0.0038
 3661SOL    HW122442   3.973   1.253   4.597  1.0952 -0.3588 -0.0211
 3661SOL    HW222443   4.002   1.108   4.594 -0.7909 -0.3024 -1.0273
 3662SOL     OW22444   4.655   2.703   5.825 -0.7793  0.4139 -0.3120
 3662SOL    HW122445   0.008   2.755   5.850 -1.9856  1.8238  0.5107
 3662SOL    HW222446   4.613   2.771   5.773  0.0018  1.9017  0.9822
 3663SOL     OW22447   2.631   3.648   8.819 -0.0029  0.3412  0.3944
 3663SOL    HW122448   2.711   3.689   8.851 -0.9598  0.3524  2.8224
 3663SOL    HW222449   2.650   3.619   8.730 -2.6733 -3.1193  0.9292
 3664SOL     OW22450   1.303   2.201   4.313  0.0569  0.3269 -0.8416
 3664SOL    HW122451   1.232   2.157   4.265 -0.1107 -0.3886  0.0629
 3664SOL    HW222452   1.371   2.134   4.321 -0.4901 -0.0314  0.6713
 3665SOL     OW22453   3.881   2.476   6.799  0.0579  0.2587  0.1005
 3665SOL    HW122454   3.860   2.396   6.848 -1.6315  0.6211 -0.0350
 3665SOL    HW222455   3.807   2.526   6.832 -1.2350 -2.8869  1.9829
 3666SOL     OW22456   1.345   0.106  12.428 -0.2468 -0.0497 -0.2485
 3666SOL    HW122457   1.254   0.085  12.451  0.5392  0.1893  3.0617
 3666SOL    HW222458   1.380   0.133  12.513 -0.5970 -0.4805  0.0302
 3667SOL     OW22459   3.009   2.761   1.716 -0.0476 -0.5309 -0.0517
 3667SOL    HW122460   2.923   2.801   1.729  0.1190 -0.5130  0.9573
 3667SOL    HW222461   2.980   2.676   1.684  0.3637 -1.1898  1.3205
 3668SOL     OW22462   1.197   2.032  17.615  0.1258  0.3104 -0.1774
 3668SOL    HW122463   1.132   2.011  17.681 -0.0004  0.1580 -0.3499
 3668SOL    HW222464   1.136   2.027  17.542  0.8669 -0.3477 -0.7591
 3669SOL     OW22465   2.597   0.190   8.066  0.0728  0.6378 -0.2238
 3669SOL    HW122466   2.580   0.162   7.976 -0.1005  1.8041 -0.5651
 3669SOL    HW222467   2.527   0.256   8.068 -0.7888 -0.3736  2.7004
 3670SOL     OW22468   1.839   2.157  15.778 -0.1136  0.4937  0.0363
 3670SOL    HW122469   1.747   2.138  15.759  0.0117 -0.7709  0.7126
 3670SOL    HW222470   1.841   2.200  15.864 -0.2065 -1.7352  1.1493
 3671SOL     OW22471   1.331   0.623  16.897  0.0107  0.0730 -0.0511
 3671SOL    HW122472   1.314   0.715  16.877  2.5479  0.4136 -0.6482
 3671SOL    HW222473   1.341   0.626  16.993  1.8569  2.0569 -0.3086
 3672SOL     OW22474   3.499   1.733   3.169 -0.8225  0.5355  0.0135
 3672SOL    HW122475   3.585   1.700   3.143 -1.5330 -1.4187  0.1339
 3672SOL    HW222476   3.462   1.767   3.088 -0.3100  0.2847 -0.3295
 3673SOL     OW22477   2.939   2.506   9.385  0.5179  0.1240 -0.0310
 3673SOL    HW122478   2.873   2.439   9.405  1.6861 -0.5904  1.3488
 3673SOL    HW222479   3.016   2.469   9.428  0.5759 -0.8983 -1.0045
 3674SOL     OW22480   1.385   1.956   6.119  0.1938  0.2508  0.1982
 3674SOL    HW122481   1.447   1.998   6.058  1.5586 -0.7010  0.9416
 3674SOL    HW222482   1.409   2.001   6.200 -1.1995  2.2320 -0.4643
 3675SOL     OW22483   0.720   3.140  10.334  0.9578  0.0769 -0.1047
 3675SOL    HW122484   0.686   3.149  10.245  1.0157  0.5236 -0.0775
 3675SOL    HW222485   0.803   3.181  10.310  0.6487 -0.5447 -2.2457
 3676SOL     OW22486   4.060   0.947  16.999  0.1065 -0.2378  0.3978
 3676SOL    HW122487   4.063   1.001  17.078 -0.4776  0.3971 -0.0230
 3676SOL    HW222488   4.105   0.870  17.035  0.3416  0.9590  2.6366
 3677SOL     OW22489   1.556   3.246   3.595  0.5270 -0.0434 -0.2195
 3677SOL    HW122490   1.573   3.328   3.641 -0.8393  0.0777  0.0771
 3677SOL    HW222491   1.573   3.184   3.666 -1.3064 -0.3749 -0.0629
 3678SOL     OW22492   3.061   3.918   1.496  0.1143  0.2908  0.3624
 3678SOL    HW122493   3.064   3.879   1.408 -0.7110 -1.2733  1.0238
 3678SOL    HW222494   3.022   4.001   1.471 -1.8175 -0.9812 -0.8223
 3679SOL     OW22495   1.314   0.643   0.987 -0.0028  0.3198  0.4327
 3679SOL    HW122496   1.278   0.570   1.037  0.0544  0.3426  0.5059
 3679SOL    HW222497   1.404   0.622   1.012  0.7195  0.7745 -1.8109
 3680SOL     OW22498   1.222   1.752  15.812 -0.2958  0.1922 -0.2278
 3680SOL    HW122499   1.174   1.673  15.838  0.9280  0.0756  1.6865
 3680SOL    HW222500   1.305   1.714  15.783 -1.2238 -1.1783 -1.0668
 3681SOL     OW22501   2.177   3.287   4.570 -0.0653  0.1609 -0.2034
 3681SOL    HW122502   2.161   3.272   4.663 -1.6832  1.2641 -0.3111
 3681SOL    HW222503   2.102   3.344   4.558 -0.3671  0.0374  1.1103
 3682SOL     OW22504   2.830   3.022   4.672  0.1289 -0.0383 -0.3766
 3682SOL    HW122505   2.838   2.980   4.758  0.1659 -1.1279 -0.9154
 3682SOL    HW222506   2.779   2.957   4.624 -1.0862 -0.5345  1.5921
 3683SOL     OW22507   4.647   1.645  14.452 -0.2800  0.2593  0.8018
 3683SOL    HW122508   0.015   1.671  14.452  0.1504 -1.2304  2.3590
 3683SOL    HW222509   4.661   1.550  14.453  0.0711  0.3162  1.0981
 3684SOL     OW22510   2.906   1.881  13.117 -0.1125  0.0394 -0.1601
 3684SOL    HW122511   2.852   1.933  13.177  0.1692  0.7483 -0.5102
 3684SOL    HW222512   2.853   1.893  13.039  0.0637 -0.2877 -0.3290
 3685SOL     OW22513   4.662   3.253  12.960 -0.1050 -0.0235 -0.0818
 3685SOL    HW122514   4.721   3.325  12.936 -1.4838  1.1656  0.1237
 3685SOL    HW222515   4.590   3.261  12.897 -1.3470  0.4591  1.3918
 3686SOL     OW22516   3.963   2.346   8.334 -0.1611  0.0980 -0.0398
 3686SOL    HW122517   3.919   2.399   8.268  0.0988 -0.2583 -0.4981
 3686SOL    HW222518   3.952   2.408   8.406 -1.3963  1.3564 -1.3135
 3687SOL     OW22519   3.109   3.426   0.494  0.4961 -0.3722 -0.1977
 3687SOL    HW122520   3.173   3.368   0.453  2.7564 -0.0853  2.9266
 3687SOL    HW222521   3.030   3.409   0.442 -0.6074  2.1973  0.6278
 3688SOL     OW22522   3.517   1.366  13.671 -0.1166  0.3705 -0.2549
 3688SOL    HW122523   3.445   1.314  13.706  1.7819 -1.8381  0.2971
 3688SOL    HW222524   3.530   1.315  13.591  1.6874 -0.3398  0.4945
 3689SOL     OW22525   4.327   0.283   6.873  0.0679  0.0074  0.0422
 3689SOL    HW122526   4.330   0.368   6.829  0.4350 -0.6564 -1.2247
 3689SOL    HW222527   4.396   0.284   6.940 -0.6576 -2.1130  0.8021
 3690SOL     OW22528   1.198   2.738   7.623  0.3727  0.0779  0.1164
 3690SOL    HW122529   1.287   2.703   7.626  0.4645  0.2846 -0.2083
 3690SOL    HW222530   1.206   2.807   7.557  0.6708 -0.2766 -0.2150
 3691SOL     OW22531   0.154   1.381  11.234 -0.3869 -0.2405  0.1505
 3691SOL    HW122532   0.096   1.318  11.276 -0.1076  0.4601  1.5915
 3691SOL    HW222533   0.109   1.461  11.260 -0.5195 -0.7176  1.3662
 3692SOL     OW22534   3.109   2.108   7.607 -0.4704 -0.2677  0.0579
 3692SOL    HW122535   3.180   2.065   7.654  0.6748  0.4936 -0.9481
 3692SOL    HW222536   3.154   2.187   7.575 -2.2070  0.5000 -0.4569
 3693SOL     OW22537   2.007   1.453   4.341 -0.3226  0.0391 -0.2983
 3693SOL    HW122538   1.914   1.447   4.317 -0.4200 -0.7784  0.2900
 3693SOL    HW222539   2.002   1.467   4.436 -0.5499  2.4213 -0.6542
 3694SOL     OW22540   1.031   4.371  17.303  0.4685 -0.0647 -0.3982
 3694SOL    HW122541   1.087   4.309  17.349  0.4699  1.2822  1.4029
 3694SOL    HW222542   0.994   4.320  17.230 -0.8710 -1.0553  0.9585
 3695SOL     OW22543   1.251   4.047   8.142  0.2498  0.4701 -0.0670
 3695SOL    HW122544   1.194   4.065   8.217  2.1908 -0.3571  1.5823
 3695SOL    HW222545   1.311   4.119   8.160 -0.3866  0.9188  0.2661
 3696SOL     OW22546   0.667   3.536   9.961 -0.2123  0.1466 -0.1998
 3696SOL    HW122547   0.582   3.547  10.004  0.5763  0.1481  1.3250
 3696SOL    HW222548   0.689   3.624   9.931 -0.2562  1.0723  2.5074
 3697SOL     OW22549   2.371   1.561  11.853  0.0861 -0.0469  0.5180
 3697SOL    HW122550   2.372   1.487  11.914 -0.2642  0.8817  1.6342
 3697SOL    HW222551   2.387   1.515  11.771 -0.3497  0.6556  0.0441
 3698SOL     OW22552   3.339   2.522  10.574 -0.9349  0.4323  0.5305
 3698SOL    HW122553   3.262   2.465  10.576  0.6234 -1.5867  3.1232
 3698SOL    HW222554   3.402   2.455  10.600 -1.1472  0.5230  1.2786
 3699SOL     OW22555   3.215   2.497   2.024  0.0044 -0.3920 -0.7476
 3699SOL    HW122556   3.298   2.451   2.020 -0.3187 -0.9620 -0.9547
 3699SOL    HW222557   3.159   2.420   2.037 -1.4909  0.7039 -0.6521
 3700SOL     OW22558   3.667   1.232   7.870  0.1251 -0.3284  0.0698
 3700SOL    HW122559   3.708   1.297   7.927 -0.3539 -1.4854  1.7206
 3700SOL    HW222560   3.660   1.272   7.783  4.1632 -0.5459 -0.3523
 3701SOL     OW22561   3.764   1.461  14.695 -0.6583 -0.1673  0.2460
 3701SOL    HW122562   3.715   1.518  14.636  1.6823 -0.3621 -1.8874
 3701SOL    HW222563   3.844   1.509  14.719 -1.3160  0.7892  0.5014
 3702SOL     OW22564   2.881   2.356  16.666  0.4177  0.2284 -0.3987
 3702SOL    HW122565   2.878   2.365  16.762  0.7350 -1.8690 -0.1968
 3702SOL    HW222566   2.859   2.444  16.636 -1.1944 -0.2302 -0.6030
 3703SOL     OW22567   3.461   0.362  12.510  0.0202  0.5939 -0.5828
 3703SOL    HW122568   3.482   0.405  12.427  1.3722 -0.3369 -0.7123
 3703SOL    HW222569   3.448   0.270  12.485  0.9815 -0.0273  1.2187
 3704SOL     OW22570   4.150   2.087   2.215  0.2200  0.1380  0.0684
 3704SOL    HW122571   4.132   2.132   2.132 -0.3194  0.3397  0.2913
 3704SOL    HW222572   4.107   2.006   2.191 -1.3324  0.7291  0.8474
 3705SOL     OW22573   2.818   3.260  12.910  0.1164 -0.2534 -0.2480
 3705SOL    HW122574   2.902   3.268  12.865  0.8991 -0.5755  1.1948
 3705SOL    HW222575   2.803   3.341  12.959  0.4692  0.2099 -0.9007
 3706SOL     OW22576   3.864   2.685   5.448 -0.2145  0.1913 -0.9344
 3706SOL    HW122577   3.891   2.696   5.539 -1.7515 -1.9210 -0.2353
 3706SOL    HW222578   3.770   2.696   5.466 -0.3118 -1.0170 -0.6905
 3707SOL     OW22579   1.464   2.607   4.673 -0.0246  0.0872 -0.0684
 3707SOL    HW122580   1.406   2.680   4.650  0.7100  0.8201  0.3946
 3707SOL    HW222581   1.473   2.561   4.590 -1.7424 -1.8016  0.7800
 3708SOL     OW22582   0.603   3.422   6.689  0.1451  0.3779 -0.8654
 3708SOL    HW122583   0.529   3.478   6.712  0.3518 -0.2961  1.3728
 3708SOL    HW222584   0.576   3.387   6.604 -0.9209  2.5324 -1.4252
 3709SOL     OW22585   1.507   3.790  16.853  0.0837  0.4124 -0.0508
 3709SOL    HW122586   1.458   3.711  16.872 -1.1599  0.4392 -3.1563
 3709SOL    HW222587   1.432   3.849  16.855  0.2870  0.7035 -0.7161
 3710SOL     OW22588   1.303   4.423   5.278 -0.9966  0.8670  0.1007
 3710SOL    HW122589   1.386   4.448   5.318  0.4916 -0.7823 -1.9299
 3710SOL    HW222590   1.323   4.333   5.254  0.6424  1.1290  0.4797
 3711SOL     OW22591   2.098   2.601   8.061  0.5816  0.1956 -0.0045
 3711SOL    HW122592   2.170   2.552   8.101 -1.3199 -2.4445  0.1704
 3711SOL    HW222593   2.133   2.682   8.024  1.0919 -0.5977 -1.2258
 3712SOL     OW22594   2.789   2.268   3.723 -0.6343 -0.6328 -0.1528
 3712SOL    HW122595   2.841   2.347   3.711  0.7750 -1.2630  1.8768
 3712SOL    HW222596   2.759   2.288   3.811 -0.8040  3.0083 -1.0554
 3713SOL     OW22597   0.748   2.174   5.707 -0.1810  0.0977  0.1555
 3713SOL    HW122598   0.802   2.250   5.686 -2.5205  1.6380 -0.4026
 3713SOL    HW222599   0.673   2.189   5.649  0.1046 -0.3619 -0.3295
 3714SOL     OW22600   4.622   3.465   2.725  0.1841 -0.0146 -0.5290
 3714SOL    HW122601   4.704   3.431   2.688 -1.2455 -0.5244 -3.2036
 3714SOL    HW222602   4.575   3.387   2.756  3.2773 -0.5421  2.9158
 3715SOL     OW22603   3.076   2.345   2.266 -0.0298 -0.0190 -0.2765
 3715SOL    HW122604   3.043   2.274   2.322  0.6004  1.0403  1.4611
 3715SOL    HW222605   3.112   2.283   2.203 -0.4860 -0.4606 -0.0948
 3716SOL     OW22606   0.556   0.294  10.920  0.6400 -0.3641 -0.0327
 3716SOL    HW122607   0.461   0.294  10.917  0.7711  0.8500 -3.1507
 3716SOL    HW222608   0.562   0.221  10.982  3.2214 -1.0630 -1.0757
 3717SOL     OW22609   4.206   3.144   5.593 -0.2872  0.0148 -0.2777
 3717SOL    HW122610   4.176   3.126   5.504 -0.8862 -0.4096  0.0132
 3717SOL    HW222611   4.259   3.220   5.567 -1.0851  1.1928  1.5025
 3718SOL     OW22612   1.014   4.324   4.352  0.0964  0.1100 -0.0019
 3718SOL    HW122613   0.980   4.235   4.354 -0.0645  0.1342 -1.5639
 3718SOL    HW222614   1.105   4.314   4.322  0.0625  1.0976 -0.4531
 3719SOL     OW22615   0.386   3.028   2.085 -0.0412  0.4182  0.1472
 3719SOL    HW122616   0.371   3.122   2.095 -0.3470  0.4811 -0.9425
 3719SOL    HW222617   0.481   3.033   2.075 -0.0600  0.4725 -0.0018
 3720SOL     OW22618   1.930   2.478   8.686 -0.1623  0.2780  0.0993
 3720SOL    HW122619   1.878   2.449   8.760  0.1490  2.1368  1.0480
 3720SOL    HW222620   1.880   2.457   8.607 -2.7555  0.0899  1.8024
 3721SOL     OW22621   3.749   4.526   9.845 -0.3964 -0.0108 -0.1485
 3721SOL    HW122622   3.815   4.586   9.810 -1.1683  1.3412  0.7425
 3721SOL    HW222623   3.769   4.441   9.806 -0.2464  0.2204 -0.5769
 3722SOL     OW22624   3.010   3.311   2.917 -0.0809  0.1473  0.5740
 3722SOL    HW122625   3.072   3.336   2.848  1.7571  0.5605  2.3512
 3722SOL    HW222626   3.069   3.286   2.989 -0.7925 -0.7363  0.8630
 3723SOL     OW22627   4.385   2.319   0.305 -0.0182  0.2280  0.0240
 3723SOL    HW122628   4.375   2.298   0.212  1.2339  1.5650 -0.4082
 3723SOL    HW222629   4.402   2.413   0.303  0.7721  0.1102  1.2652
 3724SOL     OW22630   0.881   4.592   9.960  0.1590  0.0517  0.3280
 3724SOL    HW122631   0.855   4.500   9.963 -1.8986  0.6671  1.5278
 3724SOL    HW222632   0.938   4.590  10.038 -1.4671 -0.8604  1.4839
 3725SOL     OW22633   1.471   4.208  17.472  0.2376 -0.0804  0.0615
 3725SOL    HW122634   1.378   4.199  17.455  0.6791 -2.3732 -1.1170
 3725SOL    HW222635   1.496   4.268  17.401  1.8459 -0.8865 -0.0648
 3726SOL     OW22636   4.129   3.440   1.742 -0.2087  0.1507  0.0469
 3726SOL    HW122637   4.072   3.364   1.731 -1.6205  1.0796  0.8564
 3726SOL    HW222638   4.218   3.406   1.741  0.2633  1.4657 -2.5050
 3727SOL     OW22639   0.862   3.641   4.829  1.1016 -0.1074 -0.6425
 3727SOL    HW122640   0.952   3.669   4.812  0.4340  2.0868 -0.4598
 3727SOL    HW222641   0.874   3.566   4.888  1.2221  1.5312  1.3836
 3728SOL     OW22642   0.967   4.276   5.904 -0.1067  0.0816 -0.6646
 3728SOL    HW122643   0.942   4.252   5.815 -0.7279  1.7106 -0.9399
 3728SOL    HW222644   1.031   4.343   5.880  0.4031  0.0067  0.4904
 3729SOL     OW22645   1.458   0.224  16.431  0.2109  0.2032 -0.7182
 3729SOL    HW122646   1.539   0.177  16.451 -0.1368  0.6283  1.6900
 3729SOL    HW222647   1.396   0.153  16.449  0.8918 -0.2818 -0.2902
 3730SOL     OW22648   0.998   2.835   0.125  0.3194  0.0030  0.4158
 3730SOL    HW122649   0.912   2.794   0.124 -1.0495  2.8170  2.0824
 3730SOL    HW222650   1.015   2.834   0.031  0.6944 -0.6286  0.4910
 3731SOL     OW22651   3.414   1.379   1.402  0.7283 -0.1918 -0.1157
 3731SOL    HW122652   3.418   1.311   1.335 -0.0152  1.0379 -1.4198
 3731SOL    HW222653   3.497   1.365   1.447 -0.2410 -2.2869  1.0171
 3732SOL     OW22654   0.032   4.527   4.314 -0.2299  0.1958 -0.1089
 3732SOL    HW122655   0.038   4.519   4.409 -1.9100 -1.5055 -0.1378
 3732SOL    HW222656   0.120   4.500   4.289 -0.5290 -0.7621 -0.1115
 3733SOL     OW22657   0.515   4.376  13.134 -0.3559  0.5015  0.1450
 3733SOL    HW122658   0.605   4.401  13.154  0.7160 -3.3500 -0.0254
 3733SOL    HW222659   0.511   4.294  13.182  0.7900 -0.1280 -0.8479
 3734SOL     OW22660   3.952   2.497  15.375 -0.2158  0.2274 -0.0447
 3734SOL    HW122661   4.010   2.423  15.352  0.2195 -0.5474  3.6395
 3734SOL    HW222662   3.874   2.457  15.414 -1.2301  3.3324  1.0289
 3735SOL     OW22663   2.287   4.257   6.488 -0.2457  0.9548 -0.3815
 3735SOL    HW122664   2.372   4.302   6.486  0.2498  0.0140 -0.5964
 3735SOL    HW222665   2.318   4.167   6.495 -0.6039  0.8453 -0.2263
 3736SOL     OW22666   1.790   2.616   1.726 -0.2261 -0.0636 -0.3066
 3736SOL    HW122667   1.822   2.531   1.756  0.3445  0.8041  1.5643
 3736SOL    HW222668   1.860   2.676   1.752 -0.3270  0.4182 -1.1510
 3737SOL     OW22669   1.725   3.739  15.104 -0.3575 -0.3304  0.1340
 3737SOL    HW122670   1.774   3.816  15.077  0.6719 -0.9714  0.1692
 3737SOL    HW222671   1.671   3.779  15.172  2.0020  0.5129  1.5155
 3738SOL     OW22672   0.619   0.582   3.475 -0.1504  0.2271 -0.0788
 3738SOL    HW122673   0.665   0.616   3.398  1.2829  2.7354  1.9068
 3738SOL    HW222674   0.696   0.576   3.530 -1.0492  1.1897  1.2891
 3739SOL     OW22675   4.625   1.755   7.991 -0.0877 -0.3861  0.1495
 3739SOL    HW122676   4.564   1.828   8.006 -0.0920 -0.6109  1.2127
 3739SOL    HW222677   4.688   1.755   8.063 -1.7231 -1.1899  1.5829
 3740SOL     OW22678   3.468   3.516   3.158 -0.0992  0.8729 -0.3865
 3740SOL    HW122679   3.536   3.581   3.138  1.0080 -0.3848 -0.7219
 3740SOL    HW222680   3.495   3.431   3.123 -1.4021  0.7033 -0.9506
 3741SOL     OW22681   3.216   1.082   5.208 -0.3996  0.0472  0.4136
 3741SOL    HW122682   3.272   1.153   5.238  1.6403 -1.2986 -0.2419
 3741SOL    HW222683   3.139   1.098   5.263  0.5345  1.9217  1.1799
 3742SOL     OW22684   3.803   2.869   8.224  0.5406 -0.1769  0.3278
 3742SOL    HW122685   3.874   2.913   8.271  0.0514  1.5171 -0.4814
 3742SOL    HW222686   3.730   2.932   8.224  1.3308  0.7399 -0.6782
 3743SOL     OW22687   0.792   2.682   4.609  0.1801 -0.4809  0.0388
 3743SOL    HW122688   0.728   2.682   4.538  0.4858 -3.0821 -0.2452
 3743SOL    HW222689   0.849   2.620   4.564 -0.5198 -2.3256  1.7127
 3744SOL     OW22690   0.546   3.247   7.716 -0.1784  0.0219 -0.4356
 3744SOL    HW122691   0.576   3.300   7.642 -1.8113  2.7205  0.8347
 3744SOL    HW222692   0.619   3.187   7.707 -1.3940 -1.4318 -0.5109
 3745SOL     OW22693   0.859   1.451   5.489 -0.2392 -0.2493 -0.1078
 3745SOL    HW122694   0.812   1.507   5.550  1.6245 -0.7367  1.7803
 3745SOL    HW222695   0.874   1.511   5.416 -0.5624  1.5341  1.3021
 3746SOL     OW22696   3.553   1.671   1.022 -0.2720 -0.1155 -0.7456
 3746SOL    HW122697   3.571   1.761   0.994 -0.1594 -0.0987 -0.6174
 3746SOL    HW222698   3.642   1.636   1.023 -0.0168  0.5918  0.7345
 3747SOL     OW22699   3.028   3.974   8.661  0.4533 -0.1121  0.0580
 3747SOL    HW122700   3.025   4.009   8.750 -1.6575  0.6757 -0.3234
 3747SOL    HW222701   3.117   3.978   8.625 -0.1642  1.8836 -1.2379
 3748SOL     OW22702   3.801   1.930  11.895 -0.4027 -0.3534  0.2730
 3748SOL    HW122703   3.724   1.879  11.919  0.6703 -0.3699  3.7823
 3748SOL    HW222704   3.850   1.932  11.977  0.9415  2.2306 -0.5661
 3749SOL     OW22705   0.346   3.089  15.034 -0.0346 -0.7567  0.1053
 3749SOL    HW122706   0.264   3.112  15.078  1.0813  2.5495  0.5159
 3749SOL    HW222707   0.396   3.171  15.026  1.1282 -1.4027  0.7865
 3750SOL     OW22708   3.421   2.872  10.715 -0.2123 -0.3179 -0.5745
 3750SOL    HW122709   3.507   2.832  10.725 -0.5285 -0.4228  1.6001
 3750SOL    HW222710   3.396   2.890  10.805  0.1306  1.5675 -0.8572
 3751SOL     OW22711   2.370   0.863  16.880  0.2514  0.0487  0.2840
 3751SOL    HW122712   2.440   0.851  16.945 -1.9688  1.4796  2.9549
 3751SOL    HW222713   2.368   0.775  16.842  0.9266  0.7750 -1.4313
 3752SOL     OW22714   1.100   2.538   4.503  0.5161 -0.3400  0.2401
 3752SOL    HW122715   1.039   2.551   4.430  1.1060  1.8877  0.1625
 3752SOL    HW222716   1.103   2.442   4.507  2.6918 -0.3803 -2.7413
 3753SOL     OW22717   2.021   4.307  15.266 -0.0914 -0.0429  0.0451
 3753SOL    HW122718   1.929   4.317  15.243 -0.2899 -0.9319  0.4807
 3753SOL    HW222719   2.063   4.316  15.180 -0.5048 -1.7310 -0.3377
 3754SOL     OW22720   0.129   3.387   8.174  0.0967 -0.0364  0.0496
 3754SOL    HW122721   0.186   3.311   8.179 -1.1873 -1.0710 -1.0048
 3754SOL    HW222722   0.054   3.342   8.135 -1.5012  0.8428  2.0982
 3755SOL     OW22723   2.696   2.565   2.561  0.5023  0.2086  0.2792
 3755SOL    HW122724   2.616   2.562   2.509  1.2200  0.6212 -0.8529
 3755SOL    HW222725   2.753   2.490   2.547 -0.9819 -0.7688 -0.4976
 3756SOL     OW22726   2.753   3.956   8.487 -0.1064  0.2609  0.1205
 3756SOL    HW122727   2.803   4.018   8.434 -0.3615 -0.6219 -1.1472
 3756SOL    HW222728   2.727   4.022   8.551 -0.1941  0.3439 -0.0014
 3757SOL     OW22729   3.596   3.026   2.887 -0.3231 -0.1651 -0.3563
 3757SOL    HW122730   3.615   2.994   2.975 -1.1387  0.8063  0.1710
 3757SOL    HW222731   3.593   2.946   2.834 -1.3009 -0.4047  0.0763
 3758SOL     OW22732   0.084   0.845   5.700  0.6417  0.2345 -0.2535
 3758SOL    HW122733   0.142   0.903   5.750  0.4955  0.8632 -0.8040
 3758SOL    HW222734   0.113   0.759   5.729  0.7087 -0.0509 -1.1636
 3759SOL     OW22735   3.257   3.329   3.613 -1.1665 -0.3497 -0.0335
 3759SOL    HW122736   3.201   3.288   3.679 -1.5038 -0.0789 -0.1505
 3759SOL    HW222737   3.222   3.418   3.617 -1.4345 -0.4726  0.2666
 3760SOL     OW22738   4.436   1.776   1.883 -0.3025 -0.1455 -0.1105
 3760SOL    HW122739   4.469   1.862   1.857  0.9468 -0.4018  0.6812
 3760SOL    HW222740   4.497   1.761   1.955  1.4339 -1.0021 -1.7626
 3761SOL     OW22741   0.745   1.405   2.107  0.4367 -0.2627  0.0580
 3761SOL    HW122742   0.727   1.481   2.051 -1.0580  1.5409  2.9961
 3761SOL    HW222743   0.838   1.396   2.087  0.9323  1.3301  1.6330
 3762SOL     OW22744   0.015   4.286   5.700  0.2983  0.4493 -0.5061
 3762SOL    HW122745   0.051   4.222   5.762 -1.1323 -1.0110 -1.1892
 3762SOL    HW222746   0.087   4.350   5.697  0.8633 -0.1148  1.1417
 3763SOL     OW22747   1.221   2.012   6.695 -0.0895  0.3934  0.1722
 3763SOL    HW122748   1.257   1.973   6.776  0.3499  0.0067 -0.2085
 3763SOL    HW222749   1.216   2.104   6.721 -0.3687  0.6982 -0.9752
 3764SOL     OW22750   3.548   3.688   7.135 -0.0066  0.3562  0.6786
 3764SOL    HW122751   3.630   3.708   7.089  0.4222  0.1169  1.3397
 3764SOL    HW222752   3.489   3.693   7.060  0.0313 -0.6932  0.5850
 3765SOL     OW22753   2.567   0.141   7.524  0.0792  0.3726  0.4919
 3765SOL    HW122754   2.561   0.088   7.444  1.2464  0.5876  0.2598
 3765SOL    HW222755   2.501   0.209   7.515 -0.0723  0.1998  0.2707
 3766SOL     OW22756   4.556   3.584   8.262  0.1178  0.0912 -0.1098
 3766SOL    HW122757   4.622   3.579   8.332  2.0265  1.1448 -1.8530
 3766SOL    HW222758   4.577   3.507   8.209  1.9711  0.4048  0.1399
 3767SOL     OW22759   1.538   1.413  10.739  0.4132  0.0567 -0.3537
 3767SOL    HW122760   1.562   1.418  10.831 -1.7905  0.9094  0.1713
 3767SOL    HW222761   1.453   1.456  10.727  0.7599  0.9871  0.5415
 3768SOL     OW22762   1.093   1.339   5.482 -0.5646  0.1741 -0.0045
 3768SOL    HW122763   1.107   1.308   5.572 -0.5475 -0.7775 -0.3346
 3768SOL    HW222764   1.009   1.385   5.477 -1.7115 -1.8273  1.0615
 3769SOL     OW22765   2.690   3.719  13.381 -0.2476 -0.0950 -0.2982
 3769SOL    HW122766   2.631   3.791  13.405 -0.1264 -1.0251  2.8127
 3769SOL    HW222767   2.772   3.759  13.410 -0.5165 -0.0061  0.3433
 3770SOL     OW22768   0.278   4.711   9.151  0.2326 -0.1859  0.8410
 3770SOL    HW122769   0.187   0.012   9.137  0.4160  0.1764  0.2661
 3770SOL    HW222770   0.294   4.642   9.086 -0.6501  0.2032  0.2185
 3771SOL     OW22771   2.289   1.136  13.551 -0.1188  0.1203 -0.3834
 3771SOL    HW122772   2.355   1.202  13.532 -0.0643 -0.4857 -2.2907
 3771SOL    HW222773   2.248   1.113  13.468  2.7168 -2.6138 -1.0192
 3772SOL     OW22774   4.466   1.062   6.795 -0.3893  0.2032 -0.0168
 3772SOL    HW122775   4.489   1.059   6.702  2.5234  0.2903  0.7078
 3772SOL    HW222776   4.493   1.151   6.815  1.2519 -0.2489 -0.1992
 3773SOL     OW22777   1.504   2.840   4.998 -0.6624  0.0899  0.2984
 3773SOL    HW122778   1.503   2.876   5.087  1.3883 -2.0622  1.1887
 3773SOL    HW222779   1.572   2.773   5.006 -0.9661 -0.1897  0.5534
 3774SOL     OW22780   4.214   1.889   9.033  0.0831  0.0081 -0.2677
 3774SOL    HW122781   4.254   1.969   9.067 -0.2881 -0.4223  1.1685
 3774SOL    HW222782   4.298   1.845   9.019  0.7918  1.1709  0.4130
 3775SOL     OW22783   1.918   0.355  10.690  0.3171  0.9217  0.2702
 3775SOL    HW122784   1.879   0.278  10.732 -1.2560  1.4814 -0.1852
 3775SOL    HW222785   1.869   0.429  10.725 -0.7184  0.1187  0.5126
 3776SOL     OW22786   3.648   1.681   2.928 -0.2539  0.9257 -0.0753
 3776SOL    HW122787   3.572   1.714   2.879 -1.7522 -0.4519  1.2940
 3776SOL    HW222788   3.719   1.719   2.878 -0.2221 -0.5981 -1.1987
 3777SOL     OW22789   0.180   2.041   7.249  0.0220  0.2143  0.4949
 3777SOL    HW122790   0.261   2.045   7.198  0.6659 -2.6720  1.3248
 3777SOL    HW222791   0.114   2.040   7.179  0.5193  0.8671  0.0133
 3778SOL     OW22792   1.013   4.420   1.967  0.6426 -0.3706 -0.7882
 3778SOL    HW122793   0.961   4.364   1.910  0.9709  0.7030 -2.1401
 3778SOL    HW222794   1.103   4.390   1.982  0.4877  0.0244  0.9980
 3779SOL     OW22795   0.511   0.246   4.985 -0.1802  0.0562  0.1971
 3779SOL    HW122796   0.571   0.320   4.982  0.7625 -0.6451  1.3964
 3779SOL    HW222797   0.439   0.277   4.932  0.4355  1.2014  0.0419
 3780SOL     OW22798   1.427   0.357   6.771 -0.7759 -0.7028 -0.1034
 3780SOL    HW122799   1.340   0.388   6.748  0.4177  0.6163 -2.7528
 3780SOL    HW222800   1.471   0.361   6.686  1.7026  1.1691  1.2692
 3781SOL     OW22801   0.908   0.927  10.334  0.1344 -0.4755 -0.1757
 3781SOL    HW122802   0.813   0.928  10.345  0.0272  0.8138 -1.1259
 3781SOL    HW222803   0.932   0.854  10.391  0.4687 -0.5113 -0.3560
 3782SOL     OW22804   2.552   2.252  10.142 -0.4212 -0.4988 -0.1424
 3782SOL    HW122805   2.478   2.305  10.171  0.3301  0.1079  0.6716
 3782SOL    HW222806   2.607   2.277  10.216 -1.0244  0.7053 -0.1091
 3783SOL     OW22807   1.610   4.360   6.976 -0.2090  0.2726  0.6059
 3783SOL    HW122808   1.620   4.294   7.045  0.1993 -0.9257 -0.5891
 3783SOL    HW222809   1.519   4.386   6.991 -0.0486 -0.1770  2.3243
 3784SOL     OW22810   0.524   2.104  12.023 -0.1945 -0.4190  0.9183
 3784SOL    HW122811   0.431   2.082  12.026  0.1166 -1.9566 -0.8123
 3784SOL    HW222812   0.526   2.125  12.117  0.7599 -3.3376  1.5431
 3785SOL     OW22813   1.543   2.554   4.212  0.9445 -0.3387  0.1931
 3785SOL    HW122814   1.496   2.637   4.224  0.7141 -0.2236 -1.4808
 3785SOL    HW222815   1.556   2.550   4.307  0.9612  0.8607  0.2434
 3786SOL     OW22816   0.731   3.966  11.981  0.1978 -0.0868  0.2850
 3786SOL    HW122817   0.752   3.987  11.890 -2.1783 -0.7315 -0.4106
 3786SOL    HW222818   0.769   3.879  11.995  2.0742  0.9747  1.8654
 3787SOL     OW22819   4.506   0.030   6.125  0.0453 -0.5685 -0.0653
 3787SOL    HW122820   4.465   0.109   6.092 -0.5716 -0.4880  0.8913
 3787SOL    HW222821   4.504   4.696   6.049  0.2262 -2.0696  1.0650
 3788SOL     OW22822   0.120   2.889   4.343 -0.2653 -0.4549  0.3836
 3788SOL    HW122823   0.048   2.892   4.280 -1.2989 -1.0832  1.5448
 3788SOL    HW222824   0.175   2.831   4.291 -0.7624 -0.5568 -0.0319
 3789SOL     OW22825   2.238   3.665  12.174  0.1709  0.1648 -0.2559
 3789SOL    HW122826   2.171   3.711  12.123  0.3322  1.0633  0.3478
 3789SOL    HW222827   2.209   3.691  12.262 -1.7827  2.2242 -1.4905
 3790SOL     OW22828   4.376   4.091   4.736  0.4308  0.1770 -0.1288
 3790SOL    HW122829   4.383   4.054   4.824  2.3402 -1.4677 -0.9712
 3790SOL    HW222830   4.405   4.182   4.746  1.5268 -0.2175  0.3131
 3791SOL     OW22831   1.747   2.452  10.827  0.5361 -0.4413 -0.3336
 3791SOL    HW122832   1.699   2.425  10.749  0.5066  1.1265 -0.8743
 3791SOL    HW222833   1.722   2.385  10.891 -1.5672 -0.1818 -0.8702
 3792SOL     OW22834   4.112   1.242  10.766 -0.0693  0.2202  0.1739
 3792SOL    HW122835   4.024   1.250  10.802 -0.0227 -2.9090  0.9976
 3792SOL    HW222836   4.143   1.152  10.764  0.0869  0.2828 -0.2015
 3793SOL     OW22837   3.455   1.244   8.650 -0.0410 -0.0103  0.1869
 3793SOL    HW122838   3.545   1.238   8.618 -0.1199 -0.5386  0.0645
 3793SOL    HW222839   3.418   1.166   8.608 -0.7950  0.5708 -0.2199
 3794SOL     OW22840   1.037   3.541   3.585 -0.4272  0.5136  0.1757
 3794SOL    HW122841   1.070   3.472   3.642 -1.8132 -0.3556 -0.0861
 3794SOL    HW222842   1.089   3.521   3.507 -1.4695 -2.0240  0.1353
 3795SOL     OW22843   1.862   3.439   8.033  0.7290  0.6265  0.1282
 3795SOL    HW122844   1.848   3.348   8.010  0.9059  0.7746 -0.5509
 3795SOL    HW222845   1.958   3.441   8.031  0.7914 -0.9497  1.0118
 3796SOL     OW22846   3.365   1.833   8.022  0.6103  0.0203 -0.3068
 3796SOL    HW122847   3.349   1.759   7.963 -2.3092 -0.0576  0.6093
 3796SOL    HW222848   3.282   1.880   8.016  0.7695  0.0546 -2.3217
 3797SOL     OW22849   2.942   1.134   5.683  0.2466 -0.0848 -0.1869
 3797SOL    HW122850   2.849   1.141   5.661  0.3349  1.0802 -0.2413
 3797SOL    HW222851   2.944   1.061   5.744  0.2678 -0.0049 -0.0907
 3798SOL     OW22852   1.798   3.171   3.311  0.1992 -0.0587 -0.1655
 3798SOL    HW122853   1.703   3.172   3.312  0.2441  2.4008  1.3599
 3798SOL    HW222854   1.817   3.142   3.222  0.6831 -1.9516  0.5476
 3799SOL     OW22855   1.916   1.363   6.490 -0.7742 -0.0061  0.9920
 3799SOL    HW122856   1.924   1.291   6.428 -0.2765 -0.6733  1.8334
 3799SOL    HW222857   1.979   1.322   6.550 -1.4072 -2.2137  0.1570
 3800SOL     OW22858   1.282   4.254   3.503 -0.0474 -0.2211  0.0300
 3800SOL    HW122859   1.371   4.273   3.475 -0.1734 -0.4154 -0.5124
 3800SOL    HW222860   1.238   4.283   3.423 -0.8175  0.9451  0.8739
 3801SOL     OW22861   3.567   0.422   1.521 -0.4431  0.2021 -0.4155
 3801SOL    HW122862   3.660   0.431   1.498 -0.4114  0.5923 -0.1325
 3801SOL    HW222863   3.581   0.410   1.615  0.5779  0.1061 -0.5797
 3802SOL     OW22864   3.859   1.845   0.161 -0.0800  0.6663  0.2535
 3802SOL    HW122865   3.831   1.872   0.073  0.5258 -0.0235 -0.1477
 3802SOL    HW222866   3.789   1.876   0.219 -1.9816 -0.0407 -1.6275
 3803SOL     OW22867   3.609   3.055   7.661 -0.0833  0.6315  0.3593
 3803SOL    HW122868   3.646   2.975   7.623  0.8417  0.5471  1.4267
 3803SOL    HW222869   3.664   3.075   7.736  1.3280  1.2041 -0.8245
 3804SOL     OW22870   4.231   0.609   2.013 -0.3294  0.9638 -0.1128
 3804SOL    HW122871   4.298   0.641   1.954  1.3256  1.2613  1.9237
 3804SOL    HW222872   4.160   0.620   1.950 -0.7604 -1.2862 -0.0376
 3805SOL     OW22873   3.186   4.565  14.837 -0.6528 -0.0828  0.1278
 3805SOL    HW122874   3.148   4.489  14.881 -0.0383  0.5932  1.7870
 3805SOL    HW222875   3.138   4.563  14.754  0.7349  0.9516 -0.6918
 3806SOL     OW22876   4.439   3.599   6.210 -0.0681 -0.6987 -0.2707
 3806SOL    HW122877   4.511   3.642   6.164 -2.3034  0.1091 -2.9424
 3806SOL    HW222878   4.467   3.510   6.188  1.2040  0.3822 -2.9409
 3807SOL     OW22879   0.781   0.992   2.670  0.8600  0.4029  0.7580
 3807SOL    HW122880   0.833   0.961   2.744  0.2238 -3.2469 -0.3206
 3807SOL    HW222881   0.847   1.021   2.607  1.4638 -2.3335  0.1562
 3808SOL     OW22882   4.218   0.006   8.971 -0.3779  0.6363  0.2211
 3808SOL    HW122883   4.271   4.707   9.047 -0.3626  0.9593  0.3069
 3808SOL    HW222884   4.148   0.062   9.003 -1.9477 -1.0257 -0.3389
 3809SOL     OW22885   3.307   1.222  13.064 -0.3718 -0.0049 -0.2815
 3809SOL    HW122886   3.343   1.301  13.106  0.6676 -0.0712 -1.0566
 3809SOL    HW222887   3.357   1.153  13.107 -2.3391 -1.4567 -0.3233
 3810SOL     OW22888   1.135   2.211   5.905  0.1138 -0.2912 -0.1817
 3810SOL    HW122889   1.115   2.139   5.965 -0.3444  0.2889  0.3645
 3810SOL    HW222890   1.156   2.167   5.823  1.7299  0.2287 -0.0330
 3811SOL     OW22891   3.875   0.600   4.943  0.6011  0.1205  0.1360
 3811SOL    HW122892   3.882   0.588   5.038 -1.3290 -0.8932  0.1529
 3811SOL    HW222893   3.966   0.620   4.921 -0.5899  2.2017 -2.9369
 3812SOL     OW22894   0.946   2.080   8.799  0.1270  0.1111 -0.1844
 3812SOL    HW122895   0.853   2.095   8.778  0.5355  1.5740 -0.9538
 3812SOL    HW222896   0.945   2.045   8.888  0.0250 -0.2364 -0.3214
 3813SOL     OW22897   3.226   0.031  17.066 -0.8241 -0.2250 -0.0539
 3813SOL    HW122898   3.161   0.022  16.997  0.2684 -1.3823 -0.9436
 3813SOL    HW222899   3.254   0.122  17.061 -1.3554  0.0825  2.2723
 3814SOL     OW22900   3.149   0.728   5.318  0.4009 -0.1844 -0.3408
 3814SOL    HW122901   3.178   0.788   5.387 -2.7961  1.0665 -0.0829
 3814SOL    HW222902   3.152   0.644   5.364 -1.9501  0.4146  0.8968
 3815SOL     OW22903   2.514   1.899  16.227  0.2794 -0.2792 -0.5260
 3815SOL    HW122904   2.517   1.817  16.178  0.6752 -0.8858  0.5074
 3815SOL    HW222905   2.540   1.968  16.166 -0.8012 -0.9752 -1.7727
 3816SOL     OW22906   2.429   2.225   4.236 -0.4446 -0.1895 -0.3186
 3816SOL    HW122907   2.431   2.211   4.142  2.6546  1.8949 -0.5555
 3816SOL    HW222908   2.440   2.135   4.268 -3.3892 -0.6427 -0.5679
 3817SOL     OW22909   2.997   4.421  15.974  0.1091 -0.4852 -0.1688
 3817SOL    HW122910   2.957   4.357  15.915  0.0141 -0.2465 -0.3611
 3817SOL    HW222911   3.054   4.469  15.914 -3.2698  2.1576 -1.2609
 3818SOL     OW22912   2.216   1.484   3.411 -0.3382 -0.2525 -0.0399
 3818SOL    HW122913   2.242   1.573   3.389  0.2693  0.2083  2.5682
 3818SOL    HW222914   2.253   1.472   3.499 -1.2071  1.3272  0.5460
 3819SOL     OW22915   0.587   3.972   4.661 -0.1267 -0.9329 -0.3347
 3819SOL    HW122916   0.614   3.956   4.752 -1.3852  1.2727  0.4380
 3819SOL    HW222917   0.668   3.955   4.613 -0.7306 -1.6110 -1.0949
 3820SOL     OW22918   4.341   2.357   8.675 -0.0492 -0.6804  0.4356
 3820SOL    HW122919   4.248   2.351   8.694  0.0324 -0.8725  0.7857
 3820SOL    HW222920   4.351   2.355   8.580  0.6886 -1.7438  0.5307
 3821SOL     OW22921   3.131   0.885   4.870 -0.8002 -0.0007 -0.5953
 3821SOL    HW122922   3.154   0.898   4.961 -2.5209  0.8984 -0.2968
 3821SOL    HW222923   3.135   0.789   4.868  3.8909  0.2340 -1.7631
 3822SOL     OW22924   4.510   2.908   3.818 -0.0004  0.2822 -0.3986
 3822SOL    HW122925   4.452   2.922   3.743  0.2348 -0.0916 -0.6472
 3822SOL    HW222926   4.467   2.951   3.892  1.9473  0.4972  0.5943
 3823SOL     OW22927   0.729   0.486   1.890 -0.0082  0.0156  0.2142
 3823SOL    HW122928   0.695   0.491   1.980 -0.3738 -1.3403  0.1533
 3823SOL    HW222929   0.770   0.572   1.889  1.8018 -0.8983 -2.8668
 3824SOL     OW22930   2.758   2.214   4.820  0.0838 -0.3235 -0.8548
 3824SOL    HW122931   2.831   2.190   4.763  1.8553  0.8076  0.9374
 3824SOL    HW222932   2.689   2.217   4.754  0.1875 -3.4576 -1.1213
 3825SOL     OW22933   2.510   3.110   1.607  0.4990 -0.1559  0.0404
 3825SOL    HW122934   2.472   3.056   1.676 -1.5427  1.9258  0.5393
 3825SOL    HW222935   2.533   3.188   1.658 -0.9575  0.8445 -0.8229
 3826SOL     OW22936   3.335   4.611   0.877 -0.4774 -0.0181  0.1855
 3826SOL    HW122937   3.295   4.695   0.853 -1.5067 -0.8071 -0.8827
 3826SOL    HW222938   3.276   4.545   0.839 -0.2291 -0.2123  0.1414
 3827SOL     OW22939   1.685   2.221  12.501 -0.1762 -0.0259 -0.6708
 3827SOL    HW122940   1.705   2.168  12.579 -3.9262 -0.1770  0.1964
 3827SOL    HW222941   1.688   2.308  12.540 -0.1033  0.5914 -2.0796
 3828SOL     OW22942   2.525   0.724   8.257  0.3314  0.7567 -0.0279
 3828SOL    HW122943   2.607   0.686   8.226  0.7138  0.4735  1.3458
 3828SOL    HW222944   2.497   0.763   8.174 -0.7450  0.4274  0.1739
 3829SOL     OW22945   2.106   1.123   2.961 -0.1781  0.1441  0.5341
 3829SOL    HW122946   2.086   1.140   2.869  2.9698  0.2946 -0.1234
 3829SOL    HW222947   2.080   1.207   2.998  1.2270  0.4947  0.7514
 3830SOL     OW22948   1.043   1.219   5.741 -0.3260  0.2999  0.5319
 3830SOL    HW122949   1.020   1.245   5.831  1.2072  0.3659  0.8938
 3830SOL    HW222950   0.959   1.180   5.717 -0.9582  1.2279  1.1855
 3831SOL     OW22951   2.736   3.589  13.918  0.0470  0.1559 -0.8112
 3831SOL    HW122952   2.737   3.684  13.907  0.4834 -0.1380 -3.2569
 3831SOL    HW222953   2.789   3.575  13.996 -0.4919  3.9184  0.2335
 3832SOL     OW22954   2.545   4.183   6.013 -0.0068 -0.2918  0.0957
 3832SOL    HW122955   2.634   4.164   5.985  0.6305  2.0445  0.5060
 3832SOL    HW222956   2.526   4.141   6.096 -1.1688  1.6392  0.8101
 3833SOL     OW22957   0.742   2.550   4.004  0.3962 -0.1938 -0.3447
 3833SOL    HW122958   0.734   2.536   3.910 -1.1137  1.1453 -0.4133
 3833SOL    HW222959   0.706   2.466   4.031  0.8283 -0.1765  0.2821
 3834SOL     OW22960   4.357   1.411  17.140 -0.1086  0.2193  0.3646
 3834SOL    HW122961   4.367   1.474  17.211  0.2824  0.6637 -0.0853
 3834SOL    HW222962   4.429   1.351  17.158 -1.4370 -1.9640 -1.6107
 3835SOL     OW22963   1.983   0.603  11.544  0.3755 -0.1321 -0.6869
 3835SOL    HW122964   1.936   0.685  11.530  0.6433 -0.1725 -1.8354
 3835SOL    HW222965   1.957   0.574  11.632  3.8061 -1.4730 -0.1133
 3836SOL     OW22966   0.975   3.208   2.123  0.4551  0.0457  0.0640
 3836SOL    HW122967   1.055   3.175   2.164  0.9480 -0.3133 -1.1854
 3836SOL    HW222968   0.974   3.138   2.057 -5.1892 -0.8400  1.0599
 3837SOL     OW22969   3.098   3.432   2.142 -0.9296 -0.2048  0.2847
 3837SOL    HW122970   3.140   3.352   2.174  1.1756  0.5656 -0.5851
 3837SOL    HW222971   3.054   3.464   2.221  0.4821  0.2317  0.8845
 3838SOL     OW22972   2.982   0.243   1.669  0.2816  0.8669  0.4204
 3838SOL    HW122973   2.932   0.181   1.723  0.0144 -1.0336 -1.9823
 3838SOL    HW222974   2.942   0.326   1.693 -0.8810  0.3048  0.4558
 3839SOL     OW22975   4.062   4.227   3.023  0.0139  0.0353 -0.6068
 3839SOL    HW122976   4.136   4.180   3.062  0.2349  0.3061 -0.6969
 3839SOL    HW222977   4.069   4.204   2.931 -0.6381 -0.4231 -0.5345
 3840SOL     OW22978   2.124   0.805   3.352  0.5752  0.0576  0.1276
 3840SOL    HW122979   2.193   0.813   3.418  1.0161  1.2889 -0.4682
 3840SOL    HW222980   2.167   0.804   3.267 -0.0186 -1.3370 -0.1440
 3841SOL     OW22981   1.255   1.761   3.725 -0.4965  0.2591 -0.1726
 3841SOL    HW122982   1.239   1.694   3.658  1.1745 -0.3485  0.0477
 3841SOL    HW222983   1.346   1.743   3.745 -0.5271 -1.4914 -1.5828
 3842SOL     OW22984   1.061   1.001  11.120 -0.2884 -0.2262  0.4093
 3842SOL    HW122985   1.008   1.066  11.167 -2.1871 -1.5719  0.0990
 3842SOL    HW222986   1.041   1.016  11.028  3.0480  1.3189 -0.0593
 3843SOL     OW22987   4.411   2.629   2.269 -0.5704 -0.1132 -0.6978
 3843SOL    HW122988   4.459   2.556   2.231 -0.9559  0.0781 -1.5620
 3843SOL    HW222989   4.457   2.637   2.352 -2.9570 -2.5013  0.8604
 3844SOL     OW22990   3.462   4.426   3.124  0.3383  0.7547  0.0503
 3844SOL    HW122991   3.492   4.514   3.100 -2.1460  1.7640  0.6986
 3844SOL    HW222992   3.543   4.383   3.153 -0.1799  0.6315  1.2972
 3845SOL     OW22993   3.201   2.899   1.621 -0.4523 -0.1543  0.0645
 3845SOL    HW122994   3.120   2.856   1.649  0.1797 -1.7436 -0.5563
 3845SOL    HW222995   3.162   2.952   1.552  1.1230 -0.0819 -0.7724
 3846SOL     OW22996   2.493   4.637   2.845  0.1739  0.2326  0.1099
 3846SOL    HW122997   2.456   4.634   2.757  0.4347 -1.2798  0.0673
 3846SOL    HW222998   2.503   4.544   2.862 -0.0412 -0.2037 -2.1757
 3847SOL     OW22999   4.143   3.766   9.129  0.2456 -0.1241  0.2770
 3847SOL    HW123000   4.128   3.683   9.173 -1.7169 -0.9079 -1.8845
 3847SOL    HW223001   4.215   3.800   9.182 -0.0396  0.8867  0.0070
 3848SOL     OW23002   1.161   1.962  15.404  0.3076  0.1288  0.2935
 3848SOL    HW123003   1.220   1.888  15.405  1.6494  1.1865 -0.7794
 3848SOL    HW223004   1.122   1.966  15.492 -0.3932 -3.2404  0.1225
 3849SOL     OW23005   3.575   1.296   4.140  0.2272 -0.0872 -0.2187
 3849SOL    HW123006   3.639   1.242   4.187 -1.1229 -0.9111  0.6813
 3849SOL    HW223007   3.537   1.242   4.071 -1.1290  0.6514 -0.0657
 3850SOL     OW23008   2.539   0.634   4.734 -0.3449 -0.3186 -0.4282
 3850SOL    HW123009   2.502   0.546   4.741 -0.8524 -0.1339 -0.8201
 3850SOL    HW223010   2.633   0.613   4.734 -0.1552  0.5386  1.2946
 3851SOL     OW23011   1.380   3.602   6.213  0.6893 -0.3066 -0.4529
 3851SOL    HW123012   1.471   3.574   6.201  0.9000 -0.2156  0.9775
 3851SOL    HW223013   1.348   3.530   6.159  2.2121 -1.5579  0.2719
 3852SOL     OW23014   2.043   3.830  15.764 -0.5089 -0.3419  0.1761
 3852SOL    HW123015   2.033   3.786  15.680 -2.0190 -1.9243  1.1774
 3852SOL    HW223016   2.034   3.920  15.733  1.6602 -0.3510 -0.5135
 3853SOL     OW23017   4.500   2.675   7.858  0.1986  0.7406 -0.0014
 3853SOL    HW123018   4.513   2.648   7.949  3.2433 -0.0459 -0.6620
 3853SOL    HW223019   4.590   2.670   7.825 -1.0047 -1.9588 -2.8130
 3854SOL     OW23020   4.660   4.377  14.981 -0.0768 -0.4441  0.2792
 3854SOL    HW123021   4.572   4.341  14.980  0.3685 -1.5507  2.0538
 3854SOL    HW223022   4.683   4.367  14.888 -1.0492  2.9794 -0.3492
 3855SOL     OW23023   1.197   2.081   8.041 -0.4762 -0.0643 -0.1644
 3855SOL    HW123024   1.194   2.105   7.948 -0.6441  0.0132 -0.1382
 3855SOL    HW223025   1.114   2.118   8.070 -1.9086 -1.3958 -2.5545
 3856SOL     OW23026   2.660   1.003  17.463 -0.1135 -0.2324  0.2266
 3856SOL    HW123027   2.671   1.073  17.527  0.0324  1.4612 -1.6831
 3856SOL    HW223028   2.731   0.942  17.485  0.6353  0.1176 -1.2509
 3857SOL     OW23029   2.881   3.887   9.147 -0.8328 -0.1543 -0.9583
 3857SOL    HW123030   2.850   3.826   9.080 -0.1271 -2.3397  0.7292
 3857SOL    HW223031   2.839   3.970   9.123  0.6961  0.8246 -0.3117
 3858SOL     OW23032   1.734   3.259   6.713 -0.0708  0.0651  0.4185
 3858SOL    HW123033   1.723   3.191   6.780  4.1307  0.7975  1.8464
 3858SOL    HW223034   1.742   3.343   6.759 -0.9572  0.0443  0.6142
 3859SOL     OW23035   2.447   0.643   2.439 -0.4914 -0.2254  0.1689
 3859SOL    HW123036   2.365   0.629   2.486 -0.5634 -0.0515  0.0978
 3859SOL    HW223037   2.473   0.551   2.434  0.4804 -0.0138  1.2848
 3860SOL     OW23038   3.166   0.203   3.793 -0.0497  0.4195 -0.6573
 3860SOL    HW123039   3.088   0.159   3.826  0.4512  2.4316  3.2829
 3860SOL    HW223040   3.128   0.267   3.733 -0.2887 -1.5474 -2.5609
 3861SOL     OW23041   0.594   1.419   7.136 -0.7199  0.4542  0.2404
 3861SOL    HW123042   0.549   1.416   7.052 -0.5262 -1.5809  0.2297
 3861SOL    HW223043   0.552   1.349   7.184  1.2996 -0.7965  0.1829
 3862SOL     OW23044   2.216   1.861   5.698  0.4078  0.1219 -0.5999
 3862SOL    HW123045   2.163   1.928   5.657  2.9148  1.9537 -0.8358
 3862SOL    HW223046   2.215   1.885   5.790  0.6853  0.4214 -0.6770
 3863SOL     OW23047   1.864   0.665   0.841 -0.3546  0.2193 -0.2901
 3863SOL    HW123048   1.921   0.716   0.899  1.6703 -1.1434 -1.0950
 3863SOL    HW223049   1.862   0.586   0.895  0.4074  0.5592  0.2291
 3864SOL     OW23050   0.148   3.226   8.541 -0.0504  0.0789 -0.5260
 3864SOL    HW123051   0.191   3.154   8.495 -0.0986  0.6345 -1.4278
 3864SOL    HW223052   0.164   3.192   8.629 -0.0105  0.4297 -0.3960
 3865SOL     OW23053   1.655   0.017   7.258 -0.2131  0.0247  0.0166
 3865SOL    HW123054   1.706   0.075   7.202 -1.3040  1.8609  0.9263
 3865SOL    HW223055   1.710   4.695   7.320  1.6589  0.3960 -1.3714
 3866SOL     OW23056   3.499   2.781   7.150  0.0631  0.2166  0.2183
 3866SOL    HW123057   3.435   2.711   7.140  0.1016  0.1735  0.2783
 3866SOL    HW223058   3.564   2.724   7.189 -1.2916 -0.6524  1.2031
 3867SOL     OW23059   4.190   0.016   1.149  0.5821 -0.0434 -0.0404
 3867SOL    HW123060   4.126   4.670   1.134  1.1773 -0.3616 -1.1247
 3867SOL    HW223061   4.151   0.056   1.226 -0.5618  1.7900 -1.5687
 3868SOL     OW23062   1.687   2.695  10.030  0.7335  0.3677  0.3078
 3868SOL    HW123063   1.732   2.653  10.103  1.4927 -1.2008 -1.0395
 3868SOL    HW223064   1.666   2.780  10.068 -0.0532 -0.0756  0.8651
 3869SOL     OW23065   0.451   0.870   5.640  0.1972 -0.2677  0.1041
 3869SOL    HW123066   0.488   0.927   5.708  1.3297 -0.5438 -0.2766
 3869SOL    HW223067   0.425   0.930   5.570 -1.4529  2.0287  2.6413
 3870SOL     OW23068   0.561   2.102  17.645  0.0110 -0.2959 -0.3537
 3870SOL    HW123069   0.616   2.093   0.026 -0.5023 -2.9141 -0.2783
 3870SOL    HW223070   0.598   2.183  17.609  1.7338 -1.8228 -2.0461
 3871SOL     OW23071   1.757   0.102   3.693 -0.3388  0.1015 -0.3093
 3871SOL    HW123072   1.707   0.025   3.720  1.5268 -0.8373  0.4882
 3871SOL    HW223073   1.782   0.076   3.604 -0.5270  0.9588 -0.6112
 3872SOL     OW23074   0.897   1.037   4.578  0.3194  0.6668  0.4499
 3872SOL    HW123075   0.877   1.034   4.671  0.4863  0.9822  0.4961
 3872SOL    HW223076   0.851   0.959   4.547 -0.6195  1.3463  0.1253
 3873SOL     OW23077   2.767   3.754   1.287 -0.2522 -0.2788  0.4454
 3873SOL    HW123078   2.861   3.768   1.297 -0.5941 -0.1773  3.5003
 3873SOL    HW223079   2.760   3.666   1.325 -1.3897 -1.7164 -3.0370
 3874SOL     OW23080   2.961   0.117   7.079 -0.1915 -0.2711 -0.0529
 3874SOL    HW123081   2.950   0.093   7.171 -1.6197 -0.6658 -0.3212
 3874SOL    HW223082   3.054   0.121   7.056 -0.6719  4.4260 -1.3591
 3875SOL     OW23083   2.201   0.790   4.425  0.3952 -0.0126 -0.1947
 3875SOL    HW123084   2.164   0.755   4.506  0.3610  2.0534  0.6931
 3875SOL    HW223085   2.286   0.820   4.458 -0.4636  1.0385  1.0453
 3876SOL     OW23086   2.338   3.524  16.599  0.0948 -0.1454  0.1461
 3876SOL    HW123087   2.250   3.561  16.605 -0.0047 -0.3401 -0.1034
 3876SOL    HW223088   2.391   3.593  16.559  0.9357 -0.5327  0.5892
 3877SOL     OW23089   0.537   1.852  15.205 -0.4597  0.1369 -0.1936
 3877SOL    HW123090   0.576   1.767  15.186  0.4263  0.5452 -0.2051
 3877SOL    HW223091   0.592   1.911  15.153  1.1108 -0.9059  0.2874
 3878SOL     OW23092   2.559   0.426  11.375 -0.5313 -0.0547  0.7622
 3878SOL    HW123093   2.516   0.347  11.345 -2.5651  1.4083 -0.1641
 3878SOL    HW223094   2.593   0.388  11.455  1.0289  0.6736  0.4537
 3879SOL     OW23095   0.624   0.509   8.560 -0.0416 -0.0583  0.7568
 3879SOL    HW123096   0.646   0.554   8.642 -0.8185 -1.8280  1.9084
 3879SOL    HW223097   0.692   0.442   8.558  0.3707  0.3983 -0.7494
 3880SOL     OW23098   1.489   3.811  13.036  0.0189  0.8859 -0.8424
 3880SOL    HW123099   1.554   3.879  13.019  0.0422  0.8491 -0.9017
 3880SOL    HW223100   1.471   3.773  12.950  1.6391 -1.1091 -0.3010
 3881SOL     OW23101   4.427   0.491  14.741 -0.5041  0.0511  0.0717
 3881SOL    HW123102   4.495   0.440  14.785 -0.4079  0.3110  0.2231
 3881SOL    HW223103   4.487   0.555  14.703  0.2721 -0.4982  0.3710
 3882SOL     OW23104   3.874   2.077   4.103 -0.1963  0.0234 -0.1366
 3882SOL    HW123105   3.828   2.077   4.019 -2.9307  4.1165  1.3813
 3882SOL    HW223106   3.914   2.164   4.095  0.4389 -0.2806 -0.2220
 3883SOL     OW23107   0.565   1.059   5.789  0.2138  0.2147 -0.0856
 3883SOL    HW123108   0.615   1.128   5.745 -0.0604  0.8271  0.5608
 3883SOL    HW223109   0.601   1.055   5.878  1.0442 -3.0582 -0.5899
 3884SOL     OW23110   3.204   0.887  11.361  0.1278  0.3687 -0.7044
 3884SOL    HW123111   3.130   0.878  11.420 -0.9362  0.0747 -2.0924
 3884SOL    HW223112   3.262   0.953  11.398 -1.6639  1.4543  0.1287
 3885SOL     OW23113   1.249   0.714   4.946  0.3998 -0.2256  0.0061
 3885SOL    HW123114   1.272   0.806   4.942  0.0189 -0.0674  1.2240
 3885SOL    HW223115   1.219   0.688   4.859 -1.7839 -0.1103  0.7199
 3886SOL     OW23116   1.997   3.965   7.700  0.2374  0.4049  1.1969
 3886SOL    HW123117   2.042   3.903   7.756  1.4759  0.0394 -0.2236
 3886SOL    HW223118   1.990   3.906   7.626 -1.1016  1.7470  0.2424
 3887SOL     OW23119   2.096   4.366   5.773 -0.4409  0.1272  0.5545
 3887SOL    HW123120   2.183   4.382   5.737 -0.8580  0.5682 -0.2682
 3887SOL    HW223121   2.111   4.392   5.863  2.2526  1.7901 -0.3776
 3888SOL     OW23122   3.561   1.611   8.725 -0.5834 -0.0153  0.7142
 3888SOL    HW123123   3.595   1.597   8.813 -1.3968  1.8824  1.3460
 3888SOL    HW223124   3.560   1.707   8.718 -2.0806 -0.2234 -2.0053
 3889SOL     OW23125   3.704   3.353   2.466 -0.4641  0.0320  0.1042
 3889SOL    HW123126   3.789   3.386   2.439 -1.5742  2.6180 -0.2753
 3889SOL    HW223127   3.647   3.389   2.397 -1.2325 -0.9066  0.2507
 3890SOL     OW23128   4.130   3.943   0.254  0.1560  0.0855  0.2197
 3890SOL    HW123129   4.195   3.914   0.318  2.5029  4.6173 -0.1204
 3890SOL    HW223130   4.054   3.941   0.313  0.2689  2.2090  0.4101
 3891SOL     OW23131   0.538   4.321   9.863  0.0959 -0.3452 -0.0650
 3891SOL    HW123132   0.628   4.347   9.883  0.2501  0.2387 -1.4890
 3891SOL    HW223133   0.527   4.267   9.941 -2.2273 -1.3404 -1.0564
 3892SOL     OW23134   3.357   3.405   4.074 -0.0038 -0.3011 -0.3452
 3892SOL    HW123135   3.357   3.358   4.157  2.4240 -0.5332 -0.4754
 3892SOL    HW223136   3.423   3.474   4.082  0.3277 -0.4257 -1.8855
 3893SOL     OW23137   1.868   0.716  10.014  0.1353  0.0550 -0.1455
 3893SOL    HW123138   1.815   0.705  10.093 -1.7084 -0.7669 -1.4964
 3893SOL    HW223139   1.945   0.765  10.042  0.6676 -1.5921  1.2538
 3894SOL     OW23140   0.937   4.060   4.741  0.1422  0.3614 -0.3697
 3894SOL    HW123141   0.935   4.093   4.830  0.1643  0.6338 -0.4693
 3894SOL    HW223142   1.017   4.008   4.745  1.4647  2.3635 -0.3534
 3895SOL     OW23143   2.513   2.341   2.170  0.1657 -0.0471  0.7979
 3895SOL    HW123144   2.608   2.344   2.157  0.6971 -2.0177  4.1656
 3895SOL    HW223145   2.488   2.419   2.120  0.9615 -1.2872 -1.4927
 3896SOL     OW23146   2.836   1.183  12.244 -0.1919 -0.0700  0.1027
 3896SOL    HW123147   2.892   1.245  12.292  1.6426 -0.2403 -1.8651
 3896SOL    HW223148   2.794   1.138  12.318 -1.6041  2.2908  0.7709
 3897SOL     OW23149   1.632   0.225   5.118  0.3390 -0.0981  0.0224
 3897SOL    HW123150   1.699   0.217   5.186  1.7888 -1.7505 -1.6153
 3897SOL    HW223151   1.567   0.265   5.177  0.4999 -0.4337  0.4273
 3898SOL     OW23152   2.700   0.438   5.810  0.1885 -0.1677  0.6467
 3898SOL    HW123153   2.755   0.360   5.801 -0.4316 -0.2979 -1.9747
 3898SOL    HW223154   2.701   0.469   5.901  3.2931  0.2590  0.4771
 3899SOL     OW23155   0.132   3.098   5.886 -0.1098  0.5256  0.0367
 3899SOL    HW123156   0.173   3.184   5.894 -0.2217  0.5407  0.4443
 3899SOL    HW223157   0.154   3.069   5.798 -1.4778  0.5729 -0.3201
 3900SOL     OW23158   2.131   2.462   4.256 -0.9469  0.0083  0.7880
 3900SOL    HW123159   2.120   2.454   4.161  2.2361 -2.1926  0.6199
 3900SOL    HW223160   2.101   2.552   4.270 -2.9593 -0.7080  1.0611
 3901SOL     OW23161   1.722   3.269   5.110  0.0174 -0.1791 -0.1853
 3901SOL    HW123162   1.768   3.310   5.184 -1.4750 -2.6561  2.1319
 3901SOL    HW223163   1.644   3.234   5.152  1.1756 -2.5190  0.0332
 3902SOL     OW23164   2.035   0.251  11.900  0.1151 -0.2748 -0.0760
 3902SOL    HW123165   2.048   0.201  11.820  0.9070  1.4601 -1.0181
 3902SOL    HW223166   1.958   0.216  11.946 -0.7449 -1.0907 -2.1407
 3903SOL     OW23167   0.219   0.504   8.781  0.5914 -0.1473  0.4580
 3903SOL    HW123168   0.128   0.509   8.753  0.3172 -0.6611  1.2614
 3903SOL    HW223169   0.248   0.589   8.748 -2.7243 -0.0135 -2.1680
 3904SOL     OW23170   1.380   3.803   8.170 -0.0957 -0.2783 -0.0623
 3904SOL    HW123171   1.337   3.763   8.245 -1.1085 -2.0832 -1.5988
 3904SOL    HW223172   1.336   3.888   8.176  1.2120  0.4048 -0.0592
 3905SOL     OW23173   1.589   0.331  16.649 -0.2984  0.3269 -0.2197
 3905SOL    HW123174   1.524   0.309  16.582  1.4039 -2.3011 -0.9958
 3905SOL    HW223175   1.642   0.251  16.644 -0.8592 -0.1621  1.5577
 3906SOL     OW23176   4.183   3.520  16.767 -0.2621 -0.2120  0.4424
 3906SOL    HW123177   4.265   3.564  16.789 -1.7910  1.9018  1.9156
 3906SOL    HW223178   4.151   3.571  16.692 -1.6683 -0.6355  0.7470
 3907SOL     OW23179   3.235   1.019   1.361 -0.1130  0.1450 -0.7452
 3907SOL    HW123180   3.153   0.969   1.357  0.3079 -0.6518  0.5733
 3907SOL    HW223181   3.280   1.005   1.278 -1.1683 -1.3673 -1.0667
 3908SOL     OW23182   1.401   2.676   8.220 -0.2982  0.0229  0.3693
 3908SOL    HW123183   1.413   2.717   8.306 -1.4546  2.2840 -0.5769
 3908SOL    HW223184   1.462   2.732   8.173 -1.7011 -0.3134 -1.8337
 3909SOL     OW23185   2.303   4.162  10.608 -0.5871  0.1639  0.3794
 3909SOL    HW123186   2.255   4.237  10.644  0.7670  1.0337  0.3691
 3909SOL    HW223187   2.348   4.113  10.677  0.6066 -0.3645 -0.7755
 3910SOL     OW23188   1.545   0.422  16.878  0.3681 -0.4149  0.1617
 3910SOL    HW123189   1.454   0.447  16.863  0.2560 -0.1264  1.2824
 3910SOL    HW223190   1.564   0.390  16.790  1.6018  0.4850  0.0945
 3911SOL     OW23191   2.319   1.948   2.318 -0.1586  0.9325 -1.9089
 3911SOL    HW123192   2.270   1.868   2.298 -0.7800  0.3570  1.8398
 3911SOL    HW223193   2.409   1.923   2.339 -0.1970  2.9108  0.5235
 3912SOL     OW23194   2.922   1.797   8.352  0.3340  0.1730  0.6207
 3912SOL    HW123195   2.966   1.737   8.292 -2.0517 -1.2960  0.3203
 3912SOL    HW223196   2.999   1.820   8.404  0.8243 -0.8413  0.3439
 3913SOL     OW23197   2.400   4.333  15.227  0.5149 -0.0781 -0.4656
 3913SOL    HW123198   2.471   4.387  15.191 -0.0143 -0.1610 -1.6355
 3913SOL    HW223199   2.424   4.243  15.206 -0.7621 -0.0792 -1.9492
 3914SOL     OW23200   3.111   2.790   7.673 -0.3294  0.1305  0.1506
 3914SOL    HW123201   3.178   2.855   7.650 -1.7988  2.9204  3.6731
 3914SOL    HW223202   3.071   2.792   7.586  1.0189 -0.3874 -0.4725
 3915SOL     OW23203   3.733   1.386  16.430  0.3993 -0.4091  0.2449
 3915SOL    HW123204   3.739   1.291  16.429  1.0302 -0.3591 -2.3823
 3915SOL    HW223205   3.682   1.391  16.511  1.5399  0.2235  0.9325
 3916SOL     OW23206   0.611   3.791   6.984 -0.5776 -0.1347  0.2788
 3916SOL    HW123207   0.567   3.735   6.921 -0.4996  0.2652 -0.1304
 3916SOL    HW223208   0.645   3.868   6.938  1.6858 -1.1244  0.2782
 3917SOL     OW23209   1.059   3.775  11.846  0.5688 -0.3058  0.0076
 3917SOL    HW123210   0.968   3.774  11.877  0.3287 -2.2882 -0.7242
 3917SOL    HW223211   1.083   3.867  11.856 -0.5945 -0.3000  2.8052
 3918SOL     OW23212   1.937   0.325  15.466 -0.0811 -0.3061  0.4263
 3918SOL    HW123213   1.965   0.354  15.379 -0.2186  0.1523  0.5339
 3918SOL    HW223214   2.004   0.351  15.530  0.1383  2.3302 -0.8854
 3919SOL     OW23215   4.463   2.387  17.100  0.1340 -0.1091  0.1218
 3919SOL    HW123216   4.540   2.340  17.068 -0.7431 -1.3624 -0.1047
 3919SOL    HW223217   4.510   2.453  17.152  0.3704 -0.1043 -0.0967
 3920SOL     OW23218   0.242   4.716   3.170  0.1224  0.2356 -0.0770
 3920SOL    HW123219   0.251   4.640   3.113 -2.7859 -0.9066  1.0153
 3920SOL    HW223220   0.256   4.669   3.252 -1.3392 -0.0013  0.0318
 3921SOL     OW23221   3.954   4.490   5.786 -0.2900 -0.3651  0.3810
 3921SOL    HW123222   3.972   4.524   5.698 -0.5018 -3.5785 -0.9126
 3921SOL    HW223223   3.858   4.487   5.790 -0.2934 -1.4811 -0.6323
 3922SOL     OW23224   1.400   1.552   1.295  0.3149 -0.2396  0.1404
 3922SOL    HW123225   1.319   1.511   1.265  0.0047  1.6788 -1.5982
 3922SOL    HW223226   1.385   1.580   1.386 -0.1314 -0.4585  0.1336
 3923SOL     OW23227   1.739   2.676   5.056  0.1093  0.6272  0.4411
 3923SOL    HW123228   1.779   2.741   4.998  0.9197  0.4324  0.7869
 3923SOL    HW223229   1.814   2.646   5.106  0.6061  0.1314 -0.6022
 3924SOL     OW23230   1.255   2.758  12.566  0.0870  0.6698 -0.0249
 3924SOL    HW123231   1.309   2.836  12.572  0.0298  0.8479 -1.9578
 3924SOL    HW223232   1.175   2.801  12.535 -0.2717  0.7591  1.0159
 3925SOL     OW23233   0.984   0.827   0.317 -0.4724  0.0049  0.3204
 3925SOL    HW123234   1.007   0.886   0.389 -0.6125  2.2619 -1.4665
 3925SOL    HW223235   0.948   0.897   0.262  3.4493 -0.6891 -3.1180
 3926SOL     OW23236   1.586   3.121   8.582 -0.0782 -0.2092 -0.0754
 3926SOL    HW123237   1.493   3.140   8.598  0.2093 -0.0309  1.4415
 3926SOL    HW223238   1.627   3.200   8.616  0.4824 -0.4842 -0.1177
 3927SOL     OW23239   4.591   3.542   3.586 -0.0144  0.0677 -0.2139
 3927SOL    HW123240   4.523   3.523   3.651  1.5258  0.3003  1.4679
 3927SOL    HW223241   4.660   3.478   3.604  1.6359  1.6326 -0.8838
 3928SOL     OW23242   0.272   4.446   0.086 -0.2527 -0.2994 -1.1266
 3928SOL    HW123243   0.187   4.470   0.050 -0.5787  0.4622  0.1858
 3928SOL    HW223244   0.250   4.400   0.166  0.1614  1.0184 -0.2616
 3929SOL     OW23245   1.635   4.239   3.124  1.0609  0.0399  0.0375
 3929SOL    HW123246   1.718   4.226   3.169 -0.6045 -0.2159  3.0385
 3929SOL    HW223247   1.653   4.194   3.041 -2.4267  1.1922 -1.3415
 3930SOL     OW23248   0.874   0.901   5.472  0.3060  0.0086  0.3758
 3930SOL    HW123249   0.916   0.872   5.553  0.5716  0.7175  0.4969
 3930SOL    HW223250   0.874   0.825   5.414  0.6125  1.5511 -1.6590
 3931SOL     OW23251   0.043   4.480  12.645 -0.6829  0.4377  0.0579
 3931SOL    HW123252   4.708   4.555  12.635 -0.5137  0.5004 -0.4239
 3931SOL    HW223253   4.724   4.448  12.725  0.1160 -1.7111 -0.3693
 3932SOL     OW23254   1.841   0.080   8.062 -0.2465  0.4783 -0.1406
 3932SOL    HW123255   1.837   0.053   8.154 -1.8360 -0.7307 -0.5621
 3932SOL    HW223256   1.862   4.718   8.025  0.6850  0.9049 -0.5870
 3933SOL     OW23257   4.070   2.962   4.062 -0.3154  0.3458  0.3771
 3933SOL    HW123258   4.019   2.926   4.134 -1.0143 -1.8614 -1.2378
 3933SOL    HW223259   4.082   2.887   4.004  2.0675  1.1424 -0.1702
 3934SOL     OW23260   4.722   2.390   7.059 -0.1252 -0.2649 -0.0247
 3934SOL    HW123261   0.082   2.408   7.101  0.1316  1.8990 -1.4747
 3934SOL    HW223262   4.699   2.478   7.028  0.9645  0.6245  1.6722
 3935SOL     OW23263   0.809   4.020  13.615 -0.5962 -0.1342  0.1502
 3935SOL    HW123264   0.743   4.047  13.679 -0.0645 -0.7591  0.9710
 3935SOL    HW223265   0.787   3.928  13.623 -0.5630 -0.1049  0.5988
 3936SOL     OW23266   4.021   2.960  12.649 -0.2183 -0.5085  0.1036
 3936SOL    HW123267   3.974   2.913  12.718  0.2259 -0.6235  0.3268
 3936SOL    HW223268   4.000   3.050  12.673 -0.4923 -0.5277 -0.0593
 3937SOL     OW23269   2.730   4.660  12.282  0.2037 -0.1925  0.1844
 3937SOL    HW123270   2.663   4.671  12.214 -2.2658  1.0332  2.8130
 3937SOL    HW223271   2.695   4.718  12.350 -0.1377 -1.9750  1.5129
 3938SOL     OW23272   4.174   4.182  11.937  0.2854  0.4731  0.1369
 3938SOL    HW123273   4.116   4.154  11.866  0.9921 -0.9969  0.1387
 3938SOL    HW223274   4.155   4.274  11.956  0.0586  0.6084 -0.7245
 3939SOL     OW23275   4.608   0.511   1.956  0.4534 -0.2859  0.0796
 3939SOL    HW123276   4.700   0.533   1.969  1.0731 -0.9799 -3.1676
 3939SOL    HW223277   4.610   0.449   1.883  0.3883  0.8826 -0.8893
 3940SOL     OW23278   2.016   3.547   6.600  0.4179  0.5978  0.0842
 3940SOL    HW123279   1.951   3.615   6.583 -0.2033 -0.1318 -0.4308
 3940SOL    HW223280   2.080   3.595   6.652  0.9736  1.3057 -1.2482
 3941SOL     OW23281   2.112   2.461   3.985 -0.1198 -0.1660  0.5430
 3941SOL    HW123282   2.135   2.387   3.928  0.6947 -0.8308  1.7459
 3941SOL    HW223283   2.025   2.489   3.956 -0.8856 -2.0427  0.9997
 3942SOL     OW23284   0.596   1.636   2.277  0.3347  0.5709 -0.0571
 3942SOL    HW123285   0.569   1.655   2.188  0.2264 -1.9193 -0.5584
 3942SOL    HW223286   0.669   1.577   2.258  0.0015  0.5960 -1.3579
 3943SOL     OW23287   4.423   1.306  11.746  0.1671 -0.1990  0.3703
 3943SOL    HW123288   4.410   1.352  11.663  1.1339 -1.4990 -0.4804
 3943SOL    HW223289   4.517   1.311  11.763 -0.2894  0.2068  2.8411
 3944SOL     OW23290   0.299   1.548   8.131  0.0516  0.5148  0.1628
 3944SOL    HW123291   0.345   1.516   8.209 -0.1578 -1.1142 -0.4068
 3944SOL    HW223292   0.228   1.604   8.165 -0.5536 -0.6412  0.7892
 3945SOL     OW23293   3.085   3.790   6.227 -0.4089 -0.2594  0.1135
 3945SOL    HW123294   3.130   3.713   6.260  2.5436  0.3969 -2.3488
 3945SOL    HW223295   3.077   3.778   6.132  2.1154 -1.1924  0.0497
 3946SOL     OW23296   3.525   1.931   8.747  0.2028 -0.3251  0.5202
 3946SOL    HW123297   3.556   1.915   8.836 -0.7930 -1.8551  0.5850
 3946SOL    HW223298   3.537   2.026   8.742  0.3056 -0.4607 -1.7285
 3947SOL     OW23299   0.627   1.106  10.114 -0.2553 -0.2798  0.5187
 3947SOL    HW123300   0.682   1.142  10.183  2.1614 -0.4976 -1.2708
 3947SOL    HW223301   0.625   1.182  10.056 -0.4205 -1.1492 -0.6210
 3948SOL     OW23302   2.025   2.505   6.710 -0.7259  0.3432 -0.3867
 3948SOL    HW123303   2.024   2.530   6.802  1.6966  1.1179 -0.5757
 3948SOL    HW223304   1.934   2.485   6.691 -0.3719 -1.7440  0.1767
 3949SOL     OW23305   1.357   0.491   4.450  1.1331  0.0600 -0.4706
 3949SOL    HW123306   1.450   0.479   4.435  1.1183  0.0242 -0.5346
 3949SOL    HW223307   1.339   0.418   4.509  2.6017 -0.7346 -1.0074
 3950SOL     OW23308   3.554   4.646   0.678  0.2813  0.0613 -0.6741
 3950SOL    HW123309   3.494   4.647   0.604 -0.0420  1.1850 -0.4022
 3950SOL    HW223310   3.488   4.633   0.746  1.1284 -1.3497 -0.1303
 3951SOL     OW23311   0.803   0.187   6.977 -0.4493  0.1225  1.0604
 3951SOL    HW123312   0.733   0.122   6.983  0.9665 -1.4472  0.3754
 3951SOL    HW223313   0.867   0.139   7.029 -0.7750 -0.3013  1.0760
 3952SOL     OW23314   4.670   0.448   5.185 -0.1098 -0.4276  0.4198
 3952SOL    HW123315   4.689   0.440   5.092 -0.1512 -2.3581  0.5769
 3952SOL    HW223316   4.717   0.529   5.206 -1.4641  0.7515 -1.0918
 3953SOL     OW23317   3.442   1.208   1.199 -0.1503  0.0158  0.3524
 3953SOL    HW123318   3.535   1.184   1.194  0.1548  0.6502  2.7879
 3953SOL    HW223319   3.404   1.208   1.112 -0.8350 -0.6756  0.6608
 3954SOL     OW23320   1.176   0.242   0.117 -0.1944  0.0565  0.6468
 3954SOL    HW123321   1.237   0.195   0.173  0.8292  3.0758  2.0222
 3954SOL    HW223322   1.093   0.205   0.147 -0.3243  0.7863  1.1848
 3955SOL     OW23323   4.099   0.553   5.442  0.2913 -0.0759  0.1161
 3955SOL    HW123324   4.084   0.578   5.534  1.7328  0.3112  0.2451
 3955SOL    HW223325   4.153   0.476   5.459  0.7995  0.6072  1.6766
 3956SOL     OW23326   4.354   3.187   7.240  0.3933 -0.5599 -0.5259
 3956SOL    HW123327   4.304   3.189   7.159 -1.1709  0.7053  0.4627
 3956SOL    HW223328   4.440   3.211   7.207  0.0131  0.3165 -0.8894
 3957SOL     OW23329   2.887   3.509   5.997  0.7328 -0.6637 -0.3308
 3957SOL    HW123330   2.845   3.553   6.071  0.1210 -0.6697 -0.6707
 3957SOL    HW223331   2.899   3.579   5.933  0.5133  0.8452  1.2926
 3958SOL     OW23332   1.723   0.001   0.064  0.3017  0.4070  0.1456
 3958SOL    HW123333   1.752   4.656   0.124 -0.2520  1.8488  2.0889
 3958SOL    HW223334   1.810   0.031   0.036  0.2540 -1.3120 -1.8478
 3959SOL     OW23335   1.547   2.543   0.575 -0.2272  0.3958  0.1567
 3959SOL    HW123336   1.638   2.571   0.582 -0.5856  1.8805 -1.0557
 3959SOL    HW223337   1.514   2.579   0.492  0.5190  1.8945  0.5212
 3960SOL     OW23338   4.508   3.522  17.449 -0.6878  0.3259  0.2875
 3960SOL    HW123339   4.535   3.483  17.532  1.8447 -1.2296 -1.2653
 3960SOL    HW223340   4.497   3.443  17.396 -0.3175 -1.5269  2.9598
 3961SOL     OW23341   3.189   3.623   3.026  0.0966  0.8969 -0.4915
 3961SOL    HW123342   3.225   3.712   3.020  0.8631  0.7062  1.1798
 3961SOL    HW223343   3.097   3.645   3.039  0.0157  0.2647  0.0209
 3962SOL     OW23344   1.421   4.567   6.296  0.4872 -0.6928  0.5477
 3962SOL    HW123345   1.513   4.545   6.284  0.6580 -0.2585  1.0355
 3962SOL    HW223346   1.398   4.546   6.206 -1.5347  0.5666  0.7518
 3963SOL     OW23347   4.443   1.993   5.990 -0.7144 -0.3967 -0.3140
 3963SOL    HW123348   4.524   2.004   6.040  0.5951 -2.0737 -2.0645
 3963SOL    HW223349   4.398   2.073   6.015  0.1005 -0.5879  1.7825
 3964SOL     OW23350   4.648   3.070   1.786 -0.2383 -0.5495 -0.0141
 3964SOL    HW123351   4.597   3.061   1.867 -0.5474 -0.3928 -0.1925
 3964SOL    HW223352   4.686   2.983   1.774 -0.3188 -0.1207 -3.3200
 3965SOL     OW23353   1.675   1.122   2.563 -0.2029  0.2898 -0.4282
 3965SOL    HW123354   1.649   1.050   2.620 -0.5240  2.3027  1.9403
 3965SOL    HW223355   1.608   1.189   2.577  0.1822 -0.0387  3.1240
 3966SOL     OW23356   3.541   0.185   9.863 -0.6450 -0.1252  0.5630
 3966SOL    HW123357   3.519   0.278   9.852 -0.3046 -0.1585 -0.4080
 3966SOL    HW223358   3.586   0.191   9.947  0.2856 -3.0015  0.2542
 3967SOL     OW23359   2.176   3.288   5.067 -0.0516 -0.4857 -0.1110
 3967SOL    HW123360   2.180   3.219   5.133  0.0208  1.2394  1.6765
 3967SOL    HW223361   2.219   3.367   5.100  1.6932 -1.9423  1.1467
 3968SOL     OW23362   2.974   2.890   7.913 -0.7088  0.0689 -0.1726
 3968SOL    HW123363   3.025   2.848   7.843 -0.5083 -1.1450  0.7191
 3968SOL    HW223364   3.035   2.952   7.953  1.8599 -0.0282 -3.8574
 3969SOL     OW23365   4.689   2.115   4.909 -0.0239 -0.4738  0.2150
 3969SOL    HW123366   0.011   2.085   4.987  0.8946  1.0112  0.2376
 3969SOL    HW223367   4.626   2.161   4.965  1.5876 -0.1896  1.7940
 3970SOL     OW23368   1.113   1.432   0.703  0.2778  0.3613  0.3158
 3970SOL    HW123369   1.187   1.390   0.659  0.6727  0.4411  0.9088
 3970SOL    HW223370   1.080   1.359   0.755 -0.2681  0.9027  0.7261
 3971SOL     OW23371   0.672   0.878  10.484  0.0372 -0.1356 -0.2245
 3971SOL    HW123372   0.667   0.795  10.530 -3.4709 -0.1565 -0.6002
 3971SOL    HW223373   0.579   0.901  10.476  0.0884  0.7062  1.5116
 3972SOL     OW23374   0.160   3.256   9.837  0.1102 -0.5857 -0.0084
 3972SOL    HW123375   0.083   3.300   9.872  0.5444  0.4827 -0.4102
 3972SOL    HW223376   0.232   3.297   9.885  0.0370 -0.1513 -0.2701
 3973SOL     OW23377   1.037   2.986   5.951 -0.3314 -0.0039 -0.8215
 3973SOL    HW123378   0.994   2.910   5.913  1.5550 -1.7345  0.5381
 3973SOL    HW223379   1.070   3.038   5.877  2.4761  1.0705  1.1439
 3974SOL     OW23380   4.178   2.323   7.852 -0.1912 -0.6734  0.3601
 3974SOL    HW123381   4.220   2.267   7.918  2.6635  1.4317  0.3424
 3974SOL    HW223382   4.154   2.272   7.775  1.1317  0.1058 -0.5723
 3975SOL     OW23383   4.616   1.922   2.351 -0.3477 -0.5447  0.0833
 3975SOL    HW123384   4.696   1.934   2.403  0.6186  0.5708 -1.6615
 3975SOL    HW223385   4.558   1.911   2.426  2.0943  1.4457  2.3031
 3976SOL     OW23386   3.140   4.126   6.593 -0.6467 -0.6799 -0.0859
 3976SOL    HW123387   3.058   4.118   6.643 -0.9833  0.4895 -0.4479
 3976SOL    HW223388   3.108   4.106   6.505 -2.7302  0.6721  0.3499
 3977SOL     OW23389   3.247   0.583   4.015 -0.8695  0.1967 -0.3059
 3977SOL    HW123390   3.168   0.556   3.969 -2.1270 -0.0495  1.9795
 3977SOL    HW223391   3.305   0.512   3.988 -3.0372 -1.7488  0.1095
 3978SOL     OW23392   3.020   4.022   2.560 -0.7083 -0.5041 -0.4112
 3978SOL    HW123393   3.066   3.950   2.602  0.2983  0.6122  0.3899
 3978SOL    HW223394   2.933   3.987   2.540 -1.7525 -0.0981  3.5118
 3979SOL     OW23395   0.894   3.648  15.044  0.6049  0.4462 -0.0172
 3979SOL    HW123396   0.806   3.675  15.015  1.5044  3.7758  0.3028
 3979SOL    HW223397   0.874   3.651  15.138  1.1894 -0.4624  0.1314
 3980SOL     OW23398   2.805   3.703  11.505 -0.2779  0.6572 -0.0689
 3980SOL    HW123399   2.876   3.647  11.537  0.3890  1.8364  0.5368
 3980SOL    HW223400   2.860   3.780  11.521  1.3735 -0.5763  0.2426
 3981SOL     OW23401   1.424   4.070  14.692  0.0961 -0.0743 -0.1475
 3981SOL    HW123402   1.476   4.098  14.617  2.0274 -2.1154  0.4227
 3981SOL    HW223403   1.378   4.154  14.701  0.3610  0.0633 -0.0769
 3982SOL     OW23404   4.587   0.740  11.079  0.0934 -0.5001  0.7929
 3982SOL    HW123405   4.555   0.829  11.066 -2.3886 -1.5842 -0.7107
 3982SOL    HW223406   4.614   0.738  11.170  0.7448 -0.1885  0.6024
 3983SOL     OW23407   2.250   3.698   9.838 -0.0281 -0.0934 -0.8317
 3983SOL    HW123408   2.240   3.618   9.786 -0.5306 -0.3173 -0.3812
 3983SOL    HW223409   2.331   3.676   9.885 -0.7538  1.8864  1.3434
 3984SOL     OW23410   4.508   3.324   9.501 -0.0117  0.1547 -0.0564
 3984SOL    HW123411   4.566   3.351   9.573 -2.4946  0.7991  1.7030
 3984SOL    HW223412   4.570   3.284   9.440 -1.6827 -0.3178 -1.4516
 3985SOL     OW23413   3.516   1.989   5.921 -0.3028  0.4406 -0.0644
 3985SOL    HW123414   3.593   1.966   5.869  0.1480  1.0968  0.3088
 3985SOL    HW223415   3.518   2.085   5.929  1.2868  0.2850  1.3704
 3986SOL     OW23416   1.222   4.724   7.053  0.4894 -0.2161  0.1137
 3986SOL    HW123417   1.169   0.072   7.088  1.0468  1.4823 -2.6035
 3986SOL    HW223418   1.160   4.667   7.007 -0.3918  2.1566 -1.6237
 3987SOL     OW23419   4.340   2.180   7.094  0.7022  0.2604 -0.6492
 3987SOL    HW123420   4.281   2.182   7.169  2.2460  2.3144  0.4970
 3987SOL    HW223421   4.423   2.205   7.136  0.1972  2.6349 -1.0350
 3988SOL     OW23422   1.150   3.779  17.309 -0.0196 -0.5951  0.2216
 3988SOL    HW123423   1.141   3.696  17.262 -0.1466  0.1518 -1.0885
 3988SOL    HW223424   1.106   3.762  17.392 -0.9025  2.7309  0.4666
 3989SOL     OW23425   2.505   0.111   6.227  0.3103 -0.5602 -0.1847
 3989SOL    HW123426   2.421   0.120   6.181  0.1619  1.8206  0.5711
 3989SOL    HW223427   2.481   0.075   6.313 -1.5092 -0.3122 -0.5745
 3990SOL     OW23428   3.766   0.907   3.314  0.1007 -0.7268  0.4820
 3990SOL    HW123429   3.857   0.913   3.342  0.3619 -1.9328 -0.1406
 3990SOL    HW223430   3.772   0.843   3.244 -2.1358 -0.2449 -0.1595
 3991SOL     OW23431   1.577   0.914   5.710 -0.2907 -0.4436 -0.1295
 3991SOL    HW123432   1.484   0.929   5.697 -0.4797 -1.8324 -0.4263
 3991SOL    HW223433   1.580   0.875   5.798 -2.5740  1.9765  0.9938
 3992SOL     OW23434   4.619   2.520   3.615 -0.0148 -0.0801  0.4361
 3992SOL    HW123435   4.526   2.542   3.613 -0.7167 -2.9151  1.2954
 3992SOL    HW223436   4.621   2.477   3.529 -0.4469  2.6424 -0.9530
 3993SOL     OW23437   2.028   0.315  11.156 -0.1840  0.0387  0.1445
 3993SOL    HW123438   1.963   0.377  11.124 -0.5671 -0.5864 -0.2851
 3993SOL    HW223439   1.969   0.261  11.209 -0.0715 -1.7423 -1.5691
 3994SOL     OW23440   0.669   4.214   0.257  0.1019 -0.3299  0.2086
 3994SOL    HW123441   0.591   4.175   0.217  1.0826 -2.7549  0.6892
 3994SOL    HW223442   0.734   4.147   0.237  1.3347  1.0528 -0.4262
 3995SOL     OW23443   3.685   4.372  15.697  0.3294 -0.0150  0.5942
 3995SOL    HW123444   3.721   4.313  15.631  0.5723  1.1689 -0.3488
 3995SOL    HW223445   3.732   4.343  15.775 -0.3519 -2.7899 -0.0254
 3996SOL     OW23446   0.680   3.412   6.015 -0.4640  0.0152  0.0683
 3996SOL    HW123447   0.662   3.445   5.927  1.6706  3.4005  0.9057
 3996SOL    HW223448   0.621   3.337   6.022 -1.8731  1.1867  0.7803
 3997SOL     OW23449   0.505   1.030   0.469  0.2159 -0.3311 -0.3446
 3997SOL    HW123450   0.538   1.113   0.433 -0.6617 -0.0949 -0.5953
 3997SOL    HW223451   0.554   1.019   0.550  0.0050  0.1557 -0.1497
 3998SOL     OW23452   0.337   3.928   0.490 -0.5629  0.7247 -0.2621
 3998SOL    HW123453   0.253   3.924   0.445  0.1780  3.3654 -1.9082
 3998SOL    HW223454   0.303   3.985   0.558 -0.4506  0.1444  0.2773
 3999SOL     OW23455   3.302   1.085   8.455 -0.2249 -0.3876 -0.2745
 3999SOL    HW123456   3.228   1.146   8.444 -1.3274 -1.6172  0.4035
 3999SOL    HW223457   3.323   1.058   8.365 -1.5722  1.0662 -1.0281
 4000SOL     OW23458   1.064   3.549   7.431  0.4110  0.5906 -0.1698
 4000SOL    HW123459   1.046   3.492   7.356  1.6788  0.5800 -0.4579
 4000SOL    HW223460   1.119   3.618   7.396  0.0996  1.0242  0.1994
 4001SOL     OW23461   4.044   4.223   5.811 -0.2571  0.1419 -0.1394
 4001SOL    HW123462   4.011   4.313   5.803  0.0146  0.3693  1.4411
 4001SOL    HW223463   4.011   4.185   5.729 -0.3021 -1.7876  0.7788
 4002SOL     OW23464   1.667   2.071  13.590 -0.1445  0.2816  0.2267
 4002SOL    HW123465   1.701   2.098  13.675 -0.0082 -1.1234  0.6188
 4002SOL    HW223466   1.713   1.987  13.593 -0.1197  0.3986  2.9025
 4003SOL     OW23467   1.064   1.589  12.951 -0.2657  0.3152  0.2794
 4003SOL    HW123468   1.041   1.593  13.044  0.8253 -0.6879  0.5859
 4003SOL    HW223469   1.128   1.519  12.960 -0.8785 -0.3421 -0.4924
 4004SOL     OW23470   2.461   4.071   6.801 -0.0158 -0.5596 -0.3843
 4004SOL    HW123471   2.423   4.159   6.799 -1.2413 -0.9930  3.2702
 4004SOL    HW223472   2.520   4.075   6.726  0.8086 -0.1723  0.2817
 4005SOL     OW23473   2.062   1.277  11.398  0.3654 -0.4825  0.8313
 4005SOL    HW123474   1.981   1.305  11.355  0.5581 -0.5476  0.4219
 4005SOL    HW223475   2.074   1.346  11.464  2.5326  0.4170 -0.5101
 4006SOL     OW23476   1.335   2.991  12.854  0.3776  0.1572 -0.2580
 4006SOL    HW123477   1.373   2.984  12.767  0.3170  3.2905 -0.5385
 4006SOL    HW223478   1.243   2.968  12.840  0.1118  1.2964 -0.3637
 4007SOL     OW23479   2.737   2.588  10.538  0.0949 -0.2251 -0.3229
 4007SOL    HW123480   2.779   2.516  10.490  1.2184 -0.4128  0.9226
 4007SOL    HW223481   2.803   2.594  10.607  0.6181  1.0847 -0.9312
 4008SOL     OW23482   0.183   4.434   5.227  0.7887 -0.0218  0.0752
 4008SOL    HW123483   0.147   4.501   5.169  3.0361  0.6330 -0.5778
 4008SOL    HW223484   0.113   4.373   5.207  1.4719 -0.4950 -0.8771
 4009SOL     OW23485   1.252   1.744  14.293  0.4106 -0.1618 -0.1751
 4009SOL    HW123486   1.177   1.711  14.343  1.3527 -1.7174  0.2203
 4009SOL    HW223487   1.219   1.746  14.204 -2.6031  0.5710  0.9635
 4010SOL     OW23488   2.520   2.839  11.895 -0.0827  0.0938 -0.2028
 4010SOL    HW123489   2.599   2.861  11.943  1.1773 -1.7021 -1.4595
 4010SOL    HW223490   2.489   2.763  11.945 -3.3091  2.6241  1.6501
 4011SOL     OW23491   4.087   4.219   3.891 -0.1163  0.6067  0.5922
 4011SOL    HW123492   4.009   4.273   3.907 -0.2871  0.5439 -0.0386
 4011SOL    HW223493   4.159   4.278   3.866  1.7288 -1.9097 -0.0631
 4012SOL     OW23494   0.506   4.427   2.205 -0.0527  0.2045 -0.2705
 4012SOL    HW123495   0.481   4.411   2.296 -1.2446  1.9743 -0.2991
 4012SOL    HW223496   0.436   4.374   2.167  0.9323  0.1248 -1.9518
 4013SOL     OW23497   0.401   0.529  11.905  0.2220 -0.4431 -0.0093
 4013SOL    HW123498   0.394   0.437  11.927  0.8513 -0.9554 -1.9068
 4013SOL    HW223499   0.423   0.506  11.814  1.8285  1.4233 -0.0971
 4014SOL     OW23500   3.279   3.600  12.718 -0.3458  0.0705 -0.0357
 4014SOL    HW123501   3.374   3.596  12.709 -0.3160 -0.0912  0.3431
 4014SOL    HW223502   3.258   3.513  12.683 -1.6627  0.4496 -0.2128
 4015SOL     OW23503   0.281   3.226   4.990 -1.2572 -0.6285  0.5571
 4015SOL    HW123504   0.238   3.149   4.952  0.9800 -2.2444  1.3023
 4015SOL    HW223505   0.365   3.187   5.015 -0.5586 -0.2647 -1.2965
 4016SOL     OW23506   3.816   2.474   0.483 -0.0507  0.4995 -0.0730
 4016SOL    HW123507   3.777   2.473   0.395  0.0874  1.2805 -0.1410
 4016SOL    HW223508   3.898   2.514   0.457 -0.0548 -0.1541 -1.1218
 4017SOL     OW23509   3.189   3.309   1.439 -0.2095 -0.0509  0.2350
 4017SOL    HW123510   3.174   3.345   1.527  0.3378  2.2759 -0.6518
 4017SOL    HW223511   3.156   3.219   1.448  1.6480 -0.6087  1.4254
 4018SOL     OW23512   2.374   1.288   6.253 -0.0983  0.2926  0.1258
 4018SOL    HW123513   2.338   1.304   6.340 -1.0382 -0.0444 -0.2042
 4018SOL    HW223514   2.418   1.204   6.271  1.0972  0.4966 -1.8562
 4019SOL     OW23515   2.275   3.638  13.294 -0.7048 -0.0223 -0.5017
 4019SOL    HW123516   2.241   3.604  13.211 -2.1834 -0.4990  0.2940
 4019SOL    HW223517   2.343   3.703  13.278  1.6203 -1.9760  1.3657
 4020SOL     OW23518   3.212   0.844   4.430 -0.7433  0.1483  0.2174
 4020SOL    HW123519   3.291   0.897   4.418 -0.3226 -0.5341 -0.0362
 4020SOL    HW223520   3.243   0.754   4.425  0.6540  0.5203  2.3863
 4021SOL     OW23521   3.152   3.992  16.975 -0.4286  0.2423  0.2413
 4021SOL    HW123522   3.134   4.045  17.052 -0.8814  1.1911 -0.5188
 4021SOL    HW223523   3.130   3.904  17.008  2.8023 -0.9045 -0.6934
 4022SOL     OW23524   4.562   4.498   3.714 -0.0383 -0.8134 -0.1491
 4022SOL    HW123525   4.529   4.549   3.640  0.7589 -2.2012 -1.4464
 4022SOL    HW223526   4.650   4.536   3.710 -0.9342  1.3953  1.0940
 4023SOL     OW23527   2.365   2.415   1.750 -0.3258 -0.2426 -0.5213
 4023SOL    HW123528   2.393   2.327   1.727  1.7868 -0.0397  1.2564
 4023SOL    HW223529   2.439   2.457   1.707  0.1894  0.6681  1.2526
 4024SOL     OW23530   0.325   1.450   3.521  0.4352  0.3299 -0.5602
 4024SOL    HW123531   0.231   1.443   3.504  0.4693  2.9562 -1.8296
 4024SOL    HW223532   0.319   1.497   3.605  1.4189  4.6486 -2.9150
 4025SOL     OW23533   3.818   1.356   4.434 -0.1351  0.6501 -0.2958
 4025SOL    HW123534   3.814   1.451   4.440 -0.3991  0.5376  1.2217
 4025SOL    HW223535   3.904   1.346   4.392 -0.4010 -1.0207 -0.4429
 4026SOL     OW23536   2.963   3.035   7.185 -0.0383  0.5198  0.0507
 4026SOL    HW123537   2.882   3.079   7.159 -0.2958  0.8783  1.4701
 4026SOL    HW223538   2.959   2.969   7.116  0.0186 -0.5325  1.0624
 4027SOL     OW23539   3.869   3.176  11.398  0.1311  0.0832 -0.5094
 4027SOL    HW123540   3.782   3.204  11.368 -0.7128 -0.5476  1.3596
 4027SOL    HW223541   3.913   3.261  11.391  1.2992 -0.5092 -0.3001
 4028SOL     OW23542   1.228   3.984   1.945 -0.5082 -0.5937  0.7644
 4028SOL    HW123543   1.236   3.987   2.040  0.2954 -0.4059  0.6926
 4028SOL    HW223544   1.158   3.919   1.940 -0.8897  0.0723 -2.6367
 4029SOL     OW23545   0.576   1.912  11.836 -0.2979  0.1065  0.1646
 4029SOL    HW123546   0.594   1.850  11.907  2.1473 -0.4149 -0.8932
 4029SOL    HW223547   0.562   1.986  11.895  0.3299  0.0391  0.4102
 4030SOL     OW23548   4.495   3.426   3.359  0.1117  0.3523  0.2233
 4030SOL    HW123549   4.567   3.419   3.421 -1.2350  0.1206  1.7626
 4030SOL    HW223550   4.493   3.520   3.344  1.9728  0.2189 -0.8902
 4031SOL     OW23551   2.191   3.292  15.227 -0.0189 -0.3826 -0.0384
 4031SOL    HW123552   2.253   3.293  15.154 -0.3682 -1.4888 -0.3381
 4031SOL    HW223553   2.172   3.201  15.248  0.2170 -0.6475 -0.9483
 4032SOL     OW23554   2.713   1.234   1.763  0.4267  0.1640 -0.0585
 4032SOL    HW123555   2.771   1.305   1.735 -0.9321  0.9346 -0.8950
 4032SOL    HW223556   2.703   1.167   1.696  2.6202 -0.1655 -0.0579
 4033SOL     OW23557   1.269   2.947   8.163  0.5578 -0.2154  0.3830
 4033SOL    HW123558   1.202   3.016   8.162 -1.8370 -2.5226  0.8949
 4033SOL    HW223559   1.275   2.933   8.257  0.7036  1.0698  0.5699
 4034SOL     OW23560   4.173   4.474   8.164  0.2836  0.2894  0.0129
 4034SOL    HW123561   4.117   4.419   8.109  1.0368 -0.0373 -0.4315
 4034SOL    HW223562   4.221   4.528   8.102 -0.5071  1.9166  0.8122
 4035SOL     OW23563   3.895   0.104  16.361  0.7110  0.2722  0.1762
 4035SOL    HW123564   3.818   0.081  16.412  0.6472  0.2287  0.0608
 4035SOL    HW223565   3.888   0.198  16.379  0.4009  0.3551 -0.3882
 4036SOL     OW23566   0.384   4.255   5.172  0.1474  0.6240  0.0579
 4036SOL    HW123567   0.309   4.314   5.181 -0.4674 -0.2548  0.5930
 4036SOL    HW223568   0.455   4.311   5.140 -0.6605  0.3656 -2.1720
 4037SOL     OW23569   3.597   0.530   7.622 -0.4565  0.0077  0.2508
 4037SOL    HW123570   3.582   0.443   7.586  0.9958 -0.3684  0.5774
 4037SOL    HW223571   3.685   0.524   7.658 -0.8331 -0.7434  1.0517
 4038SOL     OW23572   4.160   3.788   8.471  0.3304  0.2735 -0.0980
 4038SOL    HW123573   4.167   3.700   8.434  0.3216  0.3605 -0.3049
 4038SOL    HW223574   4.235   3.829   8.428 -0.3723  0.6384 -0.9479
 4039SOL     OW23575   4.073   0.015   6.484 -0.1466 -0.3313 -0.2116
 4039SOL    HW123576   4.032   0.076   6.422 -0.6891 -0.0284  0.4413
 4039SOL    HW223577   4.129   0.072   6.537  1.6765  0.0399 -2.5302
 4040SOL     OW23578   2.378   2.525  13.927  0.1436 -0.4202 -0.6424
 4040SOL    HW123579   2.302   2.500  13.876 -0.9594 -2.7962  2.1646
 4040SOL    HW223580   2.353   2.610  13.965  0.1632  0.8833 -3.5953
 4041SOL     OW23581   3.453   4.295   3.777 -0.4453 -0.2710  0.5270
 4041SOL    HW123582   3.431   4.203   3.788 -0.6318 -0.2319  0.4759
 4041SOL    HW223583   3.418   4.330   3.860  4.3520 -0.5885  2.6987
 4042SOL     OW23584   0.544   2.814   8.709 -0.0021  0.0558  0.2590
 4042SOL    HW123585   0.510   2.768   8.785  1.5292  0.9026  1.4511
 4042SOL    HW223586   0.530   2.903   8.741  0.2557  0.0662  0.3445
 4043SOL     OW23587   3.535   2.318   8.341 -0.2871  0.0976 -0.5396
 4043SOL    HW123588   3.478   2.285   8.410 -3.0566  2.4751 -1.6573
 4043SOL    HW223589   3.547   2.412   8.357  0.7885 -0.8648  4.2061
 4044SOL     OW23590   4.469   4.386   1.265 -0.5750  0.4865 -0.1678
 4044SOL    HW123591   4.396   4.367   1.207 -0.8267  1.3166 -0.1111
 4044SOL    HW223592   4.449   4.331   1.341  0.1752 -0.9033 -0.9731
 4045SOL     OW23593   2.166   3.355   7.870 -0.4450 -0.7173 -0.6264
 4045SOL    HW123594   2.168   3.332   7.963 -0.5722  1.1969 -0.1471
 4045SOL    HW223595   2.240   3.414   7.853  1.6094 -2.9302  0.7482
 4046SOL     OW23596   4.151   3.704  12.434 -0.1160 -0.0628 -0.3392
 4046SOL    HW123597   4.195   3.620  12.449 -0.0061 -0.1622 -1.1719
 4046SOL    HW223598   4.200   3.749  12.365 -1.3992 -1.3183 -2.0717
 4047SOL     OW23599   0.132   0.185   4.085 -0.9084  0.0295  0.0228
 4047SOL    HW123600   0.044   0.220   4.071  0.0292  2.8260  1.0492
 4047SOL    HW223601   0.186   0.258   4.058  0.1122 -1.0529 -0.8360
 4048SOL     OW23602   4.257   0.257   3.690 -0.0711 -0.1604 -0.2435
 4048SOL    HW123603   4.179   0.232   3.739 -0.6045 -0.1971 -1.1081
 4048SOL    HW223604   4.255   0.353   3.699 -1.9307 -0.2668  0.4591
 4049SOL     OW23605   1.416   3.144  11.288  0.4015 -0.2304  0.3897
 4049SOL    HW123606   1.449   3.054  11.286 -0.6311 -0.5866 -0.5612
 4049SOL    HW223607   1.321   3.141  11.298  0.5156 -2.7804  0.7442
 4050SOL     OW23608   0.687   4.393   3.369  0.4086 -0.2632 -0.3561
 4050SOL    HW123609   0.605   4.348   3.389 -0.7608  1.4812 -1.1340
 4050SOL    HW223610   0.645   4.478   3.354 -1.6756 -1.2438 -0.0547
 4051SOL     OW23611   2.369   1.012  11.977  0.2715  0.0222 -0.2166
 4051SOL    HW123612   2.448   1.065  11.987 -0.3623  0.8201  0.5139
 4051SOL    HW223613   2.319   1.063  12.040  1.3031  0.8686 -0.0722
 4052SOL     OW23614   2.917   3.992   4.053 -0.4195 -0.0471 -0.1967
 4052SOL    HW123615   2.864   4.010   4.130 -0.1498 -0.3083  0.0465
 4052SOL    HW223616   2.896   4.067   3.997  1.8245  0.7246 -0.0072
 4053SOL     OW23617   4.441   1.063   7.481  0.2158 -0.0222  0.3034
 4053SOL    HW123618   4.536   1.073   7.473  0.0389 -0.6732 -2.4363
 4053SOL    HW223619   4.438   1.034   7.572  1.3333 -0.2661  0.2571
 4054SOL     OW23620   1.405   0.906   0.732  0.5485 -0.2991 -0.4547
 4054SOL    HW123621   1.492   0.868   0.746  0.4818 -0.5029 -0.5855
 4054SOL    HW223622   1.425   0.997   0.712  0.5536 -0.1838  0.0968
 4055SOL     OW23623   3.184   3.534   8.395  0.3779 -0.3314  0.1517
 4055SOL    HW123624   3.204   3.622   8.428  2.1455 -0.7854  0.2377
 4055SOL    HW223625   3.195   3.546   8.301 -0.4282  2.7484  0.4203
 4056SOL     OW23626   1.650   1.256   5.605 -0.2090 -0.0338 -0.0826
 4056SOL    HW123627   1.573   1.246   5.660 -0.1266  1.5445  0.3200
 4056SOL    HW223628   1.701   1.182   5.637 -0.9472  1.0824  3.7157
 4057SOL     OW23629   1.382   3.953  11.977 -0.3202 -0.2659 -0.4007
 4057SOL    HW123630   1.411   3.916  11.894 -1.6919  1.2354 -1.5508
 4057SOL    HW223631   1.290   3.970  11.954 -0.9005 -1.0422  1.3221
 4058SOL     OW23632   2.023   3.606   7.132 -1.3433  0.4616  0.3265
 4058SOL    HW123633   1.935   3.637   7.108 -1.4376  1.8942  2.4748
 4058SOL    HW223634   2.013   3.574   7.222  0.4554 -2.0006 -0.3511
 4059SOL     OW23635   2.051   3.869   8.504 -0.0999  0.1936  0.2269
 4059SOL    HW123636   1.967   3.823   8.516 -0.0597  0.4778  1.6520
 4059SOL    HW223637   2.091   3.855   8.590  1.9855 -0.2554 -0.8123
 4060SOL     OW23638   1.394   0.964  16.865  0.2287  0.8053 -0.0561
 4060SOL    HW123639   1.338   1.039  16.887 -0.3637  0.2577  0.3000
 4060SOL    HW223640   1.466   1.016  16.829 -0.5280  0.9459 -1.3837
 4061SOL     OW23641   3.487   4.351   9.732 -0.4803 -0.1866  0.2350
 4061SOL    HW123642   3.558   4.288   9.743  0.0872  0.4654  0.3425
 4061SOL    HW223643   3.419   4.289   9.705  0.9386 -2.2820  1.5140
 4062SOL     OW23644   4.360   2.039   3.319 -0.4467 -0.2702  0.5503
 4062SOL    HW123645   4.307   1.966   3.287 -0.5062 -0.0752  0.2008
 4062SOL    HW223646   4.444   2.021   3.278 -0.0659  1.6333  0.4725
 4063SOL     OW23647   4.343   2.592   6.972  0.4360  0.0615 -0.8239
 4063SOL    HW123648   4.367   2.540   7.048  1.3995  0.0609 -1.1267
 4063SOL    HW223649   4.248   2.595   6.978  0.3901 -0.7590 -1.1579
 4064SOL     OW23650   2.964   4.517   2.751  0.2762 -0.2076  0.1354
 4064SOL    HW123651   3.040   4.574   2.760 -0.0329  0.3475 -0.7843
 4064SOL    HW223652   2.995   4.456   2.684  0.0470  1.1466 -1.2050
 4065SOL     OW23653   3.516   1.575   7.475 -0.5173 -0.3388 -0.0313
 4065SOL    HW123654   3.516   1.640   7.405  0.5802 -0.6766 -0.3371
 4065SOL    HW223655   3.529   1.636   7.548  0.4059  0.8674 -1.2122
 4066SOL     OW23656   3.432   2.437   7.979 -0.3222  0.4713  0.3211
 4066SOL    HW123657   3.527   2.436   7.987 -0.3156  2.6847  0.5655
 4066SOL    HW223658   3.405   2.350   8.010  0.7361 -0.5586 -1.6421
 4067SOL     OW23659   3.598   4.132   5.997  0.1377 -0.2881  0.0262
 4067SOL    HW123660   3.594   4.036   5.996 -0.0543 -0.2622 -1.0346
 4067SOL    HW223661   3.560   4.143   6.085 -0.8995  0.5040 -0.5294
 4068SOL     OW23662   3.177   1.747   3.229  0.6564  0.4104  0.1615
 4068SOL    HW123663   3.240   1.688   3.270 -0.0945 -0.6659 -0.2399
 4068SOL    HW223664   3.141   1.691   3.160 -0.1983  2.5555 -1.1496
 4069SOL     OW23665   1.696   0.657   7.862 -0.6998  1.0035  0.9133
 4069SOL    HW123666   1.745   0.738   7.869 -2.9452  2.4893 -0.4563
 4069SOL    HW223667   1.734   0.610   7.936 -2.5415  1.5962  2.2293
 4070SOL     OW23668   2.283   3.829  16.757 -0.3586 -0.4268  0.4908
 4070SOL    HW123669   2.260   3.795  16.670  2.6972  3.2140 -1.7335
 4070SOL    HW223670   2.201   3.858  16.796 -0.5359 -2.6278  1.7994
 4071SOL     OW23671   1.511   4.626   0.746 -0.2700 -0.0948 -0.0987
 4071SOL    HW123672   1.477   4.716   0.742 -0.0340  0.0220  0.5088
 4071SOL    HW223673   1.528   4.624   0.840 -0.6435 -0.9176 -0.0439
 4072SOL     OW23674   0.518   1.025   6.340 -0.0425  0.0650 -0.2932
 4072SOL    HW123675   0.611   1.018   6.362  0.0013  2.0678  0.1963
 4072SOL    HW223676   0.488   0.985   6.422  1.6279 -0.6525 -0.0392
 4073SOL     OW23677   4.054   3.631   6.908 -0.5223  0.1691  0.4121
 4073SOL    HW123678   3.967   3.603   6.881 -0.7687  0.0032  1.3658
 4073SOL    HW223679   4.055   3.593   6.996  0.5111 -0.6258  0.0513
 4074SOL     OW23680   3.888   4.701   7.799 -0.1260 -0.7877  0.2792
 4074SOL    HW123681   3.981   4.682   7.785  0.0395  0.1708  0.1144
 4074SOL    HW223682   3.877   4.680   7.892  0.1999 -2.2607 -0.0184
 4075SOL     OW23683   1.142   0.007   6.137  0.0573  0.2180  0.0397
 4075SOL    HW123684   1.198   4.678   6.081 -0.5878 -1.6557  1.1698
 4075SOL    HW223685   1.090   4.664   6.182 -0.9293  1.0172  0.0718
 4076SOL     OW23686   2.483   2.835  17.312 -0.3041  0.2899 -0.1358
 4076SOL    HW123687   2.540   2.879  17.249  0.5767 -1.4593 -0.5610
 4076SOL    HW223688   2.397   2.836  17.271  0.1499 -0.5168 -1.1062
 4077SOL     OW23689   2.140   1.608  12.881  0.2240  0.2691  0.2568
 4077SOL    HW123690   2.231   1.632  12.897  0.3555 -0.2802  0.3556
 4077SOL    HW223691   2.119   1.658  12.803  1.6163  1.2174  0.4822
 4078SOL     OW23692   2.943   1.875   3.794  0.1284 -0.3424  0.1760
 4078SOL    HW123693   2.991   1.797   3.822 -1.9398 -2.1100 -1.1704
 4078SOL    HW223694   2.861   1.873   3.844 -0.2171 -0.5574 -0.4031
 4079SOL     OW23695   3.722   2.455   0.210 -0.4036  0.1196 -0.3092
 4079SOL    HW123696   3.646   2.397   0.212  1.1239 -1.9387 -1.4571
 4079SOL    HW223697   3.760   2.433   0.125 -0.3949  0.0741 -0.2939
 4080SOL     OW23698   0.542   2.610  12.821 -0.4443  0.0339 -0.9403
 4080SOL    HW123699   0.457   2.604  12.865 -0.3859 -0.1412 -0.8501
 4080SOL    HW223700   0.603   2.640  12.888 -1.2020  2.3241 -1.2943
 4081SOL     OW23701   2.457   4.381   4.842  0.0770  0.0580  0.1895
 4081SOL    HW123702   2.503   4.336   4.912  1.5371  0.1564 -0.6986
 4081SOL    HW223703   2.417   4.310   4.792  0.9735  0.8660 -1.6789
 4082SOL     OW23704   1.221   0.460   8.445  0.6048  0.3093  0.4789
 4082SOL    HW123705   1.191   0.503   8.525 -0.5305 -2.4818  1.5761
 4082SOL    HW223706   1.289   0.516   8.409 -0.3673  0.9638 -0.3261
 4083SOL     OW23707   3.112   3.634  14.909  0.0485 -0.0625  0.0135
 4083SOL    HW123708   3.172   3.702  14.878 -0.1295  1.0169  1.9692
 4083SOL    HW223709   3.145   3.607  14.995 -1.9828  0.2753  0.9025
 4084SOL     OW23710   2.725   0.608  17.580  0.0676  0.6296  0.3498
 4084SOL    HW123711   2.709   0.519  17.609  1.3947  0.2784 -0.0264
 4084SOL    HW223712   2.669   0.614  17.502 -1.2059  3.5275  1.4705
 4085SOL     OW23713   3.332   2.132  10.671 -0.2283  0.2090  0.0788
 4085SOL    HW123714   3.368   2.051  10.635  0.0251  0.5517 -0.4283
 4085SOL    HW223715   3.322   2.115  10.765 -1.5655  0.3871 -0.0242
 4086SOL     OW23716   0.742   0.774   2.405 -0.1074  0.1747  0.4416
 4086SOL    HW123717   0.658   0.785   2.449 -0.7863  1.1231 -1.1097
 4086SOL    HW223718   0.784   0.712   2.465 -0.3463  0.5827  1.0319
 4087SOL     OW23719   3.990   1.943  11.688  0.0898 -0.1141  0.2251
 4087SOL    HW123720   4.057   1.890  11.733 -0.5799 -0.6515  0.5840
 4087SOL    HW223721   3.925   1.934  11.758 -1.2585  1.9989 -0.7638
 4088SOL     OW23722   1.574   0.844   6.017  0.2620  0.5004 -0.1848
 4088SOL    HW123723   1.581   0.939   6.008 -1.1767  0.6055 -0.2017
 4088SOL    HW223724   1.656   0.816   6.058  1.0719  1.1308 -1.3790
 4089SOL     OW23725   4.298   3.532   5.653  0.0839  0.2426  0.4098
 4089SOL    HW123726   4.328   3.464   5.592  1.2296  0.3493  0.8497
 4089SOL    HW223727   4.383   3.555   5.691  0.0450  0.3294  0.4441
 4090SOL     OW23728   3.284   3.957   8.607  0.2483  0.5418 -0.8451
 4090SOL    HW123729   3.361   3.992   8.651  1.3745 -0.8731 -1.6613
 4090SOL    HW223730   3.329   3.903   8.541  2.0935 -2.3298  2.7613
 4091SOL     OW23731   4.635   3.649  15.283 -0.0763  0.0329  0.4228
 4091SOL    HW123732   4.662   3.571  15.234 -1.2728  0.4778 -0.9418
 4091SOL    HW223733   4.565   3.619  15.341  0.5539 -0.5563  0.8639
 4092SOL     OW23734   3.233   0.232  14.246  0.3952 -0.2609 -0.2373
 4092SOL    HW123735   3.203   0.247  14.336  1.3775 -2.3323  0.4326
 4092SOL    HW223736   3.312   0.180  14.264  1.1914  1.1601  0.3921
 4093SOL     OW23737   2.820   1.069  13.758 -0.1286 -0.0809 -0.4130
 4093SOL    HW123738   2.879   1.090  13.686  0.2297  0.0715 -0.0813
 4093SOL    HW223739   2.769   1.149  13.767 -0.0388 -0.1002  0.3589
 4094SOL     OW23740   4.271   3.583   1.199 -0.1855 -0.2769 -0.0998
 4094SOL    HW123741   4.241   3.672   1.183  1.2757  0.0322 -1.0184
 4094SOL    HW223742   4.266   3.577   1.295  1.6242 -0.8356 -0.0463
 4095SOL     OW23743   1.682   2.776   7.323  0.2860  0.2613 -0.6616
 4095SOL    HW123744   1.753   2.773   7.388 -1.0971 -2.5766  0.7203
 4095SOL    HW223745   1.645   2.688   7.327 -0.9545  0.7750 -0.7400
 4096SOL     OW23746   1.161   2.849   9.535 -0.1090  0.4663  0.4376
 4096SOL    HW123747   1.126   2.937   9.533  0.1931  0.5271 -1.6064
 4096SOL    HW223748   1.249   2.868   9.568 -0.7243  1.8049  1.2816
 4097SOL     OW23749   4.101   2.975  11.733  0.3540  0.1848  0.3075
 4097SOL    HW123750   4.110   2.880  11.734  1.0375  0.2449 -0.6003
 4097SOL    HW223751   4.173   3.005  11.788  1.3464 -0.2920 -0.7391
 4098SOL     OW23752   0.015   0.821   6.664  0.0317  0.5646  0.0221
 4098SOL    HW123753   4.694   0.789   6.585  1.6664  2.1611 -1.5598
 4098SOL    HW223754   0.007   0.916   6.655 -2.1417  0.5736  2.0038
 4099SOL     OW23755   0.701   0.363  10.385  0.2553  0.0041  0.3923
 4099SOL    HW123756   0.650   0.429  10.337  1.6574 -0.3553 -1.6151
 4099SOL    HW223757   0.662   0.368  10.472  2.0545  0.8247  1.1702
 4100SOL     OW23758   1.800   3.724   7.043  0.2188  0.3564  0.2363
 4100SOL    HW123759   1.720   3.766   7.074  0.3146  1.0492 -0.4511
 4100SOL    HW223760   1.852   3.801   7.024 -0.4472  1.4625  3.0176
 4101SOL     OW23761   3.861   1.698   2.046 -0.1475 -0.5179  0.4113
 4101SOL    HW123762   3.827   1.695   2.135  0.5536 -1.4641  0.6488
 4101SOL    HW223763   3.920   1.622   2.045  1.4009  0.6497  1.9297
 4102SOL     OW23764   4.271   0.958   6.593 -0.0028 -0.0436 -0.0731
 4102SOL    HW123765   4.179   0.943   6.617  0.4546 -3.1056 -0.2653
 4102SOL    HW223766   4.306   0.986   6.677 -2.2120  0.3984  0.7098
 4103SOL     OW23767   2.996   4.141   8.430 -0.3592 -0.1015 -0.6015
 4103SOL    HW123768   2.988   4.085   8.507  0.3190  1.6826  0.7562
 4103SOL    HW223769   3.065   4.196   8.467  1.7681 -0.9204 -3.3389
 4104SOL     OW23770   1.382   2.969  12.209  0.1635  0.0687  0.0547
 4104SOL    HW123771   1.375   3.065  12.205  0.2724  0.0835  0.2359
 4104SOL    HW223772   1.291   2.940  12.212  0.5555 -1.0104  1.3228
 4105SOL     OW23773   1.608   0.717  17.020 -0.2322 -0.1042  0.2056
 4105SOL    HW123774   1.610   0.640  16.963 -0.8000  0.4019 -0.4937
 4105SOL    HW223775   1.617   0.789  16.959 -0.2657 -0.5713 -0.3522
 4106SOL     OW23776   2.568   3.906   3.159  0.4403  0.5425 -0.6542
 4106SOL    HW123777   2.491   3.962   3.168  0.8260  0.8260  0.8938
 4106SOL    HW223778   2.630   3.970   3.194  1.4048  0.5010 -2.2803
 4107SOL     OW23779   0.027   3.851  10.833 -0.1501  0.2741  0.0176
 4107SOL    HW123780   0.070   3.778  10.878 -1.6775 -0.6379 -0.0010
 4107SOL    HW223781   0.046   3.924  10.893  3.4283  0.8098 -1.7512
 4108SOL     OW23782   0.031   4.706   0.371 -0.2052 -0.1695  0.4029
 4108SOL    HW123783   0.055   4.614   0.381 -2.8275 -0.6812  2.1503
 4108SOL    HW223784   0.048   0.018   0.458  0.5830  0.5739 -0.0632
 4109SOL     OW23785   1.737   0.180  10.823 -0.6155 -0.6022  0.3992
 4109SOL    HW123786   1.656   0.217  10.857 -2.5496 -4.8906  0.4618
 4109SOL    HW223787   1.770   0.137  10.902  1.6962  0.4258  0.0055
 4110SOL     OW23788   4.032   2.611   0.378 -0.0136  0.6884  0.0705
 4110SOL    HW123789   4.040   2.706   0.387  0.4337  0.4823  1.8884
 4110SOL    HW223790   4.111   2.585   0.330 -0.1640  0.9696 -0.3335
 4111SOL     OW23791   1.877   2.623  13.590 -0.6230  0.0299 -0.7200
 4111SOL    HW123792   1.959   2.634  13.542  1.0335 -0.7401  1.9381
 4111SOL    HW223793   1.822   2.676  13.532  0.6168  0.9600 -1.0535
 4112SOL     OW23794   0.429   3.638   6.741  0.1028  0.1216 -0.1849
 4112SOL    HW123795   0.407   3.731   6.728  0.2711  0.3965  1.5278
 4112SOL    HW223796   0.348   3.596   6.767  1.3553 -1.8020  0.6159
 4113SOL     OW23797   0.696   3.490   2.252  0.8284 -0.1055 -0.5111
 4113SOL    HW123798   0.788   3.513   2.241  1.0820 -0.7584  0.2985
 4113SOL    HW223799   0.685   3.406   2.208  0.5154  0.8692 -2.3117
 4114SOL     OW23800   2.129   2.139   6.027  0.7753 -0.2956 -0.2785
 4114SOL    HW123801   2.167   2.224   6.047  0.4356  0.3300 -2.4026
 4114SOL    HW223802   2.085   2.162   5.946  2.5495  1.5800 -0.7131
 4115SOL     OW23803   2.096   0.598  11.926  0.1991  0.5105  0.6279
 4115SOL    HW123804   2.036   0.623  11.996 -0.4925 -0.2366  0.3019
 4115SOL    HW223805   2.045   0.527  11.886  1.0839 -0.7837  1.8229
 4116SOL     OW23806   2.435   3.363   7.207  0.0047 -0.0222  0.3129
 4116SOL    HW123807   2.398   3.275   7.202  0.3219 -0.1018 -0.5345
 4116SOL    HW223808   2.465   3.366   7.298  0.6133  2.0968  0.0360
 4117SOL     OW23809   4.695   4.402  14.708 -0.1999 -0.4229 -0.2493
 4117SOL    HW123810   0.014   4.487  14.692  0.7911 -0.6356  1.2568
 4117SOL    HW223811   4.655   4.386  14.623  1.7290 -2.6431 -0.7445
 4118SOL     OW23812   0.811   1.092   8.738 -0.1320  0.3706 -0.0965
 4118SOL    HW123813   0.863   1.016   8.716 -0.3540  0.2713 -0.2833
 4118SOL    HW223814   0.875   1.161   8.719  0.8580 -1.3295 -2.8288
 4119SOL     OW23815   2.572   2.797   4.976 -0.0168 -0.4339  0.0481
 4119SOL    HW123816   2.570   2.768   5.067 -0.1513 -2.3620 -0.5505
 4119SOL    HW223817   2.551   2.890   4.983 -0.4190 -0.6605  1.8063
 4120SOL     OW23818   2.927   4.340  16.219  0.1410 -0.0273 -0.1298
 4120SOL    HW123819   2.967   4.372  16.138 -0.5239 -0.5322 -0.6567
 4120SOL    HW223820   3.007   4.353  16.270  1.3991  1.1016 -2.4294
 4121SOL     OW23821   0.109   4.171   2.832 -0.6316  0.3600 -0.4736
 4121SOL    HW123822   0.022   4.138   2.854 -0.7756  0.3820 -1.0083
 4121SOL    HW223823   0.124   4.133   2.745  1.4799  1.4563 -0.5857
 4122SOL     OW23824   2.597   4.583   8.334  0.1908 -0.2756  0.0388
 4122SOL    HW123825   2.616   4.539   8.417  2.3156  0.5106 -0.0160
 4122SOL    HW223826   2.654   4.659   8.349 -0.8674  0.3107  1.0055
 4123SOL     OW23827   3.036   3.699  14.237 -0.0252 -0.3002  0.0629
 4123SOL    HW123828   3.129   3.704  14.215  0.0634  0.1953  0.5398
 4123SOL    HW223829   3.029   3.715  14.332 -4.0860  0.8071 -0.4130
 4124SOL     OW23830   1.775   3.157   6.317 -0.2485 -0.2186  0.1161
 4124SOL    HW123831   1.791   3.251   6.327  0.5576 -0.4178  0.7369
 4124SOL    HW223832   1.836   3.124   6.384  0.7931 -0.6820 -1.0584
 4125SOL     OW23833   2.983   1.601   2.203  0.1493 -0.0799  0.2910
 4125SOL    HW123834   3.004   1.695   2.198  0.5492 -0.1226  1.1648
 4125SOL    HW223835   3.069   1.573   2.236 -0.7392 -1.1063  1.7141
 4126SOL     OW23836   1.124   2.248   7.556  1.0507  0.5772  0.1827
 4126SOL    HW123837   1.116   2.340   7.580  0.4518  0.5255  0.1860
 4126SOL    HW223838   1.194   2.260   7.492  0.0554  1.0118 -0.8325
 4127SOL     OW23839   0.795   2.355   1.635 -0.1639  0.0361  0.3109
 4127SOL    HW123840   0.762   2.445   1.640  0.3553  0.3643 -2.0041
 4127SOL    HW223841   0.730   2.321   1.574 -2.1508  1.9620  1.3549
 4128SOL     OW23842   0.950   4.636   4.744  0.2119  0.6560 -0.6251
 4128SOL    HW123843   0.992   4.714   4.781 -0.8276  0.5559  0.7666
 4128SOL    HW223844   0.980   4.568   4.805  0.0138  1.7809  0.7409
 4129SOL     OW23845   1.636   0.304  11.249 -0.2779 -0.0376 -0.6703
 4129SOL    HW123846   1.581   0.364  11.300  1.1635  1.4290 -0.8500
 4129SOL    HW223847   1.569   0.243  11.218  0.4695  0.1845 -2.7244
 4130SOL     OW23848   1.358   2.586   0.366  0.8289 -0.5041  0.2039
 4130SOL    HW123849   1.382   2.533   0.290 -1.3390 -0.4410 -0.5090
 4130SOL    HW223850   1.263   2.581   0.361  0.8828  0.2653 -1.3461
 4131SOL     OW23851   0.192   1.872   5.685  0.1606  0.3673 -0.4168
 4131SOL    HW123852   0.101   1.883   5.711  0.3626 -1.5356  1.1139
 4131SOL    HW223853   0.209   1.786   5.724 -1.9850  0.5557  0.8953
 4132SOL     OW23854   3.319   3.893   7.295 -0.5633 -0.2692 -0.0380
 4132SOL    HW123855   3.397   3.914   7.244  0.4189 -0.6512  1.2934
 4132SOL    HW223856   3.270   3.833   7.239  0.7943  0.2125 -1.7239
 4133SOL     OW23857   1.897   3.684  12.434  0.7060 -0.4588  0.4813
 4133SOL    HW123858   1.928   3.732  12.357  0.1765 -0.2575  0.3946
 4133SOL    HW223859   1.974   3.629  12.448  1.7252  0.8485 -0.0153
 4134SOL     OW23860   4.443   1.908   3.615  0.2981 -0.1753  0.6234
 4134SOL    HW123861   4.535   1.903   3.641  0.3251 -2.4670  0.1314
 4134SOL    HW223862   4.444   1.971   3.544 -0.5547 -1.0415 -0.1583
 4135SOL     OW23863   2.853   0.725   3.205  0.3131  0.4261 -0.0507
 4135SOL    HW123864   2.806   0.795   3.160 -1.3442 -0.2043  0.7282
 4135SOL    HW223865   2.908   0.698   3.131 -1.9649 -4.8320  0.2161
 4136SOL     OW23866   1.818   3.727   4.263 -0.5891  0.1913  0.6502
 4136SOL    HW123867   1.770   3.657   4.218  1.8423 -0.1249 -1.4767
 4136SOL    HW223868   1.745   3.784   4.290 -1.8196  0.6118 -3.4785
 4137SOL     OW23869   1.604   2.455   8.030  0.0651 -0.1883  0.0106
 4137SOL    HW123870   1.697   2.473   8.015  0.0655 -0.6613 -0.5812
 4137SOL    HW223871   1.602   2.438   8.124  1.6136  0.9579  0.2406
 4138SOL     OW23872   2.242   0.599   6.422 -0.0900 -0.0776 -0.2326
 4138SOL    HW123873   2.197   0.624   6.503 -0.1525  0.9942 -0.5976
 4138SOL    HW223874   2.318   0.653   6.445 -1.4548  2.6323 -2.2440
 4139SOL     OW23875   4.343   0.360   5.191 -0.1416 -0.1984  0.4973
 4139SOL    HW123876   4.423   0.413   5.201 -1.1628  1.6994 -1.4769
 4139SOL    HW223877   4.303   0.352   5.277 -0.8693 -2.0928 -0.0045
 4140SOL     OW23878   1.432   2.264   8.394  0.5681 -0.5597 -0.1780
 4140SOL    HW123879   1.418   2.186   8.340  2.1721 -0.0662 -1.3183
 4140SOL    HW223880   1.399   2.226   8.475 -0.0062 -0.8695 -0.5610
 4141SOL     OW23881   1.557   4.422   2.530  0.4065  0.3392  0.2395
 4141SOL    HW123882   1.498   4.436   2.604 -0.2161 -1.8616  0.1465
 4141SOL    HW223883   1.607   4.504   2.537  0.3822  0.3071  0.7958
 4142SOL     OW23884   0.327   3.115   6.249 -0.3869 -0.0335  0.2007
 4142SOL    HW123885   0.253   3.056   6.261  0.8708 -1.4879  0.7551
 4142SOL    HW223886   0.286   3.202   6.251 -1.0335 -0.3779  2.0742
 4143SOL     OW23887   0.701   4.503   4.744  0.0678  0.2195 -0.2002
 4143SOL    HW123888   0.719   4.478   4.654  2.2211  1.6854 -0.1733
 4143SOL    HW223889   0.791   4.523   4.772 -0.1946 -0.0162  0.8408
 4144SOL     OW23890   0.475   0.170   0.191  0.5243  0.0643 -0.1376
 4144SOL    HW123891   0.453   0.256   0.154 -0.8621 -0.2271  0.0411
 4144SOL    HW223892   0.404   0.114   0.161 -2.3385  1.6497  3.6412
 4145SOL     OW23893   3.729   3.122  11.685 -0.2611  0.5193  0.2145
 4145SOL    HW123894   3.814   3.132  11.728 -0.3518  4.4314 -0.4805
 4145SOL    HW223895   3.658   3.133  11.749 -1.1032  2.2401 -0.9970
 4146SOL     OW23896   3.908   1.090  11.245 -0.2922 -0.4571 -0.0582
 4146SOL    HW123897   3.898   1.080  11.150 -1.9706 -2.1432  0.2833
 4146SOL    HW223898   3.954   1.009  11.270 -1.7089 -1.3136 -0.2317
 4147SOL     OW23899   3.172   4.511   5.301  0.0874  0.5769 -0.3981
 4147SOL    HW123900   3.220   4.459   5.236 -0.4171 -0.8563  0.3655
 4147SOL    HW223901   3.246   4.520   5.361 -2.1184  3.0551  1.8950
 4148SOL     OW23902   2.474   1.596   2.538 -0.6627  0.2171  0.2019
 4148SOL    HW123903   2.495   1.503   2.545 -2.3691 -0.1982 -0.3599
 4148SOL    HW223904   2.382   1.602   2.563 -0.9423 -2.5625 -0.1524
 4149SOL     OW23905   4.184   2.887   3.105  0.3735 -0.5183 -0.0956
 4149SOL    HW123906   4.218   2.811   3.059  1.5609 -0.5455  0.8175
 4149SOL    HW223907   4.119   2.847   3.163  1.1040 -0.2343  0.9141
 4150SOL     OW23908   2.375   3.557   6.118  0.4872  0.4203 -0.0876
 4150SOL    HW123909   2.281   3.578   6.114  0.6048  1.0980  0.5837
 4150SOL    HW223910   2.392   3.513   6.035 -1.0043  1.7464 -1.0988
 4151SOL     OW23911   3.176   3.702   7.149 -0.1118  0.5717  0.2856
 4151SOL    HW123912   3.101   3.644   7.135  0.0149  0.3848  0.3810
 4151SOL    HW223913   3.230   3.677   7.074  0.9218 -1.3590  1.6588
 4152SOL     OW23914   0.736   0.915   7.117 -0.3063 -0.0343  0.2711
 4152SOL    HW123915   0.761   0.841   7.061 -0.3780  0.5062 -0.4737
 4152SOL    HW223916   0.641   0.907   7.120 -0.4623  1.2568 -1.4113
 4153SOL     OW23917   0.719   2.519   8.865  0.0444 -0.1978  0.6155
 4153SOL    HW123918   0.635   2.566   8.866 -0.4112 -1.0170  0.7111
 4153SOL    HW223919   0.710   2.470   8.783  1.1889  0.8181 -0.1197
 4154SOL     OW23920   3.117   4.353  11.484  0.3398 -0.8562 -0.5817
 4154SOL    HW123921   3.155   4.375  11.399  0.4953  1.8307  0.1741
 4154SOL    HW223922   3.161   4.269  11.500  0.1829 -0.6979  0.6611
 4155SOL     OW23923   1.251   2.328   8.851 -0.0979  0.6753  0.4164
 4155SOL    HW123924   1.168   2.344   8.806  0.0155 -0.0112 -0.0431
 4155SOL    HW223925   1.243   2.233   8.865  0.6167  0.8484  1.9968
 4156SOL     OW23926   1.520   1.021   6.430 -0.7272  0.5221 -0.2929
 4156SOL    HW123927   1.609   0.987   6.425 -0.5455  0.6657  2.0348
 4156SOL    HW223928   1.471   0.962   6.486 -0.4132  0.9756  0.4566
 4157SOL     OW23929   4.043   1.172   5.391 -0.1164 -0.2568  0.2420
 4157SOL    HW123930   4.000   1.140   5.312  0.4579  0.7587 -0.4802
 4157SOL    HW223931   4.004   1.258   5.403  1.1166  0.4520 -0.8023
 4158SOL     OW23932   3.134   4.565   7.882  0.1154  0.0388  0.3353
 4158SOL    HW123933   3.103   4.542   7.970 -0.3805 -0.2257  0.0932
 4158SOL    HW223934   3.051   4.606   7.857 -0.2841 -0.8263  0.2402
 4159SOL     OW23935   4.591   0.931   6.261 -0.2235 -0.2315 -0.1574
 4159SOL    HW123936   4.548   0.875   6.325 -1.2232  0.4198 -0.2507
 4159SOL    HW223937   4.524   0.995   6.236 -0.7838 -1.1273 -0.9154
 4160SOL     OW23938   2.670   4.093   1.597 -0.0684  0.0718  0.0782
 4160SOL    HW123939   2.683   4.188   1.591 -0.1859  0.2005  1.8628
 4160SOL    HW223940   2.757   4.056   1.590 -0.6249 -0.9006 -1.8651
 4161SOL     OW23941   1.382   4.113   5.253  0.7803 -0.0700  0.3885
 4161SOL    HW123942   1.382   4.102   5.348  0.6699  1.8963  0.6240
 4161SOL    HW223943   1.373   4.022   5.226 -0.1214 -0.3166  1.5305
 4162SOL     OW23944   4.405   1.954   2.508  0.2928  0.6762  0.1282
 4162SOL    HW123945   4.316   1.946   2.473  0.8285 -1.0383 -0.8569
 4162SOL    HW223946   4.384   2.013   2.580 -0.1197  1.2055 -0.4266
 4163SOL     OW23947   0.301   2.879   9.561  0.2148  1.0829 -0.3601
 4163SOL    HW123948   0.247   2.903   9.485 -0.0583  1.0940 -0.1626
 4163SOL    HW223949   0.350   2.958   9.585  3.0468 -0.7478 -0.1569
 4164SOL     OW23950   2.119   0.635   5.738  0.0516  0.3596 -0.0132
 4164SOL    HW123951   2.161   0.603   5.658  0.5580  0.7437  0.0986
 4164SOL    HW223952   2.151   0.725   5.743 -1.6740  1.0261 -1.3050
 4165SOL     OW23953   4.371   3.265   0.618 -0.1220 -0.2130  0.2669
 4165SOL    HW123954   4.287   3.220   0.623  0.6125 -1.4747  1.0523
 4165SOL    HW223955   4.400   3.250   0.529  0.2826  0.8890  0.2052
 4166SOL     OW23956   4.332   2.872   4.143  0.7245  0.2427  0.1977
 4166SOL    HW123957   4.272   2.841   4.076 -0.3814  0.4039  1.1122
 4166SOL    HW223958   4.290   2.958   4.148  0.9172  0.3697 -0.3187
 4167SOL     OW23959   1.882   1.397   9.734  0.0407 -0.4299  0.3804
 4167SOL    HW123960   1.882   1.396   9.830  2.0193  0.3346  0.4005
 4167SOL    HW223961   1.968   1.437   9.717 -0.0296 -0.7741 -0.7087
 4168SOL     OW23962   4.555   4.422   7.667  0.4047  0.0942  0.1820
 4168SOL    HW123963   4.647   4.428   7.643  0.4101 -2.7726 -0.5998
 4168SOL    HW223964   4.540   4.331   7.694 -1.4061  0.1113 -0.7621
 4169SOL     OW23965   0.962   3.286  17.075 -0.0053  0.3424  0.1717
 4169SOL    HW123966   0.893   3.231  17.110 -1.1893  0.7983 -1.4104
 4169SOL    HW223967   0.914   3.337  17.009  0.5198 -0.8203 -1.1080
 4170SOL     OW23968   3.577   2.124   2.961  0.1031  0.3736 -0.2254
 4170SOL    HW123969   3.582   2.044   2.908  2.6744 -0.1319  0.7653
 4170SOL    HW223970   3.620   2.193   2.910 -0.2252  0.8369  0.1329
 4171SOL     OW23971   3.284   2.358   4.640  0.3220 -0.0928 -0.2175
 4171SOL    HW123972   3.346   2.372   4.711 -0.9235  0.4108  0.7715
 4171SOL    HW223973   3.232   2.438   4.648  1.8550  0.9607 -0.9877
 4172SOL     OW23974   2.474   2.985   9.155  0.6566  0.0446 -0.6886
 4172SOL    HW123975   2.431   3.038   9.222  0.4364  0.4785 -1.1698
 4172SOL    HW223976   2.550   2.954   9.203  0.0151  0.2020  0.4304
 4173SOL     OW23977   3.266   2.321   4.354 -0.1223 -0.2061 -0.0087
 4173SOL    HW123978   3.246   2.396   4.297  2.6927  0.1535 -0.5163
 4173SOL    HW223979   3.260   2.366   4.438 -0.0476  1.4209 -0.8689
 4174SOL     OW23980   3.281   1.557  12.865  0.1755  0.2643 -0.1677
 4174SOL    HW123981   3.209   1.574  12.927 -0.3540 -0.6958 -0.5130
 4174SOL    HW223982   3.354   1.570  12.924 -0.1191  1.0210  0.0309
 4175SOL     OW23983   1.436   1.903   3.016 -0.5771 -0.0192 -0.3353
 4175SOL    HW123984   1.349   1.939   3.034  0.2834  1.2672  1.2406
 4175SOL    HW223985   1.415   1.810   3.023 -1.9844  0.2715 -0.6283
 4176SOL     OW23986   1.448   0.691   7.036 -0.0903 -0.3586 -0.1868
 4176SOL    HW123987   1.379   0.690   6.969 -0.4103  2.1150  0.0908
 4176SOL    HW223988   1.418   0.647   7.115 -0.5512 -2.0351 -1.2926
 4177SOL     OW23989   1.426   1.024  13.284  0.3251 -0.2899  0.5917
 4177SOL    HW123990   1.435   0.965  13.209 -2.5555 -1.7504  1.3907
 4177SOL    HW223991   1.475   1.096  13.244  0.3653 -0.5626  0.1502
 4178SOL     OW23992   1.481   4.520   3.537  0.1731 -0.0721 -0.2445
 4178SOL    HW123993   1.510   4.600   3.493 -1.1923  1.1575  1.0861
 4178SOL    HW223994   1.477   4.463   3.461  0.9685  2.1572 -1.9549
 4179SOL     OW23995   2.462   1.304   5.794 -0.0873 -0.1824 -0.3195
 4179SOL    HW123996   2.482   1.353   5.714  2.0068 -0.2872  0.1666
 4179SOL    HW223997   2.463   1.372   5.862  0.5710 -0.0237 -0.4854
 4180SOL     OW23998   1.220   4.412  16.375  0.1415  0.1266  0.1121
 4180SOL    HW123999   1.166   4.469  16.430 -0.7336 -0.1475 -0.4623
 4180SOL    HW224000   1.170   4.403  16.294 -0.3923 -0.9887  0.5630
 4181SOL     OW24001   1.484   2.913  12.639 -0.4810  0.5473 -0.8343
 4181SOL    HW124002   1.569   2.887  12.675 -2.3066 -0.6855  2.5639
 4181SOL    HW224003   1.500   2.980  12.573 -1.3317  0.1338 -1.4572
 4182SOL     OW24004   3.651   2.954   0.239  0.3606 -0.1373  0.1399
 4182SOL    HW124005   3.703   2.873   0.241 -1.6150 -1.4033  0.6590
 4182SOL    HW224006   3.634   2.959   0.145  0.5988 -1.7020  0.0046
 4183SOL     OW24007   0.094   4.415   8.279 -0.6086 -0.2248 -0.5282
 4183SOL    HW124008   0.021   4.477   8.275 -1.8256 -1.6923 -1.0301
 4183SOL    HW224009   0.133   4.442   8.196  1.4165 -0.2980  0.4033
 4184SOL     OW24010   4.665   4.320   0.213 -0.2416  0.4371  0.1481
 4184SOL    HW124011   4.687   4.247   0.154  0.1501  1.0696 -0.4864
 4184SOL    HW224012   4.617   4.369   0.146  0.7774  0.3660 -0.6502
 4185SOL     OW24013   3.211   3.494   8.123 -0.0071 -0.3348  0.6039
 4185SOL    HW124014   3.155   3.554   8.074 -0.9901 -2.0579 -0.3992
 4185SOL    HW224015   3.170   3.408   8.114  0.0770 -0.1560 -1.4705
 4186SOL     OW24016   1.904   4.527  14.521 -0.2324 -0.0215 -0.0455
 4186SOL    HW124017   1.964   4.476  14.466  0.1441  0.1783  0.1828
 4186SOL    HW224018   1.957   4.537  14.600  0.7115  3.0938 -1.0927
 4187SOL     OW24019   2.788   4.028   0.501 -0.0891  0.6282  0.2665
 4187SOL    HW124020   2.826   3.959   0.555  1.3767 -0.2290 -1.8436
 4187SOL    HW224021   2.866   4.070   0.464 -0.6602 -1.0001 -2.7873
 4188SOL     OW24022   3.315   0.236  14.910 -0.6503  0.4519  0.3608
 4188SOL    HW124023   3.276   0.272  14.830 -0.4860 -0.8500 -0.3039
 4188SOL    HW224024   3.349   0.308  14.963 -1.6373  1.7954 -0.8352
 4189SOL     OW24025   1.474   2.127   0.880 -0.1577  0.3643  0.1547
 4189SOL    HW124026   1.420   2.206   0.875  1.0125  1.1860  0.4280
 4189SOL    HW224027   1.513   2.131   0.792  1.3830  0.5559  0.8500
 4190SOL     OW24028   2.023   3.687   4.929  0.0372 -0.2891 -0.1841
 4190SOL    HW124029   2.079   3.635   4.871 -0.4390 -2.0132  0.8857
 4190SOL    HW224030   1.935   3.658   4.906  0.2758  0.5500 -2.1163
 4191SOL     OW24031   0.315   2.342   4.252 -0.3917  0.2087 -0.2518
 4191SOL    HW124032   0.233   2.378   4.284  0.8109  0.4202  2.6007
 4191SOL    HW224033   0.291   2.343   4.159 -1.4434 -0.4278  0.0086
 4192SOL     OW24034   1.847   2.362  13.577  0.2928  0.9325 -0.3425
 4192SOL    HW124035   1.834   2.452  13.606  1.4647  1.1817 -0.6106
 4192SOL    HW224036   1.920   2.328  13.629 -0.1283  2.0021  0.9535
 4193SOL     OW24037   0.220   3.644   0.096  0.1578 -0.2217  0.1213
 4193SOL    HW124038   0.196   3.596   0.176 -0.8429 -1.3110 -0.8313
 4193SOL    HW224039   0.169   3.591   0.035  0.6746 -0.5122 -0.0592
 4194SOL     OW24040   4.440   4.363   8.519 -0.7484  0.1123  0.2473
 4194SOL    HW124041   4.389   4.382   8.597  2.2372 -0.9148  2.4571
 4194SOL    HW224042   4.383   4.302   8.473 -1.3036  2.8220 -2.6667
 4195SOL     OW24043   1.553   2.334   6.306 -0.3888  0.0487 -0.0047
 4195SOL    HW124044   1.638   2.315   6.346  0.6412  2.5352 -0.9899
 4195SOL    HW224045   1.509   2.249   6.312  0.3406 -0.2772  0.8240
 4196SOL     OW24046   4.419   0.915   4.664  0.0807 -0.1861  0.4810
 4196SOL    HW124047   4.362   0.986   4.634 -2.6910 -3.8734 -3.0688
 4196SOL    HW224048   4.415   0.958   4.749  0.5789  1.2752 -0.2352
 4197SOL     OW24049   3.503   0.997   4.767  0.1236  0.7606  0.6769
 4197SOL    HW124050   3.585   0.965   4.731  0.1898  1.3134  0.3382
 4197SOL    HW224051   3.517   1.001   4.862  0.6335  0.2932  0.6222
 4198SOL     OW24052   3.558   2.926   4.362  0.3573  0.1426 -0.2248
 4198SOL    HW124053   3.586   2.843   4.401 -0.2842  0.4233  0.8543
 4198SOL    HW224054   3.464   2.919   4.380  0.2557 -0.6134 -1.0253
 4199SOL     OW24055   1.391   1.655  15.089  0.7361 -0.4291  0.7907
 4199SOL    HW124056   1.431   1.640  15.174 -1.2824 -0.4038  1.7349
 4199SOL    HW224057   1.298   1.658  15.108  0.9113 -1.3594  1.7696
 4200SOL     OW24058   1.286   3.314  14.555 -0.3427  0.0164 -0.4565
 4200SOL    HW124059   1.280   3.374  14.629 -1.4900 -1.2072  0.4565
 4200SOL    HW224060   1.277   3.229  14.599  1.3258  0.7340  1.2598
 4201SOL     OW24061   1.478   2.456   1.315  0.1027  0.2147 -0.5026
 4201SOL    HW124062   1.488   2.399   1.239 -0.4366  1.3763 -1.4377
 4201SOL    HW224063   1.566   2.447   1.349 -0.9147  1.2585  2.3900
 4202SOL     OW24064   3.289   0.574   4.402  1.0582  1.2260  0.0442
 4202SOL    HW124065   3.290   0.511   4.329  0.9433 -2.5554  3.3439
 4202SOL    HW224066   3.378   0.610   4.397  2.3112 -2.3396 -3.4730
 4203SOL     OW24067   0.100   0.834   9.517  0.0585 -0.3572 -0.5225
 4203SOL    HW124068   0.151   0.813   9.439  0.4782 -2.2548  0.2825
 4203SOL    HW224069   0.022   0.868   9.473 -2.0060 -0.0354  3.4536
 4204SOL     OW24070   1.285   0.892   8.646 -0.2309  0.0248 -0.3854
 4204SOL    HW124071   1.321   0.820   8.697  0.2163 -0.1615 -0.9599
 4204SOL    HW224072   1.190   0.881   8.657  0.1315 -1.4767  1.1593
 4205SOL     OW24073   0.643   2.876   2.386  0.2818  0.5114  0.1059
 4205SOL    HW124074   0.608   2.950   2.336  0.7471  1.9917  1.9729
 4205SOL    HW224075   0.586   2.898   2.460 -0.9136 -1.9219 -0.1030
 4206SOL     OW24076   3.159   3.815  13.695  0.1177 -0.5893 -0.1709
 4206SOL    HW124077   3.226   3.868  13.652  0.1172 -1.2351 -0.9650
 4206SOL    HW224078   3.192   3.816  13.785 -3.1442  3.0402  1.0055
 4207SOL     OW24079   1.945   0.327   5.507  0.0136  0.1713  0.4256
 4207SOL    HW124080   2.033   0.292   5.519  0.0203  0.0370 -0.0165
 4207SOL    HW224081   1.960   0.407   5.456  1.7828  0.1530  0.9128
 4208SOL     OW24082   1.685   0.639  11.613  0.6998 -0.3594  0.3221
 4208SOL    HW124083   1.615   0.689  11.656  1.6499  1.5357 -0.3309
 4208SOL    HW224084   1.713   0.582  11.684 -0.5806 -0.4812  0.7337
 4209SOL     OW24085   3.777   4.670   3.813  0.1066  0.0736 -0.1410
 4209SOL    HW124086   3.707   4.625   3.765 -1.3159  1.4834  0.6120
 4209SOL    HW224087   3.858   4.666   3.762 -0.1364  1.3421 -0.6137
 4210SOL     OW24088   4.610   3.074   9.192 -0.2643 -0.1736 -0.2393
 4210SOL    HW124089   4.640   3.149   9.141 -0.2650  2.1963  3.2601
 4210SOL    HW224090   4.625   3.108   9.281 -1.6925 -0.2545  0.0259
 4211SOL     OW24091   0.865   2.972   4.038 -0.2203 -0.3006 -0.4681
 4211SOL    HW124092   0.939   2.944   3.984  0.2391 -3.1854  1.6330
 4211SOL    HW224093   0.823   3.038   3.983 -0.2509 -0.4478 -0.6245
 4212SOL     OW24094   3.029   3.793   1.268  0.6045 -0.3268  0.0833
 4212SOL    HW124095   3.076   3.825   1.191 -1.1954  0.1122 -0.8270
 4212SOL    HW224096   3.059   3.703   1.259  0.7097 -0.0703 -1.9744
 4213SOL     OW24097   2.330   4.282   2.576 -0.4592  0.0260 -0.9193
 4213SOL    HW124098   2.345   4.241   2.491 -0.1487 -0.5577 -0.5844
 4213SOL    HW224099   2.286   4.212   2.625 -1.3264  1.4688  0.3780
 4214SOL     OW24100   3.350   1.105   1.893 -0.4813 -0.2153  1.1472
 4214SOL    HW124101   3.265   1.149   1.893 -0.0362  0.6652 -1.5563
 4214SOL    HW224102   3.378   1.103   1.802  1.2212 -1.4733  1.7026
 4215SOL     OW24103   2.001   3.078  15.103  0.2226  0.0664 -0.3150
 4215SOL    HW124104   1.973   3.159  15.062  0.6627 -1.5601 -3.8580
 4215SOL    HW224105   2.078   3.072  15.046 -0.1884 -0.4989 -0.8106
 4216SOL     OW24106   1.921   2.313   8.076 -0.2028  0.6130  0.0516
 4216SOL    HW124107   1.893   2.261   8.151 -1.1797  1.8945  0.5875
 4216SOL    HW224108   2.002   2.346   8.114  0.3080 -2.9495  2.0017
 4217SOL     OW24109   0.011   2.082   3.451 -0.3680  0.0916 -0.7516
 4217SOL    HW124110   4.700   2.081   3.361  2.0164 -1.5250 -1.6413
 4217SOL    HW224111   4.671   2.134   3.500 -0.6059 -0.0965 -0.8603
 4218SOL     OW24112   2.780   1.560   5.217 -0.1028 -0.3517 -0.0125
 4218SOL    HW124113   2.812   1.484   5.168  1.7358  0.5376 -0.1858
 4218SOL    HW224114   2.693   1.525   5.234  1.1353 -2.6320  1.6916
 4219SOL     OW24115   2.004   3.709   4.002  0.2026 -0.2400  0.1913
 4219SOL    HW124116   1.914   3.741   3.995  1.4545  2.7953 -2.0209
 4219SOL    HW224117   2.043   3.744   3.922  0.8724 -0.4438  0.4274
 4220SOL     OW24118   1.729   2.039  17.500 -0.6248  0.0973 -0.0058
 4220SOL    HW124119   1.722   2.121  17.450 -0.4239  0.4760  0.5787
 4220SOL    HW224120   1.735   1.978  17.427 -1.0123  0.2120 -0.1330
 4221SOL     OW24121   1.857   1.410   1.081  0.4934  0.8606 -0.1673
 4221SOL    HW124122   1.856   1.335   1.021  0.9921 -0.2311  1.1741
 4221SOL    HW224123   1.766   1.411   1.111 -0.0206 -3.1493 -1.6185
 4222SOL     OW24124   1.332   1.110   4.267 -0.1647  0.3449 -0.3748
 4222SOL    HW124125   1.334   1.125   4.361  0.8165  3.0732 -0.8385
 4222SOL    HW224126   1.253   1.058   4.252  0.1427  1.0410 -4.3168
 4223SOL     OW24127   2.354   2.426   4.408 -0.5215  0.1038 -0.3942
 4223SOL    HW124128   2.401   2.353   4.368 -1.2154 -0.4200 -0.2514
 4223SOL    HW224129   2.284   2.442   4.345 -2.0014 -1.0015  0.9411
 4224SOL     OW24130   4.353   1.303  12.053  0.3673 -0.2624  0.0624
 4224SOL    HW124131   4.344   1.352  11.972  0.7715  0.1730  0.2774
 4224SOL    HW224132   4.447   1.302  12.073  0.8538 -2.1856 -2.3757
 4225SOL     OW24133   4.282   3.032   2.887 -0.1957  0.7558 -0.1966
 4225SOL    HW124134   4.225   2.977   2.834 -0.0436 -0.2350  0.6672
 4225SOL    HW224135   4.249   3.005   2.973  1.7744  0.2070  0.3999
 4226SOL     OW24136   0.803   1.070  11.596 -0.6246 -0.2679 -0.1640
 4226SOL    HW124137   0.743   1.127  11.547 -1.4008 -1.6100 -0.7689
 4226SOL    HW224138   0.880   1.126  11.604 -0.6699  0.0149 -1.6410
 4227SOL     OW24139   0.156   3.779   3.874  0.4482 -0.4656 -0.1521
 4227SOL    HW124140   0.189   3.828   3.948 -1.6788  1.5493 -0.5247
 4227SOL    HW224141   0.078   3.828   3.847  0.3003  0.3511  1.7679
 4228SOL     OW24142   1.397   3.382   9.629  0.7121  0.2335  0.1024
 4228SOL    HW124143   1.369   3.370   9.539 -1.6707  1.3063  0.6937
 4228SOL    HW224144   1.445   3.464   9.635  1.3601 -0.1231 -0.2178
 4229SOL     OW24145   2.860   4.572   8.514  0.0813  0.4486  0.3117
 4229SOL    HW124146   2.825   4.657   8.489 -1.1074 -0.0739  0.2146
 4229SOL    HW224147   2.944   4.601   8.549  0.3722  1.6986 -1.4397
 4230SOL     OW24148   1.541   3.830  15.281  0.0113 -0.0212 -0.2676
 4230SOL    HW124149   1.517   3.853  15.371  0.4940 -0.2736 -0.0734
 4230SOL    HW224150   1.485   3.763  15.244  0.4787 -0.8000  0.4419
 4231SOL     OW24151   0.690   1.851  12.149 -0.3016  0.4834 -0.5086
 4231SOL    HW124152   0.689   1.928  12.205 -0.5115 -0.6029  0.9600
 4231SOL    HW224153   0.769   1.807  12.181 -1.9755  0.7532  3.9376
 4232SOL     OW24154   3.858   3.499  10.898  0.8625  0.1001  0.1869
 4232SOL    HW124155   3.854   3.594  10.900  2.0111  0.1910 -2.3622
 4232SOL    HW224156   3.925   3.483  10.964  0.4939  0.7193  0.7136
 4233SOL     OW24157   3.281   3.580   9.087  0.4980 -0.1890 -0.6218
 4233SOL    HW124158   3.355   3.536   9.046  1.6338  2.3878 -1.3570
 4233SOL    HW224159   3.320   3.634   9.156  0.3571  0.7820 -1.3089
 4234SOL     OW24160   4.713   3.228   3.906 -0.2581  0.0746  0.1994
 4234SOL    HW124161   0.033   3.173   3.971  1.2311 -1.1843 -1.9191
 4234SOL    HW224162   0.031   3.312   3.928 -2.3875  1.6800 -1.8178
 4235SOL     OW24163   4.086   1.204   4.922 -0.2725 -0.1515  0.5173
 4235SOL    HW124164   4.006   1.253   4.900 -0.0849 -0.2277 -0.3147
 4235SOL    HW224165   4.058   1.130   4.976 -0.5403  0.5721  1.3736
 4236SOL     OW24166   0.087   2.999   8.374  0.1107  0.1868 -0.1664
 4236SOL    HW124167   0.027   3.033   8.439  0.4931 -0.3716  0.4828
 4236SOL    HW224168   0.123   2.921   8.417  1.9894  1.4330  0.5066
 4237SOL     OW24169   2.463   0.591   0.274 -0.4317 -0.8302 -0.1666
 4237SOL    HW124170   2.447   0.526   0.205 -2.1644 -0.2283 -0.3229
 4237SOL    HW224171   2.374   0.625   0.283 -0.0762 -0.3279  1.4398
 4238SOL     OW24172   0.367   1.973  10.773  0.8169 -0.1801  0.5170
 4238SOL    HW124173   0.438   1.964  10.838 -0.2030  0.9854  1.7902
 4238SOL    HW224174   0.329   1.886  10.777 -0.7194  0.3384 -2.7943
 4239SOL     OW24175   4.609   3.557  10.960  0.6257  0.1431 -0.9218
 4239SOL    HW124176   4.563   3.490  11.010  1.1950  0.5777  0.1797
 4239SOL    HW224177   4.565   3.637  10.990 -0.1813 -1.2137  1.4856
 4240SOL     OW24178   3.016   0.942   7.002  0.0808 -0.0394  0.1505
 4240SOL    HW124179   2.991   1.031   6.978  0.8767  0.6784  1.9410
 4240SOL    HW224180   2.995   0.944   7.096 -1.1609 -2.5283 -0.0747
 4241SOL     OW24181   1.872   3.598   7.372  0.3005 -0.2017 -0.4168
 4241SOL    HW124182   1.828   3.518   7.401 -1.6174  2.0613  2.8021
 4241SOL    HW224183   1.905   3.632   7.455  2.5484 -0.0069 -1.3717
 4242SOL     OW24184   2.511   0.309   1.382 -0.4174 -0.4896 -0.3419
 4242SOL    HW124185   2.523   0.380   1.320 -1.6736  0.3180  0.3410
 4242SOL    HW224186   2.480   0.241   1.322 -0.8365  0.7502 -1.5193
 4243SOL     OW24187   1.538   1.299   5.313  0.1251  0.1443  0.0613
 4243SOL    HW124188   1.497   1.228   5.361 -0.5899  0.5833  0.0926
 4243SOL    HW224189   1.612   1.331   5.365  0.5535 -1.4534  0.4139
 4244SOL     OW24190   2.982   0.170   5.872  0.5728 -0.4122 -0.1271
 4244SOL    HW124191   2.896   0.166   5.832  0.0131  0.8848  0.9185
 4244SOL    HW224192   3.019   0.248   5.829 -2.7959  0.8246 -0.7529
 4245SOL     OW24193   4.177   3.471   9.131  0.1963  0.1856  0.1843
 4245SOL    HW124194   4.128   3.411   9.075 -0.0416  0.8805 -0.3545
 4245SOL    HW224195   4.190   3.410   9.204 -0.0315 -0.9734 -0.7498
 4246SOL     OW24196   0.095   1.563   9.116 -0.4183  0.0535 -0.1104
 4246SOL    HW124197   0.091   1.628   9.046  0.1168 -0.9998 -1.1231
 4246SOL    HW224198   0.056   1.608   9.190 -0.6818  0.1770 -0.3218
 4247SOL     OW24199   1.542   2.772  12.139  0.2130 -0.3411 -0.5364
 4247SOL    HW124200   1.467   2.832  12.139 -0.1096 -0.7448 -0.7669
 4247SOL    HW224201   1.586   2.806  12.061  0.3471  0.3382 -0.1690
 4248SOL     OW24202   1.388   1.275   4.037  0.3160 -0.0443  0.3345
 4248SOL    HW124203   1.362   1.209   4.101  1.5385 -0.7432  0.1100
 4248SOL    HW224204   1.307   1.323   4.021 -0.0356 -0.6728  0.2377
 4249SOL     OW24205   4.083   2.350   2.972  0.5270 -0.2085  0.6861
 4249SOL    HW124206   4.107   2.428   2.922 -0.7526 -0.1976  0.0888
 4249SOL    HW224207   3.991   2.373   2.986  0.6536  1.0781 -0.5185
 4250SOL     OW24208   1.286   0.063   2.733  0.1211 -0.2082  0.2817
 4250SOL    HW124209   1.251   0.071   2.644 -2.2849 -0.3229  1.2231
 4250SOL    HW224210   1.363   0.120   2.735 -0.1030  0.1159 -0.1310
 4251SOL     OW24211   1.443   0.683   9.076  0.1496 -0.4101 -0.7253
 4251SOL    HW124212   1.410   0.643   9.157 -0.2744  1.5428  0.0721
 4251SOL    HW224213   1.388   0.760   9.093 -1.2669 -1.2110 -1.7882
 4252SOL     OW24214   2.091   1.470  17.356  0.2431 -0.4936  0.2715
 4252SOL    HW124215   2.174   1.422  17.365  0.1880 -0.2610  1.9914
 4252SOL    HW224216   2.036   1.401  17.393 -0.6346  0.6515  1.1039
 4253SOL     OW24217   3.748   2.514   1.801  0.5052 -0.0548  0.5031
 4253SOL    HW124218   3.805   2.585   1.831  1.9611 -0.8077 -0.4868
 4253SOL    HW224219   3.781   2.490   1.715  0.1793  0.4815  0.2355
 4254SOL     OW24220   4.479   3.792  11.396  0.1300 -0.0034 -0.8560
 4254SOL    HW124221   4.519   3.862  11.344  0.4668 -0.8569 -1.7451
 4254SOL    HW224222   4.387   3.810  11.376  0.2151  0.0545 -1.1929
 4255SOL     OW24223   1.796   1.459   7.127  0.4792  0.3020  0.2348
 4255SOL    HW124224   1.767   1.375   7.162  0.2941  0.6868  1.0215
 4255SOL    HW224225   1.785   1.518   7.202 -0.7722  0.4813 -0.0854
 4256SOL     OW24226   1.087   2.544   3.960  0.0959 -0.4659  0.4825
 4256SOL    HW124227   1.085   2.491   4.040  1.4806  1.2068  1.5984
 4256SOL    HW224228   0.992   2.545   3.945  0.0152  0.8662  1.0875
 4257SOL     OW24229   1.186   0.839   0.858  0.2350  0.1830 -0.3950
 4257SOL    HW124230   1.223   0.772   0.916 -2.9516 -1.5939 -0.3895
 4257SOL    HW224231   1.252   0.873   0.798  1.0208  1.0243  0.9310
 4258SOL     OW24232   1.795   2.442   2.551  0.5093  0.2297  0.4181
 4258SOL    HW124233   1.702   2.461   2.541  0.5986  0.4068 -0.0855
 4258SOL    HW224234   1.829   2.529   2.573 -0.6286  1.4670 -2.6266
 4259SOL     OW24235   0.738   3.947   3.457  0.7839  0.1541  0.3327
 4259SOL    HW124236   0.782   3.914   3.536  1.2345  2.0177  0.8568
 4259SOL    HW224237   0.647   3.944   3.487  1.0708  1.6905  1.3603
 4260SOL     OW24238   3.160   2.460   9.555 -0.6368  0.3081  0.1070
 4260SOL    HW124239   3.133   2.461   9.647 -1.7807 -1.5130 -0.2074
 4260SOL    HW224240   3.166   2.366   9.535  2.4616  0.9119 -1.7319
 4261SOL     OW24241   2.643   2.302   1.317  0.3665 -0.0379 -0.3637
 4261SOL    HW124242   2.665   2.258   1.399  1.0577 -0.2596 -0.6693
 4261SOL    HW224243   2.709   2.249   1.272  2.2236  1.2459  0.8841
 4262SOL     OW24244   1.188   3.419   1.928  0.2212  0.1718 -0.9741
 4262SOL    HW124245   1.200   3.509   1.899  1.0103  0.3720 -0.0206
 4262SOL    HW224246   1.228   3.414   2.015  0.3798 -0.7799 -1.1010
 4263SOL     OW24247   2.850   2.766   3.099  0.2547 -0.1212  0.2581
 4263SOL    HW124248   2.870   2.675   3.076  2.1406 -0.0479  1.6231
 4263SOL    HW224249   2.755   2.762   3.115 -0.2425 -0.5920 -2.7871
 4264SOL     OW24250   1.553   2.010   5.644  0.2273 -0.4460 -0.2144
 4264SOL    HW124251   1.571   1.968   5.560  1.2216 -3.3637  1.4695
 4264SOL    HW224252   1.519   2.091   5.608  0.2694 -0.6603 -0.7327
 4265SOL     OW24253   2.241   0.884   0.721  0.5880  0.2435 -0.7072
 4265SOL    HW124254   2.327   0.925   0.718  1.1803 -1.0390 -1.0160
 4265SOL    HW224255   2.245   0.830   0.642  0.4092 -1.0813  0.1954
 4266SOL     OW24256   0.491   3.676   4.469  0.4371 -0.3120 -0.3328
 4266SOL    HW124257   0.546   3.713   4.539  0.5478  2.0343 -1.6659
 4266SOL    HW224258   0.464   3.590   4.501 -0.0082  0.0021  0.1389
 4267SOL     OW24259   3.065   2.136  13.705  0.4724  0.1522  0.1608
 4267SOL    HW124260   3.073   2.058  13.760  0.0582  0.1451  0.2083
 4267SOL    HW224261   2.972   2.131  13.685 -0.0136  2.8401  1.8061
 4268SOL     OW24262   2.966   3.076  14.663 -0.2278 -0.2991  0.1938
 4268SOL    HW124263   3.030   3.039  14.723 -0.4130 -1.9996 -0.6389
 4268SOL    HW224264   2.891   3.069  14.723  1.3011  0.8734  2.2324
 4269SOL     OW24265   3.463   1.348   8.265 -0.1272 -0.3768 -0.2411
 4269SOL    HW124266   3.507   1.402   8.330 -1.2336 -0.8857  0.9504
 4269SOL    HW224267   3.518   1.270   8.276  1.8717  1.1690  0.6825
 4270SOL     OW24268   0.540   2.482   1.851 -0.2417 -0.4781 -0.0848
 4270SOL    HW124269   0.550   2.508   1.760 -4.2446 -1.7838 -0.8653
 4270SOL    HW224270   0.620   2.433   1.872 -0.0174 -0.3890 -0.7480
 4271SOL     OW24271   0.071   2.883   7.807  0.2078  0.1718 -0.0577
 4271SOL    HW124272   0.073   2.791   7.834  0.8228  0.1491 -0.1901
 4271SOL    HW224273   0.069   2.879   7.711  2.3811  1.4707 -0.1502
 4272SOL     OW24274   4.415   0.477   3.361  0.5115 -0.3344 -0.3808
 4272SOL    HW124275   4.398   0.548   3.299 -1.7322 -1.1135 -0.6481
 4272SOL    HW224276   4.343   0.417   3.344  0.0922 -0.0490  0.4211
 4273SOL     OW24277   4.021   0.540   8.118  0.5311 -0.2109  0.4341
 4273SOL    HW124278   4.059   0.548   8.205  1.7799 -0.7089 -0.0809
 4273SOL    HW224279   3.953   0.473   8.124  0.5105 -0.2173  0.1145
 4274SOL     OW24280   0.053   3.729   9.016  0.1555  0.5021  0.3951
 4274SOL    HW124281   0.059   3.702   9.108  1.5578 -0.0627  0.1445
 4274SOL    HW224282   0.114   3.802   9.026 -0.9321  1.3971  0.4398
 4275SOL     OW24283   1.044   4.186   9.976 -0.4418 -0.0179 -0.3117
 4275SOL    HW124284   1.111   4.190   9.907 -0.1577 -0.8546 -0.0874
 4275SOL    HW224285   1.004   4.101   9.957  1.5123 -1.1191  0.4982
 4276SOL     OW24286   2.277   0.312   2.735 -0.8590 -0.3011 -0.5563
 4276SOL    HW124287   2.299   0.405   2.745  1.3335 -1.1042  2.0868
 4276SOL    HW224288   2.274   0.306   2.639 -0.1444  0.6520 -0.6388
 4277SOL     OW24289   0.597   3.442   9.538  0.8648  0.1565 -0.3228
 4277SOL    HW124290   0.549   3.522   9.557 -0.2458 -0.5533 -0.1506
 4277SOL    HW224291   0.564   3.422   9.450  3.6170  1.7791 -1.7222
 4278SOL     OW24292   2.074   0.643   9.212  0.1702  0.5264 -0.0296
 4278SOL    HW124293   2.077   0.564   9.267 -0.0599  0.2808 -0.3741
 4278SOL    HW224294   1.985   0.665   9.186 -0.6025  0.3842  2.4882
 4279SOL     OW24295   0.398   3.786   9.946 -0.3066  0.1602  0.0141
 4279SOL    HW124296   0.414   3.836  10.026 -1.0751 -0.2648  0.4372
 4279SOL    HW224297   0.412   3.700   9.986  1.7993  0.7796  0.5867
 4280SOL     OW24298   4.082   2.582   6.928 -0.2180  0.0733 -0.1184
 4280SOL    HW124299   4.038   2.568   7.012  2.6965 -2.3982  0.9939
 4280SOL    HW224300   4.013   2.546   6.873 -1.3736 -0.2312  1.5519
 4281SOL     OW24301   1.562   2.987   4.351 -0.1159  0.1997  0.0452
 4281SOL    HW124302   1.581   2.939   4.432 -0.5195  0.7729  0.4840
 4281SOL    HW224303   1.545   3.076   4.383 -1.0641  0.6052 -1.5600
 4282SOL     OW24304   1.462   0.340   1.944  0.4989 -0.0760 -0.2742
 4282SOL    HW124305   1.462   0.244   1.945 -0.2411 -0.0451  2.0783
 4282SOL    HW224306   1.377   0.352   1.901  0.3617  0.1928  0.0772
 4283SOL     OW24307   2.168   0.850  11.392 -0.1436  0.1860 -0.5287
 4283SOL    HW124308   2.221   0.923  11.361  0.5092 -0.1658 -0.2317
 4283SOL    HW224309   2.115   0.893  11.459  0.3346  0.2839 -0.2209
 4284SOL     OW24310   4.234   1.302   1.546  0.8331  0.3256  0.2682
 4284SOL    HW124311   4.241   1.234   1.613  0.7066 -0.5492 -0.6202
 4284SOL    HW224312   4.324   1.330   1.532 -0.1427  2.5038 -1.6785
 4285SOL     OW24313   1.152   3.209   4.216  0.1585 -0.4968  0.0578
 4285SOL    HW124314   1.143   3.114   4.215  1.6952 -0.6415  0.5347
 4285SOL    HW224315   1.069   3.229   4.171  2.4234 -0.7273 -4.2256
 4286SOL     OW24316   3.632   1.850   5.272 -0.8822  0.0130  0.4838
 4286SOL    HW124317   3.541   1.825   5.256  0.0621 -1.2941 -2.9987
 4286SOL    HW224318   3.629   1.945   5.283  1.6726  0.0673  0.8187
 4287SOL     OW24319   0.732   3.676   6.402 -0.2343 -0.1978  0.0137
 4287SOL    HW124320   0.812   3.631   6.373  0.4095 -0.0268  1.5117
 4287SOL    HW224321   0.665   3.619   6.364 -0.2684 -0.1291 -0.0281
 4288SOL     OW24322   0.742   0.991  17.292  0.2672 -0.0352  0.4379
 4288SOL    HW124323   0.742   0.925  17.223  0.9615  1.5592 -1.0837
 4288SOL    HW224324   0.818   0.958  17.339  1.2958  2.7198  0.6859
 4289SOL     OW24325   3.194   3.157   7.659  0.1034  0.4248 -0.2338
 4289SOL    HW124326   3.267   3.104   7.692  1.2252  2.0899 -0.0144
 4289SOL    HW224327   3.234   3.235   7.621 -0.4365  1.5681  1.5880
 4290SOL     OW24328   3.775   4.060   6.608 -0.4241 -0.2129  0.7010
 4290SOL    HW124329   3.825   4.042   6.528 -0.0459 -1.0759  1.1417
 4290SOL    HW224330   3.771   4.156   6.614 -0.2583 -0.1204 -0.4914
 4291SOL     OW24331   1.740   3.614   4.871 -0.7110  0.1615 -0.4028
 4291SOL    HW124332   1.763   3.674   4.800 -1.6936 -0.3594 -1.1613
 4291SOL    HW224333   1.661   3.580   4.828  1.2854 -1.0756 -3.0359
 4292SOL     OW24334   1.915   0.411   1.768  0.1784 -0.5300  0.8254
 4292SOL    HW124335   1.847   0.344   1.781 -1.6307  1.3192  0.8611
 4292SOL    HW224336   1.947   0.387   1.681  0.4771 -2.1909  1.3974
 4293SOL     OW24337   4.674   0.832   4.142 -0.0677  0.6377  0.5729
 4293SOL    HW124338   4.672   0.901   4.075 -0.9201 -0.7994 -0.9081
 4293SOL    HW224339   0.032   0.845   4.189  0.5290  2.2567 -0.9309
 4294SOL     OW24340   1.285   3.429   9.857 -0.1859 -0.0273 -0.4312
 4294SOL    HW124341   1.336   3.487   9.913 -1.7245  1.6101 -0.7279
 4294SOL    HW224342   1.325   3.426   9.770  0.0473 -0.3900 -0.3081
 4295SOL     OW24343   2.166   3.209   6.779 -0.0629  0.2583  0.1094
 4295SOL    HW124344   2.174   3.256   6.862 -0.9911  0.5154  0.0591
 4295SOL    HW224345   2.074   3.217   6.754  0.0630 -0.6507 -0.6540
 4296SOL     OW24346   2.621   1.870   5.444  0.2495 -0.0405 -0.4371
 4296SOL    HW124347   2.567   1.798   5.476  0.0685  0.8442  1.2164
 4296SOL    HW224348   2.578   1.948   5.477  0.3878 -0.5439  0.9377
 4297SOL     OW24349   3.565   0.147   1.427  0.2729 -0.2360  0.6229
 4297SOL    HW124350   3.564   0.123   1.519 -1.5390  0.7782  0.8653
 4297SOL    HW224351   3.541   0.239   1.425  2.8730  0.4000 -0.8730
 4298SOL     OW24352   0.899   3.276   4.136  0.0274 -0.4844 -0.4223
 4298SOL    HW124353   0.868   3.256   4.224  1.4808 -0.9293 -0.0266
 4298SOL    HW224354   0.818   3.303   4.093 -1.6062  0.1264  3.0419
 4299SOL     OW24355   4.459   2.222  11.060  0.3169  0.5513 -0.0221
 4299SOL    HW124356   4.424   2.253  11.144  0.3943 -0.8621  0.5364
 4299SOL    HW224357   4.550   2.202  11.084  0.1395  1.1358  1.1527
 4300SOL     OW24358   2.534   3.963   8.059  0.5379 -0.6578 -0.5861
 4300SOL    HW124359   2.494   3.974   7.973  1.2427  0.2903 -0.8009
 4300SOL    HW224360   2.625   3.992   8.046 -0.0234  2.3713  2.1818
 4301SOL     OW24361   1.031   0.707   3.277 -0.1396  0.3078  0.0365
 4301SOL    HW124362   1.100   0.648   3.246  0.3976  0.6477  0.5850
 4301SOL    HW224363   1.061   0.712   3.368 -0.5013  1.1874  0.1038
 4302SOL     OW24364   3.204   3.207   4.814  0.3649 -0.5327  0.6753
 4302SOL    HW124365   3.122   3.250   4.838 -0.5778 -1.2628 -1.2118
 4302SOL    HW224366   3.256   3.228   4.892  2.0575  1.3646 -0.9389
 4303SOL     OW24367   1.833   2.730   2.160  0.8252 -0.4679 -0.0799
 4303SOL    HW124368   1.898   2.661   2.175  1.3844  0.3083  1.0456
 4303SOL    HW224369   1.789   2.744   2.244 -0.1497  1.5493 -0.9343
 4304SOL     OW24370   3.684   2.767   5.063  0.3039  0.0402  0.1153
 4304SOL    HW124371   3.667   2.776   5.157  1.4749 -3.8258  0.7314
 4304SOL    HW224372   3.713   2.852   5.031 -2.1959  0.9431  0.2666
 4305SOL     OW24373   4.600   3.365   9.143  0.3990  0.7188 -0.3168
 4305SOL    HW124374   4.589   3.433   9.209 -0.5650  0.5499 -0.2991
 4305SOL    HW224375   4.544   3.406   9.076  0.6606 -0.3806 -1.2147
 4306SOL     OW24376   3.823   4.313   2.438  0.0387  0.2291 -0.0745
 4306SOL    HW124377   3.874   4.374   2.384 -0.5654  1.1784  0.4361
 4306SOL    HW224378   3.825   4.230   2.391  2.8805  1.0440 -1.3884
 4307SOL     OW24379   1.065   0.261   6.111  0.2761 -0.5180 -0.4793
 4307SOL    HW124380   1.018   0.266   6.028  0.0855  1.0360 -0.2887
 4307SOL    HW224381   1.078   0.167   6.113 -0.5346 -0.6285 -0.3875
 4308SOL     OW24382   4.511   3.907   7.068 -0.0103  0.0249 -0.3314
 4308SOL    HW124383   4.537   3.979   7.010  0.3290 -1.1347 -1.5962
 4308SOL    HW224384   4.416   3.916   7.067  0.0404  0.8462  1.6430
 4309SOL     OW24385   2.983   1.352  15.023  0.2662  0.1992  0.0860
 4309SOL    HW124386   2.901   1.346  15.071  0.6164  0.0426  0.6581
 4309SOL    HW224387   2.967   1.433  14.973  1.0075  0.5198  0.3638
 4310SOL     OW24388   4.155   4.293   6.049 -0.1958  0.1487 -0.0904
 4310SOL    HW124389   4.105   4.257   5.975 -0.7326  0.8884 -0.0822
 4310SOL    HW224390   4.202   4.365   6.007 -1.2911 -0.9128 -3.1377
 4311SOL     OW24391   2.477   3.539   2.960 -0.3188  0.1231 -0.3073
 4311SOL    HW124392   2.397   3.557   3.010  2.0814 -1.9952  4.2942
 4311SOL    HW224393   2.460   3.449   2.931  0.6472 -0.6840  1.5843
 4312SOL     OW24394   3.674   4.441   7.356  0.6051  1.0989  0.2999
 4312SOL    HW124395   3.624   4.359   7.344 -1.8890  2.4613  1.2781
 4312SOL    HW224396   3.685   4.448   7.450 -2.2267  1.8021  0.5993
 4313SOL     OW24397   2.648   2.265  12.306 -0.3862 -0.1806 -0.4575
 4313SOL    HW124398   2.577   2.298  12.252 -1.9593 -1.2855  0.9217
 4313SOL    HW224399   2.627   2.172  12.306  0.4759 -0.3757 -0.8417
 4314SOL     OW24400   3.599   3.096   0.690  0.3562  0.4820 -0.3560
 4314SOL    HW124401   3.536   3.134   0.629 -0.5308 -0.2373  0.1160
 4314SOL    HW224402   3.537   3.065   0.757  0.5410  0.5133 -0.1719
 4315SOL     OW24403   0.822   2.651  12.019  0.4663  0.0694 -0.1842
 4315SOL    HW124404   0.891   2.637  12.083 -2.4256 -2.7659  2.3195
 4315SOL    HW224405   0.835   2.576  11.961 -0.7430 -0.2761 -0.0214
 4316SOL     OW24406   1.752   1.400   2.457 -0.7460  0.0720 -0.2466
 4316SOL    HW124407   1.691   1.396   2.530  0.0460 -0.6017  0.3652
 4316SOL    HW224408   1.705   1.447   2.388  3.7831  2.5716 -1.6632
 4317SOL     OW24409   1.908   4.535  16.821 -0.3308  0.1573  0.0309
 4317SOL    HW124410   1.832   4.491  16.860  2.5458 -5.4813 -0.7721
 4317SOL    HW224411   1.967   4.461  16.814 -1.3545 -0.7330  0.8003
 4318SOL     OW24412   4.333   1.626   8.508 -0.1226  0.3103 -0.1249
 4318SOL    HW124413   4.307   1.637   8.600  3.2814 -0.0508  0.8792
 4318SOL    HW224414   4.248   1.607   8.469  0.2909 -0.0074 -0.8676
 4319SOL     OW24415   3.350   3.330  15.985 -0.4646 -0.0514 -0.0672
 4319SOL    HW124416   3.265   3.285  15.983 -0.8181  0.7240 -2.1698
 4319SOL    HW224417   3.407   3.255  16.000 -2.5068 -1.4091  1.0068
 4320SOL     OW24418   0.030   0.267   7.281 -0.1311  0.7256  0.0112
 4320SOL    HW124419   4.683   0.204   7.296  3.2896 -2.7196  1.8402
 4320SOL    HW224420   4.710   0.351   7.291 -1.0756  0.1657  0.5832
 4321SOL     OW24421   4.338   3.115   9.570  0.3030 -0.2244 -0.1770
 4321SOL    HW124422   4.295   3.159   9.644 -0.0840  1.0591 -1.1639
 4321SOL    HW224423   4.405   3.175   9.536  0.4213 -0.0375  0.3742
 4322SOL     OW24424   1.555   3.471   1.874 -0.0572 -0.0293  0.7552
 4322SOL    HW124425   1.473   3.491   1.828 -0.5760  2.8331  2.9334
 4322SOL    HW224426   1.547   3.514   1.959  0.0823  0.6909  0.4069
 4323SOL     OW24427   2.110   2.747   6.639 -0.0647  0.5314 -0.1500
 4323SOL    HW124428   2.157   2.771   6.719  1.8759  0.4267 -1.2589
 4323SOL    HW224429   2.076   2.659   6.653  1.1469  0.0569 -0.2441
 4324SOL     OW24430   3.961   3.798  10.136  0.0227  0.5296  0.1562
 4324SOL    HW124431   3.951   3.757  10.050  2.3511 -1.3343  0.7669
 4324SOL    HW224432   4.012   3.875  10.113 -0.4686  1.2542  1.4988
 4325SOL     OW24433   0.332   3.799   2.612  0.5549 -0.1768 -0.1017
 4325SOL    HW124434   0.279   3.756   2.679  2.2232 -1.5413  0.3559
 4325SOL    HW224435   0.343   3.735   2.542  1.1397 -0.3742  0.1695
 4326SOL     OW24436   4.263   1.823   3.127  0.0612  0.6944  0.1032
 4326SOL    HW124437   4.198   1.777   3.073  0.6010 -1.9134  1.6581
 4326SOL    HW224438   4.260   1.767   3.204  1.0282  1.9357  1.0320
 4327SOL     OW24439   1.868   1.509   0.552 -0.8736 -0.4092 -0.0782
 4327SOL    HW124440   1.899   1.422   0.525  0.4092 -0.4745  1.5712
 4327SOL    HW224441   1.788   1.509   0.500 -0.2440 -3.6858 -1.0844
 4328SOL     OW24442   1.184   3.258  14.817 -0.5341  0.4830  0.7016
 4328SOL    HW124443   1.152   3.335  14.864 -1.2245 -0.5737  1.9573
 4328SOL    HW224444   1.279   3.256  14.829 -0.8414 -0.5369  2.8982
 4329SOL     OW24445   0.946   4.347   8.242  1.2078  0.1296  0.3663
 4329SOL    HW124446   0.989   4.350   8.327 -0.2229  1.0668  1.0439
 4329SOL    HW224447   1.019   4.347   8.179 -1.1160 -0.0523 -2.3001
 4330SOL     OW24448   3.730   1.480   3.069  0.3598 -0.2771  0.7140
 4330SOL    HW124449   3.711   1.546   3.001  1.2353 -0.4917  0.2651
 4330SOL    HW224450   3.808   1.445   3.026 -0.5236 -1.0780 -0.2291
 4331SOL     OW24451   2.173   1.976  16.696  0.9109  0.6862  0.2457
 4331SOL    HW124452   2.245   2.039  16.695  0.0488  1.6947  1.3403
 4331SOL    HW224453   2.216   1.900  16.657  0.5445 -0.1615  1.4762
 4332SOL     OW24454   1.265   2.015  10.140  0.1291  0.1935 -0.0876
 4332SOL    HW124455   1.227   1.980  10.221 -2.0553  0.7311 -0.8707
 4332SOL    HW224456   1.194   2.020  10.076  0.4891  1.2074 -0.3990
 4333SOL     OW24457   2.745   0.980   2.598 -0.4499 -0.2544 -0.3598
 4333SOL    HW124458   2.762   0.893   2.633 -0.1079  0.7015  1.8604
 4333SOL    HW224459   2.830   0.995   2.556 -1.1432  0.5839 -1.4980
 4334SOL     OW24460   0.878   2.243  14.572 -0.1561 -0.2076  0.2571
 4334SOL    HW124461   0.927   2.200  14.642  0.1320 -1.1134 -0.5097
 4334SOL    HW224462   0.913   2.209  14.490  0.8845  0.4718  0.4182
 4335SOL     OW24463   3.686   1.997  14.075 -0.5362 -0.4347 -0.0411
 4335SOL    HW124464   3.653   2.038  13.995 -1.4623 -0.2705  0.4231
 4335SOL    HW224465   3.781   1.982  14.075 -0.2733  1.1846  0.4648
 4336SOL     OW24466   2.839   0.025  15.074  0.0023 -0.1114  0.4256
 4336SOL    HW124467   2.795   0.108  15.056 -1.5486 -1.4858 -2.1278
 4336SOL    HW224468   2.905   0.057  15.135  1.0925 -0.4618 -0.5755
 4337SOL     OW24469   1.371   0.170  11.250  0.0333 -0.1367 -0.1545
 4337SOL    HW124470   1.298   0.147  11.307 -0.2801 -0.1466 -0.5648
 4337SOL    HW224471   1.327   0.223  11.184  0.2352 -0.5411 -0.6073
 4338SOL     OW24472   1.383   4.215   2.285 -0.5140  0.2681  0.5116
 4338SOL    HW124473   1.460   4.189   2.336 -0.0430 -1.0935 -0.9253
 4338SOL    HW224474   1.412   4.293   2.238 -1.0569 -0.2546 -0.6740
 4339SOL     OW24475   4.131   2.564   5.989 -0.2206  0.1563  0.0597
 4339SOL    HW124476   4.079   2.484   5.988 -1.2860  0.8718 -1.1315
 4339SOL    HW224477   4.074   2.598   6.059  0.3661 -1.6798  1.4289
 4340SOL     OW24478   4.286   3.423   8.534  0.1900  0.2610  0.0324
 4340SOL    HW124479   4.327   3.467   8.608  0.6015 -1.0839  0.6148
 4340SOL    HW224480   4.308   3.478   8.459  1.5187  0.5304  0.6167
 4341SOL     OW24481   0.205   0.870   7.958  0.0175  0.2142  0.4986
 4341SOL    HW124482   0.138   0.823   8.008 -0.3722  1.3406  1.0404
 4341SOL    HW224483   0.278   0.808   7.962 -0.1788  0.0490  1.5545
 4342SOL     OW24484   0.586   2.012   0.280 -0.8391  0.3337  0.1239
 4342SOL    HW124485   0.669   1.968   0.297 -0.5108  0.6834 -0.5613
 4342SOL    HW224486   0.528   1.943   0.246 -1.3519 -1.1497  4.0138
 4343SOL     OW24487   0.283   1.231   3.248 -0.2129  0.5866 -0.2962
 4343SOL    HW124488   0.253   1.303   3.303  2.4095  1.9405 -0.6342
 4343SOL    HW224489   0.334   1.175   3.307 -0.7373  0.8761  0.4243
 4344SOL     OW24490   1.369   2.976   4.805 -0.1846 -0.0503 -0.3127
 4344SOL    HW124491   1.355   2.905   4.742  0.8488 -1.1937  0.7423
 4344SOL    HW224492   1.389   2.934   4.888 -1.4734  1.0204  0.5314
 4345SOL     OW24493   0.540   0.643   8.342 -0.3200  0.3715 -0.0232
 4345SOL    HW124494   0.618   0.665   8.291 -0.4340  3.1836  0.9986
 4345SOL    HW224495   0.582   0.585   8.405 -0.4739 -0.6414 -0.8617
 4346SOL     OW24496   0.338   4.080   8.616  0.0173  0.0142 -0.5557
 4346SOL    HW124497   0.290   4.097   8.697  1.6363 -2.5843  0.9619
 4346SOL    HW224498   0.332   3.984   8.610  0.3585 -0.0495  0.1528
 4347SOL     OW24499   0.365   3.368   9.956  0.1385  0.3870 -0.4530
 4347SOL    HW124500   0.436   3.363   9.892 -0.2130  1.2536 -0.9177
 4347SOL    HW224501   0.386   3.449  10.002 -1.3372 -0.0163  0.8854
 4348SOL     OW24502   2.023   1.786  13.501 -0.3478  0.0646 -0.1931
 4348SOL    HW124503   1.929   1.773  13.515 -0.4698  0.1463 -0.9148
 4348SOL    HW224504   2.027   1.861  13.561  2.0173 -0.2396  0.0353
 4349SOL     OW24505   3.974   0.022   9.887 -0.1959 -0.1481  0.0221
 4349SOL    HW124506   4.068   0.037   9.901  0.2434 -2.1713 -0.8172
 4349SOL    HW224507   3.941   0.016   9.976  0.0151 -0.9988  0.0395
 4350SOL     OW24508   3.237   3.807   7.643 -0.1190 -0.1309  0.1207
 4350SOL    HW124509   3.291   3.830   7.718 -1.3427  0.6615  0.7691
 4350SOL    HW224510   3.241   3.712   7.631 -2.0050 -0.5607  3.0537
 4351SOL     OW24511   3.398   2.792   2.574 -0.1426  0.1972 -0.6861
 4351SOL    HW124512   3.431   2.857   2.637 -0.8830  0.3947 -0.5088
 4351SOL    HW224513   3.345   2.742   2.635  1.4402 -0.4017  0.2115
 4352SOL     OW24514   2.483   0.309   3.794  0.3528 -0.2548 -0.4972
 4352SOL    HW124515   2.573   0.297   3.763  1.7966 -2.1867  4.5252
 4352SOL    HW224516   2.497   0.289   3.886  1.0916 -0.1761 -0.5902
 4353SOL     OW24517   4.259   0.388  16.636  0.0709  0.1616 -0.1566
 4353SOL    HW124518   4.179   0.431  16.667  0.9718  0.2543  2.0361
 4353SOL    HW224519   4.285   0.444  16.562  3.0837  0.3767  1.0678
 4354SOL     OW24520   0.890   4.098   7.577 -0.5971  0.5929 -0.1497
 4354SOL    HW124521   0.921   4.160   7.511  0.6480 -0.8130 -0.8850
 4354SOL    HW224522   0.937   4.016   7.560 -1.6169 -0.1664  0.6945
 4355SOL     OW24523   1.973   1.044  11.575  0.1282  0.0314 -0.0082
 4355SOL    HW124524   2.011   1.123  11.537  0.9538 -0.1637  0.4145
 4355SOL    HW224525   1.990   1.052  11.668 -0.0836 -0.8461  0.1074
 4356SOL     OW24526   0.562   2.787   0.918 -0.3347  0.2815 -0.3198
 4356SOL    HW124527   0.617   2.842   0.862  0.5819 -1.0062 -0.6754
 4356SOL    HW224528   0.506   2.757   0.846 -0.2797  0.7926 -0.5713
 4357SOL     OW24529   1.743   4.366   1.849 -0.2750 -0.1321 -0.4587
 4357SOL    HW124530   1.727   4.459   1.864  2.4234  0.3367 -0.3790
 4357SOL    HW224531   1.779   4.371   1.760  1.1857  0.6659  0.1797
 4358SOL     OW24532   4.060   1.574   6.245 -0.6797 -0.1826 -0.2370
 4358SOL    HW124533   3.984   1.628   6.267 -0.6721 -0.6844  1.0495
 4358SOL    HW224534   4.028   1.496   6.291 -0.8236  0.2551  0.4122
 4359SOL     OW24535   3.831   1.755   1.217 -0.3230  0.3687 -0.0127
 4359SOL    HW124536   3.833   1.689   1.148  0.4110  0.5490 -0.1686
 4359SOL    HW224537   3.830   1.832   1.161  1.0696  0.8617  0.6162
 4360SOL     OW24538   3.181   2.658  14.301 -0.3671  0.2688 -0.3284
 4360SOL    HW124539   3.137   2.743  14.303 -1.1223 -0.1619  1.0334
 4360SOL    HW224540   3.218   2.659  14.389 -0.7938 -0.3690 -0.1424
 4361SOL     OW24541   4.623   4.480  15.588  0.2190 -0.1844 -0.8212
 4361SOL    HW124542   4.698   4.450  15.640  0.3148 -0.8886 -1.3645
 4361SOL    HW224543   4.661   4.562  15.556  0.4686 -0.8244 -2.1546
 4362SOL     OW24544   0.144   1.450   9.619 -0.2831 -0.0960 -1.0154
 4362SOL    HW124545   0.106   1.534   9.643  0.6139 -1.1476  3.9921
 4362SOL    HW224546   0.223   1.487   9.580  1.8896 -1.3138  2.2036
 4363SOL     OW24547   0.231   0.563  15.378 -0.0680 -0.1403  0.2003
 4363SOL    HW124548   0.267   0.630  15.437 -0.1930 -0.0146  0.1338
 4363SOL    HW224549   0.253   0.597  15.291  1.3650  0.1812  0.6927
 4364SOL     OW24550   3.973   0.955   6.268  0.0228 -0.5473  0.4501
 4364SOL    HW124551   3.983   0.935   6.361 -1.3487 -0.7297  0.5562
 4364SOL    HW224552   4.059   0.954   6.225 -0.2252  0.9336 -0.0808
 4365SOL     OW24553   3.750   3.199  17.503  0.1149  0.2345  0.2687
 4365SOL    HW124554   3.769   3.286  17.469 -1.7128  0.3573 -0.4030
 4365SOL    HW224555   3.669   3.177  17.458 -0.4538  0.0962  1.3562
 4366SOL     OW24556   1.355   4.310  14.388  0.8482 -0.4935 -0.0510
 4366SOL    HW124557   1.338   4.337  14.298 -0.7139 -1.9340 -0.1944
 4366SOL    HW224558   1.446   4.338  14.399  0.4055 -0.1178  2.6864
 4367SOL     OW24559   3.902   0.977   4.840 -0.3405 -0.3721 -0.8765
 4367SOL    HW124560   3.848   0.926   4.780 -1.6584  0.0436 -0.0450
 4367SOL    HW224561   3.939   1.036   4.775 -2.8487  2.5048  0.3315
 4368SOL     OW24562   2.952   0.271   2.725  0.1019 -0.3147 -0.0140
 4368SOL    HW124563   2.893   0.200   2.700 -0.8151  0.3685  0.2176
 4368SOL    HW224564   2.880   0.307   2.777 -0.2870 -1.8858  0.5298
 4369SOL     OW24565   2.442   2.565   1.968 -0.8629 -0.0101 -0.0484
 4369SOL    HW124566   2.414   2.516   1.891 -0.0985 -1.6455  0.7159
 4369SOL    HW224567   2.483   2.634   1.915 -0.8603  0.8221  1.0449
 4370SOL     OW24568   3.182   0.028   2.778 -0.4828 -0.2186  0.4409
 4370SOL    HW124569   3.207   0.118   2.758  3.8405 -1.1535  1.7759
 4370SOL    HW224570   3.177   0.031   2.874  0.5082 -0.9460  0.5084
 4371SOL     OW24571   1.216   1.373  12.990 -0.8819  0.0973  0.4144
 4371SOL    HW124572   1.149   1.307  12.972 -1.5128  0.5332  1.2032
 4371SOL    HW224573   1.292   1.320  13.013 -0.8801  0.0178  0.2209
 4372SOL     OW24574   1.052   2.616   3.192 -0.5527  0.6130  0.6384
 4372SOL    HW124575   1.124   2.620   3.256 -0.7586 -2.3486  1.0541
 4372SOL    HW224576   1.080   2.537   3.145 -0.1589  0.3089  1.3804
 4373SOL     OW24577   4.398   0.819  14.804 -0.4554  0.6281  1.1203
 4373SOL    HW124578   4.426   0.760  14.874 -1.0998 -0.3643  0.5318
 4373SOL    HW224579   4.308   0.841  14.828 -1.2530  0.7143 -1.8657
 4374SOL     OW24580   0.114   2.666   3.636  0.3749 -0.5430 -0.5214
 4374SOL    HW124581   0.055   2.590   3.638 -0.1266 -0.1575 -0.7127
 4374SOL    HW224582   0.053   2.739   3.624  0.5659 -0.4721 -1.0868
 4375SOL     OW24583   4.200   2.170   8.352  0.3887  0.3514 -0.5112
 4375SOL    HW124584   4.138   2.242   8.343 -0.2113  0.1934  2.4397
 4375SOL    HW224585   4.280   2.222   8.363 -0.0146  0.5208  1.4687
 4376SOL     OW24586   1.402   1.006   8.417  0.1905  0.1558 -0.1035
 4376SOL    HW124587   1.478   1.036   8.467  0.2410 -2.0344  1.1550
 4376SOL    HW224588   1.344   0.960   8.479 -0.8625  0.4873 -0.8490
 4377SOL     OW24589   1.235   3.126   1.616 -0.9684 -0.3224  0.0316
 4377SOL    HW124590   1.285   3.154   1.539 -0.3281 -1.9872 -0.1631
 4377SOL    HW224591   1.270   3.037   1.619 -1.4034 -0.5706 -2.0044
 4378SOL     OW24592   0.047   0.727  13.879 -0.1733 -0.8094  0.2208
 4378SOL    HW124593   0.027   0.820  13.873  1.1074 -0.5420  0.2632
 4378SOL    HW224594   0.106   0.722  13.804 -1.3281 -1.0400 -0.6737
 4379SOL     OW24595   1.439   3.388   4.216  0.2315 -0.0945  0.0566
 4379SOL    HW124596   1.438   3.318   4.150  1.2877  0.8987 -1.0194
 4379SOL    HW224597   1.362   3.438   4.191 -1.2642 -2.6128 -0.3693
 4380SOL     OW24598   4.041   3.409  11.383 -0.2179 -0.9952 -0.4051
 4380SOL    HW124599   4.028   3.433  11.474 -0.8267  0.4119 -0.8607
 4380SOL    HW224600   4.073   3.492  11.347 -0.7078 -0.2914  0.7932
 4381SOL     OW24601   2.014   4.157  13.337 -0.5904 -0.3455 -0.5486
 4381SOL    HW124602   2.046   4.095  13.403  0.3512 -1.5364 -2.1157
 4381SOL    HW224603   1.958   4.212  13.392 -1.5756 -1.0854 -0.8216
 4382SOL     OW24604   4.612   3.298   8.668  0.3115 -0.1639  0.0010
 4382SOL    HW124605   4.705   3.309   8.686  0.7292 -2.8054 -0.4762
 4382SOL    HW224606   4.587   3.390   8.678  0.0652 -0.0072 -2.0641
 4383SOL     OW24607   2.558   4.514   6.000 -0.3618  0.0743 -0.0061
 4383SOL    HW124608   2.558   4.419   6.014 -0.1348  0.2620  1.2878
 4383SOL    HW224609   2.610   4.541   6.076 -0.5143  1.2780 -0.3383
 4384SOL     OW24610   0.439   4.717   9.374 -0.0310 -0.0456  0.9506
 4384SOL    HW124611   0.505   4.673   9.319  0.7116 -0.0385  1.8325
 4384SOL    HW224612   0.365   4.698   9.317  1.2376 -2.2227  0.0164
 4385SOL     OW24613   2.787   1.039   0.652  0.5929 -0.3338  0.3827
 4385SOL    HW124614   2.880   1.060   0.653  0.7769 -1.1535  0.6416
 4385SOL    HW224615   2.770   0.946   0.637 -1.0902 -0.0467  0.4841
 4386SOL     OW24616   1.643   3.614   8.009  0.3816  0.2641 -0.2410
 4386SOL    HW124617   1.581   3.564   8.062 -0.8186 -0.1125 -2.0342
 4386SOL    HW224618   1.720   3.556   8.009 -0.1888 -0.4844  0.5380
 4387SOL     OW24619   3.450   2.976   2.372 -0.0769  0.9743 -0.4757
 4387SOL    HW124620   3.357   2.960   2.353 -0.3585  2.2000 -0.1021
 4387SOL    HW224621   3.464   2.897   2.425 -1.0474  0.9484 -0.2608
 4388SOL     OW24622   0.825   2.298   7.511  0.0604 -0.1734  1.0208
 4388SOL    HW124623   0.757   2.303   7.579  0.6500 -2.2158  1.7636
 4388SOL    HW224624   0.907   2.293   7.561  1.3685  0.3217 -1.0969
 4389SOL     OW24625   1.289   2.184   3.574 -0.4291 -0.0739 -0.3196
 4389SOL    HW124626   1.301   2.094   3.601  1.4625 -0.6023 -2.8862
 4389SOL    HW224627   1.196   2.208   3.575 -0.3345  0.3206 -0.6084
 4390SOL     OW24628   3.497   2.444   1.957  0.1260 -0.0845  0.1219
 4390SOL    HW124629   3.576   2.485   1.923 -2.2535  4.7785  0.4940
 4390SOL    HW224630   3.514   2.350   1.954  0.0608 -0.1132  0.7992
 4391SOL     OW24631   0.896   0.404   0.741 -0.3137  0.6297  0.6031
 4391SOL    HW124632   0.986   0.418   0.711 -0.6539  1.8120  0.1503
 4391SOL    HW224633   0.913   0.329   0.798  2.3031  2.5780  2.3949
 4392SOL     OW24634   3.153   4.508   7.118  0.4840  0.3198 -0.3820
 4392SOL    HW124635   3.211   4.438   7.090  1.2954  0.6856  0.3727
 4392SOL    HW224636   3.219   4.574   7.140 -0.8026  1.3833  0.2722
 4393SOL     OW24637   1.453   1.215   2.991  0.2053  0.2016  0.4932
 4393SOL    HW124638   1.360   1.238   2.981  0.6854  0.9488 -2.1852
 4393SOL    HW224639   1.461   1.249   3.080  1.1986  2.6219 -0.4986
 4394SOL     OW24640   0.491   1.207   7.677  0.2780 -0.0019  0.0791
 4394SOL    HW124641   0.557   1.276   7.670  2.0927 -1.6925  0.6585
 4394SOL    HW224642   0.417   1.254   7.716  0.2220 -0.3372  0.3781
 4395SOL     OW24643   2.914   4.118   1.259 -0.1263 -0.1123 -0.5811
 4395SOL    HW124644   2.961   4.174   1.321  1.0790 -0.0734 -1.5298
 4395SOL    HW224645   2.983   4.079   1.206  1.5298 -0.9522  2.1866
 4396SOL     OW24646   3.491   2.497   3.731 -0.3161 -0.5476 -0.2224
 4396SOL    HW124647   3.426   2.561   3.701  0.1071  0.0892  0.2131
 4396SOL    HW224648   3.507   2.446   3.652  3.7580  1.1267 -0.4566
 4397SOL     OW24649   1.449   1.652  15.717  0.0704  0.4858  0.1736
 4397SOL    HW124650   1.526   1.622  15.765  0.0836  0.3819  0.0866
 4397SOL    HW224651   1.451   1.598  15.638 -1.2649  1.1571 -0.3222
 4398SOL     OW24652   0.677   3.208   2.771  0.0212  0.2456 -0.3225
 4398SOL    HW124653   0.661   3.301   2.788 -1.0181 -0.0006  0.0500
 4398SOL    HW224654   0.711   3.211   2.681 -0.7767  2.2384 -0.5508
 4399SOL     OW24655   3.268   4.047   0.450 -0.5688 -0.6422 -0.1427
 4399SOL    HW124656   3.251   4.054   0.544  0.2347 -0.7915  0.0106
 4399SOL    HW224657   3.246   4.136   0.422 -1.1322 -0.3452  1.2390
 4400SOL     OW24658   3.816   3.734   5.178  0.2499 -0.5331  0.2874
 4400SOL    HW124659   3.754   3.727   5.106  0.0003  1.2821  0.3219
 4400SOL    HW224660   3.765   3.685   5.242  2.0807 -1.4361  1.0511
 4401SOL     OW24661   2.075   1.075  17.191 -0.5187 -0.1923  0.1228
 4401SOL    HW124662   2.054   0.981  17.190  2.6006 -0.8745 -1.1601
 4401SOL    HW224663   2.169   1.079  17.176 -0.5546 -1.5346 -0.5125
 4402SOL     OW24664   2.823   3.105   6.006 -0.6277  0.3691 -0.2276
 4402SOL    HW124665   2.764   3.106   5.931 -1.4103 -1.2189  0.3802
 4402SOL    HW224666   2.893   3.043   5.988 -1.7025 -0.5668 -1.1105
 4403SOL     OW24667   3.133   1.123   2.979  0.0300 -0.2729  0.1456
 4403SOL    HW124668   3.051   1.089   3.015 -0.7336 -0.3619 -1.6745
 4403SOL    HW224669   3.156   1.188   3.046 -0.1684 -1.3121  1.2384
 4404SOL     OW24670   1.950   0.874   9.749  0.5227 -0.0621 -0.2767
 4404SOL    HW124671   2.012   0.905   9.814  0.8147  1.4983 -1.3192
 4404SOL    HW224672   1.874   0.873   9.808  1.3148 -1.2616  0.7246
 4405SOL     OW24673   0.101   3.333  13.330 -0.2087  0.3183  0.0475
 4405SOL    HW124674   0.083   3.387  13.254 -0.3734 -0.3571 -0.3967
 4405SOL    HW224675   0.051   3.367  13.404  0.7569  0.2996  0.7075
 4406SOL     OW24676   1.111   2.412   3.041  1.0882 -0.2603  0.3612
 4406SOL    HW124677   1.164   2.332   3.029  2.5001  0.5955  0.8860
 4406SOL    HW224678   1.068   2.422   2.956 -0.4193 -0.9460  1.0528
 4407SOL     OW24679   1.798   4.353   2.380  0.1547 -0.1215  0.1638
 4407SOL    HW124680   1.749   4.401   2.446  0.3494  0.1171  0.1353
 4407SOL    HW224681   1.887   4.390   2.377 -0.1625  0.7355  1.2487
 4408SOL     OW24682   2.855   2.942   4.930  0.5369  0.2058  0.6358
 4408SOL    HW124683   2.910   3.011   4.967  1.5290 -0.7591  0.9455
 4408SOL    HW224684   2.877   2.880   4.999  1.4704 -1.2547 -0.9807
 4409SOL     OW24685   1.806   4.004  15.011  0.1710  0.0549 -0.6310
 4409SOL    HW124686   1.760   3.987  14.928  2.2577 -2.4010 -1.3051
 4409SOL    HW224687   1.892   4.034  14.981 -0.4296  1.9654 -0.4522
 4410SOL     OW24688   2.146   4.290   6.955 -0.1375  0.0801  0.4463
 4410SOL    HW124689   2.136   4.195   6.962  0.0212  0.0974  0.9119
 4410SOL    HW224690   2.055   4.318   6.950 -0.3896 -1.0307 -1.2508
 4411SOL     OW24691   0.933   4.699   0.011  0.4474 -0.4421 -0.1238
 4411SOL    HW124692   0.874   0.037   0.054  0.4735 -0.8088  0.4301
 4411SOL    HW224693   0.993   0.035  17.663  0.2654 -0.3206 -0.2065
 4412SOL     OW24694   1.949   0.522   3.862  0.0656  0.5607 -0.2209
 4412SOL    HW124695   1.858   0.550   3.857 -0.0415  0.2392  0.0026
 4412SOL    HW224696   1.942   0.430   3.885 -0.1239 -0.0854 -2.8611
 4413SOL     OW24697   0.241   4.355   3.587  0.0020 -0.0796  0.3010
 4413SOL    HW124698   0.203   4.300   3.655  0.7068  0.2917  0.9968
 4413SOL    HW224699   0.283   4.425   3.638 -0.4885 -0.3666  1.1073
 4414SOL     OW24700   0.831   2.904  14.780 -0.4639  0.4260 -0.0715
 4414SOL    HW124701   0.897   2.959  14.739 -0.6044  0.3960 -0.3341
 4414SOL    HW224702   0.772   2.920  14.707  0.0725 -0.8443 -0.7695
 4415SOL     OW24703   4.375   0.704   0.074  0.1927 -0.4046 -0.3965
 4415SOL    HW124704   4.443   0.754   0.118 -0.7152 -0.5996  1.2313
 4415SOL    HW224705   4.300   0.719   0.132  0.3147  0.0109 -0.3440
 4416SOL     OW24706   2.263   0.743   0.316  0.3349  0.3290  0.3277
 4416SOL    HW124707   2.325   0.815   0.306  0.5195  0.1208 -0.0057
 4416SOL    HW224708   2.200   0.771   0.250 -0.1313 -0.0047  0.6272
 4417SOL     OW24709   3.530   3.991   3.664  0.1475  0.0151 -0.3237
 4417SOL    HW124710   3.464   3.947   3.717  0.3146 -1.7227 -1.5647
 4417SOL    HW224711   3.604   3.991   3.725  1.0171  0.7731 -1.3649
 4418SOL     OW24712   3.692   1.651  16.354 -0.3158 -0.0051 -0.6109
 4418SOL    HW124713   3.696   1.561  16.385  1.3511  0.2545 -0.0780
 4418SOL    HW224714   3.777   1.690  16.372  0.8530 -2.7489 -0.3337
 4419SOL     OW24715   3.037   0.197  17.282  0.2948 -0.2254 -0.4319
 4419SOL    HW124716   3.080   0.226  17.201  1.1121  0.5392  0.2737
 4419SOL    HW224717   2.991   0.119  17.252  0.7546 -1.4310  1.9624
 4420SOL     OW24718   0.058   0.990   3.952  0.8473  0.2126 -0.2336
 4420SOL    HW124719   0.011   1.021   3.874  1.4139  0.9413 -0.2776
 4420SOL    HW224720   0.110   1.065   3.980 -1.5249  2.2593 -1.3289
 4421SOL     OW24721   3.964   2.707   5.704  0.6915 -0.0596  0.0199
 4421SOL    HW124722   4.040   2.658   5.737  1.4438  2.2917  1.7568
 4421SOL    HW224723   3.978   2.790   5.748 -0.1843  0.9132 -1.5257
 4422SOL     OW24724   4.333   0.083   2.545  0.2827  0.1153 -0.3376
 4422SOL    HW124725   4.428   0.096   2.543  0.4490 -1.1025 -0.1210
 4422SOL    HW224726   4.331   4.717   2.578  0.9553  0.7534  1.4801
 4423SOL     OW24727   1.022   0.673   9.312  0.0579 -0.2670  0.1401
 4423SOL    HW124728   1.064   0.754   9.340  0.3175 -1.2556  2.6291
 4423SOL    HW224729   0.933   0.693   9.283  0.0207  0.2712  0.6285
 4424SOL     OW24730   3.852   2.627  17.649 -0.8277  0.0613  0.4598
 4424SOL    HW124731   3.903   2.660  17.575 -1.1515  1.8875  1.0658
 4424SOL    HW224732   3.875   2.534  17.649 -0.9380  0.0210 -1.6338
 4425SOL     OW24733   1.199   1.140   2.901  0.6591  0.0258  0.1707
 4425SOL    HW124734   1.132   1.162   2.836  0.9915  0.0380 -0.1712
 4425SOL    HW224735   1.190   1.047   2.922 -1.6044  0.1951 -0.1376
 4426SOL     OW24736   0.436   2.547   7.836  0.0641 -0.5158 -0.0124
 4426SOL    HW124737   0.400   2.620   7.785  0.0050  0.4035  1.3369
 4426SOL    HW224738   0.357   2.494   7.836 -1.0955  1.2124  0.6553
 4427SOL     OW24739   1.297   2.243   1.528 -0.3905  0.1870  0.2429
 4427SOL    HW124740   1.230   2.224   1.594 -0.6941  1.9957  0.4353
 4427SOL    HW224741   1.277   2.335   1.511 -0.6904  0.4411  2.0487
 4428SOL     OW24742   1.183   1.007   5.128 -0.0866 -0.0567  0.2458
 4428SOL    HW124743   1.170   1.098   5.157  0.6853  0.2373 -0.3236
 4428SOL    HW224744   1.222   1.024   5.042 -1.9744  0.7553 -0.4439
 4429SOL     OW24745   0.494   3.224   9.032  0.1759  0.8937  0.1500
 4429SOL    HW124746   0.562   3.280   9.070  0.2861  2.0354 -1.7500
 4429SOL    HW224747   0.427   3.289   9.011  0.9382  1.1542 -1.4689
 4430SOL     OW24748   2.276   3.839   6.791 -0.0059 -0.4054  0.1613
 4430SOL    HW124749   2.232   3.833   6.706 -1.6517 -2.5537  1.1634
 4430SOL    HW224750   2.314   3.927   6.792  0.3746 -0.5544 -2.0237
 4431SOL     OW24751   4.232   2.243  12.088 -0.0035  0.2681  0.2123
 4431SOL    HW124752   4.284   2.323  12.085  1.5466 -0.7599  0.1003
 4431SOL    HW224753   4.141   2.272  12.081  0.4490  1.9140  1.1347
 4432SOL     OW24754   1.630   2.820   4.603  0.5518  0.2635  0.1836
 4432SOL    HW124755   1.598   2.740   4.642 -0.4911 -0.4049 -2.0322
 4432SOL    HW224756   1.611   2.888   4.668 -0.4965 -0.3421  0.4957
 4433SOL     OW24757   2.733   3.087  15.692 -0.2354  0.5297  0.3099
 4433SOL    HW124758   2.681   3.139  15.753 -1.7915 -0.6866  0.0254
 4433SOL    HW224759   2.805   3.147  15.671  0.3996 -0.5907 -0.7184
 4434SOL     OW24760   0.729   3.103   4.508  0.0334  0.7205 -0.3005
 4434SOL    HW124761   0.755   3.041   4.440 -1.6706 -0.4237  0.1089
 4434SOL    HW224762   0.753   3.183   4.462 -2.9229  0.4800 -2.1807
 4435SOL     OW24763   0.636   3.495   7.181  0.6175  0.4713  0.8257
 4435SOL    HW124764   0.716   3.545   7.195  0.5576  0.8541 -0.2339
 4435SOL    HW224765   0.569   3.562   7.192 -0.6496 -0.6489 -0.1662
 4436SOL     OW24766   1.210   0.881  10.363  0.2004  0.1400  0.1662
 4436SOL    HW124767   1.140   0.939  10.393 -0.6026 -2.4253  3.3323
 4436SOL    HW224768   1.175   0.796  10.392  2.4511 -0.5717  0.8046
 4437SOL     OW24769   1.821   1.311   0.311 -0.1382  0.0455  0.1399
 4437SOL    HW124770   1.734   1.322   0.349 -0.5379  1.3490 -1.1831
 4437SOL    HW224771   1.800   1.266   0.229 -0.0076  1.3354 -0.5980
 4438SOL     OW24772   3.861   1.609   3.700 -0.5798  0.0495 -0.0695
 4438SOL    HW124773   3.828   1.563   3.777 -1.7941 -2.4724 -2.1222
 4438SOL    HW224774   3.871   1.698   3.734 -0.7711  1.0631 -2.7441
 4439SOL     OW24775   1.137   0.519   7.637 -0.2495 -0.2567 -0.9337
 4439SOL    HW124776   1.052   0.497   7.598 -1.2818 -0.7264  1.6066
 4439SOL    HW224777   1.201   0.510   7.566  1.3231 -1.7232  0.6764
 4440SOL     OW24778   2.070   4.037  14.057 -0.0862  0.4311 -0.2391
 4440SOL    HW124779   2.038   4.075  14.139  1.0553  1.6194 -0.3380
 4440SOL    HW224780   2.161   4.020  14.083  0.0305  0.7201 -0.4544
 4441SOL     OW24781   1.542   1.688  17.409 -0.0852  0.1467 -0.4657
 4441SOL    HW124782   1.610   1.678  17.475  0.8329 -0.6001 -1.5265
 4441SOL    HW224783   1.581   1.754  17.352  2.5117 -1.0662 -0.0532
 4442SOL     OW24784   4.644   1.195   3.291  0.0800 -0.1994  0.3267
 4442SOL    HW124785   4.630   1.122   3.352  4.2947 -1.4370 -0.1779
 4442SOL    HW224786   0.013   1.215   3.306  0.0522  0.6843 -0.7293
 4443SOL     OW24787   1.864   2.076   5.138 -0.4448 -0.2312  0.1691
 4443SOL    HW124788   1.848   2.093   5.045  1.9915 -0.6514 -0.3337
 4443SOL    HW224789   1.890   2.163   5.168 -0.3440  0.2984 -1.4534
 4444SOL     OW24790   1.349   0.448   8.767  0.1776  0.3632  0.3555
 4444SOL    HW124791   1.433   0.403   8.776  0.7068  1.2748 -0.0139
 4444SOL    HW224792   1.374   0.539   8.754 -0.1519  0.1962 -1.4120
 4445SOL     OW24793   4.080   2.433   4.503  0.1843  0.2891 -0.3042
 4445SOL    HW124794   4.135   2.447   4.581 -0.2156  3.6549 -0.6313
 4445SOL    HW224795   4.031   2.515   4.497  0.0804  0.3609  1.4167
 4446SOL     OW24796   0.550   0.302   9.940 -0.3689  0.4135 -0.1659
 4446SOL    HW124797   0.609   0.358   9.989 -0.3456 -0.0325  0.3110
 4446SOL    HW224798   0.481   0.272  10.000 -0.9849  0.0779 -1.0362
 4447SOL     OW24799   1.173   1.439   1.189  0.1227  0.4067 -0.4932
 4447SOL    HW124800   1.174   1.418   1.095  2.0628  1.7812 -0.7709
 4447SOL    HW224801   1.184   1.349   1.221  0.3945  0.6424  0.0634
 4448SOL     OW24802   2.635   3.986   1.288 -0.4777  0.5458  0.3195
 4448SOL    HW124803   2.711   4.044   1.295  0.7977 -1.1765  0.5690
 4448SOL    HW224804   2.686   3.905   1.292 -0.8089  0.2891 -0.5141
 4449SOL     OW24805   4.204   0.032   8.436  0.0639 -0.5409  0.4917
 4449SOL    HW124806   4.231   4.718   8.520 -0.8634  0.4916  1.2550
 4449SOL    HW224807   4.288   0.044   8.392  1.0009  1.3565  2.7799
 4450SOL     OW24808   4.254   2.929   8.267 -0.4878 -0.1764  0.2849
 4450SOL    HW124809   4.268   2.901   8.177  0.5155  1.9806 -0.2451
 4450SOL    HW224810   4.305   3.010   8.269 -1.7728  0.6830 -1.4521
 4451SOL     OW24811   3.711   1.838   9.544  0.4123  0.4227 -0.3367
 4451SOL    HW124812   3.659   1.818   9.466  0.3297 -2.3172  0.4233
 4451SOL    HW224813   3.782   1.892   9.510 -0.9931  2.2264 -0.4145
 4452SOL     OW24814   3.950   4.364   0.881 -0.2796 -0.5135 -0.6919
 4452SOL    HW124815   4.015   4.332   0.818  1.8705  1.9741  0.2376
 4452SOL    HW224816   3.875   4.378   0.824 -1.8444 -0.1474  1.4819
 4453SOL     OW24817   0.163   3.348   9.074  0.2669  0.2352  0.1407
 4453SOL    HW124818   0.070   3.346   9.093  0.5933  0.8480  1.7786
 4453SOL    HW224819   0.182   3.424   9.018 -1.9978 -0.1446 -1.1299
 4454SOL     OW24820   0.952   0.647   4.005 -0.5849 -0.3820  0.5395
 4454SOL    HW124821   0.988   0.732   3.980 -0.8191 -0.5766 -0.4730
 4454SOL    HW224822   1.032   0.606   4.039  0.5042  1.0882 -0.2631
 4455SOL     OW24823   1.982   0.837   5.996 -0.3538 -0.0438 -0.3192
 4455SOL    HW124824   2.050   0.817   5.931  0.9236  0.6838  0.8042
 4455SOL    HW224825   1.906   0.783   5.971 -1.6535  1.1352  1.0986
 4456SOL     OW24826   4.623   1.908   9.676  0.6432 -0.4021  0.5807
 4456SOL    HW124827   4.574   1.885   9.755 -2.1456 -0.9356 -1.2806
 4456SOL    HW224828   4.556   1.949   9.621  2.2922  2.0824  0.4534
 4457SOL     OW24829   0.571   4.414  15.197  0.3370  0.1161 -0.1510
 4457SOL    HW124830   0.621   4.439  15.274  1.0663  2.4727 -1.4060
 4457SOL    HW224831   0.479   4.439  15.206  1.0650  2.5128  0.6120
 4458SOL     OW24832   1.096   0.885  16.403 -0.3780  0.4833 -0.0941
 4458SOL    HW124833   1.016   0.859  16.358  0.0311  1.6223 -1.4832
 4458SOL    HW224834   1.157   0.845  16.341 -1.0080 -1.1359  0.3452
 4459SOL     OW24835   2.842   2.702   7.096  0.5238  0.6545  0.1377
 4459SOL    HW124836   2.757   2.710   7.138 -0.1905  0.4373 -1.2490
 4459SOL    HW224837   2.833   2.766   7.026  1.4477  1.7376  1.0195
 4460SOL     OW24838   2.188   2.545   3.696  0.0226 -0.5993  0.2365
 4460SOL    HW124839   2.127   2.514   3.629 -0.1935  1.7585 -0.6720
 4460SOL    HW224840   2.265   2.494   3.672 -0.3172 -1.3113  0.6684
 4461SOL     OW24841   3.053   0.725  14.844 -0.2258  0.0748  0.1088
 4461SOL    HW124842   3.121   0.790  14.824 -1.0233  1.0312  0.4825
 4461SOL    HW224843   3.096   0.682  14.918 -0.8013  0.2143  0.5185
 4462SOL     OW24844   1.487   0.760  11.744  0.1131 -0.5609 -0.0680
 4462SOL    HW124845   1.406   0.710  11.740  0.2744 -0.5851 -2.6120
 4462SOL    HW224846   1.502   0.766  11.839 -0.5966  0.0760  0.0067
 4463SOL     OW24847   4.428   0.440  12.364 -0.0772  0.6742 -0.4144
 4463SOL    HW124848   4.493   0.509  12.353 -1.2557  1.9907  0.8100
 4463SOL    HW224849   4.355   0.488  12.325 -2.3575 -1.0244  1.7299
 4464SOL     OW24850   4.321   3.786   0.099 -0.8458 -0.0601  1.0217
 4464SOL    HW124851   4.245   3.827   0.059 -0.6984 -0.6029  0.1992
 4464SOL    HW224852   4.283   3.771   0.186  0.9650  0.5998  1.9314
 4465SOL     OW24853   1.560   3.454   8.227 -0.2057  0.1308 -0.2385
 4465SOL    HW124854   1.641   3.442   8.276 -0.3764 -0.1153 -0.0165
 4465SOL    HW224855   1.510   3.498   8.296  0.5366 -1.2375  1.1582
 4466SOL     OW24856   4.566   4.072  11.521  0.2154  0.7220  0.6344
 4466SOL    HW124857   4.553   4.131  11.447 -2.3697 -1.5334 -0.6993
 4466SOL    HW224858   4.586   4.130  11.594 -1.5626  1.0082  0.8808
 4467SOL     OW24859   2.077   0.344   3.467  0.2108 -0.5779  0.0285
 4467SOL    HW124860   2.109   0.386   3.547  1.2136  0.5688 -0.9664
 4467SOL    HW224861   2.116   0.257   3.462  0.5305 -0.3432 -1.4805
 4468SOL     OW24862   4.497   0.086   8.194 -0.1721 -0.2928 -0.4783
 4468SOL    HW124863   4.567   0.143   8.162  0.0957 -0.1444  0.3557
 4468SOL    HW224864   4.431   0.148   8.224  1.3386  0.9508  0.3233
 4469SOL     OW24865   2.431   0.462  13.256 -0.6917  0.0692  0.4865
 4469SOL    HW124866   2.419   0.524  13.185 -1.2566  0.1351  0.6363
 4469SOL    HW224867   2.404   0.391  13.197 -0.8963  0.9365 -0.4520
 4470SOL     OW24868   3.149   3.584  13.526  0.0033 -0.4666 -0.1251
 4470SOL    HW124869   3.188   3.664  13.490 -0.0247  0.1288  1.1476
 4470SOL    HW224870   3.137   3.609  13.618 -1.3438 -1.9323  0.0834
 4471SOL     OW24871   3.155   0.868   3.113  0.0045  0.6250  0.2931
 4471SOL    HW124872   3.098   0.944   3.121 -1.1047 -0.0124 -1.5712
 4471SOL    HW224873   3.224   0.892   3.175 -1.1249 -0.6144  2.0451
 4472SOL     OW24874   0.543   2.242   7.006  0.3987 -0.5636  0.1890
 4472SOL    HW124875   0.623   2.189   6.997  0.0059 -1.1159 -0.0351
 4472SOL    HW224876   0.535   2.297   6.929 -0.2390 -0.6646  0.1882
 4473SOL     OW24877   0.440   2.325   3.775  0.1784 -0.1354  0.2268
 4473SOL    HW124878   0.409   2.354   3.689  1.9927  0.8127 -0.0862
 4473SOL    HW224879   0.484   2.403   3.808 -0.3389 -1.1721  3.3507
 4474SOL     OW24880   3.579   4.170   7.286  0.0607  0.2040 -0.1456
 4474SOL    HW124881   3.501   4.188   7.338  0.3967  0.1086  0.3931
 4474SOL    HW224882   3.541   4.115   7.218  0.4059  0.0890 -0.2471
 4475SOL     OW24883   2.638   3.664   5.145 -0.3311 -0.9844  0.3143
 4475SOL    HW124884   2.638   3.757   5.126  1.6217 -0.8487  1.0393
 4475SOL    HW224885   2.606   3.622   5.065 -2.8962 -0.1479  0.9124
 4476SOL     OW24886   0.151   2.754  14.248  0.2155  0.3556 -0.0116
 4476SOL    HW124887   0.183   2.775  14.336 -0.2593  1.2454 -0.0564
 4476SOL    HW224888   0.070   2.805  14.248 -1.2332 -1.9112  0.3287
 4477SOL     OW24889   1.910   0.677   7.164 -0.2798 -1.1431 -0.9891
 4477SOL    HW124890   1.836   0.737   7.160  0.3812 -0.1631  1.3988
 4477SOL    HW224891   1.869   0.593   7.141 -1.2086 -0.9595 -0.0387
 4478SOL     OW24892   4.413   3.111   3.988 -0.4696 -0.0562 -0.2963
 4478SOL    HW124893   4.413   3.141   4.079  0.4360 -0.6348 -0.1050
 4478SOL    HW224894   4.482   3.171   3.960 -0.0745  0.0868  0.9583
 4479SOL     OW24895   1.131   1.440  17.574 -0.0745 -0.5091  0.1652
 4479SOL    HW124896   1.114   1.353  17.539  0.0099 -0.1188 -0.8542
 4479SOL    HW224897   1.183   1.418  17.651  1.2112  0.0036 -0.5630
 4480SOL     OW24898   3.822   3.779  12.025  0.5864  0.0346 -0.0554
 4480SOL    HW124899   3.744   3.811  12.071 -0.8584 -1.3188 -1.5522
 4480SOL    HW224900   3.889   3.811  12.085 -0.6717  1.5145  0.5487
 4481SOL     OW24901   2.506   0.955   5.621 -0.6139 -0.1874 -0.4440
 4481SOL    HW124902   2.545   1.012   5.687 -3.7289  0.4190  0.8255
 4481SOL    HW224903   2.493   0.870   5.664 -0.0963 -0.3391 -0.5771
 4482SOL     OW24904   1.844   0.853   2.365 -0.3230 -0.1819 -0.2192
 4482SOL    HW124905   1.887   0.936   2.346  1.4228 -1.3927 -1.5375
 4482SOL    HW224906   1.892   0.794   2.306  0.5248  0.6665 -0.3749
 4483SOL     OW24907   0.157   1.003   8.320 -0.2362  1.1651 -0.4639
 4483SOL    HW124908   0.128   0.939   8.385  0.0253 -0.8621 -2.3452
 4483SOL    HW224909   0.098   0.978   8.249  0.2763 -1.6172  0.1091
 4484SOL     OW24910   1.558   3.452  12.243  0.3386 -0.4676  0.0329
 4484SOL    HW124911   1.622   3.484  12.180 -0.3866 -0.0615 -0.4915
 4484SOL    HW224912   1.490   3.520  12.249 -0.0530 -0.6608 -2.4004
 4485SOL     OW24913   4.375   0.823   2.507 -0.4050 -0.6377 -0.2189
 4485SOL    HW124914   4.415   0.816   2.420 -1.0413 -0.5685 -0.5255
 4485SOL    HW224915   4.424   0.893   2.549  1.0517 -1.0042 -1.2967
 4486SOL     OW24916   3.683   0.605   2.747  0.7051 -0.1263  0.1653
 4486SOL    HW124917   3.746   0.656   2.697  0.1047  0.2504 -0.2166
 4486SOL    HW224918   3.741   0.544   2.791 -2.5057 -2.2998  1.4399
 4487SOL     OW24919   3.488   4.273   0.475 -0.3613  0.3676 -0.3081
 4487SOL    HW124920   3.516   4.334   0.544  1.1930 -2.3360  1.4535
 4487SOL    HW224921   3.536   4.196   0.506  0.5174  1.6581  1.5148
 4488SOL     OW24922   4.211   3.283   9.754  0.2647  0.4269  0.1128
 4488SOL    HW124923   4.247   3.299   9.841  1.2718  1.8620 -0.5871
 4488SOL    HW224924   4.167   3.367   9.740 -1.6907 -0.5123  0.5448
 4489SOL     OW24925   2.587   1.364   4.891  0.8112  0.4045 -0.0038
 4489SOL    HW124926   2.500   1.325   4.882  0.4282  1.7658 -2.0450
 4489SOL    HW224927   2.635   1.331   4.814  0.8043  0.6657 -0.1183
 4490SOL     OW24928   2.144   3.777   2.557 -0.1885  0.2321  0.1190
 4490SOL    HW124929   2.140   3.772   2.462  0.4021  0.2986  0.0906
 4490SOL    HW224930   2.050   3.769   2.575  0.1421 -0.2924  1.6460
 4491SOL     OW24931   0.990   4.579  11.047  0.1822 -0.1900 -0.2781
 4491SOL    HW124932   0.976   4.643  11.117 -0.7831  0.0816 -0.7132
 4491SOL    HW224933   0.910   4.598  10.998  0.1768  2.2792  0.6521
 4492SOL     OW24934   1.096   1.346   3.083 -0.1617  0.0997  0.2908
 4492SOL    HW124935   1.007   1.371   3.058 -0.7206 -0.8438  1.3537
 4492SOL    HW224936   1.140   1.312   3.006 -2.5373  1.3681 -1.6250
 4493SOL     OW24937   0.489   0.069  13.237 -0.7478  0.3646 -0.9205
 4493SOL    HW124938   0.431   0.003  13.198 -1.1224  0.5737 -0.7159
 4493SOL    HW224939   0.447   0.109  13.313  0.9816  1.3892 -0.4842
 4494SOL     OW24940   0.789   0.421  10.903  0.2164  0.0497 -0.2885
 4494SOL    HW124941   0.713   0.365  10.888  0.9597 -0.8841 -0.6174
 4494SOL    HW224942   0.847   0.367  10.958 -0.8095 -0.1823  0.5519
 4495SOL     OW24943   4.397   2.259  14.765  0.3353  0.9331  0.7656
 4495SOL    HW124944   4.324   2.306  14.725  0.0599 -0.5418 -0.4798
 4495SOL    HW224945   4.359   2.172  14.780 -0.1390  1.1439  0.7862
 4496SOL     OW24946   0.578   0.833   8.945 -0.2758 -0.3043 -0.5809
 4496SOL    HW124947   0.614   0.919   8.923 -0.8477  0.1248  0.1354
 4496SOL    HW224948   0.642   0.799   9.007 -0.1295 -2.9770 -2.2300
 4497SOL     OW24949   1.287   3.812   2.390 -0.1387  0.3585 -0.3293
 4497SOL    HW124950   1.294   3.717   2.392 -0.9515  0.2882 -0.8628
 4497SOL    HW224951   1.326   3.839   2.307 -2.3668  2.0384 -0.8451
 4498SOL     OW24952   0.806   3.704  11.938  0.0323 -0.0576  0.1273
 4498SOL    HW124953   0.861   3.626  11.950  1.1685  0.7370  0.1269
 4498SOL    HW224954   0.721   3.661  11.948 -0.4170  0.5616 -1.1265
 4499SOL     OW24955   3.952   1.874   4.253  0.5362  0.4810  0.1712
 4499SOL    HW124956   3.916   1.949   4.207  0.7620 -0.0962 -0.9459
 4499SOL    HW224957   3.981   1.916   4.334  1.3357 -0.8582  0.5802
 4500SOL     OW24958   4.041   3.776   5.469  0.4178 -0.2324 -0.1263
 4500SOL    HW124959   4.051   3.781   5.564  0.0727 -1.6284 -0.0160
 4500SOL    HW224960   4.018   3.684   5.458  1.3286 -0.5118  0.3376
 4501SOL     OW24961   3.590   0.411   1.149  0.7293 -0.0864 -0.3635
 4501SOL    HW124962   3.660   0.476   1.144  1.4969 -0.9037 -0.3912
 4501SOL    HW224963   3.619   0.344   1.212 -0.1414 -0.1833 -0.0759
 4502SOL     OW24964   1.560   0.493   2.465 -0.1133 -0.0927  0.0653
 4502SOL    HW124965   1.485   0.469   2.520 -1.5075  1.6453 -1.0638
 4502SOL    HW224966   1.586   0.406   2.438 -3.0087 -1.5408  1.9243
 4503SOL     OW24967   1.259   1.621   5.845  0.3218 -0.2881 -0.4356
 4503SOL    HW124968   1.213   1.675   5.909 -1.9908 -0.2528 -2.1223
 4503SOL    HW224969   1.329   1.685   5.833  0.4835 -0.2154  0.9500
 4504SOL     OW24970   0.450   1.576   8.341  0.3389 -0.2191  0.1360
 4504SOL    HW124971   0.490   1.490   8.357 -0.8496 -0.6852  0.6458
 4504SOL    HW224972   0.509   1.634   8.388  0.1293  0.3082 -0.2578
 4505SOL     OW24973   3.749   3.632   7.946  0.3056  0.0148  0.2236
 4505SOL    HW124974   3.783   3.650   8.034 -0.5307 -1.0850  0.7631
 4505SOL    HW224975   3.658   3.627   7.973  0.1595  1.9592  0.1201
 4506SOL     OW24976   1.101   4.358   9.639  0.3963  0.1667  0.4387
 4506SOL    HW124977   1.193   4.338   9.622  0.9670  0.1220  3.5860
 4506SOL    HW224978   1.116   4.435   9.695 -2.2510  0.1261  1.2319
 4507SOL     OW24979   2.795   2.477   4.989  0.2400 -0.0866  0.5046
 4507SOL    HW124980   2.721   2.526   4.954  1.7788  1.6512 -0.2800
 4507SOL    HW224981   2.797   2.404   4.927  0.0296 -0.0429  0.4442
 4508SOL     OW24982   2.174   1.823  13.284 -0.6480 -0.5911  0.0917
 4508SOL    HW124983   2.119   1.838  13.361 -0.9095 -0.4725 -0.1171
 4508SOL    HW224984   2.116   1.786  13.217  0.6868 -1.6811 -0.4685
 4509SOL     OW24985   3.478   1.867   1.405 -0.5931  0.0692 -0.6560
 4509SOL    HW124986   3.512   1.783   1.374 -0.8609  0.3354 -1.6757
 4509SOL    HW224987   3.506   1.928   1.337 -1.3225 -1.5343 -2.3769
 4510SOL     OW24988   0.558   3.277   9.753 -0.1587 -0.0722 -0.2158
 4510SOL    HW124989   0.599   3.333   9.688  0.5517 -1.1213 -0.6736
 4510SOL    HW224990   0.520   3.210   9.696  2.4514 -3.0857  1.5645
 4511SOL     OW24991   3.583   3.251   3.516 -0.3575  1.0038 -0.2488
 4511SOL    HW124992   3.639   3.234   3.593  1.2882  0.6748 -1.5207
 4511SOL    HW224993   3.597   3.344   3.498 -1.8384  0.7310 -2.7136
 4512SOL     OW24994   4.687   0.326   3.887 -0.5014  0.2235 -0.0764
 4512SOL    HW124995   4.691   0.382   3.810 -1.5331  0.4497  0.0226
 4512SOL    HW224996   4.630   0.257   3.853 -0.5056  0.4667 -0.5619
 4513SOL     OW24997   2.483   0.769   0.532  0.0641 -0.0030  0.1081
 4513SOL    HW124998   2.470   0.854   0.490  1.7330 -0.7495 -1.9014
 4513SOL    HW224999   2.461   0.716   0.455  1.5018  1.3469 -1.2473
 4514SOL     OW25000   3.890   1.393   4.875  0.3552  0.4005 -0.3391
 4514SOL    HW125001   3.896   1.445   4.794 -1.7160  0.6315 -0.3591
 4514SOL    HW225002   3.795   1.380   4.872  0.5423 -1.4005  1.7950
 4515SOL     OW25003   2.654   2.608  12.372 -1.1538  0.0239  0.6984
 4515SOL    HW125004   2.669   2.520  12.338 -0.8529 -0.0242  0.9557
 4515SOL    HW225005   2.674   2.590  12.463  0.3870  0.8872  0.5266
 4516SOL     OW25006   0.653   3.411   7.500 -0.2331 -0.1228  0.6259
 4516SOL    HW125007   0.725   3.371   7.451  0.8574 -1.0485  2.9878
 4516SOL    HW225008   0.693   3.498   7.502 -1.5280  0.4921 -0.6968
 4517SOL     OW25009   4.033   4.511   1.109  0.2624  0.1176 -0.9035
 4517SOL    HW125010   3.943   4.503   1.142  0.6716  1.6505  0.5763
 4517SOL    HW225011   4.014   4.479   1.021 -0.7286  1.1324 -1.0701
 4518SOL     OW25012   1.169   3.602  12.064 -0.3584  0.1490  0.0362
 4518SOL    HW125013   1.147   3.661  11.992  1.2598  0.4526 -0.2065
 4518SOL    HW225014   1.240   3.545  12.035  0.5654  1.2020  0.2335
 4519SOL     OW25015   4.656   3.291   1.637 -0.1936  0.1401  0.2664
 4519SOL    HW125016   0.016   3.269   1.597  0.5811  1.6704  1.0432
 4519SOL    HW225017   4.645   3.222   1.702  0.5900  0.7723  1.0836
 4520SOL     OW25018   4.276   2.837   2.674  0.0286  0.5202  0.0419
 4520SOL    HW125019   4.195   2.871   2.635  1.5303  1.5788 -2.1429
 4520SOL    HW225020   4.287   2.753   2.629  3.7011  0.6648  0.6913
 4521SOL     OW25021   2.389   3.087   8.047 -0.2259 -0.4198 -0.0061
 4521SOL    HW125022   2.473   3.073   8.002 -1.0094 -2.7371 -0.7380
 4521SOL    HW225023   2.411   3.167   8.095  2.0853 -0.7460 -0.5161
 4522SOL     OW25024   0.311   0.461   0.788 -0.2113 -0.5166  0.2526
 4522SOL    HW125025   0.284   0.371   0.773 -2.0665 -0.2535  2.0636
 4522SOL    HW225026   0.227   0.507   0.792  1.7930  3.1488  0.7303
 4523SOL     OW25027   1.755   0.746   4.777 -0.6971 -0.0137  0.0562
 4523SOL    HW125028   1.727   0.747   4.685  0.4344 -2.4333 -0.3049
 4523SOL    HW225029   1.721   0.831   4.805  0.1775  0.4550 -0.3115
 4524SOL     OW25030   1.583   1.920  15.477 -0.0645 -0.1397  0.6370
 4524SOL    HW125031   1.511   1.905  15.416  1.7524 -0.0691 -1.5330
 4524SOL    HW225032   1.547   1.975  15.546 -0.1562 -1.1989  1.4390
 4525SOL     OW25033   0.868   2.683   6.145  0.2191 -0.2055  0.3274
 4525SOL    HW125034   0.962   2.682   6.164  0.4823  0.0847 -1.0024
 4525SOL    HW225035   0.847   2.592   6.125 -0.4426  0.5762 -2.4728
 4526SOL     OW25036   2.513   3.175   6.127 -0.3007 -0.3312 -0.2311
 4526SOL    HW125037   2.574   3.203   6.194 -0.6807  1.3887 -0.5922
 4526SOL    HW225038   2.450   3.246   6.140 -0.1377  0.1504 -1.9801
 4527SOL     OW25039   1.554   1.287  17.216  0.0197 -0.7060  0.1050
 4527SOL    HW125040   1.594   1.213  17.261 -0.7636 -1.6481 -0.7503
 4527SOL    HW225041   1.489   1.314  17.281 -0.9926 -0.0170 -1.1785
 4528SOL     OW25042   4.243   2.617  13.201 -0.6328 -0.3089  0.3221
 4528SOL    HW125043   4.196   2.697  13.178 -1.0665 -0.7368 -0.2658
 4528SOL    HW225044   4.178   2.548  13.191 -0.5924 -0.4609  1.0989
 4529SOL     OW25045   2.461   0.041   3.587  0.4784 -0.4360 -0.5985
 4529SOL    HW125046   2.406   0.119   3.581  0.2048 -0.7543 -2.2549
 4529SOL    HW225047   2.402   4.710   3.637 -0.6800  0.3691 -1.0845
 4530SOL     OW25048   2.359   1.488   4.495 -0.1089  0.4848  0.1744
 4530SOL    HW125049   2.384   1.541   4.571 -1.3689 -0.4227  1.2236
 4530SOL    HW225050   2.400   1.533   4.420 -2.0119  0.7920 -0.6893
 4531SOL     OW25051   4.309   3.353   4.881  0.2171 -0.3332 -0.4933
 4531SOL    HW125052   4.334   3.284   4.820  1.3871 -0.6056  0.2953
 4531SOL    HW225053   4.396   3.384   4.907  0.5067 -1.6568  0.0715
 4532SOL     OW25054   0.613   2.148   5.977  0.0521 -0.1883 -0.5736
 4532SOL    HW125055   0.564   2.085   5.924 -0.0248 -0.4976 -0.1393
 4532SOL    HW225056   0.672   2.183   5.910  0.8280 -2.0980 -0.8906
 4533SOL     OW25057   2.499   0.464   8.035 -0.1481 -0.2326 -0.3898
 4533SOL    HW125058   2.525   0.544   8.081  1.1754 -1.3958  0.8976
 4533SOL    HW225059   2.573   0.448   7.977 -0.2725  0.4501 -0.7283
 4534SOL     OW25060   2.401   3.829  15.371  0.2501 -0.3686 -0.2004
 4534SOL    HW125061   2.338   3.783  15.316  0.3260  0.0454 -0.6370
 4534SOL    HW225062   2.388   3.787  15.456  0.3247 -1.6042 -0.8015
 4535SOL     OW25063   1.286   0.349   4.231  0.1674 -0.4149 -0.2754
 4535SOL    HW125064   1.323   0.404   4.299 -0.9917 -0.2637  0.2235
 4535SOL    HW225065   1.364   0.303   4.198  1.9531 -0.2419  3.7684
 4536SOL     OW25066   0.331   0.181   6.778  0.6801  0.1080 -0.2040
 4536SOL    HW125067   0.253   0.227   6.747  0.8076  1.0229  0.8271
 4536SOL    HW225068   0.290   0.117   6.836  1.8108  1.2805  1.9119
 4537SOL     OW25069   0.862   2.709   2.027  0.1747 -0.4491  0.0016
 4537SOL    HW125070   0.796   2.744   1.966  1.1370  0.7014 -0.3825
 4537SOL    HW225071   0.915   2.665   1.960 -1.2015 -0.9114 -0.7981
 4538SOL     OW25072   4.331   3.161   9.077 -0.3381  0.4571  0.2895
 4538SOL    HW125073   4.337   3.161   8.981 -0.7874 -0.7858  0.2726
 4538SOL    HW225074   4.414   3.116   9.090  0.2544  0.6601 -2.8292
 4539SOL     OW25075   3.482   1.324  17.075  0.1024  0.4426  0.0988
 4539SOL    HW125076   3.513   1.235  17.091  2.5146  1.7445  2.8285
 4539SOL    HW225077   3.467   1.312  16.982  0.9810 -1.6018  0.2102
 4540SOL     OW25078   4.556   1.222   5.356 -0.3183 -0.2519  0.4473
 4540SOL    HW125079   4.530   1.312   5.334 -1.8174 -0.7909 -0.0086
 4540SOL    HW225080   4.469   1.191   5.380  0.2071 -2.7216 -0.8906
 4541SOL     OW25081   0.834   3.660   7.490 -0.0984 -0.2737 -0.6687
 4541SOL    HW125082   0.829   3.718   7.567  3.1996 -1.1351  0.1844
 4541SOL    HW225083   0.925   3.642   7.467  0.2970  0.9859 -0.1320
 4542SOL     OW25084   1.937   3.995   5.172 -0.3055  0.2182 -0.4144
 4542SOL    HW125085   2.024   4.019   5.204 -0.3164  1.7772 -1.5567
 4542SOL    HW225086   1.935   4.059   5.100 -2.7182  0.1318 -0.4285
 4543SOL     OW25087   2.860   2.479   8.561 -0.0317  0.0643 -0.0210
 4543SOL    HW125088   2.944   2.523   8.562  0.4147 -0.7601 -1.3242
 4543SOL    HW225089   2.834   2.507   8.649  1.5732 -0.4058  0.5942
 4544SOL     OW25090   1.553   2.317   6.942 -0.0571 -0.4169 -0.3464
 4544SOL    HW125091   1.556   2.412   6.943  0.6834 -0.4367 -1.1169
 4544SOL    HW225092   1.483   2.308   6.877  2.5780 -0.9339 -3.0986
 4545SOL     OW25093   0.797   2.852   8.363 -0.0072 -0.7574  0.0300
 4545SOL    HW125094   0.809   2.835   8.456 -0.0844  1.2111  0.3955
 4545SOL    HW225095   0.878   2.823   8.321  0.2082 -0.5666  0.3173
 4546SOL     OW25096   3.914   2.539  12.754 -0.0933 -0.3926  0.1072
 4546SOL    HW125097   3.879   2.627  12.768  0.3952 -0.2968  0.7191
 4546SOL    HW225098   3.995   2.550  12.804  0.5101 -0.2240 -0.9227
 4547SOL     OW25099   0.028   0.993  13.913  0.1869  0.5274 -0.7567
 4547SOL    HW125100   0.121   1.009  13.897  0.7224 -0.2380  1.5715
 4547SOL    HW225101   4.719   1.081  13.898  0.5050  0.6983 -0.4373
 4548SOL     OW25102   4.687   1.935   3.726 -0.2880 -0.2304  0.1411
 4548SOL    HW125103   4.693   1.927   3.821  0.4301  0.0005  0.1094
 4548SOL    HW225104   4.683   2.031   3.727  0.5438 -0.2128  0.8234
 4549SOL     OW25105   4.602   0.194  10.332  0.2938  0.3164  0.3309
 4549SOL    HW125106   4.678   0.249  10.310 -0.1706  0.8997  0.1967
 4549SOL    HW225107   4.554   0.194  10.250 -0.9282  1.9487  1.0316
 4550SOL     OW25108   2.581   2.143   0.136 -0.2793  0.3577  0.8554
 4550SOL    HW125109   2.602   2.234   0.156  0.1602  0.2287  0.9825
 4550SOL    HW225110   2.662   2.112   0.096 -1.0219  1.0099 -1.1579
 4551SOL     OW25111   3.474   1.099   5.961  0.3570  0.1803 -0.0296
 4551SOL    HW125112   3.456   1.048   6.040 -2.1750  1.3856  0.1650
 4551SOL    HW225113   3.556   1.139   5.990  0.3525  0.2453 -0.1086
 4552SOL     OW25114   3.006   1.029   8.235 -0.2214 -0.3628 -0.0999
 4552SOL    HW125115   3.101   1.038   8.230 -0.4025 -0.2434 -3.3075
 4552SOL    HW225116   3.002   1.039   8.330 -1.3676 -2.5126  0.0826
 4553SOL     OW25117   3.054   0.378   8.739  0.0500 -0.2516 -0.4178
 4553SOL    HW125118   3.013   0.336   8.814 -0.1369  3.1285  1.3756
 4553SOL    HW225119   3.102   0.301   8.710 -0.3505  0.6467 -3.5407
 4554SOL     OW25120   2.884   3.217  10.846 -0.0950 -0.1621 -0.1998
 4554SOL    HW125121   2.889   3.262  10.931 -0.9141 -1.6054  0.6069
 4554SOL    HW225122   2.970   3.176  10.839  0.3188  0.4554  1.1352
 4555SOL     OW25123   2.681   1.068   1.542 -0.2076 -0.5839  0.3094
 4555SOL    HW125124   2.767   1.026   1.544 -0.0241 -0.1795  0.8760
 4555SOL    HW225125   2.672   1.075   1.447 -1.0294 -0.3893  0.4062
 4556SOL     OW25126   3.761   0.988   3.865  0.3417  0.1841  0.3950
 4556SOL    HW125127   3.794   0.946   3.786 -0.2523 -1.9889  1.3160
 4556SOL    HW225128   3.773   1.078   3.836 -3.5499  0.1265 -1.3421
 4557SOL     OW25129   3.672   4.282   3.574  0.2761  0.6811  0.4039
 4557SOL    HW125130   3.597   4.289   3.634 -0.4874  0.7752 -0.5564
 4557SOL    HW225131   3.659   4.196   3.535 -0.1580  0.1924  1.6304
 4558SOL     OW25132   1.437   4.481   4.942  0.1760  0.2300  0.1941
 4558SOL    HW125133   1.498   4.542   4.983  0.3785 -2.0008  3.1315
 4558SOL    HW225134   1.379   4.533   4.886 -2.5830 -2.7513  0.3031
 4559SOL     OW25135   1.373   2.630   3.936 -0.1081 -0.2280  0.1588
 4559SOL    HW125136   1.288   2.587   3.942 -0.3677  0.8057  3.8306
 4559SOL    HW225137   1.363   2.703   3.997  0.8434 -0.3500  0.4592
 4560SOL     OW25138   4.640   2.168   4.341 -0.3764  0.4857 -0.3289
 4560SOL    HW125139   4.671   2.131   4.259 -0.5448  1.9962 -1.0680
 4560SOL    HW225140   4.545   2.154   4.338 -0.5707  1.6640  0.3789
 4561SOL     OW25141   0.021   2.902   6.024  0.6276  0.5490  0.1401
 4561SOL    HW125142   4.652   2.896   6.000  0.9636 -0.6480 -0.8496
 4561SOL    HW225143   0.039   2.991   5.992  1.1899  0.9561  1.5997
 4562SOL     OW25144   0.929   4.059   1.602  0.0511  0.1316 -0.3624
 4562SOL    HW125145   1.020   4.071   1.574  0.9143  1.5468  3.0734
 4562SOL    HW225146   0.880   4.100   1.531  0.5809 -2.2087 -2.1165
 4563SOL     OW25147   3.477   3.717   8.813 -0.0478  0.1199  0.3699
 4563SOL    HW125148   3.395   3.674   8.789  0.3653  0.3663 -1.4656
 4563SOL    HW225149   3.467   3.724   8.908  0.8372 -1.4067  0.5621
 4564SOL     OW25150   2.985   1.902   9.194  0.0379 -0.3057  0.3677
 4564SOL    HW125151   2.959   1.841   9.125 -1.1652  0.1109  0.4407
 4564SOL    HW225152   3.004   1.981   9.144  1.2554  0.0069  1.3299
 4565SOL     OW25153   1.487   4.076   9.233  0.0455  0.1204  0.4631
 4565SOL    HW125154   1.530   4.145   9.283 -0.8801  1.6564 -0.8772
 4565SOL    HW225155   1.518   4.099   9.146  0.3356 -0.3160  0.4558
 4566SOL     OW25156   4.346   3.644   7.520  0.4790 -0.2836 -0.0378
 4566SOL    HW125157   4.414   3.578   7.533  0.4994 -0.9735 -3.5765
 4566SOL    HW225158   4.273   3.612   7.573  2.0896 -1.6911  1.2982
 4567SOL     OW25159   3.482   1.003  16.132  0.7255 -0.4926  0.0965
 4567SOL    HW125160   3.510   0.949  16.206  1.8617  1.2456  0.9332
 4567SOL    HW225161   3.394   1.032  16.157  0.3179 -3.8551  2.5764
 4568SOL     OW25162   0.288   0.301   3.719 -0.3491  0.0886  0.0155
 4568SOL    HW125163   0.357   0.331   3.659 -1.4713 -0.2632 -1.4395
 4568SOL    HW225164   0.221   0.279   3.655 -1.2162  0.4668  0.7999
 4569SOL     OW25165   1.662   3.619  11.675 -0.2655  0.4769 -0.0965
 4569SOL    HW125166   1.653   3.532  11.637  0.2614 -0.5299  2.0884
 4569SOL    HW225167   1.716   3.660  11.607 -0.1848  1.1499  0.3699
 4570SOL     OW25168   2.923   2.703   8.137  0.1399  0.1826 -0.0651
 4570SOL    HW125169   2.862   2.673   8.069  0.1800 -0.0047 -0.0188
 4570SOL    HW225170   2.986   2.631   8.146 -0.7501 -0.4372  1.1222
 4571SOL     OW25171   1.523   3.466  11.405  0.0967 -0.4083 -0.0530
 4571SOL    HW125172   1.556   3.404  11.470 -0.4567 -0.6630 -0.0101
 4571SOL    HW225173   1.551   3.426  11.323  0.5816 -0.3555  0.0889
 4572SOL     OW25174   1.235   2.160   2.775 -0.1104  0.2192  0.0630
 4572SOL    HW125175   1.148   2.137   2.744  0.3163 -0.3190 -0.7270
 4572SOL    HW225176   1.287   2.134   2.699 -0.7245  2.8128 -1.2527
 4573SOL     OW25177   2.488   3.444  15.253  0.1187 -0.1691  0.2336
 4573SOL    HW125178   2.441   3.426  15.335 -0.4176  0.5011  0.0751
 4573SOL    HW225179   2.510   3.352  15.239  1.6893 -0.0558  2.0331
 4574SOL     OW25180   2.444   0.798   4.111  0.5365 -0.4538 -0.3702
 4574SOL    HW125181   2.483   0.871   4.159  0.2431 -0.5799  0.0639
 4574SOL    HW225182   2.354   0.804   4.145 -0.2233 -0.3955 -2.4053
 4575SOL     OW25183   2.433   3.051   5.171 -0.3653  0.8103  0.3992
 4575SOL    HW125184   2.339   3.036   5.183 -0.6030  2.5648  0.6874
 4575SOL    HW225185   2.464   3.041   5.261  0.2940 -1.1754 -0.0489
 4576SOL     OW25186   3.797   1.352   5.705 -0.0614 -0.0415 -0.1056
 4576SOL    HW125187   3.874   1.386   5.660 -0.4737  0.0417 -0.7443
 4576SOL    HW225188   3.769   1.428   5.756 -1.3957  1.2699 -2.8029
 4577SOL     OW25189   1.565   2.131  15.811 -0.4306  0.1411  0.1937
 4577SOL    HW125190   1.554   2.184  15.733  1.4660 -1.2503 -1.0343
 4577SOL    HW225191   1.491   2.070  15.805 -0.7179  0.4135  1.0590
 4578SOL     OW25192   4.064   2.059   8.883 -0.1494  0.6097 -0.3395
 4578SOL    HW125193   4.051   2.000   8.808  2.8475 -0.6904  0.1384
 4578SOL    HW225194   4.130   2.005   8.927  0.5992 -0.6596 -3.0249
 4579SOL     OW25195   3.800   4.087   2.279  0.1207  0.2272  0.6480
 4579SOL    HW125196   3.832   4.110   2.192  1.9993 -0.2311  1.2356
 4579SOL    HW225197   3.720   4.039   2.258  0.6857 -0.9191  1.1145
 4580SOL     OW25198   3.120   0.528   6.154 -0.5660 -0.0996  0.8471
 4580SOL    HW125199   3.196   0.539   6.097 -0.4055 -0.7820  0.9309
 4580SOL    HW225200   3.162   0.493   6.232  0.0481 -1.0081  0.1093
 4581SOL     OW25201   4.689   1.975   8.346  0.1977 -0.1559  0.3768
 4581SOL    HW125202   4.719   2.043   8.405 -1.8039 -0.7953  2.1223
 4581SOL    HW225203   4.644   1.915   8.406 -3.3785 -0.5281 -2.6387
 4582SOL     OW25204   2.018   0.592   7.793 -0.0578 -0.2790  0.2947
 4582SOL    HW125205   1.988   0.567   7.880  2.4924 -1.6089  0.7815
 4582SOL    HW225206   2.111   0.572   7.800 -0.1319  0.0170  2.1359
 4583SOL     OW25207   4.376   2.581  15.433  0.3265  0.1315  0.3201
 4583SOL    HW125208   4.360   2.676  15.433 -0.6160 -0.0356  0.4735
 4583SOL    HW225209   4.385   2.571  15.338 -0.1063 -3.9163  0.7370
 4584SOL     OW25210   2.560   4.641   1.975  0.2421  0.2354  0.4078
 4584SOL    HW125211   2.493   4.658   1.909 -0.3786  0.4390  1.0963
 4584SOL    HW225212   2.543   4.724   2.020  0.9733  1.0283 -0.7698
 4585SOL     OW25213   3.152   2.640   3.746  0.0331 -0.2000 -0.2104
 4585SOL    HW125214   3.161   2.733   3.767  1.3167 -0.3809  0.0429
 4585SOL    HW225215   3.225   2.625   3.685  1.3732 -1.6313  1.7159
 4586SOL     OW25216   0.316   4.615   4.469  0.0456  0.1662 -0.1664
 4586SOL    HW125217   0.297   4.656   4.384  1.7720  0.4591 -0.4016
 4586SOL    HW225218   0.397   4.568   4.451  1.8487  2.0543  3.1552
 4587SOL     OW25219   4.377   2.141  14.491  0.3391  0.9290  0.2972
 4587SOL    HW125220   4.292   2.106  14.518  1.4264 -0.9518  1.2317
 4587SOL    HW225221   4.418   2.055  14.489  0.9626  1.1957  1.5568
 4588SOL     OW25222   0.195   1.057  17.689  0.4854 -0.1837  0.8476
 4588SOL    HW125223   0.220   1.052   0.084 -0.3595 -1.2911  1.0084
 4588SOL    HW225224   0.235   1.143  17.670  0.2627 -0.4269 -0.6951
 4589SOL     OW25225   3.837   2.304   9.456  0.0403 -0.3476  0.1176
 4589SOL    HW125226   3.810   2.213   9.442  2.2768 -1.0337  0.1773
 4589SOL    HW225227   3.760   2.359   9.471  0.3193 -0.1511  0.8616
 4590SOL     OW25228   0.667   0.797   6.632  0.0026  0.6365  1.0030
 4590SOL    HW125229   0.612   0.873   6.650 -0.7133  1.0367 -2.8318
 4590SOL    HW225230   0.601   0.749   6.582  1.0118 -1.3624  1.5978
 4591SOL     OW25231   0.513   2.708   4.966  0.1422 -0.1072  0.0099
 4591SOL    HW125232   0.486   2.623   5.001  0.9167  0.5084  2.1089
 4591SOL    HW225233   0.425   2.736   4.940  0.0937 -0.1436  0.1361
 4592SOL     OW25234   0.277   2.486   2.543  0.0878 -0.6528  0.4424
 4592SOL    HW125235   0.286   2.409   2.486  0.7544 -0.1692 -0.0958
 4592SOL    HW225236   0.258   2.438   2.624 -1.1339  0.3600  0.7546
 4593SOL     OW25237   3.988   2.710   7.538 -0.1133  0.1284  0.0005
 4593SOL    HW125238   4.063   2.656   7.516 -0.2738 -0.8679  1.9057
 4593SOL    HW225239   3.954   2.666   7.616 -1.3469  1.3329  0.1583
 4594SOL     OW25240   1.240   1.909   2.383 -0.3074 -0.5795 -0.2475
 4594SOL    HW125241   1.319   1.857   2.367  0.8175  0.6443  1.3198
 4594SOL    HW225242   1.254   1.994   2.341 -3.0417 -0.5618 -1.1003
 4595SOL     OW25243   2.363   0.131   7.827  0.2571  0.3818 -0.5184
 4595SOL    HW125244   2.318   0.174   7.900 -0.1440 -0.2146 -0.4073
 4595SOL    HW225245   2.289   0.082   7.791 -1.5618  1.9970  1.0948
 4596SOL     OW25246   3.252   4.173   9.057  0.1890  0.1223  0.6276
 4596SOL    HW125247   3.199   4.208   9.129 -0.8461 -1.6852  0.7447
 4596SOL    HW225248   3.337   4.170   9.100  0.9950 -0.2542 -0.9858
 4597SOL     OW25249   1.829   0.672   6.761  0.1317  0.5146  0.0995
 4597SOL    HW125250   1.915   0.714   6.771 -0.2936  1.1871  0.9435
 4597SOL    HW225251   1.771   0.745   6.741 -0.3834 -0.0484 -0.4702
 4598SOL     OW25252   2.942   2.561   5.238  0.1955  0.5061 -0.6484
 4598SOL    HW125253   2.900   2.546   5.153 -0.2160  0.2137 -0.3948
 4598SOL    HW225254   2.970   2.652   5.228  1.3428  0.4236  1.8288
 4599SOL     OW25255   4.220   0.498  11.810 -0.0397 -0.6326  0.0476
 4599SOL    HW125256   4.177   0.417  11.783  0.8601 -1.0718 -0.0368
 4599SOL    HW225257   4.248   0.479  11.899 -0.2690  3.5607  1.0185
 4600SOL     OW25258   0.645   0.935   3.379 -0.1518 -0.0047 -0.0394
 4600SOL    HW125259   0.550   0.950   3.377  0.3067  3.0853  0.8655
 4600SOL    HW225260   0.644   0.846   3.343 -1.4877 -0.2086  0.5168
 4601SOL     OW25261   0.191   0.063   5.745  0.0027  0.2626  0.3464
 4601SOL    HW125262   0.177   4.692   5.739  1.4068  0.0408  0.7280
 4601SOL    HW225263   0.193   0.091   5.653 -2.3656  0.4460  0.3474
 4602SOL     OW25264   3.261   3.127   6.152  0.5724 -0.0959  0.0102
 4602SOL    HW125265   3.248   3.100   6.243 -0.5645 -1.4295 -0.5484
 4602SOL    HW225266   3.176   3.170   6.144  1.0095  0.8025  0.1984
 4603SOL     OW25267   3.744   3.298   8.167  0.1296 -0.0806 -0.3894
 4603SOL    HW125268   3.837   3.309   8.148  0.5304  0.9369  2.0769
 4603SOL    HW225269   3.748   3.266   8.257  0.0548 -0.6150 -0.5779
 4604SOL     OW25270   4.603   4.514   3.019 -0.2375  0.2570  0.2839
 4604SOL    HW125271   4.514   4.546   3.006  0.0448  2.5193  3.7437
 4604SOL    HW225272   4.582   4.431   3.060  0.4014 -1.2105 -2.3898
 4605SOL     OW25273   1.591   0.186   1.194 -0.1212 -0.2335 -0.3011
 4605SOL    HW125274   1.633   0.157   1.275 -0.7663 -1.9026 -0.5680
 4605SOL    HW225275   1.527   0.120   1.170 -0.1277 -0.4048  0.1893
 4606SOL     OW25276   2.298   4.037  13.385  0.5854  0.2390 -0.0727
 4606SOL    HW125277   2.371   3.988  13.421 -0.8209 -0.7993  1.3505
 4606SOL    HW225278   2.225   3.976  13.393 -0.2560  1.1920 -0.4708
 4607SOL     OW25279   2.151   0.955   2.262  0.1627 -0.8276 -0.0131
 4607SOL    HW125280   2.158   1.039   2.218 -1.9141 -0.0355  1.1652
 4607SOL    HW225281   2.207   0.897   2.210  2.0006  0.8096  0.1352
 4608SOL     OW25282   3.990   0.148  17.395  0.1249  0.3883  0.1185
 4608SOL    HW125283   4.057   0.153  17.463  0.2766 -0.7980  0.0478
 4608SOL    HW225284   3.944   0.065  17.405  0.1802 -0.0110 -3.2443
 4609SOL     OW25285   3.621   2.012   7.765 -0.4696 -0.7516  0.7337
 4609SOL    HW125286   3.640   2.007   7.859 -1.7496 -3.0326  0.8754
 4609SOL    HW225287   3.674   2.089   7.746 -2.4257  0.3988 -0.0626
 4610SOL     OW25288   1.479   3.351  16.503 -0.4232  0.5127 -0.0596
 4610SOL    HW125289   1.567   3.344  16.468 -0.4720 -3.3255  0.5763
 4610SOL    HW225290   1.491   3.301  16.584 -0.0019 -0.4769 -0.7371
 4611SOL     OW25291   1.554   1.268   0.813 -0.1769 -0.1781  1.3004
 4611SOL    HW125292   1.638   1.240   0.848  0.0047  0.6772  1.5341
 4611SOL    HW225293   1.557   1.215   0.733  0.7576  2.9939 -0.7721
 4612SOL     OW25294   2.882   1.551   3.776  0.4434  0.4762 -0.3205
 4612SOL    HW125295   2.977   1.557   3.774  0.3583  0.8312 -3.3812
 4612SOL    HW225296   2.859   1.496   3.701 -0.8091 -0.2587  0.5962
 4613SOL     OW25297   2.771   4.037   0.990 -0.7554 -0.3430 -0.3762
 4613SOL    HW125298   2.846   4.062   1.044  0.0498 -0.0778 -1.6321
 4613SOL    HW225299   2.783   3.943   1.006  2.4135  0.2205  0.6098
 4614SOL     OW25300   0.427   2.268   8.710 -0.7070  0.1604 -0.1454
 4614SOL    HW125301   0.401   2.209   8.640  0.1737 -1.2964  0.7547
 4614SOL    HW225302   0.402   2.228   8.793  1.9140 -0.1061  0.5422
 4615SOL     OW25303   2.893   0.186  14.329 -0.8007 -0.1694 -0.4325
 4615SOL    HW125304   2.967   0.200  14.387 -0.6688 -0.7792 -0.4506
 4615SOL    HW225305   2.853   0.272  14.338 -1.0736 -0.6731  3.0697
 4616SOL     OW25306   4.485   0.443  10.504 -0.2293  0.0736  0.0735
 4616SOL    HW125307   4.520   0.359  10.475 -3.2425 -1.0833 -0.2818
 4616SOL    HW225308   4.541   0.446  10.582  0.5175 -3.9786 -0.2925
 4617SOL     OW25309   1.129   2.056   7.010  0.0119  0.1253 -0.4760
 4617SOL    HW125310   1.045   2.046   6.965 -0.9792  1.0741  1.1426
 4617SOL    HW225311   1.141   1.974   7.058  0.7790  0.3057 -0.3671
 4618SOL     OW25312   3.761   1.984   5.616 -0.8149  0.2276  1.0623
 4618SOL    HW125313   3.750   1.901   5.570 -1.1381  0.1809  1.2241
 4618SOL    HW225314   3.783   1.950   5.703  0.7561  0.7182  0.8551
 4619SOL     OW25315   3.281   4.149  11.519 -0.2123  0.4852  0.4255
 4619SOL    HW125316   3.270   4.058  11.546  0.7443  0.5035  0.8682
 4619SOL    HW225317   3.372   4.143  11.489 -1.1353  0.1218 -2.2901
 4620SOL     OW25318   4.264   1.961  11.381 -0.1365  0.6177  0.2270
 4620SOL    HW125319   4.236   2.049  11.357  0.5827  0.3089 -1.7097
 4620SOL    HW225320   4.323   1.970  11.456  1.0647 -0.2574 -0.6157
 4621SOL     OW25321   2.164   4.098  13.115 -0.0967  0.1948 -0.0866
 4621SOL    HW125322   2.105   4.130  13.184 -1.0026 -1.2852 -0.1546
 4621SOL    HW225323   2.242   4.135  13.155 -0.4562  0.9324 -0.0691
 4622SOL     OW25324   2.557   0.629  17.375  0.2955 -0.2525 -0.0438
 4622SOL    HW125325   2.463   0.613  17.366  0.6538 -1.8426 -0.9645
 4622SOL    HW225326   2.599   0.573  17.310 -0.1849 -0.0179 -0.5555
 4623SOL     OW25327   2.559   0.121  11.595 -0.1685 -0.1556  0.1051
 4623SOL    HW125328   2.503   0.050  11.564  1.7615 -1.9714  0.7776
 4623SOL    HW225329   2.490   0.187  11.600  0.7346  0.7516  0.5750
 4624SOL     OW25330   3.129   3.846   2.803 -0.2547  0.4235  0.1255
 4624SOL    HW125331   3.066   3.775   2.820  0.9314 -0.5549  0.4372
 4624SOL    HW225332   3.191   3.812   2.739 -0.5548  1.1691 -0.5637
 4625SOL     OW25333   4.173   3.408  14.659  0.1077  0.0131  0.0950
 4625SOL    HW125334   4.262   3.442  14.668  0.4903 -0.6688 -1.1594
 4625SOL    HW225335   4.127   3.483  14.695  1.2209 -0.5029  2.5818
 4626SOL     OW25336   4.233   0.435   4.941  0.2605  0.3285  0.1276
 4626SOL    HW125337   4.277   0.389   5.013 -3.7072 -2.3476  0.8360
 4626SOL    HW225338   4.293   0.423   4.868  0.0889  1.1079 -0.1350
 4627SOL     OW25339   4.521   3.854   4.136 -0.2662  0.2832  0.4931
 4627SOL    HW125340   4.598   3.858   4.193  0.6942  2.8318 -1.0160
 4627SOL    HW225341   4.531   3.941   4.098 -2.3170  0.9462  1.4904
 4628SOL     OW25342   4.685   1.113   0.545  0.5468  0.1601  0.1634
 4628SOL    HW125343   4.657   1.050   0.611  2.6157  1.7950  2.6307
 4628SOL    HW225344   0.053   1.090   0.532  0.4648 -0.1975  0.2181
 4629SOL     OW25345   1.512   4.028   8.953 -0.4257 -0.6710 -0.1235
 4629SOL    HW125346   1.554   4.114   8.956 -1.9098  0.0446 -0.1326
 4629SOL    HW225347   1.591   3.976   8.969  0.2497  0.9295  1.8732
 4630SOL     OW25348   2.800   4.563   2.980  0.4189  0.0136 -0.8413
 4630SOL    HW125349   2.793   4.658   2.978 -0.9755 -0.0908 -0.2815
 4630SOL    HW225350   2.862   4.552   2.908  2.1212 -0.9115  0.7550
 4631SOL     OW25351   0.883   4.494   7.208  0.1761  0.1451 -0.2639
 4631SOL    HW125352   0.827   4.492   7.285  1.1795  0.7658  0.4731
 4631SOL    HW225353   0.863   4.403   7.186  0.5093  0.0372 -0.1164
 4632SOL     OW25354   2.136   1.673   4.195  0.3904 -0.6525  0.3473
 4632SOL    HW125355   2.102   1.593   4.234  2.1211 -2.6537 -2.2046
 4632SOL    HW225356   2.216   1.646   4.149  0.2304 -0.0683 -0.2847
 4633SOL     OW25357   3.846   3.105   2.531  0.5982  0.1180 -0.3425
 4633SOL    HW125358   3.823   3.194   2.504  0.2421  0.2060  0.2475
 4633SOL    HW225359   3.797   3.056   2.465  0.1777 -0.3635  0.3351
 4634SOL     OW25360   1.502   3.568   3.370  0.4387 -0.5906  0.3481
 4634SOL    HW125361   1.537   3.648   3.330 -1.4579  0.2902  0.3969
 4634SOL    HW225362   1.581   3.538   3.414  1.5135  1.6278 -0.0605
 4635SOL     OW25363   3.171   3.304   9.625  0.1364  0.0688 -0.3944
 4635SOL    HW125364   3.262   3.329   9.642 -0.3896  0.8585  1.2822
 4635SOL    HW225365   3.157   3.376   9.564 -0.2630 -0.8514 -1.3749
 4636SOL     OW25366   3.149   4.402   3.692  0.1144 -0.2661  0.0199
 4636SOL    HW125367   3.167   4.369   3.605 -0.2436 -0.4857  0.0288
 4636SOL    HW225368   3.094   4.480   3.686 -0.5446 -0.9251 -2.2046
 4637SOL     OW25369   1.842   1.995   6.521  0.2193 -0.0316 -0.0515
 4637SOL    HW125370   1.908   1.991   6.591 -0.9135  0.3393  1.0441
 4637SOL    HW225371   1.771   1.939   6.553 -0.5598  0.6003 -0.6766
 4638SOL     OW25372   1.013   4.418   3.853  0.7806 -0.1055 -0.2636
 4638SOL    HW125373   1.030   4.423   3.759  0.6468 -0.5648 -0.3119
 4638SOL    HW225374   1.101   4.442   3.882  1.0035 -0.7047 -0.4550
 4639SOL     OW25375   1.273   1.073   4.525  0.4261 -0.0848  0.8210
 4639SOL    HW125376   1.314   1.095   4.609  0.2754  2.3401  0.2502
 4639SOL    HW225377   1.277   0.977   4.527 -0.0374 -0.1088  0.3961
 4640SOL     OW25378   0.928   3.774  11.127  0.3117  0.4262  0.1956
 4640SOL    HW125379   0.968   3.758  11.042  0.9956 -0.8320  0.7454
 4640SOL    HW225380   0.959   3.695  11.173 -1.8072 -0.6053 -0.1441
 4641SOL     OW25381   0.880   3.845   7.718 -1.0306 -0.6444  0.3741
 4641SOL    HW125382   0.970   3.828   7.744 -1.0366 -1.1175  0.0710
 4641SOL    HW225383   0.862   3.929   7.761  1.2252 -0.0677  0.1995
 4642SOL     OW25384   3.316   2.042  15.532 -0.4915  0.2659  0.5359
 4642SOL    HW125385   3.298   2.004  15.618 -1.0378 -1.0757 -0.1676
 4642SOL    HW225386   3.411   2.040  15.527 -0.5458  1.1710 -0.8422
 4643SOL     OW25387   2.916   1.893  14.640  0.0727  0.2281  0.2560
 4643SOL    HW125388   2.946   1.847  14.562  1.1084  0.9678  0.2172
 4643SOL    HW225389   2.999   1.886  14.688 -0.0003 -0.1324  0.3306
 4644SOL     OW25390   4.105   0.220  14.357  0.0110 -0.0108 -0.2694
 4644SOL    HW125391   4.105   0.267  14.273 -0.5930 -0.2226 -0.3920
 4644SOL    HW225392   4.020   0.236  14.399  0.5888  0.8588  0.5707
 4645SOL     OW25393   1.604   1.036   7.732  0.1246  0.2389 -0.4225
 4645SOL    HW125394   1.649   1.119   7.720 -0.9642  0.6083 -1.9613
 4645SOL    HW225395   1.515   1.068   7.715  0.0333  1.9279  3.2626
 4646SOL     OW25396   0.792   0.388  11.709 -0.1837  0.1594  0.6282
 4646SOL    HW125397   0.722   0.324  11.697 -0.0257  0.5362 -2.3316
 4646SOL    HW225398   0.778   0.412  11.800  0.3794  1.5642  0.3403
 4647SOL     OW25399   1.386   3.193   4.053  0.1570 -0.7984 -0.5914
 4647SOL    HW125400   1.416   3.102   4.065 -2.3943 -1.6257 -0.5853
 4647SOL    HW225401   1.301   3.195   4.097  0.7405 -2.3475  0.6427
 4648SOL     OW25402   2.363   2.311   5.051  0.1350 -0.3388 -0.7985
 4648SOL    HW125403   2.299   2.333   4.983  0.0210  0.4851 -0.4291
 4648SOL    HW225404   2.315   2.328   5.132  0.5037 -1.3554 -0.3733
 4649SOL     OW25405   2.103   3.771   2.278  0.0482 -0.3326 -0.0633
 4649SOL    HW125406   2.158   3.744   2.204 -0.9812 -0.3372 -0.8200
 4649SOL    HW225407   2.051   3.839   2.235  0.8744 -0.2111 -0.8743
 4650SOL     OW25408   2.930   3.678   5.771  0.5936  0.2253 -0.5354
 4650SOL    HW125409   2.887   3.642   5.693  0.0677 -0.4349  0.0585
 4650SOL    HW225410   3.001   3.735   5.739  1.1177  1.3210  2.5980
 4651SOL     OW25411   1.227   4.638  15.186  0.1922 -0.2091 -0.0974
 4651SOL    HW125412   1.253   4.549  15.164  0.7072 -0.3631  1.1511
 4651SOL    HW225413   1.311   4.678  15.209 -0.6339  1.5167 -0.0714
 4652SOL     OW25414   4.128   2.419   1.700  0.2224 -0.0246  0.1312
 4652SOL    HW125415   4.158   2.403   1.789  1.1731 -0.8831 -0.3377
 4652SOL    HW225416   4.092   2.505   1.719 -0.8421  0.3023 -3.4424
 4653SOL     OW25417   2.430   1.755   4.929 -0.2877  0.3662 -0.4048
 4653SOL    HW125418   2.496   1.756   4.998  0.6184 -3.2666 -1.2329
 4653SOL    HW225419   2.413   1.846   4.905  1.1690  0.8817  0.5584
 4654SOL     OW25420   1.234   3.728   9.643  0.1630  0.3955  0.2677
 4654SOL    HW125421   1.247   3.823   9.648  3.5736 -0.0726  0.3950
 4654SOL    HW225422   1.326   3.702   9.641 -0.9203 -3.3881 -0.2248
 4655SOL     OW25423   4.125   1.554   3.036  0.1915 -0.2108  0.1019
 4655SOL    HW125424   4.086   1.488   2.978  1.5379 -0.0529 -0.9863
 4655SOL    HW225425   4.046   1.566   3.088 -0.3081 -0.6440 -0.5538
 4656SOL     OW25426   0.665   3.077   0.608  0.0724  0.0075  0.5734
 4656SOL    HW125427   0.734   3.100   0.546 -1.3006  0.4820 -0.7677
 4656SOL    HW225428   0.714   3.049   0.686  1.2462  2.2577  0.6460
 4657SOL     OW25429   1.691   3.238   4.703 -0.1668 -0.1092  0.0639
 4657SOL    HW125430   1.772   3.285   4.725  1.1295 -1.0268 -2.8012
 4657SOL    HW225431   1.691   3.172   4.773 -2.0515  0.6202  0.7403
 4658SOL     OW25432   1.085   0.368   8.717 -0.0583 -0.4109 -0.2937
 4658SOL    HW125433   1.070   0.337   8.806  0.7991 -0.7418 -0.2633
 4658SOL    HW225434   1.177   0.397   8.720 -0.4641  0.8566 -0.1887
 4659SOL     OW25435   1.134   1.757   4.728 -0.2385 -0.3036 -0.2368
 4659SOL    HW125436   1.047   1.775   4.691 -0.0266  0.7228 -0.2501
 4659SOL    HW225437   1.198   1.818   4.692 -0.6244  0.4890  0.4173
 4660SOL     OW25438   2.095   4.498  11.822 -0.1488  0.2575  0.4210
 4660SOL    HW125439   2.122   4.413  11.790 -1.6449 -0.1305  0.2134
 4660SOL    HW225440   2.004   4.492  11.794 -0.5528 -0.1756  1.8036
 4661SOL     OW25441   2.105   0.836   5.021 -0.1500  0.7276 -0.4645
 4661SOL    HW125442   2.019   0.797   5.034 -0.0073  0.3909 -0.5467
 4661SOL    HW225443   2.122   0.829   5.115  0.8727  1.8258 -0.5640
 4662SOL     OW25444   0.334   3.231  17.619 -0.3209  0.3913  0.2433
 4662SOL    HW125445   0.308   3.140  17.611  0.7582  0.0248  0.9526
 4662SOL    HW225446   0.404   3.218  17.683  1.1338  3.1949 -0.7736
 4663SOL     OW25447   2.767   3.443  13.677 -0.1924 -0.3370  0.3730
 4663SOL    HW125448   2.754   3.355  13.710 -0.9603 -0.3528  0.0498
 4663SOL    HW225449   2.752   3.501  13.752 -1.9202  1.4434 -1.3335
 4664SOL     OW25450   1.213   2.388   8.303  0.1827 -0.5329 -0.1846
 4664SOL    HW125451   1.155   2.316   8.326 -0.3147  0.3067  1.2324
 4664SOL    HW225452   1.299   2.354   8.325  0.2415 -1.2656 -1.5645
 4665SOL     OW25453   2.735   1.245   6.354 -0.6154  0.6547 -0.1833
 4665SOL    HW125454   2.697   1.281   6.434  2.6685 -0.8442  2.0779
 4665SOL    HW225455   2.746   1.324   6.301 -1.7430  0.0036 -1.3559
 4666SOL     OW25456   0.449   0.978   6.587  0.0481  0.9278  0.0392
 4666SOL    HW125457   0.388   0.926   6.639 -1.3926  0.5849 -2.0363
 4666SOL    HW225458   0.395   1.047   6.550  1.3993  1.9147 -0.1173
 4667SOL     OW25459   2.455   4.532  14.600 -0.1224 -0.1364 -0.1163
 4667SOL    HW125460   2.383   4.515  14.660  0.2784 -3.7860 -0.6847
 4667SOL    HW225461   2.474   4.443  14.570  1.3348 -0.1863  0.9681
 4668SOL     OW25462   4.558   1.109   4.151 -0.1406  0.2491 -0.3152
 4668SOL    HW125463   4.530   1.198   4.171  2.3149  0.6304  1.3791
 4668SOL    HW225464   4.651   1.108   4.171  0.2138  1.9438 -1.8689
 4669SOL     OW25465   4.338   4.469  12.926  0.4117 -0.3605  0.6122
 4669SOL    HW125466   4.331   4.420  12.844  2.5237  0.3278  0.0192
 4669SOL    HW225467   4.251   4.507  12.932  1.2371  1.9085 -1.8386
 4670SOL     OW25468   1.465   1.926   8.777 -1.1418  0.3289  0.4677
 4670SOL    HW125469   1.477   1.962   8.689  1.9163  2.4513  1.7284
 4670SOL    HW225470   1.529   1.979   8.825 -2.4740  1.0182  1.4782
 4671SOL     OW25471   1.419   4.340   5.626 -0.0618  0.2219  0.0183
 4671SOL    HW125472   1.465   4.424   5.618  2.8052 -1.3396  0.0078
 4671SOL    HW225473   1.333   4.375   5.606 -0.4456 -0.3522  0.6600
 4672SOL     OW25474   3.216   1.047   3.513 -0.4833  0.0044 -0.0073
 4672SOL    HW125475   3.131   1.089   3.498  0.2425  0.1747 -3.7368
 4672SOL    HW225476   3.252   1.119   3.564 -1.8551  0.7150 -0.0322
 4673SOL     OW25477   3.976   0.430   7.852 -0.3394 -0.1733  0.1703
 4673SOL    HW125478   3.943   0.515   7.822  2.9038  0.8479 -0.5141
 4673SOL    HW225479   3.976   0.386   7.767 -0.1603  0.4062 -0.1297
 4674SOL     OW25480   3.486   3.923   0.792  0.2067  0.3904 -0.4074
 4674SOL    HW125481   3.509   4.001   0.844  0.2621  0.8978 -1.1942
 4674SOL    HW225482   3.391   3.917   0.805  0.7117 -4.0489  1.0945
 4675SOL     OW25483   4.307   0.656   8.355  0.2848 -0.3278  0.1501
 4675SOL    HW125484   4.254   0.629   8.430  2.0495 -2.0083  0.7814
 4675SOL    HW225485   4.282   0.744   8.326 -0.5962 -0.4344  0.5604
 4676SOL     OW25486   3.319   3.118  10.563  0.2741  0.0430  0.2522
 4676SOL    HW125487   3.335   3.171  10.641 -0.8699 -1.2763  1.3720
 4676SOL    HW225488   3.364   3.038  10.589 -0.6496 -0.6200 -0.2073
 4677SOL     OW25489   2.568   3.679  11.662 -0.4886  0.3020 -0.2847
 4677SOL    HW125490   2.539   3.599  11.619 -0.6680  0.8966 -1.2766
 4677SOL    HW225491   2.660   3.694  11.640 -0.2959  0.0958  0.3999
 4678SOL     OW25492   1.263   4.441  13.530 -0.3362  0.8293  0.3613
 4678SOL    HW125493   1.232   4.418  13.443 -0.7916 -1.1996  1.0647
 4678SOL    HW225494   1.185   4.436  13.585 -1.0274  0.5730 -0.6401
 4679SOL     OW25495   0.994   0.328  15.923  0.1565 -0.0737 -0.5641
 4679SOL    HW125496   0.918   0.370  15.883 -0.9989  0.1939  1.8715
 4679SOL    HW225497   1.023   0.279  15.847  0.0413 -1.2546  0.1474
 4680SOL     OW25498   3.832   3.821   9.844  0.2633 -0.1007 -0.2503
 4680SOL    HW125499   3.814   3.835   9.751 -0.7911  1.3108  0.1656
 4680SOL    HW225500   3.885   3.742   9.843  0.1333 -0.1889 -0.1491
 4681SOL     OW25501   1.868   1.246   2.760  0.9161 -0.1131 -0.2780
 4681SOL    HW125502   1.818   1.220   2.683  0.7921 -1.5692  0.2943
 4681SOL    HW225503   1.811   1.213   2.830 -0.0962 -1.4494 -1.7304
 4682SOL     OW25504   4.304   3.301  10.730 -0.3249  0.0550  0.4149
 4682SOL    HW125505   4.327   3.227  10.674 -3.0794 -0.1215 -0.5167
 4682SOL    HW225506   4.230   3.255  10.771  0.6540 -3.7710 -2.0731
 4683SOL     OW25507   0.692   4.280   0.699 -0.1043  0.4091  0.2422
 4683SOL    HW125508   0.698   4.233   0.783  1.8033 -0.9409 -0.6625
 4683SOL    HW225509   0.764   4.247   0.646  1.2241  1.5839  1.3172
 4684SOL     OW25510   3.450   0.169   6.371  0.3219 -0.5727  0.0582
 4684SOL    HW125511   3.419   0.081   6.347 -0.0574  0.0608 -1.7788
 4684SOL    HW225512   3.542   0.151   6.390  0.2269 -0.3472  0.7338
 4685SOL     OW25513   0.670   3.766   9.062  0.1602 -0.3346  0.4007
 4685SOL    HW125514   0.741   3.829   9.047  0.4542 -1.0369 -1.1719
 4685SOL    HW225515   0.714   3.723   9.136  0.4734 -1.8705 -0.6839
 4686SOL     OW25516   1.198   0.284   5.686 -0.3496 -0.0021 -0.4155
 4686SOL    HW125517   1.121   0.323   5.727 -1.8262 -3.7758  0.3725
 4686SOL    HW225518   1.209   0.193   5.714  1.3452 -0.4779 -2.6125
 4687SOL     OW25519   2.605   0.267   4.028  0.9757 -0.4867 -0.2140
 4687SOL    HW125520   2.690   0.296   4.061 -0.5847 -0.3688  3.6457
 4687SOL    HW225521   2.627   0.177   4.005 -0.8213 -0.6662 -1.2731
 4688SOL     OW25522   0.806   4.150  17.621  0.1681 -0.0081 -0.4951
 4688SOL    HW125523   0.868   4.214  17.658  0.5893 -0.1164 -1.0122
 4688SOL    HW225524   0.815   4.085  17.691  2.0945  0.0012 -0.7252
 4689SOL     OW25525   0.499   2.886   4.706  0.1386 -0.3246  0.0546
 4689SOL    HW125526   0.552   2.964   4.690 -0.4297  0.3904  1.7020
 4689SOL    HW225527   0.561   2.813   4.700  0.2679 -0.3947  2.0630
 4690SOL     OW25528   3.539   1.460  13.952  0.1789  0.3772  0.6325
 4690SOL    HW125529   3.619   1.460  14.003  1.6208 -0.6721 -1.6283
 4690SOL    HW225530   3.571   1.489  13.866 -1.2757  1.7538  0.5354
 4691SOL     OW25531   2.303   0.943   2.874  0.1860 -0.4851 -0.2894
 4691SOL    HW125532   2.214   0.977   2.866  0.7672  0.8679 -0.9877
 4691SOL    HW225533   2.336   0.968   2.787  0.1211 -0.5152 -0.3233
 4692SOL     OW25534   0.365   2.656   4.688  0.0252  0.0094 -0.1706
 4692SOL    HW125535   0.405   2.743   4.674  0.7313 -0.2161  0.4390
 4692SOL    HW225536   0.282   2.674   4.644  0.1918  1.8765  0.2418
 4693SOL     OW25537   1.423   0.722   5.181 -1.1145 -0.2751 -0.4044
 4693SOL    HW125538   1.390   0.801   5.224 -0.5793 -0.2780  0.0030
 4693SOL    HW225539   1.363   0.708   5.108 -3.5133 -0.2426  1.5557
 4694SOL     OW25540   0.351   1.275   9.807 -0.1329  0.1494  0.1336
 4694SOL    HW125541   0.317   1.192   9.839  1.7598 -0.9733 -0.7573
 4694SOL    HW225542   0.315   1.275   9.719  0.6713 -0.4092 -0.1985
 4695SOL     OW25543   1.335   2.317   6.740 -0.4117 -0.5888 -0.3223
 4695SOL    HW125544   1.244   2.320   6.769 -0.6324 -3.4304 -0.7257
 4695SOL    HW225545   1.325   2.350   6.650 -1.9904 -0.5032 -0.1259
 4696SOL     OW25546   0.117   2.899  10.376 -0.0505  0.5466 -0.0495
 4696SOL    HW125547   0.190   2.960  10.366  0.6954  0.0926  2.7711
 4696SOL    HW225548   0.071   2.947  10.444 -0.3322  0.3091 -0.0734
 4697SOL     OW25549   3.993   4.333   6.856 -0.0694 -0.3316 -0.4070
 4697SOL    HW125550   4.010   4.405   6.917  0.2090 -2.3077  1.8305
 4697SOL    HW225551   4.069   4.276   6.868  2.0435  2.1013 -2.2236
 4698SOL     OW25552   2.722   1.249  17.613 -0.2366 -0.2731 -0.1586
 4698SOL    HW125553   2.757   1.280  17.697  2.0769  0.9737 -1.5465
 4698SOL    HW225554   2.796   1.263  17.553  1.6727  0.1677  2.2992
 4699SOL     OW25555   3.678   2.105   8.344  0.1572 -0.4735 -0.0729
 4699SOL    HW125556   3.632   2.022   8.361 -1.1058  0.3409  0.5019
 4699SOL    HW225557   3.607   2.169   8.347 -0.6790 -1.4280  0.5530
 4700SOL     OW25558   2.494   3.740   5.401  0.2704  0.2503  0.1781
 4700SOL    HW125559   2.540   3.721   5.319 -0.7768 -2.5544  0.2333
 4700SOL    HW225560   2.504   3.835   5.401 -0.1006  0.2872 -0.7266
 4701SOL     OW25561   2.148   1.723  11.909 -0.2223 -0.9371  0.1010
 4701SOL    HW125562   2.102   1.640  11.922 -0.5609 -0.5071  1.7126
 4701SOL    HW225563   2.241   1.704  11.893  0.4675  1.4628  1.3516
 4702SOL     OW25564   4.138   2.271   4.284  0.1903  0.1438 -0.0256
 4702SOL    HW125565   4.117   2.192   4.334  0.1636 -0.6050 -1.2342
 4702SOL    HW225566   4.142   2.329   4.360  4.4937 -2.0357  1.4402
 4703SOL     OW25567   1.733   4.130   1.290 -0.4038  0.3077 -0.4472
 4703SOL    HW125568   1.702   4.042   1.308  0.0143  0.2826  0.1732
 4703SOL    HW225569   1.792   4.142   1.365 -0.9542  0.4340 -0.0317
 4704SOL     OW25570   4.077   4.214   6.383  0.0318 -0.2392  0.4668
 4704SOL    HW125571   4.162   4.184   6.349 -0.5309 -0.4258 -0.7881
 4704SOL    HW225572   4.070   4.183   6.473  2.1545 -1.5617  0.1851
 4705SOL     OW25573   1.333   4.135   3.056 -0.2824 -0.0753 -0.1686
 4705SOL    HW125574   1.318   4.143   2.962 -1.8364 -3.6087 -0.2275
 4705SOL    HW225575   1.247   4.155   3.094  0.0792  0.9058  0.1226
 4706SOL     OW25576   2.113   0.886  10.809 -0.3549 -0.1138 -0.1423
 4706SOL    HW125577   2.081   0.796  10.814 -0.5831 -0.0570 -0.5854
 4706SOL    HW225578   2.031   0.933  10.797  0.9040  2.2664  0.5563
 4707SOL     OW25579   3.293   2.834   0.654 -0.0026 -0.1295  0.5097
 4707SOL    HW125580   3.204   2.869   0.654  0.2058  0.3990 -0.4887
 4707SOL    HW225581   3.314   2.866   0.566  1.6364 -0.1521  0.8955
 4708SOL     OW25582   0.241   0.887   6.996 -0.0678 -0.3700  0.3914
 4708SOL    HW125583   0.318   0.889   7.052 -0.3463 -1.1042  0.8011
 4708SOL    HW225584   0.180   0.853   7.062 -0.2936 -0.5826  0.0743
 4709SOL     OW25585   3.310   3.295  12.698 -0.6340 -0.1315  0.3519
 4709SOL    HW125586   3.386   3.344  12.667 -1.0448  0.4223  0.2123
 4709SOL    HW225587   3.303   3.214  12.647 -0.0056  0.0171  0.0306
 4710SOL     OW25588   0.331   2.040   3.834  0.4506 -0.1534 -0.8458
 4710SOL    HW125589   0.360   2.129   3.813 -0.5954  0.5189  0.6062
 4710SOL    HW225590   0.290   2.014   3.751 -1.6444 -0.9839  0.4589
 4711SOL     OW25591   0.031   1.283   1.240  0.0316 -0.6186  0.1373
 4711SOL    HW125592   0.019   1.337   1.162 -0.4697 -1.2107 -0.1946
 4711SOL    HW225593   4.666   1.252   1.257 -0.3980  1.0555  0.9215
 4712SOL     OW25594   2.198   1.869  16.153  0.2763 -0.6366  0.3857
 4712SOL    HW125595   2.114   1.912  16.133 -0.6028 -2.2961  0.5221
 4712SOL    HW225596   2.249   1.880  16.073 -1.4157  0.4484 -0.5597
 4713SOL     OW25597   3.252   0.515  14.582  0.0284  0.3986  0.2451
 4713SOL    HW125598   3.217   0.510  14.493  0.7663  0.8399 -0.0692
 4713SOL    HW225599   3.228   0.426  14.609  1.2673 -0.0941 -0.3152
 4714SOL     OW25600   4.298   1.934  16.658 -0.3588 -0.4718 -0.7011
 4714SOL    HW125601   4.387   1.902  16.644 -0.9962 -2.2223 -0.7714
 4714SOL    HW225602   4.308   2.021  16.620 -0.2227 -0.6897 -1.1683
 4715SOL     OW25603   4.668   3.122   3.287 -0.4505 -0.0056  0.1921
 4715SOL    HW125604   4.644   3.032   3.263  1.9827 -0.1977 -1.4709
 4715SOL    HW225605   4.610   3.135   3.363 -0.0917  0.9350  0.3024
 4716SOL     OW25606   0.047   2.336  14.907 -0.7350 -0.5149 -0.4046
 4716SOL    HW125607   0.009   2.360  14.991  1.5949 -1.0366  0.8168
 4716SOL    HW225608   0.124   2.288  14.939 -1.2305 -0.4802  0.8156
 4717SOL     OW25609   3.175   2.202   9.503 -0.0901  0.1443  0.4601
 4717SOL    HW125610   3.223   2.169   9.427  0.4804  1.8844  0.0595
 4717SOL    HW225611   3.104   2.139   9.514 -0.6246  0.1673 -2.8708
 4718SOL     OW25612   2.531   2.914   3.290  0.1603 -0.0743  0.4988
 4718SOL    HW125613   2.583   2.837   3.267  0.0094  0.1668 -0.6053
 4718SOL    HW225614   2.602   2.978   3.299 -0.1355  0.3555 -0.3285
 4719SOL     OW25615   4.010   1.234   6.095 -0.0621  0.1622  0.1749
 4719SOL    HW125616   3.968   1.188   6.022 -0.8815 -1.4487  1.6607
 4719SOL    HW225617   4.100   1.246   6.064  0.6743 -1.6610  1.5843
 4720SOL     OW25618   0.468   3.982  17.524  0.1677  0.0879  0.2608
 4720SOL    HW125619   0.429   4.008  17.441  0.8717 -2.7681 -0.9642
 4720SOL    HW225620   0.486   4.068  17.562  1.1602 -0.4713  1.0798
 4721SOL     OW25621   0.901   1.940   6.872  0.4183  0.6008 -0.3472
 4721SOL    HW125622   0.826   1.984   6.913  0.9145 -0.2107  1.4202
 4721SOL    HW225623   0.865   1.942   6.784 -2.7485 -1.6632  0.8846
 4722SOL     OW25624   2.392   3.199   4.086  0.0347 -0.1654  0.1400
 4722SOL    HW125625   2.458   3.181   4.019  0.1952  1.8324 -0.2489
 4722SOL    HW225626   2.334   3.259   4.040  0.2507 -0.6835 -0.8140
 4723SOL     OW25627   1.392   0.257  13.387 -0.3818  0.5546 -0.5415
 4723SOL    HW125628   1.369   0.343  13.420 -0.5190  1.1164 -2.0966
 4723SOL    HW225629   1.308   0.213  13.405  0.2724 -1.5083 -2.5397
 4724SOL     OW25630   3.724   0.936   8.530 -0.7077 -0.2039 -0.1949
 4724SOL    HW125631   3.639   0.901   8.556 -1.1548  0.9492 -0.0992
 4724SOL    HW225632   3.740   0.891   8.447 -0.1805 -1.1083  0.4004
 4725SOL     OW25633   4.312   0.776   7.071  0.4091  0.1019  0.0165
 4725SOL    HW125634   4.224   0.805   7.094  0.9453  1.7765 -0.0166
 4725SOL    HW225635   4.324   0.732   7.155  1.3719 -0.7084 -0.5445
 4726SOL     OW25636   1.121   0.410  15.181  0.2050 -0.8395  0.1647
 4726SOL    HW125637   1.147   0.495  15.144  1.0687 -2.0227 -1.9668
 4726SOL    HW225638   1.167   0.424  15.264 -0.3774 -0.4613  0.4221
 4727SOL     OW25639   2.318   2.163   7.125 -0.5709 -0.4163  0.0605
 4727SOL    HW125640   2.323   2.247   7.170 -2.7782  0.2806 -1.0151
 4727SOL    HW225641   2.237   2.172   7.076  0.6461 -0.2292 -1.9439
 4728SOL     OW25642   1.878   3.600   2.227 -0.3422 -0.0330 -0.3152
 4728SOL    HW125643   1.951   3.604   2.166 -1.2345 -0.3307 -1.3888
 4728SOL    HW225644   1.901   3.663   2.296 -3.2515  1.9706 -1.1957
 4729SOL     OW25645   2.249   3.367   5.693 -0.1723  0.2566  0.0036
 4729SOL    HW125646   2.160   3.346   5.664 -0.1558 -0.0650  0.1884
 4729SOL    HW225647   2.282   3.431   5.629  2.1702  0.0585  1.0141
 4730SOL     OW25648   0.239   4.598  10.546  0.1671 -0.4366  0.1107
 4730SOL    HW125649   0.321   4.548  10.543  0.7715  0.6155 -0.6790
 4730SOL    HW225650   0.254   4.660  10.618 -1.6334 -2.6345  2.4024
 4731SOL     OW25651   3.248   1.865   0.411  0.6003  0.2515 -0.4716
 4731SOL    HW125652   3.172   1.850   0.467  2.0882 -0.0119  1.4909
 4731SOL    HW225653   3.276   1.774   0.400 -1.1060 -1.0106  5.4698
 4732SOL     OW25654   0.142   0.565   5.813  0.3829 -0.3072  0.1987
 4732SOL    HW125655   0.195   0.487   5.834  0.7622  0.3846  1.8533
 4732SOL    HW225656   0.211   0.629   5.830  0.9847 -1.4489  2.1607
 4733SOL     OW25657   0.654   0.473   9.495 -0.0587  0.4599 -0.1029
 4733SOL    HW125658   0.637   0.548   9.439  2.0708 -0.4651 -2.0160
 4733SOL    HW225659   0.588   0.482   9.564 -1.8045 -0.4427 -1.6820
 4734SOL     OW25660   2.025   1.278   5.783  0.4225  0.8144  0.0308
 4734SOL    HW125661   2.069   1.216   5.840 -1.1900 -1.5269 -1.2847
 4734SOL    HW225662   1.976   1.225   5.721  0.5516  1.4314 -0.5987
 4735SOL     OW25663   0.559   1.223  12.563 -0.1984 -0.2493  0.0126
 4735SOL    HW125664   0.642   1.181  12.540  0.4129  0.0453  1.7411
 4735SOL    HW225665   0.570   1.251  12.653 -1.0266 -0.9296  0.3222
 4736SOL     OW25666   0.330   4.294   0.862  0.2134 -0.0651 -0.8149
 4736SOL    HW125667   0.386   4.254   0.929  0.2866 -0.8315 -1.3432
 4736SOL    HW225668   0.247   4.304   0.908  1.2070 -1.3248  1.2473
 4737SOL     OW25669   3.237   2.098   4.738  0.1451 -0.3212 -0.1860
 4737SOL    HW125670   3.263   2.173   4.685  2.8356 -1.0430  0.0677
 4737SOL    HW225671   3.214   2.148   4.816 -0.8372 -0.0023 -0.6856
 4738SOL     OW25672   1.736   4.655   5.465  0.2154 -0.3388 -0.2816
 4738SOL    HW125673   1.806   4.634   5.526 -0.2031  2.7600  1.2580
 4738SOL    HW225674   1.670   4.674   5.531 -1.4472 -2.3513 -1.3491
 4739SOL     OW25675   3.327   2.729  16.505  0.3219  0.2496 -0.5452
 4739SOL    HW125676   3.290   2.684  16.430  1.3888 -0.9304 -0.3746
 4739SOL    HW225677   3.392   2.664  16.533 -0.2790  0.3544  1.0907
 4740SOL     OW25678   3.390   2.578  10.849 -0.3429  0.4693 -0.1963
 4740SOL    HW125679   3.482   2.593  10.826 -0.0378  0.8099  1.2648
 4740SOL    HW225680   3.347   2.586  10.763  1.7410 -0.4816 -1.3271
 4741SOL     OW25681   0.546   3.223   0.080 -0.1853 -0.0362  0.4041
 4741SOL    HW125682   0.598   3.150   0.113  0.3590 -0.0050 -0.3655
 4741SOL    HW225683   0.499   3.245   0.160 -0.7767  0.5315 -0.1031
 4742SOL     OW25684   2.498   2.651   7.461  0.0866 -0.3452 -0.6687
 4742SOL    HW125685   2.406   2.650   7.487  0.6440  1.2476  1.3973
 4742SOL    HW225686   2.533   2.565   7.482 -2.4501 -0.7048  2.1282
 4743SOL     OW25687   4.491   1.655  15.335 -0.0730 -0.2317  0.0416
 4743SOL    HW125688   4.462   1.736  15.292 -0.5672 -1.3433 -1.6853
 4743SOL    HW225689   4.459   1.674  15.423  1.7218 -1.0967  0.8784
 4744SOL     OW25690   2.133   4.131  15.434  0.5012  0.1331 -0.4947
 4744SOL    HW125691   2.208   4.186  15.457  2.1773 -2.2601 -0.2931
 4744SOL    HW225692   2.106   4.183  15.358 -0.2369  0.4579 -0.0121
 4745SOL     OW25693   3.551   1.205   6.636 -0.5380 -0.0521 -0.1873
 4745SOL    HW125694   3.455   1.209   6.635 -0.6349 -2.1035 -0.1607
 4745SOL    HW225695   3.568   1.110   6.635  1.1155  0.2473 -1.0722
 4746SOL     OW25696   4.111   1.761   0.256  0.3388  0.0613 -0.2056
 4746SOL    HW125697   4.097   1.783   0.349 -3.7474 -0.1277 -0.7769
 4746SOL    HW225698   4.022   1.773   0.225  0.6994  1.6055 -0.5992
 4747SOL     OW25699   2.510   1.791  11.783  0.9724 -0.1770  0.2918
 4747SOL    HW125700   2.433   1.843  11.805  2.5456  1.7770  1.2281
 4747SOL    HW225701   2.501   1.708  11.830 -2.5908  0.9294  1.5536
 4748SOL     OW25702   3.255   3.589  16.954 -0.0694 -0.4521  0.0162
 4748SOL    HW125703   3.241   3.683  16.949  4.0804  0.2769  1.7445
 4748SOL    HW225704   3.267   3.578  17.048  1.4937 -0.9670 -0.2367
 4749SOL     OW25705   0.561   3.611  11.941 -0.1518 -0.4350 -0.1579
 4749SOL    HW125706   0.532   3.532  11.895  2.1869 -1.2565 -0.2430
 4749SOL    HW225707   0.490   3.674  11.933  0.9874  0.6567 -1.6913
 4750SOL     OW25708   3.950   1.942   6.446  0.2839  0.0724  0.0283
 4750SOL    HW125709   3.996   1.989   6.377 -3.5814 -1.7498 -3.7907
 4750SOL    HW225710   3.928   2.020   6.498  1.3607  0.1822  0.3215
 4751SOL     OW25711   0.270   1.334  14.963 -1.1340  0.3555  0.3524
 4751SOL    HW125712   0.255   1.244  14.932  1.3785 -0.3989  1.3304
 4751SOL    HW225713   0.359   1.344  14.929 -1.3170  0.1266 -0.1982
 4752SOL     OW25714   1.662   3.108  16.670  0.2001 -0.6908 -0.0102
 4752SOL    HW125715   1.750   3.110  16.633 -1.2278  0.0838 -3.3003
 4752SOL    HW225716   1.625   3.046  16.608 -0.3216 -1.9328  1.5252
 4753SOL     OW25717   3.361   1.864   2.954 -0.0072  0.1504 -0.2022
 4753SOL    HW125718   3.391   1.905   2.872  1.1102  1.2360  0.7492
 4753SOL    HW225719   3.273   1.897   2.971 -0.9617 -1.9993 -0.9390
 4754SOL     OW25720   1.775   4.142   7.711 -0.1674  0.4474 -0.2401
 4754SOL    HW125721   1.770   4.096   7.795 -0.4754 -1.0900 -1.1030
 4754SOL    HW225722   1.864   4.123   7.680  0.7149  0.0419  2.5960
 4755SOL     OW25723   3.271   0.638   0.153  0.0303 -0.3824 -0.1861
 4755SOL    HW125724   3.196   0.650   0.095 -1.3500 -0.2407  1.6170
 4755SOL    HW225725   3.306   0.727   0.152 -1.4672  0.2097 -0.0406
 4756SOL     OW25726   2.425   1.332  12.035  0.0790 -0.2308  0.1529
 4756SOL    HW125727   2.511   1.294  12.019 -0.8403 -2.9473  1.6100
 4756SOL    HW225728   2.445   1.374  12.119  1.3412  0.9284 -0.7222
 4757SOL     OW25729   0.788   2.712  13.490  0.3737 -0.7530 -0.4004
 4757SOL    HW125730   0.753   2.635  13.534  3.2667 -2.2300 -0.6658
 4757SOL    HW225731   0.747   2.789  13.531 -0.0725 -1.4571  0.4906
 4758SOL     OW25732   0.890   1.767   4.637 -1.0832  0.7976 -0.2274
 4758SOL    HW125733   0.856   1.684   4.604  1.2151  0.6417 -2.2496
 4758SOL    HW225734   0.837   1.785   4.715 -0.5642 -0.5344  0.4484
 4759SOL     OW25735   3.671   4.618   6.517  0.5674 -0.0780 -0.2361
 4759SOL    HW125736   3.729   4.609   6.593  0.4558  3.3166  0.2733
 4759SOL    HW225737   3.678   4.711   6.494  1.6078  0.0723  0.6453
 4760SOL     OW25738   2.416   2.356  14.459 -0.2889 -0.0504  0.7186
 4760SOL    HW125739   2.499   2.397  14.434  0.4574 -2.0689 -0.0973
 4760SOL    HW225740   2.369   2.368  14.376  1.1829  0.7560 -0.0120
 4761SOL     OW25741   3.614   2.831   5.319  0.3382 -0.1356  0.4239
 4761SOL    HW125742   3.665   2.912   5.316  1.0660 -0.5427  2.2871
 4761SOL    HW225743   3.533   2.861   5.276  1.8083  0.2342 -2.1259
 4762SOL     OW25744   0.089   3.726   6.420 -0.5211 -0.2400 -0.3589
 4762SOL    HW125745   0.060   3.680   6.499  2.2434  0.7298  1.2199
 4762SOL    HW225746   0.153   3.784   6.461  0.9383 -1.9429 -0.2209
 4763SOL     OW25747   3.439   2.179   9.631 -0.1848  0.0579  0.3872
 4763SOL    HW125748   3.346   2.191   9.608 -0.0062  1.5180  0.4325
 4763SOL    HW225749   3.416   2.110   9.693  2.0802 -1.2407 -0.2289
 4764SOL     OW25750   0.438   3.540   1.680  0.1394 -0.4849  0.6786
 4764SOL    HW125751   0.499   3.560   1.751  0.9495 -0.0178 -0.1418
 4764SOL    HW225752   0.392   3.465   1.718  0.1417 -0.8695 -0.0871
 4765SOL     OW25753   1.191   4.637   5.404  0.3271 -0.0789 -0.4385
 4765SOL    HW125754   1.257   4.707   5.406  0.7036 -0.4597  0.8748
 4765SOL    HW225755   1.206   4.584   5.326 -0.7460  0.2459 -0.8709
 4766SOL     OW25756   2.804   3.516   1.842  0.0120 -0.2949 -0.1538
 4766SOL    HW125757   2.789   3.569   1.763  2.3356 -0.2170 -0.5226
 4766SOL    HW225758   2.714   3.484   1.852  0.5774 -2.1398 -1.1246
 4767SOL     OW25759   1.481   3.697   0.082  0.1152 -0.2600  0.6477
 4767SOL    HW125760   1.574   3.686   0.099  0.7972  0.0323 -2.9921
 4767SOL    HW225761   1.470   3.618   0.029  2.0133  0.3920 -0.6927
 4768SOL     OW25762   3.733   2.955   2.326 -0.4566  0.2164  0.0736
 4768SOL    HW125763   3.725   2.930   2.234  1.6068  0.7417 -0.2551
 4768SOL    HW225764   3.648   2.994   2.347 -2.7642 -2.5695 -3.9271
 4769SOL     OW25765   4.192   4.218  11.242 -0.5004 -0.6190  0.2199
 4769SOL    HW125766   4.286   4.237  11.233 -0.7425  0.7867  0.6293
 4769SOL    HW225767   4.149   4.300  11.217  2.0054  0.8085  0.5199
 4770SOL     OW25768   3.462   0.499   7.024 -0.3107 -0.1242 -0.3058
 4770SOL    HW125769   3.389   0.543   6.981 -1.4438 -0.1327  1.6203
 4770SOL    HW225770   3.455   0.515   7.118  0.3641 -0.4444 -0.1987
 4771SOL     OW25771   3.620   4.122   2.593  0.1196  0.4579  0.4437
 4771SOL    HW125772   3.675   4.186   2.547  1.2657  2.3117  4.3700
 4771SOL    HW225773   3.673   4.043   2.597  0.2043  0.6610  3.1505
 4772SOL     OW25774   0.575   0.105  11.736 -0.0370 -0.3070 -0.1170
 4772SOL    HW125775   0.570   0.126  11.642 -0.3986  3.3490  0.6932
 4772SOL    HW225776   0.485   0.087  11.762  0.6463  0.1169  2.5249
 4773SOL     OW25777   2.924   2.781  13.677 -0.0764 -0.3634  0.1330
 4773SOL    HW125778   2.907   2.874  13.690  0.2034 -0.6183  2.3217
 4773SOL    HW225779   2.844   2.751  13.635 -1.2273  0.1795  1.9557
 4774SOL     OW25780   3.553   3.676  15.797 -0.4977  0.3646 -0.1769
 4774SOL    HW125781   3.560   3.751  15.856  1.0251 -0.2619  0.4488
 4774SOL    HW225782   3.647   3.657  15.796 -0.2715  1.5484 -0.8436
 4775SOL     OW25783   1.145   1.709   5.588 -0.0418  0.4324  0.0377
 4775SOL    HW125784   1.173   1.666   5.669  0.6802 -1.4108 -1.1744
 4775SOL    HW225785   1.207   1.660   5.534  0.6256  1.4800 -0.1451
 4776SOL     OW25786   3.580   0.612   3.134  0.1499  0.3209 -0.0244
 4776SOL    HW125787   3.541   0.587   3.218  2.8363  0.9684  1.4209
 4776SOL    HW225788   3.548   0.544   3.075 -0.9582 -0.2004  1.1716
 4777SOL     OW25789   4.263   3.677   7.237  0.3895  0.2037  0.0328
 4777SOL    HW125790   4.291   3.698   7.326 -0.9699  2.3828 -0.0485
 4777SOL    HW225791   4.232   3.587   7.249 -0.4041  0.2432 -1.7320
 4778SOL     OW25792   1.364   3.175  10.037  0.3079 -0.2703  0.2282
 4778SOL    HW125793   1.424   3.240  10.075 -0.5773  0.4317  0.4363
 4778SOL    HW225794   1.284   3.226  10.020  1.8261  1.0166 -3.0603
 4779SOL     OW25795   2.171   4.216   9.691 -0.1089 -0.3541 -0.1713
 4779SOL    HW125796   2.129   4.192   9.609  1.4064 -2.0718 -0.4467
 4779SOL    HW225797   2.101   4.261   9.737 -0.4933  0.0197 -1.1336
 4780SOL     OW25798   4.456   0.519  10.182  0.1866 -0.1207  0.2847
 4780SOL    HW125799   4.502   0.439  10.156 -0.0177 -0.8014  2.0572
 4780SOL    HW225800   4.441   0.511  10.276  1.6344  1.0694  0.6162
 4781SOL     OW25801   2.702   4.452  13.528 -0.3258  0.1648 -0.1909
 4781SOL    HW125802   2.794   4.425  13.518  0.1058  1.2743  0.7806
 4781SOL    HW225803   2.664   4.365  13.543 -2.2980  1.1632  0.5333
 4782SOL     OW25804   4.233   0.267   4.271  0.5572 -0.5832 -0.1328
 4782SOL    HW125805   4.143   0.294   4.252  1.1215  1.4803  0.1002
 4782SOL    HW225806   4.281   0.291   4.192  1.1426  1.7202  0.9013
 4783SOL     OW25807   2.194   3.136  12.164  0.5832  0.0519 -0.1129
 4783SOL    HW125808   2.142   3.212  12.191  1.8963  0.3640  1.5551
 4783SOL    HW225809   2.271   3.133  12.220  1.8235 -1.2317 -1.8781
 4784SOL     OW25810   0.589   1.505   5.627  0.4826  0.0037 -0.7115
 4784SOL    HW125811   0.616   1.522   5.536  0.2690 -0.2267 -0.8184
 4784SOL    HW225812   0.506   1.466   5.600 -0.4696  1.3876  0.2411
 4785SOL     OW25813   2.117   1.520   3.004 -0.0260 -0.1195 -0.0823
 4785SOL    HW125814   2.023   1.510   3.014 -0.0730  1.0206  0.6195
 4785SOL    HW225815   2.137   1.437   3.047 -2.5834 -2.4102 -3.3926
 4786SOL     OW25816   3.844   2.016   4.603  0.0014 -0.5252 -0.1540
 4786SOL    HW125817   3.799   1.933   4.622 -0.9632 -0.0340 -0.2798
 4786SOL    HW225818   3.773   2.079   4.618  0.0441 -0.3058 -0.8536
 4787SOL     OW25819   3.455   2.387   4.878  0.0769 -0.4859  0.1373
 4787SOL    HW125820   3.488   2.476   4.865  0.3002 -0.8134 -1.4716
 4787SOL    HW225821   3.512   2.351   4.947  2.6380  2.5237 -0.4173
 4788SOL     OW25822   1.512   3.186   7.069 -0.0116  0.2682 -0.0313
 4788SOL    HW125823   1.466   3.127   7.128  0.4031  1.5478  1.5548
 4788SOL    HW225824   1.602   3.155   7.081 -0.3007 -0.2576  0.7113
 4789SOL     OW25825   1.699   0.950  13.131  0.1802  0.4446  0.4147
 4789SOL    HW125826   1.783   0.993  13.142 -1.5972  4.0982 -0.0180
 4789SOL    HW225827   1.714   0.918  13.042 -2.1982  0.1126  0.1315
 4790SOL     OW25828   0.102   4.432   0.381 -0.2820  0.0331 -0.1992
 4790SOL    HW125829   0.152   4.352   0.363  1.4275  0.6472  1.7661
 4790SOL    HW225830   0.029   4.417   0.322 -0.1702  0.5750 -0.4715
 4791SOL     OW25831   0.788   3.796   0.331 -0.3862 -0.1469 -0.5206
 4791SOL    HW125832   0.810   3.704   0.349  1.7408  0.5547  0.4135
 4791SOL    HW225833   0.777   3.836   0.417 -2.3402  0.8315 -1.2336
 4792SOL     OW25834   0.317   4.530  14.494 -0.0605 -0.1414 -0.1465
 4792SOL    HW125835   0.258   4.542  14.569 -1.9027  2.3575 -1.9713
 4792SOL    HW225836   0.357   4.617  14.495 -1.0887  0.3481 -0.8392
 4793SOL     OW25837   4.019   1.371   3.567  0.3706 -0.4906  0.1714
 4793SOL    HW125838   3.983   1.454   3.537 -0.3702 -0.7625  0.3268
 4793SOL    HW225839   3.965   1.307   3.521 -0.6321 -0.0332  0.7143
 4794SOL     OW25840   1.922   4.665  15.324  0.0174 -0.0807  0.1483
 4794SOL    HW125841   1.893   4.598  15.386 -2.6539  2.0630  1.2054
 4794SOL    HW225842   1.966   4.616  15.254 -0.6207 -2.4383  1.3884
 4795SOL     OW25843   2.100   4.415   4.548  0.2261  0.6492  0.0824
 4795SOL    HW125844   2.071   4.494   4.592 -0.7147 -0.4040  1.3577
 4795SOL    HW225845   2.188   4.446   4.526  0.7916 -3.6842 -3.7826
 4796SOL     OW25846   4.354   4.262  10.350 -0.3021 -0.0681  0.6141
 4796SOL    HW125847   4.320   4.351  10.362  0.8929  0.3413  1.0197
 4796SOL    HW225848   4.440   4.282  10.387 -0.4152  1.0125  0.2885
 4797SOL     OW25849   2.137   1.141   2.668 -0.0182  0.3909  0.2957
 4797SOL    HW125850   2.073   1.209   2.649 -0.9393  0.0626  2.1921
 4797SOL    HW225851   2.122   1.084   2.593 -0.5772 -0.4782  1.0643
 4798SOL     OW25852   2.917   1.224   1.163  0.0791 -0.1441 -0.5147
 4798SOL    HW125853   2.844   1.268   1.206 -0.5819 -0.5769 -1.1900
 4798SOL    HW225854   2.974   1.299   1.143  1.2491 -0.3190  2.1920
 4799SOL     OW25855   2.141   0.708   4.702 -0.4739  0.1120 -1.2899
 4799SOL    HW125856   2.220   0.760   4.721  0.0752 -1.0909 -0.3027
 4799SOL    HW225857   2.082   0.744   4.767 -1.0668 -3.3805  0.0861
 4800SOL     OW25858   0.594   3.842   2.538 -0.8641 -0.2568 -0.1274
 4800SOL    HW125859   0.638   3.809   2.615  2.8826  0.1712 -2.0727
 4800SOL    HW225860   0.502   3.815   2.544 -0.9656  0.5638  1.9933
 4801SOL     OW25861   0.075   0.692   5.258 -0.0293  0.0550  0.1390
 4801SOL    HW125862   0.086   0.759   5.191 -1.5407  1.2007  1.0178
 4801SOL    HW225863   0.114   0.739   5.332  0.2561  1.1212 -0.6818
 4802SOL     OW25864   1.723   1.064   9.096  0.0855 -0.3821  0.1247
 4802SOL    HW125865   1.777   1.050   9.174 -0.9619  1.3211  1.1585
 4802SOL    HW225866   1.756   1.150   9.069 -2.5101  0.2751 -0.9594
 4803SOL     OW25867   0.426   3.401   3.037 -0.3020 -0.2373  0.0035
 4803SOL    HW125868   0.400   3.464   3.105 -1.7274  1.2249 -1.8625
 4803SOL    HW225869   0.401   3.322   3.085 -0.1305  0.6872  1.6107
 4804SOL     OW25870   4.341   1.442  15.538  0.2041 -0.0066 -0.2734
 4804SOL    HW125871   4.337   1.450  15.442 -0.4697  0.6246 -0.1977
 4804SOL    HW225872   4.263   1.391  15.558  1.5053 -2.4816 -1.4343
 4805SOL     OW25873   3.575   1.002  12.500 -0.2146 -0.2024 -0.1503
 4805SOL    HW125874   3.539   0.922  12.461 -0.7637 -0.3597  0.6906
 4805SOL    HW225875   3.623   0.964  12.573 -1.7573 -1.9198 -0.0298
 4806SOL     OW25876   2.920   1.437   2.866 -0.5039  0.0475 -0.1734
 4806SOL    HW125877   2.930   1.513   2.809 -0.3344  0.6647  0.6781
 4806SOL    HW225878   2.827   1.419   2.854 -0.5951 -0.8899  1.8692
 4807SOL     OW25879   1.131   1.070   9.206  0.4539 -0.0797  0.4137
 4807SOL    HW125880   1.060   1.033   9.260 -1.1060  0.2046 -1.4515
 4807SOL    HW225881   1.084   1.099   9.128 -0.0915  0.6927  1.0292
 4808SOL     OW25882   4.244   1.217   3.615 -0.0961  0.8010 -0.3864
 4808SOL    HW125883   4.170   1.274   3.634  1.3772  1.9607  1.8607
 4808SOL    HW225884   4.260   1.229   3.522 -0.9098 -1.9379 -0.8748
 4809SOL     OW25885   4.583   2.753   9.721  0.3060 -0.0480  0.1321
 4809SOL    HW125886   4.583   2.658   9.731  0.4942 -0.1229 -0.5490
 4809SOL    HW225887   4.657   2.786   9.772 -0.3490 -0.5119  1.3718
 4810SOL     OW25888   2.301   1.605  14.222  0.1953  0.3370  0.0199
 4810SOL    HW125889   2.315   1.670  14.153  1.3726  0.3338  0.2652
 4810SOL    HW225890   2.379   1.551  14.209  0.4396  0.8418 -0.5999
 4811SOL     OW25891   2.174   2.897   2.076 -0.3670 -0.0552 -0.1038
 4811SOL    HW125892   2.153   2.963   2.141 -2.1110 -0.4954 -0.2122
 4811SOL    HW225893   2.161   2.943   1.993 -0.4012 -1.2664 -0.7809
 4812SOL     OW25894   0.487   0.102   3.806  0.1253 -0.4123  1.0942
 4812SOL    HW125895   0.550   0.124   3.738  0.0359  1.8060  1.7405
 4812SOL    HW225896   0.411   0.155   3.783  0.5479  0.0519  0.7735
 4813SOL     OW25897   1.254   4.720   2.089 -0.1953  0.4818  0.3646
 4813SOL    HW125898   1.205   4.638   2.093  0.1926  0.1980 -0.6423
 4813SOL    HW225899   1.212   0.052   2.154 -1.1529 -2.1142  2.0196
 4814SOL     OW25900   4.496   0.841   3.630  0.3926  0.2031 -0.3061
 4814SOL    HW125901   4.468   0.925   3.668  0.8615  0.3170 -0.2108
 4814SOL    HW225902   4.549   0.804   3.700  0.3104 -1.6404 -1.2133
 4815SOL     OW25903   3.043   0.296  14.074  0.2832  0.2638  0.5656
 4815SOL    HW125904   3.085   0.233  14.133 -1.7143 -0.8391  0.8082
 4815SOL    HW225905   2.999   0.243  14.007 -1.4751  1.5013  0.7523
 4816SOL     OW25906   1.123   3.974   0.775 -0.1116  0.0762  0.4103
 4816SOL    HW125907   1.045   3.951   0.825  0.3395  2.7203  2.3312
 4816SOL    HW225908   1.123   4.068   0.790 -1.7175  0.3974 -1.6359
 4817SOL     OW25909   0.326   3.192   4.294 -0.0975  0.5970  0.1579
 4817SOL    HW125910   0.323   3.148   4.209  3.3217 -1.4243  1.0681
 4817SOL    HW225911   0.420   3.194   4.315  0.2683 -3.3401 -1.1518
 4818SOL     OW25912   2.974   4.269   5.078 -0.4900  0.1711  0.0114
 4818SOL    HW125913   2.930   4.349   5.107 -1.6687  0.1550 -1.6611
 4818SOL    HW225914   3.036   4.300   5.012  1.8274  2.0289  3.0737
 4819SOL     OW25915   3.599   0.162   3.228 -0.0466  0.6530  0.4529
 4819SOL    HW125916   3.557   0.243   3.257  0.6141  0.3246  2.2882
 4819SOL    HW225917   3.688   0.187   3.202  0.0237 -0.1462 -0.0609
 4820SOL     OW25918   3.028   4.635  13.323  0.5786  0.0037 -0.1736
 4820SOL    HW125919   3.013   4.566  13.387 -1.1526  1.2483  0.7444
 4820SOL    HW225920   3.094   4.596  13.266 -1.7471 -0.2310 -2.7135
 4821SOL     OW25921   2.845   3.816   0.742  0.1396 -0.0607 -0.0726
 4821SOL    HW125922   2.777   3.762   0.702 -0.6540 -0.5335  1.9313
 4821SOL    HW225923   2.819   3.809   0.834 -1.0811  0.4742 -0.3774
 4822SOL     OW25924   0.615   4.465   0.354 -0.8279 -0.2489  0.0628
 4822SOL    HW125925   0.626   4.377   0.318 -1.2221  0.8977 -2.8967
 4822SOL    HW225926   0.556   4.499   0.287 -1.0018  1.1798  0.9482
 4823SOL     OW25927   2.787   3.811  14.120 -0.5928 -0.3769 -0.2012
 4823SOL    HW125928   2.854   3.780  14.181  0.7107  1.1695 -0.8430
 4823SOL    HW225929   2.759   3.897  14.152  2.2094 -0.4077  2.3342
 4824SOL     OW25930   4.352   3.033   3.318  0.2966  0.4390 -0.0911
 4824SOL    HW125931   4.384   3.100   3.258 -0.4948  0.9717  0.0805
 4824SOL    HW225932   4.289   2.991   3.259  1.6132 -2.7829  0.7907
 4825SOL     OW25933   3.962   0.197   3.696 -0.6804 -0.1321  0.0282
 4825SOL    HW125934   3.872   0.210   3.665  0.0415 -0.7996 -2.3449
 4825SOL    HW225935   3.959   0.101   3.700 -1.5604 -0.0635  1.0387
 4826SOL     OW25936   3.398   4.053   8.179  0.1526  0.7987  0.1409
 4826SOL    HW125937   3.471   4.038   8.238  0.9821  1.7058 -0.6482
 4826SOL    HW225938   3.330   3.988   8.198 -1.4072  1.8095 -1.8609
 4827SOL     OW25939   0.845   0.425   3.264  0.5657 -0.0834  0.1988
 4827SOL    HW125940   0.916   0.362   3.271  0.0463 -0.4309  2.3063
 4827SOL    HW225941   0.793   0.386   3.193  0.3399  0.1463  0.2358
 4828SOL     OW25942   3.832   4.051   1.358 -0.1738  0.1898 -0.3670
 4828SOL    HW125943   3.920   4.080   1.383  0.2632 -0.1652 -1.4796
 4828SOL    HW225944   3.826   4.085   1.268  1.6595  1.4380 -0.0125
 4829SOL     OW25945   3.127   3.247   7.221  0.6009 -0.3319  0.1182
 4829SOL    HW125946   3.100   3.158   7.201 -1.3674  0.5717 -1.2564
 4829SOL    HW225947   3.049   3.270   7.271  0.4976 -2.3800  0.8982
 4830SOL     OW25948   2.075   4.137   5.401  0.0240 -0.4795  0.5764
 4830SOL    HW125949   2.090   4.119   5.494  2.5877  3.3548  0.8874
 4830SOL    HW225950   2.163   4.169   5.380 -0.3890  0.5127  0.3729
 4831SOL     OW25951   0.947   3.295  13.457  0.3357 -0.2386 -0.1096
 4831SOL    HW125952   0.973   3.363  13.395  0.7049  2.2654  2.8128
 4831SOL    HW225953   0.942   3.213  13.408 -0.6240  0.8416 -1.7860
 4832SOL     OW25954   2.395   2.754  12.311  0.3185  0.1272 -0.4792
 4832SOL    HW125955   2.383   2.816  12.382 -1.0416 -0.4726 -0.1774
 4832SOL    HW225956   2.448   2.683  12.349 -1.0110  1.4095  3.7908
 4833SOL     OW25957   3.550   0.837   3.466  0.0736 -0.6154  0.2393
 4833SOL    HW125958   3.624   0.860   3.409  1.0596 -0.7391  1.4866
 4833SOL    HW225959   3.471   0.838   3.411 -0.9281  1.9385  1.7443
 4834SOL     OW25960   3.969   3.510  11.631  0.0054  0.7296 -0.1423
 4834SOL    HW125961   4.002   3.586  11.584 -0.5026  2.5577  2.4261
 4834SOL    HW225962   3.876   3.519  11.613 -0.1986  1.4714  1.2260
 4835SOL     OW25963   0.779   2.642   2.422  0.3097  0.1389  0.5908
 4835SOL    HW125964   0.785   2.632   2.517  2.6070 -3.0674  0.1164
 4835SOL    HW225965   0.716   2.713   2.412 -3.4210 -3.3886 -1.3317
 4836SOL     OW25966   3.354   2.038   6.579  0.3427 -0.0336  0.3079
 4836SOL    HW125967   3.276   1.984   6.567 -1.7730  3.0227  0.4176
 4836SOL    HW225968   3.347   2.077   6.666  0.8724  1.6684 -0.4049
 4837SOL     OW25969   0.807   1.062  12.512 -0.4427  0.2654  0.3775
 4837SOL    HW125970   0.849   0.975  12.509  0.5716  0.6868  1.9161
 4837SOL    HW225971   0.866   1.112  12.456  1.6839 -3.6971 -0.9216
 4838SOL     OW25972   0.266   2.605   5.729  0.6814 -0.2957 -0.1188
 4838SOL    HW125973   0.359   2.581   5.729  0.4548 -1.1903  1.6558
 4838SOL    HW225974   0.271   2.669   5.658  1.7799  0.0145  0.2232
 4839SOL     OW25975   1.060   0.333  10.329  0.4144  0.2519  0.1421
 4839SOL    HW125976   1.064   0.411  10.384  1.4656 -1.7280  2.8719
 4839SOL    HW225977   1.005   0.273  10.380 -1.4772  1.5033 -0.4268
 4840SOL     OW25978   0.966   4.249   6.364  0.2738  0.3775  0.0429
 4840SOL    HW125979   0.958   4.269   6.457 -0.0476  0.4102  0.0107
 4840SOL    HW225980   1.052   4.283   6.338 -0.3552  0.9638 -1.3204
 4841SOL     OW25981   0.903   1.101   2.931 -0.3808 -0.2188 -0.3729
 4841SOL    HW125982   0.866   1.135   3.012  2.9867 -2.6373  2.1804
 4841SOL    HW225983   0.899   1.007   2.949  0.2834 -0.5454 -1.9261
 4842SOL     OW25984   0.550   0.508  14.137  0.3879  0.3488  0.0763
 4842SOL    HW125985   0.540   0.475  14.227  0.0886 -3.3936 -1.3202
 4842SOL    HW225986   0.606   0.584  14.150 -0.2867  0.4978  2.1538
 4843SOL     OW25987   4.010   1.390  12.656 -0.2148 -0.3796  0.0863
 4843SOL    HW125988   4.007   1.380  12.561 -1.6995  0.3141  0.0627
 4843SOL    HW225989   4.103   1.398  12.678 -0.0993 -0.0554 -0.5132
 4844SOL     OW25990   0.090   4.634   2.350  0.1047 -0.3353  0.0601
 4844SOL    HW125991   0.048   4.548   2.346  1.0662 -0.7082 -1.8439
 4844SOL    HW225992   0.013   4.692   2.352  1.3434  1.3400 -0.7414
 4845SOL     OW25993   4.698   2.888  10.130 -0.7608  0.1108 -0.5947
 4845SOL    HW125994   0.011   2.907  10.216 -3.0553  0.8450  0.2177
 4845SOL    HW225995   4.645   2.814  10.159 -0.6000 -0.2764 -1.2778
 4846SOL     OW25996   0.539   0.458   6.318  0.1886  0.2117 -0.1771
 4846SOL    HW125997   0.552   0.385   6.379 -0.1015 -0.2694 -0.6937
 4846SOL    HW225998   0.629   0.481   6.298 -0.0334  2.0360  0.8701
 4847SOL     OW25999   1.447   0.616   5.673 -0.4343 -0.6343  0.1200
 4847SOL    HW126000   1.496   0.545   5.714  1.1102 -0.1913 -0.9635
 4847SOL    HW226001   1.510   0.663   5.619 -0.0433 -2.4022 -0.9525
 4848SOL     OW26002   0.871   1.112   8.203 -0.1029 -0.7793 -0.0112
 4848SOL    HW126003   0.797   1.067   8.242 -1.8557 -0.1410 -2.5486
 4848SOL    HW226004   0.944   1.080   8.256  0.4941 -0.8922 -0.9012
 4849SOL     OW26005   3.588   2.175   6.200 -0.4305  0.2907  0.2577
 4849SOL    HW126006   3.604   2.195   6.108 -1.9321  0.4496  0.0228
 4849SOL    HW226007   3.651   2.236   6.239 -2.0895  1.4953  1.0860
 4850SOL     OW26008   1.085   0.952   7.149 -0.6678 -0.1432  0.8918
 4850SOL    HW126009   1.072   0.981   7.240  1.0441  2.9022  0.1902
 4850SOL    HW226010   1.036   0.870   7.153 -0.5691 -0.2764 -0.7338
 4851SOL     OW26011   2.940   1.060   7.260 -0.5382  0.4505 -0.1757
 4851SOL    HW126012   2.994   1.094   7.331  3.1976 -2.0395 -1.8485
 4851SOL    HW226013   2.889   0.999   7.312  2.1511 -1.4523  0.2135
 4852SOL     OW26014   4.491   1.589   8.223  0.6095  0.0732  0.3831
 4852SOL    HW126015   4.554   1.519   8.207  4.0283  3.0173  0.8912
 4852SOL    HW226016   4.473   1.581   8.316 -1.0381 -1.7524 -0.1119
 4853SOL     OW26017   0.758   1.116   7.918  0.1294  0.1276  0.1797
 4853SOL    HW126018   0.844   1.077   7.930  0.2035  0.0286 -0.6613
 4853SOL    HW226019   0.750   1.149   8.008  0.0697  0.9700 -0.1361
 4854SOL     OW26020   3.651   2.609   6.970 -0.8731 -0.0360 -0.3680
 4854SOL    HW126021   3.596   2.679   6.935  0.5837  0.4771 -1.6467
 4854SOL    HW226022   3.705   2.660   7.029  1.7190  0.0171 -2.8012
 4855SOL     OW26023   3.130   1.979  14.476 -0.7089  0.2758 -0.1438
 4855SOL    HW126024   3.124   1.919  14.402  1.4331 -0.5842  0.3764
 4855SOL    HW226025   3.049   2.031  14.477 -0.8923 -0.0009 -0.7584
 4856SOL     OW26026   4.371   3.488   0.971 -0.1928 -0.1939 -0.3772
 4856SOL    HW126027   4.291   3.437   0.959 -1.2343  1.4012 -0.2931
 4856SOL    HW226028   4.347   3.537   1.050  0.0623  0.4322 -0.6894
 4857SOL     OW26029   3.508   4.520   8.022  0.5518  0.5250  0.6341
 4857SOL    HW126030   3.541   4.601   7.982 -2.4325  1.4621  0.1046
 4857SOL    HW226031   3.574   4.502   8.089  0.1915  1.0986  1.1443
 4858SOL     OW26032   3.434   0.784   4.120 -0.2957  0.0797 -0.3228
 4858SOL    HW126033   3.374   0.721   4.079 -0.5758 -0.4591  0.9106
 4858SOL    HW226034   3.466   0.727   4.190 -0.1795 -0.9335 -1.2052
 4859SOL     OW26035   4.003   1.423   1.853  0.1092  0.2980  0.6960
 4859SOL    HW126036   3.998   1.503   1.800 -1.3999  0.1916  0.7020
 4859SOL    HW226037   4.063   1.446   1.924  0.9408  0.6583 -0.1247
 4860SOL     OW26038   2.009   4.343   2.659 -0.1739 -0.2005 -0.1514
 4860SOL    HW126039   2.082   4.392   2.696 -0.3044  2.1109 -2.9726
 4860SOL    HW226040   2.033   4.345   2.567 -0.0004  0.6436 -0.0799
 4861SOL     OW26041   2.765   1.698   1.776  0.2590 -0.1759  0.6247
 4861SOL    HW126042   2.806   1.616   1.801 -1.7195 -1.0906  0.8751
 4861SOL    HW226043   2.791   1.765   1.840 -0.7538 -0.5252  1.3904
 4862SOL     OW26044   4.515   1.937  12.033  0.2174  0.4367  0.1519
 4862SOL    HW126045   4.602   1.897  12.040  0.6786  1.0381 -2.0714
 4862SOL    HW226046   4.524   2.002  11.963 -1.8357 -0.0012 -0.5130
 4863SOL     OW26047   1.849   2.767  16.572 -0.1528  0.0752 -0.1505
 4863SOL    HW126048   1.878   2.853  16.539 -0.7828 -0.3923 -1.8905
 4863SOL    HW226049   1.926   2.733  16.618 -0.5453 -2.2490 -1.2448
 4864SOL     OW26050   3.587   2.069   2.502  0.2399 -0.4422 -0.0252
 4864SOL    HW126051   3.571   2.000   2.438 -1.6912  0.2644 -0.3221
 4864SOL    HW226052   3.654   2.121   2.458 -0.1895 -1.3881 -1.7993
 4865SOL     OW26053   4.164   4.239   7.527  0.2577  0.2473  0.1833
 4865SOL    HW126054   4.225   4.165   7.536 -1.8479 -1.2844  1.6816
 4865SOL    HW226055   4.137   4.238   7.436 -0.3629  1.4229  0.3631
 4866SOL     OW26056   1.332   0.970   4.889 -0.0349 -0.4733 -0.8169
 4866SOL    HW126057   1.383   0.956   4.809  1.2638  1.0533 -0.2500
 4866SOL    HW226058   1.399   1.031   4.921  0.1968 -0.5269 -1.2094
 4867SOL     OW26059   4.096   3.181  11.156  0.0758  0.4033 -0.6053
 4867SOL    HW126060   4.057   3.266  11.178  0.5578  0.0389  1.6688
 4867SOL    HW226061   4.111   3.189  11.062 -0.3562 -0.2231 -0.7280
 4868SOL     OW26062   1.417   0.799   4.233 -0.0173  0.1954  0.4837
 4868SOL    HW126063   1.375   0.856   4.297 -1.2555  1.3834 -1.4120
 4868SOL    HW226064   1.373   0.816   4.150  2.9760 -0.5133 -1.2850
 4869SOL     OW26065   2.388   1.086  16.729  0.5392  0.0404  0.4183
 4869SOL    HW126066   2.436   1.140  16.791  0.1424  0.8791  0.0072
 4869SOL    HW226067   2.365   1.007  16.777  0.7917  0.1549  0.7317
 4870SOL     OW26068   1.649   1.286   4.428 -0.3589  0.5322 -0.2629
 4870SOL    HW126069   1.674   1.208   4.476 -1.6906 -0.2799 -0.8758
 4870SOL    HW226070   1.568   1.293   4.478  1.1913 -1.0371  2.4290
 4871SOL     OW26071   1.724   1.130   2.957  0.5097 -0.5485  0.0106
 4871SOL    HW126072   1.647   1.176   2.992  0.2542  0.2414 -1.5984
 4871SOL    HW226073   1.689   1.041   2.952 -1.3049  0.1537  0.1852
 4872SOL     OW26074   1.517   2.901   8.087  0.5963 -0.0842 -0.2545
 4872SOL    HW126075   1.423   2.911   8.103  0.7548 -1.3662  1.4483
 4872SOL    HW226076   1.558   2.925   8.170 -1.6154  0.4886  0.6711
 4873SOL     OW26077   2.346   0.903   0.073 -0.2599 -0.3216  0.0271
 4873SOL    HW126078   2.430   0.941   0.099 -0.5089 -2.0113  3.2646
 4873SOL    HW226079   2.337   0.942  17.684  1.5428  0.5611  0.2444
 4874SOL     OW26080   1.247   1.647   0.605  0.1768 -0.3334 -0.1077
 4874SOL    HW126081   1.309   1.622   0.674  1.3457 -0.4722 -1.2197
 4874SOL    HW226082   1.172   1.596   0.634  0.0429 -0.1411 -0.1182
 4875SOL     OW26083   1.851   2.094  12.034 -0.3938 -0.0983  0.3421
 4875SOL    HW126084   1.874   2.131  12.119  0.7602 -1.2493  0.5325
 4875SOL    HW226085   1.762   2.129  12.024 -0.2043  0.5927  1.0928
 4876SOL     OW26086   2.883   3.892   1.707 -0.6781  0.2079 -0.1078
 4876SOL    HW126087   2.846   3.805   1.695  0.6542 -0.2069 -1.1631
 4876SOL    HW226088   2.953   3.884   1.643 -1.2333 -0.6614 -0.6115
 4877SOL     OW26089   2.637   1.772   9.043  0.0403  0.4648 -0.2105
 4877SOL    HW126090   2.588   1.821   8.976 -2.9636  1.6001  2.8166
 4877SOL    HW226091   2.725   1.767   9.005 -0.3178  0.0670 -0.9897
 4878SOL     OW26092   4.205   4.556   0.745  0.0564 -0.7720 -0.9557
 4878SOL    HW126093   4.120   4.516   0.725 -2.4450  4.4092 -0.5849
 4878SOL    HW226094   4.228   4.579   0.655  0.2186  1.1801 -0.4201
 4879SOL     OW26095   0.590   4.572   2.443 -0.1571 -0.4276 -0.2136
 4879SOL    HW126096   0.676   4.530   2.438  1.2892  2.5089 -0.0516
 4879SOL    HW226097   0.542   4.506   2.493  1.4007 -0.6272  1.0341
 4880SOL     OW26098   4.290   0.757  14.544  0.0170 -0.5915  0.2848
 4880SOL    HW126099   4.326   0.735  14.630  1.9716  0.1765 -0.3470
 4880SOL    HW226100   4.372   0.775  14.500 -0.6601  0.3792 -0.5701
 4881SOL     OW26101   3.870   4.596   4.624  0.2101 -0.1508  0.0020
 4881SOL    HW126102   3.960   4.584   4.593 -0.1361  0.0224 -1.0676
 4881SOL    HW226103   3.880   4.670   4.683 -0.4882 -0.7838  0.9050
 4882SOL     OW26104   4.199   4.095   8.104  0.0207  0.4026 -0.6761
 4882SOL    HW126105   4.106   4.100   8.081 -0.5057  0.2125  1.3585
 4882SOL    HW226106   4.224   4.013   8.061  0.0830 -0.5935  1.2319
 4883SOL     OW26107   1.162   3.411   1.597 -0.7752 -0.0204 -0.8489
 4883SOL    HW126108   1.193   3.329   1.559  0.1970 -0.8474  1.6787
 4883SOL    HW226109   1.189   3.399   1.688 -0.1852  4.5885 -0.4311
 4884SOL     OW26110   4.596   4.302   9.913 -0.2517  0.7072 -0.2204
 4884SOL    HW126111   4.658   4.267   9.848 -1.5468 -1.4643 -0.2851
 4884SOL    HW226112   4.538   4.347   9.851  0.1955 -0.5322 -1.5319
 4885SOL     OW26113   2.914   3.132   7.734 -0.2305  0.0989  0.1473
 4885SOL    HW126114   3.004   3.142   7.700  1.0175 -0.3827  3.3343
 4885SOL    HW226115   2.925   3.066   7.802  0.7809 -0.8321 -0.9233
 4886SOL     OW26116   2.325   3.453   6.411  0.2256  0.1276 -0.2320
 4886SOL    HW126117   2.397   3.394   6.389  0.2503 -1.0387  2.8788
 4886SOL    HW226118   2.314   3.434   6.505 -3.5766  0.2260 -0.6982
 4887SOL     OW26119   2.752   3.358   0.055 -0.6539  0.2849  0.2565
 4887SOL    HW126120   2.781   3.353   0.146 -1.3367 -2.0304  0.3277
 4887SOL    HW226121   2.814   3.423   0.021 -0.7196  0.6917  0.9071
 4888SOL     OW26122   4.397   3.968   6.808  0.3937 -0.4496 -0.0929
 4888SOL    HW126123   4.432   3.930   6.728  0.8667 -1.0530  0.4060
 4888SOL    HW226124   4.348   3.890   6.833 -0.6587  0.3605  0.3970
 4889SOL     OW26125   3.573   4.469  16.938  0.2852  0.1526 -0.8967
 4889SOL    HW126126   3.579   4.422  16.855 -1.4858  0.7619 -1.3651
 4889SOL    HW226127   3.662   4.464  16.972 -0.9240 -1.4669  2.0060
 4890SOL     OW26128   0.481   0.424   1.722 -0.3053  0.9289 -0.3407
 4890SOL    HW126129   0.570   0.453   1.740 -0.1408  1.2489 -1.6321
 4890SOL    HW226130   0.471   0.363   1.795 -0.9075 -1.7911 -2.6497
 4891SOL     OW26131   4.401   4.719   3.000  0.1212 -0.0590 -0.2456
 4891SOL    HW126132   4.343   4.666   3.055  0.5993  1.8476  2.1402
 4891SOL    HW226133   4.363   0.007   2.913 -1.3311  3.6994  0.8795
 4892SOL     OW26134   0.879   1.051   3.757  0.3723 -0.1786  0.5766
 4892SOL    HW126135   0.937   1.083   3.688 -1.9301 -0.8103 -1.6614
 4892SOL    HW226136   0.934   1.056   3.836 -0.2418 -0.7199  1.0381
 4893SOL     OW26137   4.468   3.465   4.214 -0.1585 -0.3481 -0.3059
 4893SOL    HW126138   4.445   3.508   4.296 -0.7604  1.3176 -1.3450
 4893SOL    HW226139   4.385   3.469   4.167 -0.5541  1.9258  0.5904
 4894SOL     OW26140   4.203   0.336   6.210  0.1683 -0.2082 -0.1506
 4894SOL    HW126141   4.249   0.333   6.126  1.9280  0.8745  0.7817
 4894SOL    HW226142   4.111   0.331   6.186  0.3207 -0.8030 -0.6128
 4895SOL     OW26143   1.979   2.815   3.577 -0.3213 -0.4380  0.0951
 4895SOL    HW126144   1.965   2.905   3.606  1.0053 -0.1502 -0.1841
 4895SOL    HW226145   2.071   2.812   3.552 -0.2012  0.0324  0.4758
 4896SOL     OW26146   1.862   0.906   1.116  0.7701  0.5710  0.4557
 4896SOL    HW126147   1.957   0.900   1.131  1.0090 -2.1263 -2.0701
 4896SOL    HW226148   1.829   0.818   1.135 -0.2773 -0.0665 -4.2985
 4897SOL     OW26149   2.631   3.382  16.516 -0.1891  0.0893 -0.0905
 4897SOL    HW126150   2.709   3.435  16.533  0.3127 -0.5832 -0.2836
 4897SOL    HW226151   2.607   3.349  16.602  2.7491 -1.6719  0.0526
 4898SOL     OW26152   3.080   2.908   8.308 -0.2118  0.4970  0.0463
 4898SOL    HW126153   3.173   2.923   8.289  0.1205 -1.8486 -0.1331
 4898SOL    HW226154   3.051   2.905   8.217 -1.0816  2.1376  0.2654
 4899SOL     OW26155   1.859   0.171  11.314 -0.2521  0.3656  0.0118
 4899SOL    HW126156   1.777   0.220  11.312  0.7745  2.1488  1.5991
 4899SOL    HW226157   1.827   0.106  11.377  3.4205 -1.6966 -0.2549
 4900SOL     OW26158   3.927   2.689   9.404 -0.3235 -0.2876  0.3232
 4900SOL    HW126159   3.939   2.670   9.497 -0.8706  0.4446  0.5432
 4900SOL    HW226160   3.891   2.777   9.413  0.9878  0.1282  1.4470
 4901SOL     OW26161   0.115   1.100   2.308  0.3765  0.1615 -0.2837
 4901SOL    HW126162   0.194   1.133   2.265  0.5860 -1.2487 -0.9831
 4901SOL    HW226163   0.052   1.144   2.250  0.6092  1.8148  0.7011
 4902SOL     OW26164   1.319   3.445   8.577  0.0869 -0.2387  0.1839
 4902SOL    HW126165   1.253   3.480   8.637  1.2748 -0.5649  1.6458
 4902SOL    HW226166   1.305   3.351   8.570 -0.0157 -0.1620 -0.7801
 4903SOL     OW26167   4.559   0.957   8.436 -0.0900  0.3805  0.2411
 4903SOL    HW126168   4.541   1.031   8.494 -1.4520  1.1539 -1.1509
 4903SOL    HW226169   4.508   0.971   8.356  0.8227  0.4954 -0.3182
 4904SOL     OW26170   1.309   0.761  13.722 -0.5585  0.4527 -0.1400
 4904SOL    HW126171   1.242   0.817  13.683 -1.7527 -0.0527  1.2044
 4904SOL    HW226172   1.394   0.793  13.689 -0.0280 -0.3964  0.4141
 4905SOL     OW26173   0.500   3.269   8.384 -0.1312  0.2727 -0.3186
 4905SOL    HW126174   0.415   3.241   8.350 -0.2101 -0.3721  0.4095
 4905SOL    HW226175   0.541   3.320   8.315  0.1960  0.4198 -0.0170
 4906SOL     OW26176   2.277   2.047  11.519  0.0960  0.2030  0.0664
 4906SOL    HW126177   2.313   2.136  11.518  0.8534 -0.1153 -0.3148
 4906SOL    HW226178   2.306   2.024  11.608  0.3480 -1.9174 -0.5774
 4907SOL     OW26179   2.102   0.114   6.609 -0.7176  0.2777 -0.0208
 4907SOL    HW126180   2.171   0.181   6.616  0.7596 -1.3332  0.7261
 4907SOL    HW226181   2.071   0.138   6.522  1.9562  1.6686 -0.5990
 4908SOL     OW26182   3.458   1.107   7.960 -0.4548  0.1457 -0.0585
 4908SOL    HW126183   3.450   1.046   7.886 -1.0286  1.8686 -1.4029
 4908SOL    HW226184   3.538   1.151   7.931  0.6328 -3.1780 -2.0945
 4909SOL     OW26185   3.850   4.090   6.923 -0.1397  0.4234  0.2491
 4909SOL    HW126186   3.836   4.148   6.998  0.6825  1.4141 -0.3673
 4909SOL    HW226187   3.914   4.146   6.879  0.1916 -0.9186 -0.9507
 4910SOL     OW26188   3.577   1.160  12.256  0.1033 -0.3156  0.0651
 4910SOL    HW126189   3.544   1.107  12.329 -1.0860  2.1710  1.3563
 4910SOL    HW226190   3.507   1.164  12.190 -0.0840  0.7206  0.3259
 4911SOL     OW26191   2.769   3.876   6.011 -0.0628  0.0618  0.2889
 4911SOL    HW126192   2.850   3.902   5.965 -1.1042  2.4718 -0.1716
 4911SOL    HW226193   2.698   3.902   5.952  1.8950  2.0902 -1.1737
 4912SOL     OW26194   3.551   3.175   9.511  0.3562  0.3915 -0.4312
 4912SOL    HW126195   3.643   3.169   9.536  0.8780  0.9712 -2.2188
 4912SOL    HW226196   3.555   3.155   9.418  0.8680 -2.3326  0.1769
 4913SOL     OW26197   0.271   0.279   7.122 -0.3891 -0.2077 -0.1847
 4913SOL    HW126198   0.193   0.300   7.173  1.4371  2.8296  1.4190
 4913SOL    HW226199   0.294   0.365   7.085  0.0610  0.0571  0.6932
 4914SOL     OW26200   1.384   4.296   8.192 -0.1955  0.1398 -0.2424
 4914SOL    HW126201   1.452   4.332   8.249 -2.3892  2.7818  0.7285
 4914SOL    HW226202   1.320   4.363   8.215  0.0045  0.4186 -0.4797
 4915SOL     OW26203   3.581   1.732   5.696 -0.5155 -0.2389 -0.0932
 4915SOL    HW126204   3.565   1.683   5.615 -0.5521 -1.0799  0.4233
 4915SOL    HW226205   3.659   1.688   5.730 -1.9624 -2.0300  0.8593
 4916SOL     OW26206   2.733   0.965   4.278 -0.2914  0.4057 -0.9225
 4916SOL    HW126207   2.690   1.044   4.311  0.7203  0.2666  0.6934
 4916SOL    HW226208   2.818   0.961   4.323 -1.1990 -1.4378  0.5986
 4917SOL     OW26209   1.867   4.218  10.693  0.2008 -0.3230  0.2422
 4917SOL    HW126210   1.843   4.136  10.648 -0.1085  0.3692 -0.8706
 4917SOL    HW226211   1.796   4.271  10.656  2.4484  1.9692 -0.7381
 4918SOL     OW26212   3.290   4.184   6.287  0.1076 -0.4698 -0.3065
 4918SOL    HW126213   3.342   4.257   6.320 -3.4726  0.5390  3.1037
 4918SOL    HW226214   3.285   4.135   6.370  2.2944  0.3956  0.3452
 4919SOL     OW26215   1.179   3.587   4.509 -0.2182  0.5606 -0.0211
 4919SOL    HW126216   1.192   3.506   4.558 -1.5350  0.9647  0.9761
 4919SOL    HW226217   1.138   3.549   4.431 -0.1013  0.3516  0.0193
 4920SOL     OW26218   4.566   2.188  11.381  0.0762  0.8097  0.1094
 4920SOL    HW126219   4.521   2.146  11.454  0.1055  0.1082 -0.2844
 4920SOL    HW226220   4.594   2.114  11.328 -2.6357 -1.6419  2.1580
 4921SOL     OW26221   0.464   2.701   8.933 -0.1942 -0.0986 -0.1019
 4921SOL    HW126222   0.499   2.696   9.022  0.4489  0.6302 -0.3173
 4921SOL    HW226223   0.396   2.633   8.938 -1.2576  0.7820 -2.4744
 4922SOL     OW26224   3.903   4.379   2.141 -0.2360 -0.0684 -0.0146
 4922SOL    HW126225   3.893   4.292   2.102 -0.2935  0.4300 -1.1366
 4922SOL    HW226226   3.853   4.442   2.089 -0.5667 -1.4681 -1.3874
 4923SOL     OW26227   0.643   0.427   8.099  0.0590 -0.4086  0.4462
 4923SOL    HW126228   0.606   0.357   8.152 -0.0787 -0.6297  0.0606
 4923SOL    HW226229   0.688   0.377   8.030  0.5666  1.1081 -0.3198
 4924SOL     OW26230   0.946   2.416   5.961  0.3177 -0.1116  0.2165
 4924SOL    HW126231   0.883   2.403   5.889 -0.1635  1.6862  0.3023
 4924SOL    HW226232   1.022   2.366   5.930 -0.9646 -0.4814 -2.3767
 4925SOL     OW26233   2.089   3.568   5.448 -0.7018  0.9140 -0.4596
 4925SOL    HW126234   2.122   3.657   5.437 -1.8004  1.1833 -1.5877
 4925SOL    HW226235   2.012   3.580   5.503 -1.0587 -1.1696 -0.4793
 4926SOL     OW26236   3.215   4.298   1.041  0.3470 -0.5231  0.3061
 4926SOL    HW126237   3.194   4.247   0.963 -0.6986  2.2339 -1.2216
 4926SOL    HW226238   3.289   4.242   1.065  1.2328  1.1618  1.4386
 4927SOL     OW26239   4.134   4.448   7.116 -0.1054 -0.5529  0.1951
 4927SOL    HW126240   4.077   4.451   7.193  0.7437  1.0332  0.7754
 4927SOL    HW226241   4.184   4.372   7.146 -0.1522 -0.2383  1.0913
 4928SOL     OW26242   2.417   1.923   0.166 -0.0079  0.2929 -0.2194
 4928SOL    HW126243   2.347   1.934   0.230  2.6257 -0.7739  2.8665
 4928SOL    HW226244   2.459   2.008   0.152 -0.7995  0.7029 -0.1278
 4929SOL     OW26245   2.238   4.690   3.691 -0.0614 -0.6513 -0.4604
 4929SOL    HW126246   2.230   4.626   3.762  1.1333  1.0811  1.2359
 4929SOL    HW226247   2.194   4.647   3.617 -4.2786  1.2196  0.9681
 4930SOL     OW26248   2.180   4.290  14.556 -0.7861  0.3038  0.2512
 4930SOL    HW126249   2.271   4.287  14.526 -1.8414 -2.6313 -2.7212
 4930SOL    HW226250   2.129   4.318  14.480 -1.0295  1.8607  1.0023
 4931SOL     OW26251   3.239   3.082  14.471 -0.2420 -0.5456  0.3396
 4931SOL    HW126252   3.318   3.099  14.521 -0.2651  0.6533 -0.0318
 4931SOL    HW226253   3.285   3.055  14.391 -0.6951  2.0441 -0.8036
 4932SOL     OW26254   4.335   1.984   6.238  0.4339 -0.4359  0.1018
 4932SOL    HW126255   4.392   1.962   6.164  0.4276  0.4125 -0.1557
 4932SOL    HW226256   4.387   2.023   6.308 -1.9819 -1.2995  2.3649
 4933SOL     OW26257   3.078   0.602  10.614 -0.1058  0.2341 -0.3195
 4933SOL    HW126258   3.106   0.545  10.686 -1.2111 -1.7204 -1.4187
 4933SOL    HW226259   3.107   0.685  10.650 -2.0796  0.1633  1.4378
 4934SOL     OW26260   2.962   1.890   4.939  0.0383 -0.0615 -0.3396
 4934SOL    HW126261   2.888   1.939   4.973 -1.0864 -0.2135 -2.5511
 4934SOL    HW226262   2.918   1.828   4.881  1.4060 -1.9427  0.6378
 4935SOL     OW26263   0.246   1.925  12.164  0.6677  0.0381  0.2841
 4935SOL    HW126264   0.325   1.890  12.125  0.5834  0.2503 -0.0736
 4935SOL    HW226265   0.274   1.916  12.255 -1.2597  1.5835  1.0526
 4936SOL     OW26266   3.045   1.648  13.018  0.1506  0.4663  0.0920
 4936SOL    HW126267   2.966   1.594  13.029 -1.0494  1.5875 -2.9550
 4936SOL    HW226268   3.017   1.738  13.035 -0.2306  0.3698 -0.0180
 4937SOL     OW26269   0.747   2.412   3.776  0.3303  0.2341  0.4940
 4937SOL    HW126270   0.695   2.391   3.698  2.9555 -1.5098 -0.7811
 4937SOL    HW226271   0.812   2.469   3.735  1.3533 -1.0397  0.3835
 4938SOL     OW26272   3.008   2.194  15.365 -0.0033 -0.1992 -0.0861
 4938SOL    HW126273   3.016   2.289  15.359  0.3386 -0.1153  1.5833
 4938SOL    HW226274   2.962   2.173  15.284 -2.8853 -0.1846  1.5667
 4939SOL     OW26275   0.626   4.466  12.139  0.5818  0.0316 -0.1158
 4939SOL    HW126276   0.663   4.555  12.138  1.8953 -0.4832  4.5468
 4939SOL    HW226277   0.656   4.440  12.052 -0.2157  1.3617 -0.7901
 4940SOL     OW26278   1.896   2.314   5.625  0.0795 -0.1884  0.5274
 4940SOL    HW126279   1.981   2.351   5.648 -0.8821  1.4920  1.3323
 4940SOL    HW226280   1.916   2.220   5.629 -0.2696 -0.3583 -1.6848
 4941SOL     OW26281   4.678   3.870   5.282  0.9192 -0.0553 -0.1307
 4941SOL    HW126282   0.029   3.810   5.282  0.2331 -0.9227 -3.0136
 4941SOL    HW226283   4.607   3.823   5.325 -0.1174  0.1450 -1.5970
 4942SOL     OW26284   4.432   2.425   4.506 -0.1070 -0.8114 -0.4595
 4942SOL    HW126285   4.387   2.359   4.558 -1.2312 -0.1146 -0.5455
 4942SOL    HW226286   4.493   2.456   4.572  0.0823 -1.7993 -0.1704
 4943SOL     OW26287   4.627   1.916   6.193 -0.0529 -0.7516  0.2159
 4943SOL    HW126288   4.677   1.845   6.154 -0.8973 -1.0297 -0.3405
 4943SOL    HW226289   4.623   1.892   6.286  0.7519  0.6290  0.6158
 4944SOL     OW26290   0.735   4.102   2.482 -0.6430 -0.4280  0.3191
 4944SOL    HW126291   0.712   4.113   2.389 -0.5652  1.2069  0.5006
 4944SOL    HW226292   0.661   4.044   2.501  0.5056 -1.9637  0.0859
 4945SOL     OW26293   1.279   0.346  10.971 -0.2962 -0.1673  0.6298
 4945SOL    HW126294   1.312   0.279  10.911  0.4323  1.0774 -0.3526
 4945SOL    HW226295   1.327   0.422  10.939  1.1268 -0.9582  0.8807
 4946SOL     OW26296   3.471   0.438   2.959  0.4137 -0.3698  0.0171
 4946SOL    HW126297   3.515   0.353   2.952 -0.1579 -0.6168 -0.5551
 4946SOL    HW226298   3.446   0.466   2.871 -0.6786 -0.1295  0.4038
 4947SOL     OW26299   0.336   4.520   8.434  0.2239  0.1426  0.5272
 4947SOL    HW126300   0.387   4.472   8.500 -1.3169 -0.8551  0.9739
 4947SOL    HW226301   0.270   4.454   8.411 -0.6765  1.2989 -0.1721
 4948SOL     OW26302   2.165   4.343   3.882  0.5225 -0.2388 -0.6912
 4948SOL    HW126303   2.113   4.400   3.825  0.0115 -0.4040 -0.3849
 4948SOL    HW226304   2.113   4.267   3.906  0.9223 -0.5766 -0.8938
 4949SOL     OW26305   0.675   2.486  13.566  0.2703 -0.3332 -0.3494
 4949SOL    HW126306   0.671   2.499  13.660  1.3302  0.6825 -0.4360
 4949SOL    HW226307   0.639   2.398  13.555  1.1327 -0.2898 -3.7470
 4950SOL     OW26308   3.540   4.014   8.651  0.1337 -0.3157 -0.2936
 4950SOL    HW126309   3.560   3.936   8.702  0.3066 -1.1039 -1.5549
 4950SOL    HW226310   3.597   4.068   8.705  0.3021 -0.8185  0.0313
 4951SOL     OW26311   0.239   2.997  11.730 -0.5833  0.2507  0.1465
 4951SOL    HW126312   0.149   2.983  11.702  0.2590 -0.9994 -2.0098
 4951SOL    HW226313   0.228   3.008  11.825 -0.2165  0.3113  0.1852
 4952SOL     OW26314   2.016   3.440  17.357  0.1135  0.4830  0.7253
 4952SOL    HW126315   2.080   3.388  17.308 -1.3314  0.5889 -1.3006
 4952SOL    HW226316   2.051   3.430  17.445 -2.0163 -0.0618  1.4994
 4953SOL     OW26317   2.898   3.840  13.503 -0.5209  0.2524  0.3625
 4953SOL    HW126318   2.951   3.810  13.576 -1.3171 -1.2050  0.3517
 4953SOL    HW226319   2.844   3.913  13.533  0.9753  1.3412  0.4063
 4954SOL     OW26320   4.163   1.109  14.329 -0.1546 -0.2941  0.6886
 4954SOL    HW126321   4.190   1.165  14.256  0.4484 -0.6930  0.6034
 4954SOL    HW226322   4.245   1.107  14.379 -0.0105 -0.5720  0.4389
 4955SOL     OW26323   2.199   0.458   5.935 -0.3533  0.1892  0.4098
 4955SOL    HW126324   2.283   0.421   5.907 -0.9157  0.6942 -1.9941
 4955SOL    HW226325   2.167   0.516   5.866 -0.2137 -0.6585 -0.3663
 4956SOL     OW26326   0.458   4.383   4.842 -0.0536 -0.4434 -0.2258
 4956SOL    HW126327   0.543   4.420   4.816 -0.2733 -0.8147 -1.4878
 4956SOL    HW226328   0.425   4.468   4.873  1.9660 -0.6995  2.6390
 4957SOL     OW26329   1.504   3.891   2.975 -0.3717  0.6776 -0.5027
 4957SOL    HW126330   1.544   3.962   2.926 -1.5809  0.0040 -2.4449
 4957SOL    HW226331   1.507   3.927   3.064 -1.8088  1.4446 -0.7718
 4958SOL     OW26332   3.550   1.205  13.452 -0.1187  0.3989  0.1897
 4958SOL    HW126333   3.525   1.133  13.510 -2.2982  1.0424  0.0705
 4958SOL    HW226334   3.548   1.169  13.363  0.6861  1.8148 -0.4065
 4959SOL     OW26335   0.236   0.943  14.310  0.6886 -0.3583  0.4705
 4959SOL    HW126336   0.145   0.956  14.339  0.5669 -1.7818  0.7275
 4959SOL    HW226337   0.266   1.019  14.361 -2.8811  1.4517 -0.1059
 4960SOL     OW26338   2.517   0.246  17.270  0.0619  0.1080 -0.2622
 4960SOL    HW126339   2.601   0.245  17.315  1.2199  0.4490 -2.4608
 4960SOL    HW226340   2.529   0.159  17.231 -0.1700  0.2085 -0.5606
 4961SOL     OW26341   1.375   0.027  15.464 -0.3591  0.7448 -0.4766
 4961SOL    HW126342   1.291   0.010  15.507 -0.0908 -1.1257 -0.6659
 4961SOL    HW226343   1.429   4.673  15.481 -2.2180 -0.4731 -0.0910
 4962SOL     OW26344   3.442   2.002  16.099  0.0635  0.0110  0.0925
 4962SOL    HW126345   3.382   1.931  16.076  0.4859  0.4557 -2.3225
 4962SOL    HW226346   3.443   1.988  16.194 -0.4738 -1.0756 -0.0643
 4963SOL     OW26347   1.815   1.054   5.729 -0.0424  0.0161 -0.4012
 4963SOL    HW126348   1.720   1.042   5.733 -0.0607  0.8875  1.8669
 4963SOL    HW226349   1.855   0.967   5.726  0.9130  0.4195  0.6293
 4964SOL     OW26350   0.717   3.754   4.300  0.4204 -0.2674  0.1091
 4964SOL    HW126351   0.634   3.779   4.340  0.9287 -1.7919  2.1265
 4964SOL    HW226352   0.688   3.717   4.216  1.6989 -0.4265 -0.2598
 4965SOL     OW26353   4.380   0.663   2.276 -0.1323 -0.2292 -0.4984
 4965SOL    HW126354   4.347   0.710   2.199  1.9141  1.4875 -0.3293
 4965SOL    HW226355   4.473   0.683   2.268 -0.2238  0.6809  0.7055
 4966SOL     OW26356   4.283   4.259   8.314 -0.1459  0.6500 -0.1899
 4966SOL    HW126357   4.255   4.195   8.249  0.1618  1.0015 -0.6663
 4966SOL    HW226358   4.266   4.341   8.268 -0.4167 -0.3615 -1.8894
 4967SOL     OW26359   4.605   2.525   0.304 -0.3582  0.1111 -0.2392
 4967SOL    HW126360   4.567   2.559   0.384  1.7916  1.0284  0.4043
 4967SOL    HW226361   4.660   2.464   0.353 -2.0353 -0.4531  0.9263
 4968SOL     OW26362   2.568   0.739   4.384  0.8727 -0.4343  0.0965
 4968SOL    HW126363   2.637   0.793   4.344  0.4216  0.8498  1.0319
 4968SOL    HW226364   2.540   0.687   4.309 -0.3259  1.0019 -0.4585
 4969SOL     OW26365   4.315   1.102   5.383  0.3868  0.2159  0.0086
 4969SOL    HW126366   4.305   1.054   5.301  0.5765  1.4471 -0.7400
 4969SOL    HW226367   4.236   1.157   5.383 -0.7933 -1.4681  0.0001
 4970SOL     OW26368   0.086   0.184   6.332 -0.7036 -0.3070  0.0639
 4970SOL    HW126369   0.060   0.096   6.305  0.8764 -0.1254 -2.0550
 4970SOL    HW226370   0.151   0.224   6.274 -2.0789  2.0057  0.1325
 4971SOL     OW26371   0.691   3.357  17.046 -0.2058  0.0391  0.2234
 4971SOL    HW126372   0.648   3.281  17.005  0.5685 -0.3423  0.1267
 4971SOL    HW226373   0.637   3.382  17.120 -0.5677  0.8534 -0.3159
 4972SOL     OW26374   4.618   0.818   7.346 -0.3181 -0.5362 -0.2449
 4972SOL    HW126375   4.594   0.907   7.372  2.2429  0.9089 -2.7068
 4972SOL    HW226376   4.536   0.796   7.302  0.6348 -1.2066 -1.6790
 4973SOL     OW26377   1.269   1.667   5.305  0.1267 -0.1227  0.1640
 4973SOL    HW126378   1.298   1.611   5.232  2.4035  2.1784 -0.7130
 4973SOL    HW226379   1.343   1.647   5.362  1.6631  1.1977 -1.3680
 4974SOL     OW26380   0.956   4.121  12.150  0.2112 -0.5970  0.6138
 4974SOL    HW126381   0.869   4.160  12.146  0.5931  0.4621  2.5424
 4974SOL    HW226382   0.952   4.080  12.236  1.2930 -0.2983  0.8123
 4975SOL     OW26383   4.581   0.998  14.624  0.2898 -0.1904  0.1532
 4975SOL    HW126384   4.600   1.054  14.699 -0.8444  1.5906 -0.8815
 4975SOL    HW226385   4.542   0.922  14.669  0.0264  0.3324  0.8001
 4976SOL     OW26386   3.720   4.482   6.989 -0.0895  0.3841 -0.1449
 4976SOL    HW126387   3.781   4.534   6.937 -0.4792  2.2247  1.1984
 4976SOL    HW226388   3.669   4.445   6.917 -0.0611  0.0139  0.0279
 4977SOL     OW26389   2.498   3.653   2.707 -0.2530 -0.6382 -0.4883
 4977SOL    HW126390   2.584   3.611   2.710 -0.3226 -0.8092 -0.8841
 4977SOL    HW226391   2.466   3.629   2.793  0.6829 -0.9516 -0.2248
 4978SOL     OW26392   3.189   4.200  10.319  0.2288 -0.2270 -0.0148
 4978SOL    HW126393   3.124   4.131  10.329 -0.4903  0.0136 -3.1867
 4978SOL    HW226394   3.276   4.160  10.315 -0.5352 -2.0042  1.1374
 4979SOL     OW26395   1.093   3.684   1.587 -0.4326 -0.0567  0.2294
 4979SOL    HW126396   1.148   3.699   1.510 -1.3267 -2.1040 -0.8132
 4979SOL    HW226397   1.085   3.589   1.581  2.1584 -0.2758  0.1998
 4980SOL     OW26398   4.250   2.001   1.871 -0.1587 -0.3264  0.1446
 4980SOL    HW126399   4.304   1.922   1.865 -1.0469 -1.2460  4.1066
 4980SOL    HW226400   4.186   1.965   1.933  0.4195  0.3596  1.1448
 4981SOL     OW26401   0.087   1.612  11.027 -0.0316 -0.1050  0.2929
 4981SOL    HW126402   0.105   1.620  11.120  0.2847 -2.2181  0.3972
 4981SOL    HW226403   0.027   1.538  11.017  2.0880 -1.7096 -0.3990
 4982SOL     OW26404   0.852   3.938   0.570 -0.3010  0.0571 -0.1516
 4982SOL    HW126405   0.886   4.022   0.539 -2.2038  1.5429  1.8616
 4982SOL    HW226406   0.759   3.958   0.564 -0.3120  0.1944  0.5792
 4983SOL     OW26407   1.143   2.808   9.880 -0.7992  0.0214  0.1452
 4983SOL    HW126408   1.217   2.846   9.927 -2.2538  1.2781  1.4136
 4983SOL    HW226409   1.096   2.885   9.847  0.7916  1.0432  0.2794
 4984SOL     OW26410   1.555   2.775   1.544 -0.0341  0.4209 -0.0653
 4984SOL    HW126411   1.642   2.750   1.511 -0.6416  0.4380 -1.6773
 4984SOL    HW226412   1.548   2.727   1.626 -0.5557  0.7301  0.0675
 4985SOL     OW26413   3.173   2.112   6.036  0.0229 -0.0079 -0.2938
 4985SOL    HW126414   3.113   2.038   6.035 -1.0161  0.8263  0.4527
 4985SOL    HW226415   3.227   2.092   6.113  0.4958  1.1285 -0.3200
 4986SOL     OW26416   0.916   0.757   8.884 -0.1180  0.6803  0.2853
 4986SOL    HW126417   0.993   0.708   8.913 -1.7035 -2.0356 -0.1022
 4986SOL    HW226418   0.900   0.811   8.962  1.1256  1.2507  0.1495
 4987SOL     OW26419   3.582   3.371   6.206 -0.3294  0.6847 -0.2776
 4987SOL    HW126420   3.666   3.338   6.235 -0.6723 -0.3326 -0.4433
 4987SOL    HW226421   3.528   3.375   6.284  4.9171 -1.2250  3.4038
 4988SOL     OW26422   0.368   2.306   5.993  0.4017 -0.4011  0.3560
 4988SOL    HW126423   0.430   2.248   6.038 -0.8054 -2.9714 -1.2826
 4988SOL    HW226424   0.384   2.277   5.903  3.0499  1.5947  0.1913
 4989SOL     OW26425   3.666   4.141   7.984 -0.5768 -0.5682  0.5382
 4989SOL    HW126426   3.697   4.066   7.934 -0.0871  0.0218 -0.0308
 4989SOL    HW226427   3.600   4.093   8.035 -0.4739 -1.1000  0.1677
 4990SOL     OW26428   3.096   2.661   0.351  0.0754  0.4014 -0.0783
 4990SOL    HW126429   3.166   2.597   0.338 -3.0613 -3.0074 -0.3480
 4990SOL    HW226430   3.087   2.687   0.260  4.3106 -0.3874 -0.7093
 4991SOL     OW26431   1.821   0.061   2.909  0.3039  0.3819  0.1606
 4991SOL    HW126432   1.882   4.715   2.884 -0.9229 -0.5820 -0.1228
 4991SOL    HW226433   1.879   0.137   2.899  0.7209  0.2285  1.4615
 4992SOL     OW26434   0.964   0.044   7.173 -0.2732  0.3288  0.3196
 4992SOL    HW126435   0.991   0.050   7.264  2.0726  1.0987 -0.4190
 4992SOL    HW226436   0.908   4.690   7.178  0.2707 -0.1687 -1.2082
 4993SOL     OW26437   1.250   3.958   7.893 -0.9882  0.1479  0.0551
 4993SOL    HW126438   1.249   4.042   7.846  1.6313  0.8490  1.2365
 4993SOL    HW226439   1.252   3.993   7.982  1.6582  0.6394 -0.2007
 4994SOL     OW26440   2.749   0.856   2.972 -0.0577 -0.2486 -0.2485
 4994SOL    HW126441   2.714   0.944   2.960 -0.4243 -0.1791  1.2896
 4994SOL    HW226442   2.690   0.820   2.907 -0.6668  0.7674 -0.2550
 4995SOL     OW26443   4.349   2.544   7.294  0.0796  0.1033 -0.4435
 4995SOL    HW126444   4.425   2.487   7.305 -0.6688  0.0033  4.2247
 4995SOL    HW226445   4.297   2.540   7.374 -1.5737 -0.2467 -1.5323
 4996SOL     OW26446   0.562   2.814   6.258  0.0777 -0.6206  0.0230
 4996SOL    HW126447   0.494   2.824   6.324  0.8797 -1.6384  1.0272
 4996SOL    HW226448   0.570   2.719   6.266  1.5498 -0.4127  1.0116
 4997SOL     OW26449   0.170   0.344   8.201 -0.2216 -0.5364 -0.2615
 4997SOL    HW126450   0.192   0.307   8.116  0.8403  1.7990 -1.0049
 4997SOL    HW226451   0.254   0.333   8.244  0.4161 -0.3284 -1.4480
 4998SOL     OW26452   2.841   3.781   7.249 -0.8394  0.2869  0.1005
 4998SOL    HW126453   2.777   3.851   7.263 -1.0890  0.3288 -1.2516
 4998SOL    HW226454   2.890   3.779   7.331  0.4189 -0.4824 -0.6764
 4999SOL     OW26455   0.180   0.095   7.638 -0.2446  0.0650 -0.2391
 4999SOL    HW126456   0.098   0.112   7.684 -1.3445 -0.9834 -1.8008
 4999SOL    HW226457   0.226   0.046   7.706 -0.8241  0.2593  0.2941
 5000SOL     OW26458   3.105   2.806  13.342 -0.3820  0.4925  0.0742
 5000SOL    HW126459   3.148   2.789  13.426 -1.5888 -2.2632  0.1040
 5000SOL    HW226460   3.051   2.730  13.322 -2.0721  1.1786  1.9894
 5001SOL     OW26461   2.067   2.218   6.316  0.5948 -0.4980  0.2408
 5001SOL    HW126462   2.089   2.178   6.232  0.4924  3.4148 -1.6648
 5001SOL    HW226463   2.106   2.305   6.310 -0.7655 -0.0572 -2.3223
 5002SOL     OW26464   2.965   3.517  15.415  0.0537 -0.2484  0.2726
 5002SOL    HW126465   2.971   3.551  15.504  1.0005  4.9083 -1.7776
 5002SOL    HW226466   3.055   3.527  15.385  0.6089 -2.8743  1.0215
 5003SOL     OW26467   2.194   3.065   3.670  0.5584  0.1428  0.5694
 5003SOL    HW126468   2.267   3.127   3.669  0.0459  0.7415  1.1286
 5003SOL    HW226469   2.165   3.068   3.579 -4.6377  1.0148  2.3188
 5004SOL     OW26470   1.780   0.438   7.096  0.1998 -0.3611 -0.3074
 5004SOL    HW126471   1.790   0.343   7.092 -0.2863 -0.4590  0.8994
 5004SOL    HW226472   1.738   0.464   7.178 -0.4718  0.6562 -0.9692
 5005SOL     OW26473   2.163   1.634   5.407 -0.2631  0.5405  0.1485
 5005SOL    HW126474   2.126   1.546   5.411 -1.1044  0.8458 -0.8563
 5005SOL    HW226475   2.258   1.626   5.414 -0.5830 -1.2539  2.2456
 5006SOL     OW26476   1.804   0.627   5.597  0.2368 -0.4151 -0.3884
 5006SOL    HW126477   1.898   0.612   5.588  0.2264 -0.6347 -0.1264
 5006SOL    HW226478   1.783   0.638   5.504 -2.1554  1.1305  0.3456
 5007SOL     OW26479   2.673   2.320   6.962  0.2297 -0.1420 -0.2971
 5007SOL    HW126480   2.637   2.245   6.916  0.4236 -0.4317  0.0305
 5007SOL    HW226481   2.731   2.275   7.022  2.0351  0.9745 -1.1954
 5008SOL     OW26482   1.440   1.572  13.147 -0.7306 -0.4045 -0.1115
 5008SOL    HW126483   1.478   1.535  13.227 -1.0237 -0.0296  0.1945
 5008SOL    HW226484   1.362   1.520  13.130  0.1162 -1.1896 -1.6288
 5009SOL     OW26485   1.967   4.137  15.662 -0.3248  0.1305 -0.0198
 5009SOL    HW126486   1.974   4.145  15.566 -0.3635  1.1996  0.0674
 5009SOL    HW226487   2.054   4.165  15.690 -0.3244  1.5789 -1.4327
 5010SOL     OW26488   3.281   4.610  15.234 -0.1809 -0.0789 -0.1628
 5010SOL    HW126489   3.265   4.671  15.162  0.0725  1.2270  0.8919
 5010SOL    HW226490   3.192   4.592  15.266 -0.3157 -1.9735 -1.6200
 5011SOL     OW26491   3.672   2.507   7.538 -0.2916  0.1762 -0.2602
 5011SOL    HW126492   3.683   2.516   7.633 -3.2709  0.0808  0.0833
 5011SOL    HW226493   3.593   2.453   7.537 -0.4840  0.5032 -2.9894
 5012SOL     OW26494   4.314   3.883   5.558  0.0791  0.2035 -0.6764
 5012SOL    HW126495   4.220   3.886   5.537 -0.1863 -0.1211  0.4821
 5012SOL    HW226496   4.334   3.975   5.541  0.3479 -0.3025 -3.1010
 5013SOL     OW26497   3.561   1.835   2.032 -0.1780  0.3421 -0.3994
 5013SOL    HW126498   3.502   1.794   1.969 -2.0558 -0.0098  1.6000
 5013SOL    HW226499   3.635   1.849   1.972  0.4217  0.2703  0.3270
 5014SOL     OW26500   0.499   1.350   6.858  0.3254  0.1767 -0.3590
 5014SOL    HW126501   0.522   1.274   6.912  1.7242  0.6868 -0.2247
 5014SOL    HW226502   0.425   1.314   6.810 -0.3628  1.6530 -0.4179
 5015SOL     OW26503   3.972   2.625   0.885 -0.5194  0.0195 -0.0977
 5015SOL    HW126504   3.947   2.693   0.823  0.8461  0.3901 -0.2347
 5015SOL    HW226505   4.032   2.668   0.946 -0.1544 -2.0872  1.0552
 5016SOL     OW26506   0.886   4.383  12.295 -0.2994  0.0224 -0.6765
 5016SOL    HW126507   0.951   4.349  12.234 -0.4880 -0.6826 -0.4779
 5016SOL    HW226508   0.943   4.434  12.352 -1.2068 -1.6665  1.7270
 5017SOL     OW26509   4.018   4.556   4.168  0.2634 -0.3352 -0.2385
 5017SOL    HW126510   4.107   4.525   4.185 -0.9492 -3.3971  0.4925
 5017SOL    HW226511   3.971   4.563   4.251  0.6186  0.2170 -0.0824
 5018SOL     OW26512   3.575   4.625   7.211  0.5889  0.6423  0.2498
 5018SOL    HW126513   3.606   4.556   7.269 -1.4296 -0.8811 -0.4918
 5018SOL    HW226514   3.618   4.606   7.128 -0.1479  0.4286 -0.0877
 5019SOL     OW26515   0.040   1.806  12.034 -0.6325 -0.7991  0.3673
 5019SOL    HW126516   0.113   1.835  12.089 -0.4132 -1.9211  0.6576
 5019SOL    HW226517   0.025   1.714  12.054  2.3755 -1.6937 -1.5212
 5020SOL     OW26518   3.986   3.869   6.763  0.1226  0.8618 -0.4845
 5020SOL    HW126519   4.011   3.790   6.812 -1.6973  0.2342 -0.5682
 5020SOL    HW226520   3.904   3.896   6.803 -0.2172  2.3181 -2.1582
 5021SOL     OW26521   1.418   0.024   0.386  0.0279  0.3689 -0.1240
 5021SOL    HW126522   1.409   4.721   0.295  1.0630 -1.9774  0.4570
 5021SOL    HW226523   1.364   4.683   0.431 -2.4139  0.0940 -3.5472
 5022SOL     OW26524   0.716   0.674   2.147 -0.4390  0.2111  0.6258
 5022SOL    HW126525   0.748   0.715   2.066 -0.7847 -0.9258 -0.0892
 5022SOL    HW226526   0.777   0.712   2.210  0.4174  0.1761 -0.1666
 5023SOL     OW26527   0.631   1.971   2.138 -0.0322  0.0659  0.3774
 5023SOL    HW126528   0.627   1.984   2.044 -2.0748 -0.8695  0.3345
 5023SOL    HW226529   0.682   2.048   2.163  0.0504 -0.3344  1.4833
 5024SOL     OW26530   1.960   4.441   6.149 -0.5036  0.0993 -0.2035
 5024SOL    HW126531   1.896   4.452   6.078  0.3260 -1.8890 -1.2602
 5024SOL    HW226532   1.909   4.453   6.229  1.7571  1.0199  1.0787
 5025SOL     OW26533   0.271   1.826   2.760 -0.5252 -0.7268  0.0981
 5025SOL    HW126534   0.354   1.779   2.765  0.6694  1.2721 -0.7910
 5025SOL    HW226535   0.209   1.756   2.740 -0.9294  0.0459 -1.3891
 5026SOL     OW26536   2.492   1.196   2.328 -0.0441 -0.5663  0.3823
 5026SOL    HW126537   2.509   1.104   2.347  0.3997 -0.2437  1.5370
 5026SOL    HW226538   2.569   1.211   2.273  0.0137  0.9514  0.8688
 5027SOL     OW26539   1.828   4.057   4.889  0.6060  0.0679 -0.1225
 5027SOL    HW126540   1.874   4.072   4.807  2.7183 -1.0119  0.8525
 5027SOL    HW226541   1.786   4.142   4.903  1.3269  0.3878  0.1177
 5028SOL     OW26542   0.988   3.966   1.281  0.0040  0.6756 -1.0579
 5028SOL    HW126543   1.057   3.922   1.231 -0.4967 -0.3163 -0.8598
 5028SOL    HW226544   0.923   3.897   1.291  0.4890  0.1369 -1.6604
 5029SOL     OW26545   0.888   3.121   8.519  0.0525  0.0985 -0.2517
 5029SOL    HW126546   0.974   3.132   8.561  0.5865 -2.3720 -0.7192
 5029SOL    HW226547   0.843   3.070   8.586 -1.9006  0.8485 -1.0112
 5030SOL     OW26548   0.855   1.220   7.291  0.2700  0.0832  0.0430
 5030SOL    HW126549   0.788   1.273   7.246  1.3119  0.4017 -1.1266
 5030SOL    HW226550   0.925   1.283   7.311 -0.5435  0.4909  1.6048
 5031SOL     OW26551   1.958   2.852   3.925  0.4688 -0.4186  0.1064
 5031SOL    HW126552   2.000   2.930   3.960  2.3983 -2.7938  3.0791
 5031SOL    HW226553   2.027   2.804   3.879  0.4978  0.0841 -0.3822
 5032SOL     OW26554   3.850   2.863  11.938  0.4752 -0.6806 -0.5845
 5032SOL    HW126555   3.937   2.902  11.944 -0.5154  1.0240  2.3852
 5032SOL    HW226556   3.808   2.903  12.014  1.8299  0.3110 -0.3512
 5033SOL     OW26557   3.615   1.613   1.364 -0.9446 -0.6743  0.4924
 5033SOL    HW126558   3.684   1.555   1.398  0.9883  0.2283 -1.9627
 5033SOL    HW226559   3.662   1.675   1.309 -0.2004 -2.7562 -1.2043
 5034SOL     OW26560   3.287   1.006  15.400 -0.4036 -0.3654 -0.9847
 5034SOL    HW126561   3.352   0.948  15.439  0.7839  1.4554 -0.2655
 5034SOL    HW226562   3.252   1.041  15.482  2.6015  1.9151 -0.6629
 5035SOL     OW26563   2.478   3.723   5.789 -0.4002  0.0471 -0.1021
 5035SOL    HW126564   2.466   3.638   5.831  2.6940 -1.1444 -1.6104
 5035SOL    HW226565   2.402   3.746   5.737 -0.0214 -0.1283 -0.7366
 5036SOL     OW26566   0.157   0.299   6.610  0.3096  0.2784  0.1045
 5036SOL    HW126567   0.227   0.362   6.628  0.9353  0.0724 -1.5479
 5036SOL    HW226568   0.141   0.295   6.515  1.8428 -0.1726 -0.1385
 5037SOL     OW26569   1.402   3.293   5.178  0.7190 -0.2080  0.3069
 5037SOL    HW126570   1.356   3.233   5.119 -1.4755  0.9498  0.8415
 5037SOL    HW226571   1.378   3.373   5.130  1.4903  0.2425  0.6818
 5038SOL     OW26572   3.286   2.027   8.354 -0.1705  0.3734 -0.0382
 5038SOL    HW126573   3.352   2.073   8.406 -0.2965  0.9300 -0.3741
 5038SOL    HW226574   3.330   2.013   8.270  0.1097  1.2467 -0.0429
 5039SOL     OW26575   2.791   0.875  11.763 -0.2584 -0.2720  0.0303
 5039SOL    HW126576   2.731   0.806  11.793 -0.9456 -0.4636 -1.8086
 5039SOL    HW226577   2.816   0.911  11.848  2.2868 -0.5980 -0.5975
 5040SOL     OW26578   4.327   0.703  13.238 -0.2292 -0.0486 -0.7432
 5040SOL    HW126579   4.290   0.616  13.227 -0.9823  0.1349  0.3389
 5040SOL    HW226580   4.418   0.677  13.222 -0.3287  0.0101 -1.3967
 5041SOL     OW26581   3.775   2.953   0.496 -0.5737 -0.2013 -0.0499
 5041SOL    HW126582   3.751   3.014   0.426  1.7459  0.2786 -0.4442
 5041SOL    HW226583   3.708   2.967   0.563 -0.1075  0.1862  0.3360
 5042SOL     OW26584   1.423   4.446   1.833 -0.0616 -0.9495  0.0472
 5042SOL    HW126585   1.386   4.507   1.770  0.6857 -1.4611 -0.8737
 5042SOL    HW226586   1.347   4.389   1.843 -1.8355  0.6616 -4.5262
 5043SOL     OW26587   3.952   3.483   7.840  0.6503  0.1932  0.0240
 5043SOL    HW126588   3.887   3.552   7.833 -1.2888 -1.8788 -2.2799
 5043SOL    HW226589   3.974   3.482   7.934  2.8050 -1.3988 -0.4969
 5044SOL     OW26590   0.113   3.648   9.548 -0.2913 -0.1541  0.0183
 5044SOL    HW126591   0.089   3.582   9.612  0.2248  0.9309  1.3142
 5044SOL    HW226592   0.119   3.729   9.597 -0.6928  0.9316 -1.7050
 5045SOL     OW26593   0.037   4.010   5.521  0.0693  0.2977  0.3626
 5045SOL    HW126594   4.691   3.998   5.456 -2.7662  0.4446  3.3837
 5045SOL    HW226595   0.052   4.104   5.529  1.8908  0.0372 -0.0815
 5046SOL     OW26596   2.066   1.302  16.619 -0.0582 -0.8481  0.5189
 5046SOL    HW126597   2.009   1.352  16.561  0.0601  0.5339  1.5866
 5046SOL    HW226598   2.144   1.283  16.566  0.8604  2.7016  0.5926
 5047SOL     OW26599   4.168   2.921   4.487  0.1460  0.4813 -0.3948
 5047SOL    HW126600   4.248   2.913   4.434 -0.7310 -0.1026 -1.6134
 5047SOL    HW226601   4.160   3.014   4.508 -0.4014 -0.0820  1.9470
 5048SOL     OW26602   1.789   4.416  15.185  0.3511 -0.0834 -0.2624
 5048SOL    HW126603   1.738   4.389  15.109 -0.5630 -0.0460  0.3270
 5048SOL    HW226604   1.836   4.491  15.149 -0.1322 -0.1124 -0.9545
 5049SOL     OW26605   1.658   3.298  11.189  0.4087  0.2108 -0.4358
 5049SOL    HW126606   1.699   3.384  11.184 -0.1579  0.5060  0.0597
 5049SOL    HW226607   1.715   3.244  11.244  1.2389  1.3057 -0.2376
 5050SOL     OW26608   3.566   2.702   9.205 -0.9310 -0.7042 -0.7506
 5050SOL    HW126609   3.509   2.729   9.134  0.4367  2.3875 -0.6922
 5050SOL    HW226610   3.526   2.759   9.271 -1.0936 -0.2406 -1.2455
 5051SOL     OW26611   0.536   3.951   5.588  0.2626 -0.3435 -0.2036
 5051SOL    HW126612   0.441   3.938   5.585  0.3305 -1.4723  3.6094
 5051SOL    HW226613   0.545   3.950   5.683  0.4110 -0.5816 -0.2191
 5052SOL     OW26614   2.242   0.763   3.069  0.3682  0.0546  0.0616
 5052SOL    HW126615   2.281   0.829   3.012  1.3117 -2.2788 -1.9657
 5052SOL    HW226616   2.179   0.722   3.010 -0.3139  0.4716  0.4877
 5053SOL     OW26617   4.152   0.433   7.141 -0.5652 -0.3870  0.2289
 5053SOL    HW126618   4.200   0.414   7.221 -0.9207 -2.7966 -0.1538
 5053SOL    HW226619   4.219   0.421   7.074  0.8385  0.3145  1.5092
 5054SOL     OW26620   3.371   0.518   5.828 -0.1359 -0.0081 -0.3307
 5054SOL    HW126621   3.415   0.547   5.747 -1.5858 -0.0864 -1.1439
 5054SOL    HW226622   3.297   0.578   5.831  0.0313  0.1394  0.6625
 5055SOL     OW26623   1.090   4.264   7.069 -0.4168 -0.0730 -0.1275
 5055SOL    HW126624   1.134   4.197   7.017  3.1553  1.3842  1.0109
 5055SOL    HW226625   1.013   4.219   7.104 -0.9601  1.3215  0.4584
 5056SOL     OW26626   4.212   0.550  10.646  0.4419 -0.1675  0.3439
 5056SOL    HW126627   4.305   0.538  10.626  0.3177  1.6328 -1.3884
 5056SOL    HW226628   4.213   0.553  10.742  1.3026 -3.3749  0.4269
 5057SOL     OW26629   1.757   4.096   6.403  0.3733  0.3761  0.2862
 5057SOL    HW126630   1.840   4.103   6.450  0.4242  0.1207  0.2367
 5057SOL    HW226631   1.787   4.054   6.323  1.1938  2.5599 -0.5297
 5058SOL     OW26632   2.677   1.865   3.643 -0.1863 -0.4332  1.0584
 5058SOL    HW126633   2.754   1.819   3.610  0.2315 -0.0626  1.5138
 5058SOL    HW226634   2.613   1.797   3.623 -0.0547 -1.0699  2.8204
 5059SOL     OW26635   0.217   4.501   8.054 -0.0976  0.0360 -0.2040
 5059SOL    HW126636   0.228   4.542   7.968  1.1345 -1.3717 -0.7181
 5059SOL    HW226637   0.302   4.459   8.061  1.1496  2.6209  0.1905
 5060SOL     OW26638   1.783   1.835   5.236 -0.1954 -0.0118  0.4758
 5060SOL    HW126639   1.802   1.925   5.210  2.0258 -1.1002 -1.6783
 5060SOL    HW226640   1.843   1.828   5.311 -1.1638 -0.5349  1.2103
 5061SOL     OW26641   1.005   3.321   4.870 -0.6389  0.0613  0.0794
 5061SOL    HW126642   0.968   3.362   4.949 -0.1933 -1.4005  1.0485
 5061SOL    HW226643   1.019   3.231   4.899  0.5810  0.3959  0.5276
 5062SOL     OW26644   0.687   4.636   3.076  0.2835  0.3325  0.1398
 5062SOL    HW126645   0.653   4.564   3.129 -0.3840  0.1186 -0.5905
 5062SOL    HW226646   0.608   4.689   3.066 -0.1292 -0.8318 -2.6001
 5063SOL     OW26647   3.132   3.015  14.887 -0.0292 -0.0871  0.3644
 5063SOL    HW126648   3.164   3.084  14.944  0.8542  0.2231 -0.5157
 5063SOL    HW226649   3.210   2.960  14.878 -0.4557 -0.6041 -0.2049
 5064SOL     OW26650   0.799   3.825   2.736 -0.8083 -0.2630  0.6503
 5064SOL    HW126651   0.793   3.771   2.815  2.1543 -0.6801  0.6102
 5064SOL    HW226652   0.804   3.911   2.778 -0.7818 -0.0305  0.1672
 5065SOL     OW26653   1.465   4.556  10.440 -0.2408  0.1890 -0.4889
 5065SOL    HW126654   1.462   4.594  10.527  0.2164  1.1391 -0.8861
 5065SOL    HW226655   1.383   4.580  10.397 -1.4493 -1.7671  0.7505
 5066SOL     OW26656   3.820   2.401   2.892  0.6216 -0.8739 -0.1237
 5066SOL    HW126657   3.740   2.363   2.855  0.7277  0.7142 -1.9891
 5066SOL    HW226658   3.833   2.475   2.833  0.3553 -1.7065 -1.2381
 5067SOL     OW26659   3.316   2.624   3.498 -0.0795 -0.6043  0.0843
 5067SOL    HW126660   3.311   2.703   3.444  0.6117 -0.7384 -0.1750
 5067SOL    HW226661   3.251   2.568   3.457  0.7688  1.6275 -4.3881
 5068SOL     OW26662   4.544   3.214   5.710  0.1596 -0.2900 -0.0122
 5068SOL    HW126663   4.523   3.295   5.757  2.3657 -0.5161  1.3747
 5068SOL    HW226664   4.527   3.231   5.617  0.1060  0.4840  0.1369
 5069SOL     OW26665   4.619   3.616   4.026 -0.5066 -0.2783  0.3164
 5069SOL    HW126666   4.600   3.577   4.111  1.4328 -0.5559  0.6161
 5069SOL    HW226667   4.617   3.709   4.048  0.2106 -0.3199  0.5707
 5070SOL     OW26668   4.502   3.283  14.278 -0.6705 -0.6852  0.6803
 5070SOL    HW126669   4.524   3.358  14.333  1.7439 -2.1343  1.6440
 5070SOL    HW226670   4.505   3.323  14.191  0.4424  0.5677  1.3015
 5071SOL     OW26671   3.778   2.339   6.346  0.1874 -0.3241  0.0736
 5071SOL    HW126672   3.858   2.350   6.295 -0.0999 -0.0199 -0.3084
 5071SOL    HW226673   3.775   2.413   6.406 -2.6911 -0.7977  0.5311
 5072SOL     OW26674   3.956   2.693   8.863 -0.2685 -0.6353  0.1328
 5072SOL    HW126675   3.956   2.724   8.954  0.0031  1.5751 -0.6218
 5072SOL    HW226676   4.049   2.691   8.843 -0.3739 -1.6425 -0.2416
 5073SOL     OW26677   2.866   2.338  17.193 -0.1506 -0.2514 -0.5663
 5073SOL    HW126678   2.911   2.341  17.277  1.3095  0.7488 -1.3886
 5073SOL    HW226679   2.780   2.332  17.235  0.1566  0.0900  0.1076
 5074SOL     OW26680   2.058   0.672  17.559 -0.3597  0.6852 -0.1341
 5074SOL    HW126681   2.011   0.709  17.484  1.6115  1.9887 -0.7115
 5074SOL    HW226682   2.120   0.743  17.573 -0.1813  0.6827 -0.9030
 5075SOL     OW26683   1.954   2.897   7.896 -0.1641  0.2049 -0.3945
 5075SOL    HW126684   1.906   2.940   7.825 -2.0120 -3.0160 -1.0692
 5075SOL    HW226685   1.895   2.838   7.943 -0.5326  0.7260 -0.1988
 5076SOL     OW26686   4.356   2.998  13.258 -0.3378  0.2766  0.0380
 5076SOL    HW126687   4.398   2.940  13.322 -0.4633  0.4880  0.3136
 5076SOL    HW226688   4.305   3.047  13.323  1.6506  0.9239  1.1413
 5077SOL     OW26689   1.112   1.693  17.152 -0.3696  0.0074  0.2538
 5077SOL    HW126690   1.202   1.684  17.184  0.2922 -1.0393 -1.9278
 5077SOL    HW226691   1.075   1.664  17.235  1.1381 -1.7889  0.3006
 5078SOL     OW26692   2.849   4.709   2.397 -0.3890  0.1365 -0.1623
 5078SOL    HW126693   2.882   0.066   2.358 -2.6825  0.9832 -0.3748
 5078SOL    HW226694   2.921   4.647   2.406  0.9453  1.8659  1.1704
 5079SOL     OW26695   1.572   3.036   5.577  0.2153  0.5610  0.5208
 5079SOL    HW126696   1.490   3.076   5.547  1.2369  2.7187  0.5847
 5079SOL    HW226697   1.621   3.065   5.500  2.6807  1.2909  2.3961
 5080SOL     OW26698   2.698   3.219  13.272 -0.6151 -0.1928  0.3600
 5080SOL    HW126699   2.701   3.294  13.331 -1.0664 -0.4317  0.6822
 5080SOL    HW226700   2.632   3.256  13.213 -0.4945 -0.3001  0.1561
 5081SOL     OW26701   2.221   1.589   6.674 -0.0325  0.4477 -0.6118
 5081SOL    HW126702   2.157   1.592   6.603  0.5062 -3.0004 -1.2491
 5081SOL    HW226703   2.165   1.612   6.747  0.6954  0.4767 -0.0614
 5082SOL     OW26704   2.207   4.401  15.563 -0.1826  0.6454  0.1853
 5082SOL    HW126705   2.296   4.375  15.543  0.2239  0.2169  2.4930
 5082SOL    HW226706   2.208   4.466  15.634  2.6157 -0.9740  1.6076
 5083SOL     OW26707   0.017   0.566   9.372  0.2174  0.7712  0.0708
 5083SOL    HW126708   4.705   0.623   9.303  1.6631  1.7185  0.1041
 5083SOL    HW226709   0.080   0.517   9.319 -1.8122 -2.6219  0.8497
 5084SOL     OW26710   2.067   3.915   6.514  0.0703 -0.0911 -0.2042
 5084SOL    HW126711   2.031   4.004   6.516  1.7764  0.5913  0.3346
 5084SOL    HW226712   1.988   3.864   6.530 -1.1511  1.9120  0.1602
 5085SOL     OW26713   2.810   3.980   8.027  0.6961  0.1778  0.2055
 5085SOL    HW126714   2.840   3.921   7.959 -1.2536 -1.4764  0.7591
 5085SOL    HW226715   2.893   4.023   8.048  1.1072 -0.2850 -0.4821
 5086SOL     OW26716   1.900   2.989   8.293 -0.0142 -0.7157  0.1414
 5086SOL    HW126717   1.843   2.912   8.294  0.0377 -0.7453  1.3323
 5086SOL    HW226718   1.973   2.952   8.343 -1.1343 -4.2114 -0.7744
 5087SOL     OW26719   3.224   3.880   0.768 -0.4317  0.3888  0.5545
 5087SOL    HW126720   3.154   3.832   0.811  2.0300 -4.8707 -1.3257
 5087SOL    HW226721   3.255   3.836   0.689 -0.8858  1.6608 -0.3360
 5088SOL     OW26722   2.926   2.332   4.499  0.0296  0.2605  1.4075
 5088SOL    HW126723   2.906   2.261   4.438 -0.0505  1.2652  0.2649
 5088SOL    HW226724   2.973   2.283   4.568  0.2799 -1.7973 -0.2327
 5089SOL     OW26725   0.600   4.706   4.939  0.5209  0.1177 -0.8911
 5089SOL    HW126726   0.634   4.718   4.850 -2.2494  0.6489 -1.8462
 5089SOL    HW226727   0.610   0.071   4.972 -2.3402  0.1938 -0.2298
 5090SOL     OW26728   4.553   2.030   8.136  0.4324  0.1814 -0.9136
 5090SOL    HW126729   4.608   2.026   8.214 -1.9269  0.0997  0.7373
 5090SOL    HW226730   4.608   2.052   8.061  1.7327  1.2883  0.3646
 5091SOL     OW26731   3.685   1.194   6.065 -0.2755  0.3724  0.7742
 5091SOL    HW126732   3.707   1.107   6.099 -2.1451  0.1239  1.3534
 5091SOL    HW226733   3.741   1.254   6.114 -0.2749  1.2780 -0.3475
 5092SOL     OW26734   2.422   2.941   2.227  0.2287  0.1109  0.0330
 5092SOL    HW126735   2.358   2.870   2.217  0.5924 -0.2467  0.2464
 5092SOL    HW226736   2.499   2.895   2.193  1.3946 -0.2603  3.1575
 5093SOL     OW26737   2.466   1.075   5.119  0.4625  0.4193  0.3922
 5093SOL    HW126738   2.440   1.128   5.043  1.6967 -0.1008 -0.3898
 5093SOL    HW226739   2.540   1.023   5.088 -1.3748 -1.8970 -0.0506
 5094SOL     OW26740   3.595   3.919  12.163 -0.3327  0.1491  0.1127
 5094SOL    HW126741   3.528   3.870  12.211  0.2964  0.4943  1.3456
 5094SOL    HW226742   3.647   3.940  12.241 -0.3120 -1.3657  0.5150
 5095SOL     OW26743   0.692   3.884  10.845  0.3903 -0.2991  0.0774
 5095SOL    HW126744   0.787   3.895  10.837  0.3263 -2.6821 -4.0473
 5095SOL    HW226745   0.658   3.974  10.845  0.8475 -0.1217  0.3637
 5096SOL     OW26746   4.400   2.619   9.431 -0.7837  0.1362 -0.3120
 5096SOL    HW126747   4.390   2.572   9.514  3.1047 -1.1511 -0.5565
 5096SOL    HW226748   4.364   2.705   9.454 -3.3488 -1.3242  1.1224
 5097SOL     OW26749   1.439   3.836  14.360 -0.0293 -0.0495  0.2977
 5097SOL    HW126750   1.363   3.893  14.343  1.6877  2.1250 -0.1051
 5097SOL    HW226751   1.482   3.883  14.431  0.5162 -1.2083  0.7310
 5098SOL     OW26752   3.148   0.313   7.705 -0.2009 -0.3576 -0.2256
 5098SOL    HW126753   3.099   0.232   7.686 -0.3020 -0.4573  0.4748
 5098SOL    HW226754   3.240   0.288   7.706  0.0950  0.7008 -0.8357
 5099SOL     OW26755   0.393   4.643   1.020  0.0547 -0.2941  0.4710
 5099SOL    HW126756   0.474   4.646   1.070  1.0710 -2.7890 -1.0361
 5099SOL    HW226757   0.341   4.593   1.083 -0.3110 -1.3665 -0.6597
 5100SOL     OW26758   4.109   0.815  15.959  0.6075  0.3233  0.3458
 5100SOL    HW126759   4.046   0.884  15.976  0.1094 -0.0116 -0.1470
 5100SOL    HW226760   4.069   0.752  16.019 -1.7636 -0.4873 -2.1013
 5101SOL     OW26761   2.771   0.331   1.846 -0.0726  0.5143 -0.2837
 5101SOL    HW126762   2.784   0.244   1.884 -1.2281 -0.6047 -2.4660
 5101SOL    HW226763   2.808   0.392   1.910  0.7146 -0.7539  0.4765
 5102SOL     OW26764   3.958   2.866   5.285  0.5480 -0.5518  0.1817
 5102SOL    HW126765   3.928   2.804   5.351 -0.2117  0.8689  1.1814
 5102SOL    HW226766   3.947   2.821   5.202  1.9558 -1.7609  0.6361
 5103SOL     OW26767   3.893   4.646   6.687 -0.4910  0.1664  0.2784
 5103SOL    HW126768   3.906   4.677   6.777 -2.2169  1.2283  0.1805
 5103SOL    HW226769   3.928   4.714   6.629 -1.8518  1.5943  1.1003
 5104SOL     OW26770   2.253   1.959   0.436 -0.3107 -0.2124  0.1835
 5104SOL    HW126771   2.194   2.031   0.460 -0.5439 -0.8972  1.6233
 5104SOL    HW226772   2.339   1.988   0.466 -0.8136 -1.1713  2.5331
 5105SOL     OW26773   3.722   1.115   3.002 -0.1242  0.0147 -0.0517
 5105SOL    HW126774   3.817   1.105   3.004 -0.2172 -0.3886  1.8395
 5105SOL    HW226775   3.690   1.027   2.982 -0.2583  0.1209 -0.3124
 5106SOL     OW26776   2.979   1.954   3.300 -0.4367  0.3476  0.0146
 5106SOL    HW126777   2.965   1.971   3.394  0.8195  1.3112  0.0224
 5106SOL    HW226778   2.963   1.860   3.303  2.0209 -0.0772 -0.9298
 5107SOL     OW26779   0.276   2.944   5.206  0.2742 -0.0846 -0.6991
 5107SOL    HW126780   0.336   2.964   5.135 -0.3206  0.5400 -1.0297
 5107SOL    HW226781   0.308   2.858   5.234 -1.0440  0.0224  1.1378
 5108SOL     OW26782   1.087   4.038   4.354  0.0316 -0.4634  0.6463
 5108SOL    HW126783   1.050   4.011   4.437 -0.0671 -0.7636  0.5070
 5108SOL    HW226784   1.084   3.955   4.306 -0.3611 -0.1684  0.1624
 5109SOL     OW26785   4.055   0.792  17.333 -0.2349  0.0043 -0.1170
 5109SOL    HW126786   4.066   0.779  17.427 -0.1430  0.8807 -0.0100
 5109SOL    HW226787   4.018   0.878  17.315  0.9352  0.6911  0.7841
 5110SOL     OW26788   1.118   0.141   3.068 -0.4331 -0.2690 -0.1423
 5110SOL    HW126789   1.158   0.074   3.013 -1.2365 -0.6180 -0.3050
 5110SOL    HW226790   1.078   0.192   2.997 -1.1393 -0.0443  0.4076
 5111SOL     OW26791   3.026   3.682   8.610 -0.4308  0.4694  0.5642
 5111SOL    HW126792   2.994   3.717   8.527 -1.2420 -0.4582  0.4824
 5111SOL    HW226793   3.057   3.757   8.661 -2.0297  2.8184 -1.9004
 5112SOL     OW26794   4.284   2.583   2.571 -0.2143  0.0196  1.0658
 5112SOL    HW126795   4.267   2.584   2.477 -2.4717  0.0189  1.4636
 5112SOL    HW226796   4.316   2.495   2.591  1.2455  0.8556  2.4486
 5113SOL     OW26797   2.062   2.230   6.979  0.7740 -0.4823 -0.3276
 5113SOL    HW126798   2.029   2.224   7.069 -1.4737  0.2411 -1.0933
 5113SOL    HW226799   2.079   2.325   6.979 -0.8989 -0.1884  0.8793
 5114SOL     OW26800   1.393   2.709   3.655  0.7765 -0.5314  0.2054
 5114SOL    HW126801   1.380   2.616   3.636  0.2082  0.0444 -2.3015
 5114SOL    HW226802   1.390   2.718   3.750 -1.4141 -1.0038  0.1609
 5115SOL     OW26803   1.309   4.395   7.609  0.2623  0.5207 -0.4455
 5115SOL    HW126804   1.364   4.382   7.532  0.2332 -1.5021 -0.1475
 5115SOL    HW226805   1.297   4.489   7.602  2.2974  0.9301  1.8076
 5116SOL     OW26806   4.704   3.133   4.950  0.0061 -0.0198  0.2585
 5116SOL    HW126807   4.619   3.146   4.992  0.0097  0.6523  0.0499
 5116SOL    HW226808   0.035   3.167   5.020  0.9436 -3.6103  1.2637
 5117SOL     OW26809   4.444   1.119   5.893 -0.1295 -0.7512  0.4312
 5117SOL    HW126810   4.507   1.060   5.935  2.6234  1.0272 -1.1663
 5117SOL    HW226811   4.454   1.075   5.808  2.6965  1.0526 -0.2028
 5118SOL     OW26812   3.274   0.393   4.668 -0.5931 -0.3028 -0.1924
 5118SOL    HW126813   3.334   0.443   4.613 -1.8620  3.7715  2.1537
 5118SOL    HW226814   3.325   0.361   4.742  1.6252 -0.0772 -1.6520
 5119SOL     OW26815   3.672   2.558   3.435  0.1280  0.2310  0.1177
 5119SOL    HW126816   3.639   2.542   3.347 -0.2909  2.6230 -0.1717
 5119SOL    HW226817   3.628   2.487   3.481  0.9975 -0.8275 -0.6936
 5120SOL     OW26818   2.121   3.302   2.895 -0.4239 -0.8255 -0.1187
 5120SOL    HW126819   2.033   3.275   2.921  0.0282 -1.3726  0.8709
 5120SOL    HW226820   2.111   3.285   2.802  0.1498 -2.9716  0.1965
 5121SOL     OW26821   0.767   3.364   1.693 -0.2464 -0.4918  0.3478
 5121SOL    HW126822   0.750   3.432   1.629 -0.0673 -1.4164 -0.6847
 5121SOL    HW226823   0.863   3.370   1.700 -0.0680 -0.9820 -1.6550
 5122SOL     OW26824   3.041   0.233   6.626  0.1292 -0.6477 -0.0335
 5122SOL    HW126825   2.997   0.315   6.601  2.7424  0.1209 -2.0463
 5122SOL    HW226826   2.975   0.172   6.594 -0.1765 -0.0805 -0.4840
 5123SOL     OW26827   0.095   3.946  14.324  0.2827  0.2276 -0.2084
 5123SOL    HW126828   0.025   3.892  14.289  0.5844  0.7985 -1.7301
 5123SOL    HW226829   0.174   3.914  14.280  1.9733  0.7321  2.4097
 5124SOL     OW26830   1.280   3.586  11.341 -0.2208  0.4344 -0.4183
 5124SOL    HW126831   1.247   3.644  11.409 -0.3700 -0.7811  0.5290
 5124SOL    HW226832   1.360   3.549  11.377 -0.9980  0.6729  1.5453
 5125SOL     OW26833   1.522   3.277  13.043 -0.8292 -0.5993 -0.3793
 5125SOL    HW126834   1.613   3.286  13.070 -0.9744 -2.0884  0.5957
 5125SOL    HW226835   1.493   3.191  13.074 -0.1739 -0.6210  0.1630
 5126SOL     OW26836   2.884   3.604   4.934 -0.6397  0.2115  0.0069
 5126SOL    HW126837   2.827   3.587   5.009  0.5925 -0.4091  0.8181
 5126SOL    HW226838   2.846   3.554   4.863 -0.6019  0.6509 -0.3254
 5127SOL     OW26839   2.476   1.323  13.477  0.5886 -0.9362  0.1089
 5127SOL    HW126840   2.442   1.402  13.435  0.0170 -1.6664 -0.7956
 5127SOL    HW226841   2.569   1.344  13.480  0.5581 -0.4308 -2.7870
 5128SOL     OW26842   3.178   2.345  16.543  0.3854  0.1374  0.3433
 5128SOL    HW126843   3.191   2.439  16.532  2.3501 -0.2504 -0.6468
 5128SOL    HW226844   3.112   2.347  16.612  0.4965 -2.3783  0.5097
 5129SOL     OW26845   4.320   4.649   6.798  0.1917  0.4631 -0.4283
 5129SOL    HW126846   4.307   4.722   6.738  1.2133  0.3656 -0.7594
 5129SOL    HW226847   4.252   4.599   6.753 -1.1749 -0.1857  2.3423
 5130SOL     OW26848   2.491   1.846   9.791 -0.5745  0.0462 -0.5465
 5130SOL    HW126849   2.464   1.826   9.881 -0.1979 -0.0311 -0.4515
 5130SOL    HW226850   2.409   1.841   9.742 -0.8468 -3.4053  0.2716
 5131SOL     OW26851   2.893   0.126  12.533 -0.3568  0.2102 -0.2891
 5131SOL    HW126852   2.987   0.133  12.549 -0.2235 -2.2726  0.0107
 5131SOL    HW226853   2.875   0.215  12.501  1.7282  1.1124  1.0346
 5132SOL     OW26854   1.813   1.578   7.489  0.2629  0.3721  0.0111
 5132SOL    HW126855   1.766   1.524   7.553  0.2704  0.4760  0.1036
 5132SOL    HW226856   1.784   1.667   7.508 -0.4864 -0.4445  2.7461
 5133SOL     OW26857   1.285   0.020  16.398 -0.3100 -0.6671 -0.4477
 5133SOL    HW126858   1.247   4.661  16.426  1.0618 -0.9478  0.5684
 5133SOL    HW226859   1.209   0.034  16.342  1.4361  1.1321 -2.3782
 5134SOL     OW26860   2.703   4.080   9.078  0.1330  0.5842 -0.1924
 5134SOL    HW126861   2.775   4.125   9.034  0.9923 -0.1975  0.4039
 5134SOL    HW226862   2.651   4.155   9.107  1.9169  1.3958  0.9298
 5135SOL     OW26863   3.340   0.545   1.436  0.3113  0.4571  0.3648
 5135SOL    HW126864   3.419   0.496   1.457 -0.6543 -0.3327  2.1787
 5135SOL    HW226865   3.289   0.474   1.397 -1.3751  0.9726  1.6177
 5136SOL     OW26866   3.815   3.631  17.178  0.9628  0.3727  0.7044
 5136SOL    HW126867   3.887   3.647  17.117 -0.7734  0.5919 -1.3059
 5136SOL    HW226868   3.855   3.565  17.234 -1.4761 -2.5761 -0.9797
 5137SOL     OW26869   0.050   1.301   8.452  0.2090  0.6982 -0.0050
 5137SOL    HW126870   0.064   1.212   8.421 -0.8266 -0.5963  3.3140
 5137SOL    HW226871   4.690   1.295   8.497 -0.9475  0.5525 -2.1959
 5138SOL     OW26872   3.593   2.256   5.943  0.2552  0.2510  0.0910
 5138SOL    HW126873   3.546   2.333   5.911  0.0982 -0.6766 -1.9188
 5138SOL    HW226874   3.653   2.235   5.871  0.3273 -0.9011  0.4792
 5139SOL     OW26875   1.507   4.358  11.533 -0.0302  0.5516  0.1845
 5139SOL    HW126876   1.467   4.305  11.602 -0.9970 -0.9140 -1.5253
 5139SOL    HW226877   1.547   4.428  11.585  0.1909 -0.3422  1.2295
 5140SOL     OW26878   4.050   1.549   5.966 -0.5534 -0.5996  0.5821
 5140SOL    HW126879   4.066   1.546   6.060 -1.5356  1.0228  0.8057
 5140SOL    HW226880   4.119   1.602   5.927 -0.1857 -1.1795  0.4503
 5141SOL     OW26881   4.271   1.656   8.778  0.8057  0.1579  0.1862
 5141SOL    HW126882   4.240   1.634   8.866 -1.1698  1.4439 -0.1946
 5141SOL    HW226883   4.247   1.749   8.783 -1.1524 -0.4121  1.2391
 5142SOL     OW26884   2.560   4.357   6.498  0.4075  0.3172 -0.2321
 5142SOL    HW126885   2.633   4.351   6.435  0.6856 -0.7866  0.1984
 5142SOL    HW226886   2.604   4.342   6.582 -1.7012  1.6998  1.1105
 5143SOL     OW26887   2.706   1.080  16.591 -0.4844 -0.1053  0.2317
 5143SOL    HW126888   2.657   1.118  16.664  0.0059 -1.2410  1.1324
 5143SOL    HW226889   2.663   1.127  16.519 -0.3863  0.9444  0.8468
 5144SOL     OW26890   1.042   3.704  10.863 -0.0573  0.2381  0.0197
 5144SOL    HW126891   1.074   3.614  10.859  3.0419  1.2353  2.1143
 5144SOL    HW226892   1.086   3.760  10.799  1.1093 -0.0704  0.5470
 5145SOL     OW26893   0.570   2.032   6.675  0.2707 -0.1153 -0.0896
 5145SOL    HW126894   0.505   2.055   6.609 -0.0999 -0.1240  0.2700
 5145SOL    HW226895   0.515   1.983   6.736 -1.4272 -0.0096 -1.5511
 5146SOL     OW26896   1.749   0.818   5.041  0.4954 -0.3987  0.5358
 5146SOL    HW126897   1.786   0.743   4.996  2.7971  1.3722 -0.5536
 5146SOL    HW226898   1.721   0.781   5.125  1.6960  1.6007  1.8414
 5147SOL     OW26899   1.279   1.800   8.316 -0.1775 -0.6591  0.1607
 5147SOL    HW126900   1.319   1.751   8.244 -1.3342 -2.2994  0.6327
 5147SOL    HW226901   1.188   1.773   8.326 -0.7032 -0.0302 -2.9381
 5148SOL     OW26902   0.284   3.284  10.947 -0.5821  0.6230 -0.2955
 5148SOL    HW126903   0.263   3.313  10.858 -0.9805  3.1437  0.6195
 5148SOL    HW226904   0.372   3.321  10.955 -0.3120  0.1419 -1.0718
 5149SOL     OW26905   0.009   4.648  11.971  0.2593  0.2040 -0.1555
 5149SOL    HW126906   4.676   4.713  11.929  1.3793 -0.1611 -2.1749
 5149SOL    HW226907   4.695   4.644  12.059  0.9023 -0.2414  0.0992
 5150SOL     OW26908   1.249   3.625   8.341 -0.5658 -0.5292 -0.5994
 5150SOL    HW126909   1.285   3.556   8.398 -0.5276 -0.6959 -0.8256
 5150SOL    HW226910   1.155   3.609   8.336 -0.5382 -0.7666 -0.3983
 5151SOL     OW26911   0.442   0.600   7.199  0.6194 -0.1842 -0.4502
 5151SOL    HW126912   0.505   0.531   7.179  0.5852  0.3927 -2.4605
 5151SOL    HW226913   0.397   0.560   7.274  1.3121  0.4880  0.3206
 5152SOL     OW26914   3.686   0.080   8.087  0.1745 -0.0090  0.3512
 5152SOL    HW126915   3.752   0.016   8.115  2.0950  0.6584 -2.5603
 5152SOL    HW226916   3.745   0.147   8.050 -1.5784 -0.2596 -2.9111
 5153SOL     OW26917   0.702   0.398   3.045  0.3997  0.1837  0.4420
 5153SOL    HW126918   0.699   0.478   2.994  1.5131  0.0851  0.2136
 5153SOL    HW226919   0.683   0.331   2.979 -1.9287  0.5083  0.8177
 5154SOL     OW26920   3.884   0.571   6.364  0.7917 -0.3562  0.0085
 5154SOL    HW126921   3.848   0.491   6.402 -0.1377 -0.1932 -0.5139
 5154SOL    HW226922   3.822   0.630   6.407  0.1652 -0.2328 -1.0664
 5155SOL     OW26923   4.675   0.560   8.739 -0.6750  0.5239  0.5056
 5155SOL    HW126924   4.652   0.627   8.674  0.8816 -0.6947 -1.2975
 5155SOL    HW226925   4.651   0.481   8.692  1.2134 -0.4136  1.1269
 5156SOL     OW26926   0.524   1.869   1.002 -0.4315  0.3038 -0.6959
 5156SOL    HW126927   0.556   1.956   1.022  0.3853 -1.0719  4.0259
 5156SOL    HW226928   0.599   1.824   0.963  0.5442  0.0873  1.4453
 5157SOL     OW26929   1.305   3.410  13.246 -0.3823  0.3426 -0.0732
 5157SOL    HW126930   1.298   3.322  13.284  1.1827 -0.1804 -0.9622
 5157SOL    HW226931   1.366   3.397  13.174 -0.3002 -0.3785  0.1201
 5158SOL     OW26932   3.750   0.937  17.493  0.1568 -0.8394  0.1770
 5158SOL    HW126933   3.800   0.948  17.412 -0.2754  2.6173  0.3462
 5158SOL    HW226934   3.677   0.994  17.467  0.5605 -1.0170 -1.2960
 5159SOL     OW26935   4.686   2.850  12.242 -0.3379  0.4040  0.3982
 5159SOL    HW126936   0.014   2.797  12.181  2.3814  1.4829  1.7643
 5159SOL    HW226937   4.698   2.939  12.209 -0.1355 -0.7186 -2.5420
 5160SOL     OW26938   4.642   1.797   2.108  0.6418  0.1480  0.5534
 5160SOL    HW126939   0.003   1.757   2.090  1.5077  1.2828  2.2005
 5160SOL    HW226940   4.647   1.844   2.191  0.5697  0.6682  0.2642
 5161SOL     OW26941   0.481   1.815   1.625 -0.2801  0.2077  0.2088
 5161SOL    HW126942   0.566   1.789   1.663 -1.9943 -1.8067  2.6906
 5161SOL    HW226943   0.425   1.770   1.688 -1.8313  0.0139 -1.3116
 5162SOL     OW26944   4.304   1.888   6.603  0.0034  0.4106 -0.2980
 5162SOL    HW126945   4.386   1.857   6.564  0.1496 -0.9351  1.0883
 5162SOL    HW226946   4.316   1.982   6.590 -1.7045  0.3197 -2.5658
 5163SOL     OW26947   0.701   3.847  17.621 -0.1560  0.1707  0.6007
 5163SOL    HW126948   0.712   3.875   0.014 -3.5156  1.9703  0.4507
 5163SOL    HW226949   0.608   3.860  17.603 -0.5469  0.2902  2.7301
 5164SOL     OW26950   0.778   4.422   4.178 -0.2951 -0.0846  0.0874
 5164SOL    HW126951   0.767   4.505   4.133  0.2444 -0.1132 -0.1019
 5164SOL    HW226952   0.867   4.410   4.212 -0.3178 -2.8373 -0.8455
 5165SOL     OW26953   2.605   4.498  15.127  0.1165  0.3135  0.1778
 5165SOL    HW126954   2.652   4.575  15.159 -0.3283 -0.4272  2.5859
 5165SOL    HW226955   2.631   4.498  15.035  2.1559 -0.2497  0.7591
 5166SOL     OW26956   2.333   2.785  10.178  0.4767  0.3210  0.5074
 5166SOL    HW126957   2.325   2.870  10.221  2.1168  0.7442 -0.0480
 5166SOL    HW226958   2.244   2.786  10.141  0.9559 -0.0341 -0.6578
 5167SOL     OW26959   3.564   3.326  14.599  0.1091 -0.0941  0.3079
 5167SOL    HW126960   3.536   3.236  14.581  2.9210 -0.7922 -0.4712
 5167SOL    HW226961   3.522   3.346  14.683 -1.6386  1.7879 -1.0110
 5168SOL     OW26962   4.511   4.404   2.455  0.1568 -0.0971 -0.8215
 5168SOL    HW126963   4.602   4.396   2.428  0.2883  1.8052 -0.9798
 5168SOL    HW226964   4.486   4.320   2.417  1.2541  0.4104 -2.6395
 5169SOL     OW26965   0.980   4.416  12.025 -0.0091  0.3130 -0.7090
 5169SOL    HW126966   1.045   4.485  12.041  1.3526 -1.3135  0.7502
 5169SOL    HW226967   1.040   4.342  12.017 -1.0151 -0.7689  2.0565
 5170SOL     OW26968   3.070   1.219   0.755  0.0526  0.5151 -0.3749
 5170SOL    HW126969   3.132   1.256   0.819 -0.9889 -1.1264  1.5857
 5170SOL    HW226970   3.069   1.128   0.786  0.1578  1.4935  2.4903
 5171SOL     OW26971   0.132   1.484  11.934 -0.4841 -0.2656  0.3194
 5171SOL    HW126972   0.191   1.450  12.001  0.5616  0.2037 -0.3643
 5171SOL    HW226973   0.068   1.517  11.998 -1.8012 -1.9060 -0.1528
 5172SOL     OW26974   4.455   2.154   8.834 -0.4717 -0.1276 -0.3435
 5172SOL    HW126975   4.517   2.199   8.890 -0.1313 -2.7143  1.3357
 5172SOL    HW226976   4.416   2.233   8.795  0.8499  0.4147 -0.5481
 5173SOL     OW26977   3.739   0.133   6.444  0.2468 -0.1606  0.1498
 5173SOL    HW126978   3.752   0.223   6.474  1.2407 -0.7138  1.3553
 5173SOL    HW226979   3.805   0.129   6.376  0.2081  0.5825  0.0656
 5174SOL     OW26980   2.753   2.202   1.820 -0.1115 -0.9525 -0.2977
 5174SOL    HW126981   2.838   2.213   1.862 -1.3395  0.7363  1.7815
 5174SOL    HW226982   2.711   2.288   1.824  0.0913 -0.8420 -0.5850
 5175SOL     OW26983   4.071   0.131   5.635  0.1534 -0.2179 -0.0103
 5175SOL    HW126984   4.027   0.055   5.596 -0.2780  0.0761 -0.0948
 5175SOL    HW226985   4.006   0.201   5.641 -0.7137 -0.8447 -2.1169
 5176SOL     OW26986   0.697   3.363   1.296 -0.6143 -0.0840 -0.3506
 5176SOL    HW126987   0.658   3.406   1.372 -0.8324 -0.6298 -0.1568
 5176SOL    HW226988   0.634   3.378   1.225 -2.9931  0.3154  1.8538
 5177SOL     OW26989   2.414   4.012   7.205  0.2260  0.2642 -1.1346
 5177SOL    HW126990   2.465   3.961   7.141 -1.3994 -1.9063 -0.7051
 5177SOL    HW226991   2.337   3.955   7.214  0.0798  0.3763 -1.6755
 5178SOL     OW26992   4.146   0.904  13.357  0.2824 -0.9782 -0.2034
 5178SOL    HW126993   4.202   0.955  13.415  0.5795 -0.0621 -1.2970
 5178SOL    HW226994   4.206   0.845  13.310  1.7836  0.6452 -0.3014
 5179SOL     OW26995   2.604   0.885   4.916  0.0059 -0.6998 -0.4099
 5179SOL    HW126996   2.613   0.964   4.862 -0.6241 -2.0034 -2.4152
 5179SOL    HW226997   2.525   0.835   4.893 -0.1621 -1.3558  1.5839
 5180SOL     OW26998   3.566   3.860   6.071  0.7822 -0.2736  0.0655
 5180SOL    HW126999   3.588   3.772   6.040 -0.5784 -0.8765  0.8166
 5180SOL    HW227000   3.529   3.831   6.154 -0.0315  0.7953  0.0731
 5181SOL     OW27001   2.508   2.057   3.343 -0.1761  0.8337  0.0052
 5181SOL    HW127002   2.521   1.962   3.351 -1.3498  0.8651  2.3342
 5181SOL    HW227003   2.595   2.075   3.308 -1.1379  3.0181 -1.1916
 5182SOL     OW27004   4.298   4.648  17.622  0.3328  0.2615 -0.5062
 5182SOL    HW127005   4.217   4.611  17.656  0.6777  0.1684  0.1936
 5182SOL    HW227006   4.266   0.010  17.591  0.6504  0.8049  0.6847
 5183SOL     OW27007   2.056   4.597  10.852  0.1193 -0.0387  0.0140
 5183SOL    HW127008   2.064   4.654  10.928 -1.0458  0.7247 -0.4295
 5183SOL    HW227009   2.005   4.651  10.791  0.1239 -0.0400  0.0090
 5184SOL     OW27010   0.040   4.106   7.448 -0.2964 -0.3863  0.6820
 5184SOL    HW127011   0.107   4.171   7.471 -1.5495  0.3399  2.2429
 5184SOL    HW227012   0.051   4.043   7.519 -0.6969  0.6602  1.6798
 5185SOL     OW27013   1.638   3.182  17.147 -0.4294  0.0204  0.2130
 5185SOL    HW127014   1.698   3.196  17.073 -0.8795 -0.4326 -0.2353
 5185SOL    HW227015   1.666   3.253  17.205  1.1427  0.5529 -1.2070
 5186SOL     OW27016   3.555   0.526  15.061  0.0487 -0.6850  0.3043
 5186SOL    HW127017   3.472   0.489  15.091  0.7762 -1.5231  1.2716
 5186SOL    HW227018   3.529   0.564  14.977  2.6081 -0.1805 -0.2626
 5187SOL     OW27019   2.355   3.757   4.450  0.3916 -0.0814 -0.0901
 5187SOL    HW127020   2.441   3.778   4.486  0.2911  0.9264 -0.4604
 5187SOL    HW227021   2.372   3.705   4.372  0.7981  0.2651 -0.2297
 5188SOL     OW27022   3.088   0.216  17.544 -0.4784  0.0741 -0.4551
 5188SOL    HW127023   3.086   0.220  17.448  0.5682  1.4682 -0.4241
 5188SOL    HW227024   3.063   0.308  17.547 -0.0948  0.1074  2.1481
 5189SOL     OW27025   3.367   4.681   7.783  0.3504  0.5633 -0.0523
 5189SOL    HW127026   3.411   4.599   7.806  0.6115  0.7948  0.2738
 5189SOL    HW227027   3.287   4.666   7.834  0.8789 -0.7666  0.3885
 5190SOL     OW27028   0.390   3.900   6.799 -0.1879  0.5059  0.5391
 5190SOL    HW127029   0.367   3.931   6.887 -1.6729  1.9755 -0.3810
 5190SOL    HW227030   0.478   3.936   6.800 -0.1170  0.3416 -0.3350
 5191SOL     OW27031   2.145   2.733   2.384 -0.3130 -0.4464 -0.2141
 5191SOL    HW127032   2.056   2.701   2.372  0.1971 -0.8964 -2.8432
 5191SOL    HW227033   2.189   2.704   2.304  0.3484  0.8003 -0.3092
 5192SOL     OW27034   4.443   3.168   4.690  0.1895  0.1415  0.0592
 5192SOL    HW127035   4.506   3.164   4.618 -1.6770 -1.9760 -1.4519
 5192SOL    HW227036   4.467   3.090   4.741  0.5889 -0.1042 -0.5019
 5193SOL     OW27037   2.232   3.863   0.994 -0.0314  0.3743 -0.1072
 5193SOL    HW127038   2.147   3.905   0.985  0.4443  1.4288  0.2760
 5193SOL    HW227039   2.287   3.941   1.006 -0.5557  0.7961 -0.4557
 5194SOL     OW27040   4.061   4.068   0.005 -0.0664 -0.3111  0.1847
 5194SOL    HW127041   4.100   4.155  17.694  1.3366 -0.7293  2.2902
 5194SOL    HW227042   4.105   4.030   0.081  1.2300 -2.1752 -1.4942
 5195SOL     OW27043   4.450   2.891   5.104  0.7065  0.3990 -0.1837
 5195SOL    HW127044   4.543   2.869   5.101  1.1109  2.1463 -0.5338
 5195SOL    HW227045   4.455   2.987   5.099  1.4182  0.3514 -0.4391
 5196SOL     OW27046   4.061   3.707   1.729 -0.2127 -0.3264 -0.1206
 5196SOL    HW127047   4.080   3.614   1.740  3.3209  0.4389  0.3003
 5196SOL    HW227048   3.967   3.707   1.746 -0.5931  0.8749 -2.1416
 5197SOL     OW27049   3.508   0.620   6.266 -0.4113 -0.1765  0.2945
 5197SOL    HW127050   3.448   0.547   6.254 -1.6926  0.6025  2.0662
 5197SOL    HW227051   3.458   0.671   6.329 -0.0449 -2.9305  2.7866
 5198SOL     OW27052   2.695   2.977  13.454 -0.1918  0.1694 -0.1449
 5198SOL    HW127053   2.780   3.019  13.460  0.5760 -1.2491 -1.1026
 5198SOL    HW227054   2.643   3.050  13.418  0.3739  0.9748  0.6800
 5199SOL     OW27055   2.355   0.906   6.183 -0.4598  0.0634  0.9421
 5199SOL    HW127056   2.260   0.906   6.194 -0.3595  0.5114  1.7861
 5199SOL    HW227057   2.373   0.959   6.261 -0.1912  0.8996  0.3043
 5200SOL     OW27058   1.584   0.078  10.182 -0.1080  0.3426 -0.3811
 5200SOL    HW127059   1.531   0.130  10.121  2.3582  0.7245 -2.1742
 5200SOL    HW227060   1.605   0.003  10.126  2.1472  1.8076 -1.4921
 5201SOL     OW27061   2.005   1.652   0.853 -0.7231 -0.6870  0.6269
 5201SOL    HW127062   2.005   1.565   0.894 -0.0732 -0.8349  0.3244
 5201SOL    HW227063   1.913   1.670   0.833  0.5795  2.3302 -2.5497
 5202SOL     OW27064   3.103   2.736   6.735 -0.1402  0.4625  0.4105
 5202SOL    HW127065   3.141   2.681   6.803 -0.3521 -0.2363 -0.0328
 5202SOL    HW227066   3.159   2.705   6.663 -0.2744  2.2814 -0.4713
 5203SOL     OW27067   3.069   1.926  13.908  0.2503  0.0746 -0.7147
 5203SOL    HW127068   3.122   1.848  13.889  1.9756  2.6632 -6.3621
 5203SOL    HW227069   2.988   1.887  13.941 -0.4128  0.5508 -1.7967
 5204SOL     OW27070   2.292   3.705   7.524 -0.0613 -0.1935 -0.0427
 5204SOL    HW127071   2.302   3.719   7.430  0.1261 -0.8880 -0.1205
 5204SOL    HW227072   2.374   3.738   7.562  0.7862  0.9888 -2.8740
 5205SOL     OW27073   3.562   1.334  12.677  0.4911 -0.4881 -0.2564
 5205SOL    HW127074   3.582   1.348  12.770 -2.4104 -3.1275  0.7777
 5205SOL    HW227075   3.467   1.332  12.686  0.4418 -2.4434 -1.2905
 5206SOL     OW27076   2.383   1.576   4.109 -0.7858  0.1192  0.4701
 5206SOL    HW127077   2.438   1.589   4.186 -0.7444  0.7664  0.3321
 5206SOL    HW227078   2.407   1.641   4.042 -0.4307 -0.6623 -0.1642
 5207SOL     OW27079   3.010   4.296   9.179  0.5101  0.0891 -0.1163
 5207SOL    HW127080   3.004   4.390   9.194 -1.1485 -0.1630  0.8149
 5207SOL    HW227081   3.005   4.303   9.083  0.3214 -1.6835 -0.2335
 5208SOL     OW27082   1.396   3.431  11.130 -0.1944  0.2048  0.0511
 5208SOL    HW127083   1.392   3.503  11.067  0.5954  1.0250  0.9292
 5208SOL    HW227084   1.357   3.476  11.205  0.0549 -3.8923  2.6066
 5209SOL     OW27085   0.564   2.179  11.609  0.1959 -0.1277 -0.3274
 5209SOL    HW127086   0.595   2.210  11.523  1.6305 -1.3592 -0.2587
 5209SOL    HW227087   0.637   2.121  11.629 -1.6126 -2.6729 -1.0577
 5210SOL     OW27088   3.276   1.569   6.201 -0.9177 -0.2020  0.7500
 5210SOL    HW127089   3.326   1.596   6.278 -1.4362  0.6832  0.7751
 5210SOL    HW227090   3.322   1.487   6.184 -0.0067  0.2051  1.2388
 5211SOL     OW27091   0.634   1.046  14.318  0.2885 -0.4237  0.6510
 5211SOL    HW127092   0.631   1.009  14.230 -1.9864  1.9265 -0.2620
 5211SOL    HW227093   0.671   1.133  14.301 -2.8582  0.7015 -0.5037
 5212SOL     OW27094   4.693   3.033   8.119  0.6077  0.1435  0.4327
 5212SOL    HW127095   0.014   3.040   8.203  0.3979  2.7001  0.3294
 5212SOL    HW227096   0.045   3.054   8.065  0.9360 -1.7444  0.1574
 5213SOL     OW27097   4.008   1.382   2.620 -0.1548  0.5851  0.1564
 5213SOL    HW127098   4.084   1.439   2.617 -0.0692  0.4713  0.1464
 5213SOL    HW227099   4.054   1.302   2.594 -1.9568 -0.4524  0.0683
 5214SOL     OW27100   0.467   0.988   2.482  0.6093 -0.5709  0.0906
 5214SOL    HW127101   0.377   0.955   2.480  0.4939 -0.2765  0.5609
 5214SOL    HW227102   0.471   1.051   2.410 -1.5090 -1.0034 -0.4187
 5215SOL     OW27103   0.527   3.188   6.037  0.1212  0.3136 -0.4358
 5215SOL    HW127104   0.470   3.163   6.110  0.4343 -0.5055 -0.4798
 5215SOL    HW227105   0.492   3.127   5.973 -2.2298 -0.7734  1.8858
 5216SOL     OW27106   1.670   1.273   7.644  0.0040  0.0171 -0.5535
 5216SOL    HW127107   1.591   1.299   7.597 -0.0171 -1.6774 -1.4844
 5216SOL    HW227108   1.683   1.348   7.701 -2.7430  0.9213 -1.1160
 5217SOL     OW27109   4.028   0.925   3.362  0.0428  0.4305 -0.5366
 5217SOL    HW127110   4.080   0.999   3.332  0.7948  0.8940  1.9067
 5217SOL    HW227111   4.091   0.854   3.353  0.7930  0.9114  0.9944
 5218SOL     OW27112   4.308   4.541   5.952  0.3037  0.1292  0.6005
 5218SOL    HW127113   4.273   4.616   5.904  2.1015  2.2288  2.6027
 5218SOL    HW227114   4.400   4.550   5.927 -0.3721 -1.7921 -2.5504
 5219SOL     OW27115   4.587   0.727   3.866 -0.2369 -0.0414  0.0937
 5219SOL    HW127116   4.559   0.760   3.951  1.4768  0.5278  0.4317
 5219SOL    HW227117   4.680   0.714   3.886 -0.4017  1.1679  1.6026
 5220SOL     OW27118   1.710   1.772   2.487 -0.3896 -0.7046  0.7129
 5220SOL    HW127119   1.804   1.789   2.485 -0.6252  0.2821 -2.0833
 5220SOL    HW227120   1.709   1.679   2.510  1.0239 -1.2495 -1.3606
 5221SOL     OW27121   0.096   0.940   5.448 -0.3525  0.2386  0.1852
 5221SOL    HW127122   0.136   0.904   5.527  0.5530 -0.2877 -0.5193
 5221SOL    HW227123   0.007   0.904   5.455 -0.9222  1.6844  0.4993
 5222SOL     OW27124   2.967   3.400  14.790 -0.3191  0.1426 -0.0655
 5222SOL    HW127125   2.882   3.385  14.749  0.7512  0.2661 -2.3480
 5222SOL    HW227126   2.981   3.489  14.758  1.1294  0.2829  0.9675
 5223SOL     OW27127   4.705   2.545   1.730 -0.1868 -0.0903 -0.9653
 5223SOL    HW127128   0.035   2.485   1.781 -2.1216 -1.3680 -0.4645
 5223SOL    HW227129   4.693   2.500   1.646 -1.4136  1.0904 -1.4241
 5224SOL     OW27130   3.302   0.652  16.506 -0.2096  0.0178  0.7518
 5224SOL    HW127131   3.335   0.633  16.594  2.0891 -1.1265 -0.3741
 5224SOL    HW227132   3.219   0.606  16.508  0.0987 -0.6092 -2.1345
 5225SOL     OW27133   1.629   3.890  17.583 -0.6488 -0.5981 -0.6329
 5225SOL    HW127134   1.549   3.841  17.563 -1.8868  1.4944 -0.8093
 5225SOL    HW227135   1.623   3.945  17.505 -1.4797  0.6280  0.2985
 5226SOL     OW27136   1.239   4.564   6.680 -0.5529 -0.0133 -0.1445
 5226SOL    HW127137   1.313   4.622   6.699 -0.1526 -0.6718  0.3534
 5226SOL    HW227138   1.159   4.615   6.686 -0.2827  0.2950  1.0271
 5227SOL     OW27139   4.381   1.551  15.943 -0.1115  0.4292 -0.4370
 5227SOL    HW127140   4.453   1.517  15.890  0.1760  2.0394 -1.0796
 5227SOL    HW227141   4.319   1.478  15.945  1.6107 -1.0522 -1.1413
 5228SOL     OW27142   0.164   4.082   5.840 -0.1407  0.2780  0.1971
 5228SOL    HW127143   0.201   4.016   5.781 -0.3464  0.7170 -0.4113
 5228SOL    HW227144   0.107   4.030   5.897 -1.6621 -0.1705 -1.7491
 5229SOL     OW27145   4.460   2.899   7.155  0.2717 -0.1787  0.2674
 5229SOL    HW127146   4.376   2.866   7.123  0.1268 -1.8725  2.3267
 5229SOL    HW227147   4.447   2.991   7.134  1.4116 -0.3758 -1.2900
 5230SOL     OW27148   1.919   3.343  14.580  0.5308  0.6575  0.2008
 5230SOL    HW127149   1.881   3.306  14.501  2.1680 -0.4825 -0.0303
 5230SOL    HW227150   1.846   3.398  14.611  1.4707  1.9317  0.1556
 5231SOL     OW27151   2.467   3.306   8.659 -0.0259 -0.1942  0.1545
 5231SOL    HW127152   2.443   3.250   8.732  1.7568 -0.4376  0.5618
 5231SOL    HW227153   2.508   3.243   8.599 -0.0926 -3.3108  3.3995
 5232SOL     OW27154   0.555   4.482   7.772 -0.6984 -0.2821 -0.1098
 5232SOL    HW127155   0.570   4.547   7.840 -0.5958 -1.8447  1.3851
 5232SOL    HW227156   0.623   4.417   7.788 -0.1128 -0.0636 -1.7511
 5233SOL     OW27157   3.810   1.700   5.138  0.9289 -0.8771  0.1266
 5233SOL    HW127158   3.743   1.633   5.148 -0.3505  0.5422  1.0562
 5233SOL    HW227159   3.781   1.766   5.201  0.2151 -1.7239  0.6895
 5234SOL     OW27160   0.287   0.389   3.998  0.1300 -0.1747  0.0717
 5234SOL    HW127161   0.263   0.389   3.905 -0.4925 -1.3469  0.2379
 5234SOL    HW227162   0.382   0.395   3.986  0.2239 -0.2015  0.7771
 5235SOL     OW27163   0.398   0.088   2.691 -0.2221  0.4341 -1.0128
 5235SOL    HW127164   0.356   0.006   2.664  0.1043 -0.4623  1.2249
 5235SOL    HW227165   0.471   0.057   2.745 -0.4530 -0.3732 -1.1675
 5236SOL     OW27166   1.348   4.604   3.192  0.0040  0.0420 -0.1077
 5236SOL    HW127167   1.314   4.634   3.108 -0.7990 -0.2490  0.1103
 5236SOL    HW227168   1.307   4.663   3.256  1.2804  1.4922 -0.6318
 5237SOL     OW27169   2.115   4.169   4.979 -0.2491 -0.0676  0.4701
 5237SOL    HW127170   2.124   4.258   5.012 -0.0646  0.9820 -2.3887
 5237SOL    HW227171   2.065   4.181   4.898 -0.0333 -1.0222  0.1988
 5238SOL     OW27172   2.538   3.013   9.690  0.1152  0.1330 -0.3928
 5238SOL    HW127173   2.584   2.978   9.766 -0.9009 -0.1250  0.1013
 5238SOL    HW227174   2.444   3.015   9.707 -0.0431  0.4109 -1.2974
 5239SOL     OW27175   0.109   1.246   6.981 -0.6273  0.2303  0.5458
 5239SOL    HW127176   0.040   1.188   7.014 -0.0912 -0.0054  1.2398
 5239SOL    HW227177   0.190   1.214   7.022 -0.0953 -0.6599 -1.1884
 5240SOL     OW27178   3.533   4.572   3.662  0.7682  0.5194  0.0692
 5240SOL    HW127179   3.481   4.649   3.684  0.8364  1.5135 -3.2152
 5240SOL    HW227180   3.486   4.504   3.708  1.2001 -0.7500 -1.3666
 5241SOL     OW27181   3.158   4.592   6.266 -0.5441  0.1828 -0.3636
 5241SOL    HW127182   3.100   4.659   6.229  0.3366 -0.6640 -3.2617
 5241SOL    HW227183   3.244   4.619   6.234 -0.9179 -1.0596 -2.3638
 5242SOL     OW27184   2.661   0.668   5.562  0.0520  0.2481 -0.3069
 5242SOL    HW127185   2.596   0.700   5.625  0.9957 -0.7699  1.1692
 5242SOL    HW227186   2.628   0.701   5.477  0.4213  1.6824  0.1045
 5243SOL     OW27187   1.815   2.259   4.009 -0.7690  0.0548  0.0076
 5243SOL    HW127188   1.729   2.246   3.969  0.6483  0.4055 -3.1768
 5243SOL    HW227189   1.815   2.352   4.033 -0.1191  0.4694 -1.5737
 5244SOL     OW27190   0.859   0.124   5.546 -0.0330 -0.2302  0.0122
 5244SOL    HW127191   0.820   0.195   5.597 -0.4288  0.2135 -0.8925
 5244SOL    HW227192   0.786   0.077   5.508 -1.4208  2.1631 -0.2882
 5245SOL     OW27193   4.494   1.840   9.386 -0.0040  0.9824  0.0335
 5245SOL    HW127194   4.403   1.843   9.354 -0.2446  1.2980  0.7624
 5245SOL    HW227195   4.489   1.876   9.474 -0.2601  0.4606  0.2321
 5246SOL     OW27196   2.429   2.326  12.159  0.6145  0.2941  0.0165
 5246SOL    HW127197   2.341   2.288  12.154  0.3135  0.5158  3.7378
 5246SOL    HW227198   2.410   2.412  12.122 -0.3259 -0.0676 -0.3345
 5247SOL     OW27199   3.072   4.266   9.813  0.3056  0.9216 -0.1042
 5247SOL    HW127200   3.082   4.361   9.811  2.0757  0.7247 -0.3429
 5247SOL    HW227201   3.035   4.249   9.900  2.0182 -0.4226  0.3809
 5248SOL     OW27202   1.201   1.767   6.593 -0.2495 -0.5147  0.8140
 5248SOL    HW127203   1.181   1.849   6.637 -0.7088 -0.1007 -0.1764
 5248SOL    HW227204   1.282   1.787   6.547  0.2523 -2.2707  0.8978
 5249SOL     OW27205   2.239   3.993  14.688 -0.5864 -0.0852  0.0868
 5249SOL    HW127206   2.185   4.009  14.611 -1.1940  1.6344  0.8690
 5249SOL    HW227207   2.329   4.003  14.658 -0.5388  1.4257  0.7001
 5250SOL     OW27208   4.516   1.222   8.576 -0.4555 -0.4228 -0.1239
 5250SOL    HW127209   4.557   1.232   8.662 -0.7064 -0.4861  0.0022
 5250SOL    HW227210   4.429   1.244   8.609 -0.2425 -0.6061  0.5668
 5251SOL     OW27211   3.984   4.534  17.631 -0.4107 -0.2817 -0.9403
 5251SOL    HW127212   3.964   4.457  17.578  1.2837  0.2327 -2.3221
 5251SOL    HW227213   3.917   4.596  17.602 -0.6986 -0.2486 -0.1987
 5252SOL     OW27214   0.168   3.869   9.733  0.4091 -0.2795 -0.2299
 5252SOL    HW127215   0.260   3.874   9.705 -0.2557 -0.4574 -2.3779
 5252SOL    HW227216   0.172   3.901   9.824 -0.7295  0.7890 -0.5548
 5253SOL     OW27217   2.885   1.005  14.952 -0.2396 -0.3551 -0.0487
 5253SOL    HW127218   2.890   0.953  15.032 -0.0864 -0.7238 -0.2972
 5253SOL    HW227219   2.805   1.055  14.962 -1.0461 -2.3484  3.4324
 5254SOL     OW27220   1.600   1.918   7.184 -0.4047  0.1491  0.4656
 5254SOL    HW127221   1.539   1.990   7.197  1.0688  1.1931  1.5970
 5254SOL    HW227222   1.665   1.952   7.124  0.4039 -0.1698  1.1559
 5255SOL     OW27223   3.953   2.949   5.843 -0.0950 -0.2614 -0.0410
 5255SOL    HW127224   4.022   2.944   5.909 -1.3792  0.4896  1.3376
 5255SOL    HW227225   3.901   3.013   5.891  1.7746  0.4739  0.9813
 5256SOL     OW27226   3.562   2.845   4.667 -0.6528 -0.4337  0.0829
 5256SOL    HW127227   3.551   2.933   4.631 -0.2464 -0.0052  1.0257
 5256SOL    HW227228   3.507   2.788   4.613  1.6880 -1.2995 -1.3807
 5257SOL     OW27229   1.723   2.625   7.584 -0.7533 -0.4228 -0.5431
 5257SOL    HW127230   1.791   2.576   7.631  0.5091 -0.6810 -2.6246
 5257SOL    HW227231   1.694   2.689   7.648 -2.5126 -1.1045 -0.6739
 5258SOL     OW27232   3.074   2.628   6.084  0.3353 -0.2477 -0.0235
 5258SOL    HW127233   3.021   2.621   6.164 -1.2303 -1.2936 -1.1523
 5258SOL    HW227234   3.114   2.540   6.084 -0.6679 -0.7069  0.1628
 5259SOL     OW27235   3.831   1.155   1.352 -0.4576 -0.3983 -0.4900
 5259SOL    HW127236   3.762   1.102   1.393 -1.0063  0.1830 -0.6636
 5259SOL    HW227237   3.785   1.189   1.276 -1.0125  1.8677  0.8698
 5260SOL     OW27238   0.146   1.422   2.951 -0.3450  0.6028 -0.3323
 5260SOL    HW127239   0.159   1.462   2.865 -0.6530 -0.1069 -0.7065
 5260SOL    HW227240   0.177   1.333   2.939 -0.4379  0.3029  1.6704
 5261SOL     OW27241   4.653   2.657   7.002 -0.4720  0.0437 -0.1910
 5261SOL    HW127242   4.687   2.729   7.053  1.8531 -1.9379  1.0222
 5261SOL    HW227243   4.558   2.672   7.004 -0.5253 -0.6757  2.0831
 5262SOL     OW27244   1.610   3.494  17.056 -0.7753  0.0419  0.0742
 5262SOL    HW127245   1.677   3.482  17.123 -3.0249  1.0847  2.5072
 5262SOL    HW227246   1.660   3.484  16.975  0.3617  1.0756  0.6464
 5263SOL     OW27247   1.514   0.803   0.262 -0.3455 -0.4699 -0.3274
 5263SOL    HW127248   1.475   0.854   0.333 -1.0386 -1.4315 -0.0199
 5263SOL    HW227249   1.606   0.809   0.289 -0.3198 -2.3536  0.0072
 5264SOL     OW27250   4.373   2.348   5.740  0.2299 -0.2004 -0.2009
 5264SOL    HW127251   4.313   2.279   5.767  0.0797  1.3197  3.3647
 5264SOL    HW227252   4.320   2.416   5.698 -0.8717 -1.3444 -0.6662
 5265SOL     OW27253   0.732   2.298   3.025  0.7868 -0.3967  0.8292
 5265SOL    HW127254   0.706   2.219   2.977 -0.1873  1.2279 -1.3117
 5265SOL    HW227255   0.808   2.325   2.974 -2.5873  0.0175 -4.0456
 5266SOL     OW27256   2.276   3.704   8.447 -0.4614  0.1026  0.2164
 5266SOL    HW127257   2.364   3.740   8.436 -1.6072  2.5214 -1.0156
 5266SOL    HW227258   2.241   3.776   8.501 -0.8394  1.2803 -1.6110
 5267SOL     OW27259   2.895   3.301   7.393 -0.3097  0.2991  0.5157
 5267SOL    HW127260   2.849   3.384   7.386  0.2486  0.4132 -1.8365
 5267SOL    HW227261   2.827   3.258   7.445 -0.4036 -0.7834 -0.4867
 5268SOL     OW27262   0.817   1.461   7.837 -0.3363 -0.0972 -0.5840
 5268SOL    HW127263   0.830   1.386   7.780  2.1667  0.3239 -0.5594
 5268SOL    HW227264   0.841   1.414   7.917  1.4547 -0.0212 -1.0817
 5269SOL     OW27265   4.549   4.163   0.562 -0.3293  0.0941 -0.0801
 5269SOL    HW127266   4.565   4.256   0.544 -3.1648  1.0524  2.3786
 5269SOL    HW227267   4.606   4.161   0.639  3.0181  0.2968 -2.5548
 5270SOL     OW27268   2.927   0.227   2.281 -0.0261 -0.1101  0.1753
 5270SOL    HW127269   2.994   0.244   2.347  0.1835 -0.6240  0.0929
 5270SOL    HW227270   2.965   0.251   2.196 -1.0962  1.2172  0.0608
 5271SOL     OW27271   3.282   4.191   9.653 -0.6220 -0.0356  0.6919
 5271SOL    HW127272   3.287   4.095   9.652 -0.1615  0.0147 -1.7012
 5271SOL    HW227273   3.191   4.200   9.682 -0.6680 -2.7353  1.3618
 5272SOL     OW27274   0.168   0.161   3.433  0.4234  0.3465  0.0168
 5272SOL    HW127275   0.178   0.192   3.343 -3.1835  0.0423 -0.4701
 5272SOL    HW227276   0.073   0.167   3.441  0.3550 -2.2644  1.3127
 5273SOL     OW27277   4.115   0.769   6.778 -0.1790  0.0384  0.2043
 5273SOL    HW127278   4.084   0.735   6.861 -0.2355 -0.1176  0.1185
 5273SOL    HW227279   4.193   0.720   6.754  0.1904  1.1676 -0.9284
 5274SOL     OW27280   2.554   3.580   9.524 -0.1657 -0.4342  0.2232
 5274SOL    HW127281   2.602   3.538   9.453 -0.0870  0.3680 -0.1912
 5274SOL    HW227282   2.465   3.548   9.510  0.0567 -0.1841 -1.7919
 5275SOL     OW27283   0.439   4.320   8.608  0.6844 -0.4819  0.3012
 5275SOL    HW127284   0.497   4.316   8.684  1.0708  3.3521  0.2137
 5275SOL    HW227285   0.412   4.228   8.606  0.4442 -0.4760  2.7650
 5276SOL     OW27286   2.363   4.066   3.148 -0.7815  0.1961 -0.4217
 5276SOL    HW127287   2.328   4.153   3.128 -1.2417 -0.1320 -1.0496
 5276SOL    HW227288   2.335   4.062   3.239 -0.0562 -1.1209 -0.2525
 5277SOL     OW27289   1.045   1.362   4.907 -0.0065  0.0189  0.4733
 5277SOL    HW127290   1.059   1.376   4.814 -2.2160 -1.3495 -0.0393
 5277SOL    HW227291   1.129   1.394   4.940  0.7875 -0.5621 -0.9909
 5278SOL     OW27292   0.621   1.973   2.660  0.6749 -0.2924 -0.5958
 5278SOL    HW127293   0.648   1.904   2.600  1.5752 -1.0548  0.6937
 5278SOL    HW227294   0.654   1.934   2.741 -0.7455 -0.1676  0.0291
 5279SOL     OW27295   3.546   3.856   7.588 -0.0850 -0.3324 -0.4719
 5279SOL    HW127296   3.454   3.867   7.564  0.0982 -1.2473 -1.5688
 5279SOL    HW227297   3.562   3.770   7.550  0.0273 -0.6574  0.3160
 5280SOL     OW27298   2.856   0.808   1.098  0.0374  0.1085 -0.8085
 5280SOL    HW127299   2.771   0.781   1.130  0.6060  0.4527  0.9652
 5280SOL    HW227300   2.904   0.837   1.175  1.9080  0.5681 -2.1308
 5281SOL     OW27301   3.474   1.922   3.863 -0.0396  0.4480 -0.3617
 5281SOL    HW127302   3.482   2.017   3.862 -1.3420  0.5700  0.5649
 5281SOL    HW227303   3.468   1.908   3.768  1.1875  0.8303 -0.4860
 5282SOL     OW27304   1.055   2.888  11.101  0.4278  0.1111  0.1105
 5282SOL    HW127305   1.076   2.903  11.009 -0.9656  0.2339 -0.1901
 5282SOL    HW227306   0.965   2.856  11.093 -0.0099  0.9930  1.5474
 5283SOL     OW27307   0.474   2.144   1.857 -0.5098  0.1564 -0.4111
 5283SOL    HW127308   0.439   2.225   1.819 -2.0533 -2.2343 -4.0821
 5283SOL    HW227309   0.469   2.074   1.791 -1.3992 -1.6234  1.5406
 5284SOL     OW27310   3.870   3.938   2.611  0.0288 -0.6614 -0.0384
 5284SOL    HW127311   3.931   3.952   2.683  0.3272  0.0785 -0.4229
 5284SOL    HW227312   3.927   3.953   2.536 -0.3126 -1.0188 -0.3714
 5285SOL     OW27313   1.975   2.195   7.232  0.2782 -0.6492  0.2490
 5285SOL    HW127314   1.975   2.280   7.277 -1.7469 -0.1969 -0.5960
 5285SOL    HW227315   1.967   2.142   7.311  2.7484  0.4910  1.2799
 5286SOL     OW27316   2.997   3.276   6.711  0.1843  0.5854  0.5407
 5286SOL    HW127317   2.942   3.268   6.634  0.1232 -2.6100  0.9179
 5286SOL    HW227318   2.936   3.302   6.780  2.7988  1.6423  2.4610
 5287SOL     OW27319   3.894   1.822   2.902  0.0909  0.1790  0.6810
 5287SOL    HW127320   3.919   1.858   2.987 -1.5636 -1.0501  1.6993
 5287SOL    HW227321   3.872   1.899   2.850  0.0153 -0.0347  0.3974
 5288SOL     OW27322   1.012   4.431  13.997 -0.3747  0.2943 -0.3118
 5288SOL    HW127323   1.000   4.367  14.067 -2.1100  0.5942 -0.3508
 5288SOL    HW227324   1.037   4.377  13.922 -2.0925 -0.2548 -0.4784
 5289SOL     OW27325   4.206   3.956  14.912 -0.0461  0.0669  0.2475
 5289SOL    HW127326   4.290   3.911  14.923 -0.0982 -0.0808  0.0604
 5289SOL    HW227327   4.179   3.910  14.832 -3.5570  1.3198  0.6945
 5290SOL     OW27328   2.526   3.874   1.905  0.4186 -0.0145 -0.3401
 5290SOL    HW127329   2.530   3.968   1.884  0.5278  0.5475  2.2038
 5290SOL    HW227330   2.532   3.878   2.000 -0.4969 -2.3777 -0.1827
 5291SOL     OW27331   3.227   0.310   2.769  0.2573 -0.7793  1.0412
 5291SOL    HW127332   3.134   0.290   2.754  0.6256 -0.9650 -0.9815
 5291SOL    HW227333   3.226   0.382   2.831  0.3833  0.0578  0.0730
 5292SOL     OW27334   3.715   1.765   2.304  0.0361  0.0992  0.5765
 5292SOL    HW127335   3.781   1.826   2.338  0.9419 -0.4641 -0.1951
 5292SOL    HW227336   3.651   1.831   2.275  1.0058  1.1584  0.8283
 5293SOL     OW27337   0.183   0.980  17.012 -0.1775  0.0795  0.6482
 5293SOL    HW127338   0.174   0.936  16.928  3.8555 -0.3352  0.4663
 5293SOL    HW227339   0.094   0.966  17.045 -0.2843  2.0135  1.1797
 5294SOL     OW27340   2.701   4.308   6.712  1.1219  0.4634 -0.0104
 5294SOL    HW127341   2.773   4.370   6.700  1.3969  0.6284  2.4706
 5294SOL    HW227342   2.671   4.324   6.801  1.8801  2.4471 -0.1185
 5295SOL     OW27343   3.647   3.294  11.290  0.0568  0.4430 -0.3534
 5295SOL    HW127344   3.670   3.383  11.265  1.5176 -0.5143 -2.4848
 5295SOL    HW227345   3.559   3.284  11.252 -0.5254  0.4963  1.0056
 5296SOL     OW27346   3.458   1.032  13.632  0.7086 -0.5315  0.2157
 5296SOL    HW127347   3.449   1.028  13.727 -2.4824 -0.0806 -0.0942
 5296SOL    HW227348   3.393   0.967  13.607  1.2059 -1.3257  0.9856
 5297SOL     OW27349   1.426   0.967   6.753  0.0688  0.6058  0.0705
 5297SOL    HW127350   1.449   1.057   6.729 -0.5089  0.1459 -2.2486
 5297SOL    HW227351   1.332   0.972   6.768  0.2781 -2.3793  2.3075
 5298SOL     OW27352   3.313   1.351   6.027 -0.0991 -0.5130 -0.0057
 5298SOL    HW127353   3.307   1.265   5.986  1.2715 -0.5983 -0.0303
 5298SOL    HW227354   3.233   1.384   5.986 -1.5990 -1.9348  1.7835
 5299SOL     OW27355   0.834   0.451   3.575 -0.3180  0.1522 -0.4596
 5299SOL    HW127356   0.895   0.402   3.630 -0.0236  3.1156  1.8696
 5299SOL    HW227357   0.854   0.407   3.493  3.9617 -2.7590  2.0917
 5300SOL     OW27358   1.945   2.592   4.740 -0.0608 -0.8492  0.6676
 5300SOL    HW127359   1.890   2.616   4.815 -1.0644 -0.8218 -0.0736
 5300SOL    HW227360   1.947   2.675   4.692 -0.4141 -0.5617  1.1469
 5301SOL     OW27361   1.448   4.693  12.203  0.3534  0.1681 -0.7692
 5301SOL    HW127362   1.473   0.044  12.148 -1.2250  1.2007 -0.0654
 5301SOL    HW227363   1.415   0.013  12.281  0.3931 -2.6486  0.8013
 5302SOL     OW27364   4.444   0.667  17.267 -0.4062  0.8266  0.0074
 5302SOL    HW127365   4.382   0.658  17.340  0.5967  0.3552  0.7986
 5302SOL    HW227366   4.527   0.637  17.303 -0.4906 -0.3542 -0.7810
 5303SOL     OW27367   0.394   0.363   8.361 -0.6227 -0.3776  0.0619
 5303SOL    HW127368   0.453   0.429   8.397  0.1871 -0.8049 -0.4765
 5303SOL    HW227369   0.467   0.306   8.338  0.5140  1.0073  0.2401
 5304SOL     OW27370   0.006   4.341   1.227 -0.3323  0.2815  0.2191
 5304SOL    HW127371   4.643   4.381   1.231 -0.5508 -0.4474  2.6384
 5304SOL    HW227372   4.701   4.250   1.228 -0.8583  0.4533  0.6583
 5305SOL     OW27373   0.148   4.712   7.347 -1.1323 -0.1607  0.1034
 5305SOL    HW127374   0.107   0.027   7.269  3.1014  1.7216 -1.1751
 5305SOL    HW227375   0.147   0.056   7.414 -1.7092  1.1381 -1.2204
 5306SOL     OW27376   1.606   1.475   2.260 -0.5996  0.2142  0.4252
 5306SOL    HW127377   1.605   1.383   2.236 -0.3249  0.5361 -0.8512
 5306SOL    HW227378   1.618   1.521   2.176  0.5809 -1.5022 -0.3611
 5307SOL     OW27379   4.000   4.143   5.525  0.2301  0.0877 -0.2106
 5307SOL    HW127380   4.002   4.193   5.443  0.1767 -0.9557 -0.8428
 5307SOL    HW227381   4.078   4.093   5.503 -0.5915 -1.1268 -0.3352
 5308SOL     OW27382   2.384   1.874   8.885 -0.2447  0.2909  0.4953
 5308SOL    HW127383   2.368   1.823   8.806 -0.8261 -1.6229  1.8426
 5308SOL    HW227384   2.332   1.952   8.871  0.1263  0.4539  0.0277
 5309SOL     OW27385   2.621   0.260   2.648 -0.6353 -0.6632  0.1263
 5309SOL    HW127386   2.587   0.285   2.734  0.9003 -1.8632  1.0889
 5309SOL    HW227387   2.668   0.179   2.666  0.5410  0.1202  0.5399
 5310SOL     OW27388   2.804   2.129  13.650  0.4513 -0.4056  0.5372
 5310SOL    HW127389   2.770   2.216  13.633 -2.2767 -1.5563  0.0856
 5310SOL    HW227390   2.758   2.112  13.733  0.4713 -1.5549  0.3158
 5311SOL     OW27391   3.896   3.345  14.638 -0.1645  0.1104  0.7774
 5311SOL    HW127392   3.989   3.331  14.617 -0.9098 -0.8178 -1.9417
 5311SOL    HW227393   3.866   3.255  14.648  2.4968 -0.8939 -0.1205
 5312SOL     OW27394   2.952   1.238   1.997  0.5766 -0.5384  0.0463
 5312SOL    HW127395   2.882   1.260   1.935 -1.3664 -0.5017  2.2719
 5312SOL    HW227396   2.981   1.158   1.954  1.8590  0.2471 -0.5768
 5313SOL     OW27397   0.043   1.347   8.168 -0.4690 -0.7628  0.0596
 5313SOL    HW127398   0.139   1.352   8.170 -0.3948 -1.7900 -0.8558
 5313SOL    HW227399   0.031   1.326   8.261  1.0605 -2.5218 -0.1409
 5314SOL     OW27400   2.771   2.786   8.352  0.0392  0.0818  0.3782
 5314SOL    HW127401   2.819   2.851   8.403  1.4255  0.0519 -0.9055
 5314SOL    HW227402   2.830   2.765   8.280  0.2515 -3.2213  1.5195
 5315SOL     OW27403   4.033   4.161  11.681  0.3333 -0.7422  0.6794
 5315SOL    HW127404   4.039   4.255  11.662 -1.4406 -1.0323 -1.2596
 5315SOL    HW227405   4.078   4.124  11.605  0.7837  1.5768 -0.2033
 5316SOL     OW27406   1.006   1.571   2.160  0.0338 -0.3901 -0.0118
 5316SOL    HW127407   0.946   1.541   2.229  2.3917  1.8339  2.9884
 5316SOL    HW227408   1.078   1.509   2.172 -0.3141 -0.7358  0.3073
 5317SOL     OW27409   1.313   0.457  14.026  0.1224 -0.1847  1.0957
 5317SOL    HW127410   1.393   0.419  14.064  1.8647  0.7718 -1.6227
 5317SOL    HW227411   1.324   0.549  14.050 -1.2301  0.5889 -1.2186
 5318SOL     OW27412   0.487   1.122   4.264 -0.0044  0.5946 -0.2712
 5318SOL    HW127413   0.444   1.205   4.283  0.1115  0.3809  0.9198
 5318SOL    HW227414   0.472   1.120   4.169  0.5723 -0.4964 -0.3425
 5319SOL     OW27415   2.811   1.886  13.995  0.5683 -0.3547  0.1451
 5319SOL    HW127416   2.781   1.905  14.084 -1.4822  0.3091 -0.6836
 5319SOL    HW227417   2.773   1.959  13.946 -0.3543  0.0419  1.4407
 5320SOL     OW27418   1.805   1.375   3.853  0.2040  0.4719 -0.3021
 5320SOL    HW127419   1.782   1.439   3.785 -0.0777 -0.5697 -1.1982
 5320SOL    HW227420   1.745   1.399   3.923 -0.5531 -1.7386 -0.1916
 5321SOL     OW27421   0.991   2.114  10.056 -0.7594  0.6331  0.4962
 5321SOL    HW127422   0.986   2.130  10.150 -2.8798  1.2320  0.2785
 5321SOL    HW227423   0.955   2.196  10.023 -0.0322 -0.1210 -2.1977
 5322SOL     OW27424   3.433   4.705  16.892 -0.3336 -0.1685  0.2237
 5322SOL    HW127425   3.477   4.624  16.917  0.2812 -0.4874 -1.8734
 5322SOL    HW227426   3.354   4.691  16.943 -0.5934  0.9978  0.1486
 5323SOL     OW27427   0.636   3.577   3.574  0.5794 -0.2120  0.1330
 5323SOL    HW127428   0.691   3.605   3.648 -0.4077 -0.0985  0.8188
 5323SOL    HW227429   0.574   3.650   3.575 -0.4075 -1.0473  0.3129
 5324SOL     OW27430   3.509   2.013   4.538 -0.2838 -0.1672 -0.3020
 5324SOL    HW127431   3.430   2.025   4.486  0.1579 -0.9121 -1.1628
 5324SOL    HW227432   3.470   1.994   4.623 -0.1464  0.7523 -0.0362
 5325SOL     OW27433   1.175   0.699   5.711 -0.3053  0.4998  0.3417
 5325SOL    HW127434   1.257   0.653   5.692 -0.9556 -0.9773  1.0502
 5325SOL    HW227435   1.135   0.687   5.625 -0.2467 -1.0828  0.5206
 5326SOL     OW27436   2.469   2.061   7.319 -0.3958  0.0887  0.0624
 5326SOL    HW127437   2.450   2.093   7.231  0.8048 -0.3844 -0.3580
 5326SOL    HW227438   2.432   2.135   7.369 -1.2742  0.9105 -1.8084
 5327SOL     OW27439   4.673   3.940   5.963 -0.4266 -0.0904 -0.1757
 5327SOL    HW127440   4.600   4.001   5.965 -0.1376  0.2904 -1.1373
 5327SOL    HW227441   4.666   3.914   6.054  0.7244  0.0371 -0.0463
 5328SOL     OW27442   1.191   0.982   8.112  0.5106  0.0732  0.3099
 5328SOL    HW127443   1.142   0.992   8.194  0.0887 -1.9130  0.3044
 5328SOL    HW227444   1.230   0.895   8.127  1.4689  1.0891  3.6338
 5329SOL     OW27445   0.838   0.725   1.021 -0.5277  0.0611  0.1030
 5329SOL    HW127446   0.845   0.806   0.970  0.4544  0.4211  0.8227
 5329SOL    HW227447   0.903   0.752   1.085  0.6247  0.9718 -1.4433
 5330SOL     OW27448   2.585   0.428   6.666 -0.0534 -0.4365  0.0047
 5330SOL    HW127449   2.571   0.499   6.729 -1.1799  0.7437 -1.5628
 5330SOL    HW227450   2.673   0.413   6.701 -0.2476  0.8673  1.0486
 5331SOL     OW27451   3.000   3.119   2.366  0.4356  0.0083  0.0086
 5331SOL    HW127452   3.067   3.132   2.299 -0.0972  2.9587  0.0658
 5331SOL    HW227453   3.027   3.038   2.410 -3.1013 -3.0150 -3.3657
 5332SOL     OW27454   4.509   1.886  14.527 -0.0823 -0.0303  0.6422
 5332SOL    HW127455   4.455   1.830  14.583 -0.2269 -1.8659 -1.3349
 5332SOL    HW227456   4.584   1.830  14.506 -0.4168  0.1099 -0.8976
 5333SOL     OW27457   0.442   2.051   8.906 -0.1561  0.1251  0.2975
 5333SOL    HW127458   0.393   2.000   8.972  0.2911 -0.6979 -0.0007
 5333SOL    HW227459   0.433   1.989   8.834  0.5009 -0.8462  1.0493
 5334SOL     OW27460   3.352   4.431   9.251 -0.2618  0.3879  0.1819
 5334SOL    HW127461   3.422   4.496   9.253 -0.9624  1.1450  0.2904
 5334SOL    HW227462   3.284   4.472   9.197  0.5577  1.8655  0.2634
 5335SOL     OW27463   3.433   1.360   0.613 -0.2550 -0.0692 -0.1190
 5335SOL    HW127464   3.488   1.400   0.546  0.9892 -0.5348  0.6254
 5335SOL    HW227465   3.468   1.404   0.690  1.9080 -0.3846 -0.9332
 5336SOL     OW27466   3.321   2.201   2.538  0.6367 -0.3496  0.0383
 5336SOL    HW127467   3.276   2.125   2.575  1.8822 -0.1277  2.0075
 5336SOL    HW227468   3.407   2.160   2.534  0.1863 -1.4011  1.1018
 5337SOL     OW27469   4.220   0.130   6.662  0.0376  0.0786 -0.2878
 5337SOL    HW127470   4.225   0.187   6.739  1.7138 -0.1265 -0.2429
 5337SOL    HW227471   4.260   0.186   6.595 -0.8151 -1.4217 -2.0692
 5338SOL     OW27472   1.838   2.932  16.801  0.2937 -0.5852  0.2206
 5338SOL    HW127473   1.820   2.896  16.714 -1.0121  1.5634 -0.4042
 5338SOL    HW227474   1.750   2.955  16.831  0.5468 -0.8954  1.2086
 5339SOL     OW27475   0.540   3.380  17.277 -0.0903  0.6861 -0.2001
 5339SOL    HW127476   0.601   3.333  17.334 -1.5949 -2.2983 -1.0278
 5339SOL    HW227477   0.461   3.374  17.331  0.3219  1.4513  0.4919
 5340SOL     OW27478   0.461   2.377   7.238  0.1526 -1.0328  0.0375
 5340SOL    HW127479   0.506   2.336   7.164  1.0643 -1.5600  0.8908
 5340SOL    HW227480   0.530   2.434   7.271  0.7027 -0.7132 -1.6384
 5341SOL     OW27481   0.597   1.030   3.006 -0.0479 -0.0455 -0.1984
 5341SOL    HW127482   0.690   1.012   2.988  0.1803  1.0450 -0.1046
 5341SOL    HW227483   0.551   0.946   3.001 -1.8518  0.9859 -0.7920
 5342SOL     OW27484   3.104   0.676   5.845 -0.3545  0.0487  0.4359
 5342SOL    HW127485   3.104   0.715   5.758  1.7214 -0.9661 -0.0083
 5342SOL    HW227486   3.062   0.747   5.894 -0.5411  1.1774 -1.3563
 5343SOL     OW27487   0.259   0.674   5.505 -0.2341  0.0413 -0.3451
 5343SOL    HW127488   0.298   0.747   5.553 -0.5465 -0.2797  0.3811
 5343SOL    HW227489   0.332   0.645   5.449 -0.4348 -1.1616  0.0179
 5344SOL     OW27490   2.440   1.957   7.754 -0.6259  0.1926  0.1405
 5344SOL    HW127491   2.493   2.037   7.751  1.2912 -1.0343  1.3242
 5344SOL    HW227492   2.501   1.886   7.775  2.3603  2.3924 -1.0972
 5345SOL     OW27493   4.436   0.553   6.473  0.3033  0.3333  0.2106
 5345SOL    HW127494   4.365   0.525   6.530  1.2605  0.9939  1.7402
 5345SOL    HW227495   4.462   0.468   6.437  0.1921  1.1885 -1.8667
 5346SOL     OW27496   2.511   3.938   2.722 -0.0079  0.3000  0.1391
 5346SOL    HW127497   2.605   3.924   2.714 -0.2156  0.3199 -2.3582
 5346SOL    HW227498   2.482   3.848   2.705  0.0826  0.5222 -1.1708
 5347SOL     OW27499   0.178   0.286   4.391 -0.1054 -0.5773  0.1054
 5347SOL    HW127500   0.084   0.299   4.385 -0.0810  0.0100  0.9346
 5347SOL    HW227501   0.198   0.314   4.301  1.0019 -1.6291  0.0255
 5348SOL     OW27502   3.790   1.639  13.484  0.0748  0.0321 -0.1233
 5348SOL    HW127503   3.738   1.717  13.462 -0.3705 -0.4284 -0.7183
 5348SOL    HW227504   3.797   1.660  13.577 -0.9489 -2.0143  0.4104
 5349SOL     OW27505   3.658   2.230   6.994  0.3945 -0.2493  0.2198
 5349SOL    HW127506   3.612   2.163   6.943 -0.0335 -0.5970  1.0641
 5349SOL    HW227507   3.744   2.214   6.954 -0.1819 -0.1811 -1.0476
 5350SOL     OW27508   4.078   0.108   8.068 -0.0627  0.2273 -0.7328
 5350SOL    HW127509   4.168   0.087   8.043  0.1213 -1.7437  1.5319
 5350SOL    HW227510   4.043   0.024   8.098 -0.2404  0.2396 -0.9069
 5351SOL     OW27511   3.189   1.232   2.167 -0.6387 -0.5675 -0.2036
 5351SOL    HW127512   3.183   1.270   2.254  0.5849  0.0403 -0.3830
 5351SOL    HW227513   3.103   1.236   2.126 -0.6830  1.2660  0.0687
 5352SOL     OW27514   2.644   1.977   6.615  0.1109  0.2006 -0.5466
 5352SOL    HW127515   2.609   1.889   6.628 -2.2902  1.0573 -1.1915
 5352SOL    HW227516   2.646   1.986   6.520  0.1780 -1.1189 -0.6696
 5353SOL     OW27517   1.426   0.311   2.225  0.4637  0.3850  0.2909
 5353SOL    HW127518   1.519   0.304   2.248  0.2152 -2.0266  0.5113
 5353SOL    HW227519   1.429   0.331   2.132  1.4670 -1.1875 -0.0123
 5354SOL     OW27520   2.609   3.511   8.541 -0.4116  0.0086 -0.0554
 5354SOL    HW127521   2.554   3.444   8.582 -0.6157  0.9083  1.1461
 5354SOL    HW227522   2.644   3.463   8.466  1.8930 -0.0928  1.0795
 5355SOL     OW27523   2.590   2.887   9.920  0.5314  0.2524 -0.1467
 5355SOL    HW127524   2.615   2.829   9.992 -0.1625  0.6531  0.4182
 5355SOL    HW227525   2.621   2.968   9.960  1.3436 -0.0677 -0.1139
 5356SOL     OW27526   0.799   4.273   7.074 -0.1918  0.2629  0.5176
 5356SOL    HW127527   0.783   4.182   7.049  1.1251  0.0690  0.4103
 5356SOL    HW227528   0.731   4.319   7.024  3.0603  0.7484 -3.4281
 5357SOL     OW27529   0.324   0.636   2.640  0.0855 -0.0580  0.3878
 5357SOL    HW127530   0.407   0.676   2.614 -1.2034  2.0850 -0.5248
 5357SOL    HW227531   0.328   0.550   2.599 -0.7572  0.1065 -0.0346
 5358SOL     OW27532   1.730   1.300   5.082  0.0728 -0.2106  0.2580
 5358SOL    HW127533   1.670   1.284   5.155 -0.7171 -0.2549 -0.3994
 5358SOL    HW227534   1.804   1.241   5.095  0.5647  0.5762  1.0199
 5359SOL     OW27535   1.636   0.641   8.189 -0.4868 -0.0388 -0.8511
 5359SOL    HW127536   1.591   0.722   8.211  0.5018  0.2130  0.2546
 5359SOL    HW227537   1.566   0.576   8.195  0.3735 -0.6418  2.3882
 5360SOL     OW27538   0.438   0.927   6.082 -0.1592 -0.1898  0.3459
 5360SOL    HW127539   0.482   1.008   6.055 -2.1686  0.2102 -1.7762
 5360SOL    HW227540   0.435   0.949   6.175 -0.3193 -1.8407  0.7203
 5361SOL     OW27541   0.713   2.764   5.223  0.1026 -0.3662  0.3088
 5361SOL    HW127542   0.706   2.812   5.140 -1.5542 -0.4104  0.4144
 5361SOL    HW227543   0.794   2.796   5.260 -0.1818 -0.5718  1.1099
 5362SOL     OW27544   3.584   1.157   3.244  1.0515 -0.0242  0.0051
 5362SOL    HW127545   3.606   1.162   3.151 -0.5584  0.0031 -0.3744
 5362SOL    HW227546   3.665   1.122   3.280  1.2858  0.9331  0.4127
 5363SOL     OW27547   4.077   0.679   7.550 -0.1065  0.3588  0.1628
 5363SOL    HW127548   4.170   0.668   7.530 -0.1912 -0.2690  0.1099
 5363SOL    HW227549   4.033   0.689   7.466  0.8389 -0.3653 -0.4147
 5364SOL     OW27550   3.968   1.860   3.524 -0.4865  0.3227  0.3205
 5364SOL    HW127551   3.919   1.847   3.606 -0.7858 -3.9932 -0.5347
 5364SOL    HW227552   3.977   1.954   3.539  0.5313  0.2732 -0.0053
 5365SOL     OW27553   3.546   1.011   5.031 -0.3022 -0.1493 -0.3156
 5365SOL    HW127554   3.599   1.022   5.110 -0.7874  0.7657 -0.1167
 5365SOL    HW227555   3.482   0.955   5.076 -1.6571  0.9832 -0.8464
 5366SOL     OW27556   0.168   2.580   6.000 -0.7069 -0.2097  0.3307
 5366SOL    HW127557   0.184   2.558   5.908  0.7226  1.8326  0.1015
 5366SOL    HW227558   0.246   2.630   6.023  1.0908 -1.8192 -2.2206
 5367SOL     OW27559   0.889   0.211   0.175  0.3388 -0.0346 -0.0453
 5367SOL    HW127560   0.849   0.289   0.215 -0.7298 -0.6746  0.1329
 5367SOL    HW227561   0.833   0.151   0.223  0.5235 -0.9183 -0.9564
 5368SOL     OW27562   2.143   0.483  15.635 -0.6848  0.2171 -0.4134
 5368SOL    HW127563   2.130   0.567  15.679 -0.5299 -0.1493  0.3412
 5368SOL    HW227564   2.182   0.515  15.554 -2.0355  0.0870 -1.1008
 5369SOL     OW27565   4.337   1.257   3.346  0.0183 -0.0959 -1.0681
 5369SOL    HW127566   4.324   1.346   3.312  0.4219  0.5772  0.5594
 5369SOL    HW227567   4.433   1.257   3.345 -0.0003 -2.8021 -0.8980
 5370SOL     OW27568   1.526   3.755  11.422 -0.1866 -0.0171 -0.1524
 5370SOL    HW127569   1.599   3.763  11.361  0.9067 -1.3814  0.9656
 5370SOL    HW227570   1.521   3.660  11.428 -0.1037  0.0824  1.6883
 5371SOL     OW27571   2.725   4.089   3.269  0.4480  0.0856  0.1696
 5371SOL    HW127572   2.720   4.138   3.187  0.6089  1.0436  0.7322
 5371SOL    HW227573   2.789   4.137   3.322  0.3859  0.0435  0.2827
 5372SOL     OW27574   2.499   3.213   2.310 -0.3738 -0.6166 -0.1790
 5372SOL    HW127575   2.449   3.141   2.270 -0.5953 -0.3100 -0.4546
 5372SOL    HW227576   2.588   3.179   2.321 -0.3850 -0.6880 -0.3032
 5373SOL     OW27577   3.815   0.815  11.801  0.1847  0.1075 -0.1196
 5373SOL    HW127578   3.878   0.882  11.776  1.0786 -1.5014 -2.1891
 5373SOL    HW227579   3.785   0.848  11.886  1.7307 -0.3062  0.5866
 5374SOL     OW27580   0.338   1.509  10.677 -0.0916  0.0015  0.4519
 5374SOL    HW127581   0.253   1.464  10.674  0.4265 -0.9038 -0.9948
 5374SOL    HW227582   0.359   1.501  10.584  0.2743 -0.0051  0.5363
 5375SOL     OW27583   0.708   0.213   9.701  0.1355  0.5908  0.4004
 5375SOL    HW127584   0.672   0.279   9.760  0.0391  0.3616  0.5959
 5375SOL    HW227585   0.655   0.242   9.627  1.1640  1.3452 -0.0374
 5376SOL     OW27586   3.908   2.951   7.774  0.0199 -0.4206 -0.3131
 5376SOL    HW127587   3.900   3.037   7.815  0.2700 -1.2307  1.3968
 5376SOL    HW227588   4.000   2.927   7.770  0.2623  0.3190  0.9545
 5377SOL     OW27589   1.262   2.677  17.666 -0.5046 -0.1605 -0.4243
 5377SOL    HW127590   1.230   2.665  17.577  0.7362  1.3485 -1.0516
 5377SOL    HW227591   1.194   2.733   0.005 -0.2234  0.5072 -0.9472
 5378SOL     OW27592   3.290   0.254   1.401  0.0341 -0.1291 -0.3630
 5378SOL    HW127593   3.279   0.269   1.495  1.0310  3.6310 -0.8344
 5378SOL    HW227594   3.297   0.159   1.391 -3.0339 -0.2268 -1.5794
 5379SOL     OW27595   1.226   2.075   3.033 -0.0246  0.0113  0.1942
 5379SOL    HW127596   1.157   2.022   2.993  0.3563  1.0028 -1.8350
 5379SOL    HW227597   1.273   2.103   2.954 -0.6937 -2.2953 -1.0284
 5380SOL     OW27598   2.804   0.436   7.393  0.1793 -0.1821 -0.4487
 5380SOL    HW127599   2.810   0.352   7.348 -0.3934 -0.3163 -0.2799
 5380SOL    HW227600   2.867   0.426   7.464 -1.9305 -1.8686  1.1937
 5381SOL     OW27601   3.427   2.615   3.963  0.3791  0.2619  0.0739
 5381SOL    HW127602   3.399   2.678   3.897  0.0332 -0.4937 -0.4944
 5381SOL    HW227603   3.465   2.552   3.902 -2.0648  2.8094 -4.1259
 5382SOL     OW27604   1.277   0.910   3.946  0.0637  0.5345  0.4186
 5382SOL    HW127605   1.344   0.849   3.915  0.3456  2.3077 -2.3624
 5382SOL    HW227606   1.240   0.926   3.860  1.3107 -1.3392 -0.4709
 5383SOL     OW27607   3.978   1.352   6.799 -0.0569  0.1035 -0.0451
 5383SOL    HW127608   3.928   1.302   6.864  1.2666 -1.8751 -0.5689
 5383SOL    HW227609   4.063   1.311   6.812 -0.7231 -1.0056  0.8272
 5384SOL     OW27610   1.031   2.284   3.513  0.2166 -0.0439  0.1332
 5384SOL    HW127611   1.017   2.313   3.423 -0.0778  0.4751  0.3475
 5384SOL    HW227612   0.970   2.210   3.508  0.1538  0.1564 -2.3021
 5385SOL     OW27613   4.171   2.567  12.872  0.3737  0.4260 -0.0998
 5385SOL    HW127614   4.189   2.488  12.820  0.8886  0.9437 -0.6959
 5385SOL    HW227615   4.228   2.533  12.941  0.6091  0.2542 -0.3796
 5386SOL     OW27616   2.446   0.944   5.942 -0.0437 -0.2799  0.4327
 5386SOL    HW127617   2.531   0.984   5.960 -0.3317  0.8882 -0.8775
 5386SOL    HW227618   2.407   0.920   6.027 -0.4426 -1.8158 -0.1797
 5387SOL     OW27619   1.077   2.918   3.887 -0.0719 -0.0699  0.1618
 5387SOL    HW127620   1.130   2.986   3.846  1.0901 -0.6074  0.7945
 5387SOL    HW227621   1.068   2.853   3.817 -1.8604 -1.3898  1.6178
 5388SOL     OW27622   4.496   4.446  17.695 -0.1488 -0.0809  0.7343
 5388SOL    HW127623   4.433   4.518  17.689 -0.2040 -0.1302  0.7297
 5388SOL    HW227624   4.552   4.473  17.621 -0.4370 -1.9009 -0.1465
 5389SOL     OW27625   4.361   0.066  14.369 -0.3212  0.0609  0.3572
 5389SOL    HW127626   4.423   0.086  14.299  0.2204 -2.0621  0.2358
 5389SOL    HW227627   4.391   4.705  14.402  1.9180  0.7754  0.1998
 5390SOL     OW27628   1.066   2.709   3.708 -0.1943  0.2268 -0.5463
 5390SOL    HW127629   1.066   2.650   3.783  0.8231  1.2986  0.3143
 5390SOL    HW227630   1.001   2.671   3.648  0.5642  0.8578 -1.7775
 5391SOL     OW27631   2.416   4.052   8.332  0.2163 -0.1842  0.1209
 5391SOL    HW127632   2.463   3.992   8.274  0.2490  0.9027 -0.9813
 5391SOL    HW227633   2.485   4.091   8.386 -0.8973  1.7750  0.1569
 5392SOL     OW27634   1.350   1.987   8.498 -0.2877  0.3012  0.1026
 5392SOL    HW127635   1.266   2.012   8.536 -0.7380 -0.6845 -0.2479
 5392SOL    HW227636   1.324   1.927   8.428  0.5793  1.4031 -1.1628
 5393SOL     OW27637   1.693   0.444   5.354  0.3850 -0.0820  0.5734
 5393SOL    HW127638   1.614   0.396   5.376  1.1854 -0.7187  2.1182
 5393SOL    HW227639   1.755   0.371   5.352  1.3256  0.6154  3.0480
 5394SOL     OW27640   0.665   2.977   2.100  0.1709  0.3787  0.7927
 5394SOL    HW127641   0.733   3.014   2.044 -1.1874  2.3328  0.4214
 5394SOL    HW227642   0.671   2.886   2.071  0.2422  1.8786 -3.8824
 5395SOL     OW27643   2.674   1.994  14.655  0.4316 -0.0502  0.3954
 5395SOL    HW127644   2.752   1.939  14.656 -0.1602 -0.8947 -0.5692
 5395SOL    HW227645   2.700   2.056  14.587  0.5099  0.1520  0.6073
 5396SOL     OW27646   1.631   3.191   3.875 -0.9546 -0.0851  0.4618
 5396SOL    HW127647   1.694   3.181   3.946 -0.3199  0.9694  0.0470
 5396SOL    HW227648   1.553   3.164   3.923 -0.7687 -1.0976  0.1793
 5397SOL     OW27649   0.709   4.499   8.252  0.5443 -0.0683  0.1414
 5397SOL    HW127650   0.681   4.411   8.278  1.1839  0.2828  2.0528
 5397SOL    HW227651   0.794   4.477   8.214  0.6045  0.4851 -0.0483
 5398SOL     OW27652   3.104   3.544   1.287 -0.1843 -0.3707  0.2326
 5398SOL    HW127653   3.132   3.524   1.198  0.4974 -1.6269  0.7288
 5398SOL    HW227654   3.139   3.465   1.328  1.1136 -1.1721 -2.4223
 5399SOL     OW27655   1.471   0.761   6.562 -0.0081 -0.4649 -0.4377
 5399SOL    HW127656   1.452   0.772   6.655 -2.4672 -1.1946 -0.8383
 5399SOL    HW227657   1.415   0.690   6.531  1.0506 -2.1050  1.3908
 5400SOL     OW27658   2.540   2.003   8.661  0.1792  0.2021 -0.2735
 5400SOL    HW127659   2.598   1.929   8.644 -0.6519 -0.0612 -1.9078
 5400SOL    HW227660   2.455   1.961   8.656  0.3363 -0.2524  0.8837
 5401SOL     OW27661   3.989   4.591   4.980 -0.2255 -0.1829 -0.4806
 5401SOL    HW127662   4.083   4.588   4.961 -0.0624 -0.2409  0.3430
 5401SOL    HW227663   3.951   4.537   4.910 -1.4002  2.1975 -1.7088
 5402SOL     OW27664   3.699   0.502   4.776 -0.0443  0.5511 -0.4032
 5402SOL    HW127665   3.645   0.507   4.855  0.5056 -0.0283  0.0089
 5402SOL    HW227666   3.768   0.538   4.831  0.9763 -0.9743 -0.6890
 5403SOL     OW27667   2.210   3.683   2.819 -0.0100 -0.3681  0.3904
 5403SOL    HW127668   2.191   3.674   2.726  1.4999 -1.1445  0.1619
 5403SOL    HW227669   2.196   3.774   2.848 -0.0865 -0.5451  0.9027
 5404SOL     OW27670   3.525   3.295   5.632 -0.3449 -0.3606  0.3900
 5404SOL    HW127671   3.467   3.372   5.638 -0.2234 -0.3666  1.6309
 5404SOL    HW227672   3.598   3.324   5.687  1.4355  0.3399 -2.3763
 5405SOL     OW27673   4.247   4.390  16.321 -0.1295 -0.2201  0.1798
 5405SOL    HW127674   4.240   4.369  16.414  1.1761 -0.0822  0.3084
 5405SOL    HW227675   4.214   4.480  16.326 -0.3514 -0.3814  1.6350
 5406SOL     OW27676   2.682   1.973   4.963 -0.4761 -0.9452 -0.6882
 5406SOL    HW127677   2.619   1.983   5.034  0.2553  0.8604 -0.2965
 5406SOL    HW227678   2.722   2.060   4.960 -0.6590 -0.8046  0.7314
 5407SOL     OW27679   2.240   1.133   6.934  0.5095  0.6423 -0.5831
 5407SOL    HW127680   2.145   1.126   6.943  0.6384 -1.6645 -1.0330
 5407SOL    HW227681   2.245   1.228   6.948  0.7252  0.0536  3.4899
 5408SOL     OW27682   3.595   2.274   6.682 -0.1398  0.6347 -0.2039
 5408SOL    HW127683   3.577   2.322   6.602 -1.9694 -2.1373 -1.4425
 5408SOL    HW227684   3.538   2.328   6.737  1.0729 -0.4227  2.1018
 5409SOL     OW27685   2.836   0.344  15.048  0.1203  0.2685 -0.1472
 5409SOL    HW127686   2.872   0.351  14.959 -1.0514 -1.1394 -0.7357
 5409SOL    HW227687   2.752   0.301  15.033  0.4239  0.1685 -1.6032
 5410SOL     OW27688   4.158   1.165   7.744  0.0913  0.2425 -0.3889
 5410SOL    HW127689   4.123   1.084   7.708  1.3262 -0.0493 -0.9557
 5410SOL    HW227690   4.101   1.231   7.703 -3.6931 -2.5476  0.4381
 5411SOL     OW27691   1.176   2.883  10.846 -0.2960 -0.2432  0.3656
 5411SOL    HW127692   1.242   2.828  10.803  0.6178  1.7648 -0.8006
 5411SOL    HW227693   1.158   2.944  10.774  0.4720 -0.8126 -0.3066
 5412SOL     OW27694   2.587   3.209  16.319  0.4881  0.1569 -0.0241
 5412SOL    HW127695   2.607   3.277  16.383  2.0682 -0.9834  0.7166
 5412SOL    HW227696   2.550   3.257  16.245 -2.9445 -1.3331  0.7256
 5413SOL     OW27697   4.390   2.191   6.824 -0.0627  0.0665  0.3325
 5413SOL    HW127698   4.356   2.202   6.912  1.5201 -1.2827  1.0995
 5413SOL    HW227699   4.478   2.159   6.845  0.5967 -0.6056 -3.3959
 5414SOL     OW27700   0.454   4.335  13.468  0.5173  0.1515  0.0332
 5414SOL    HW127701   0.372   4.302  13.430  2.0844 -1.7068 -1.7441
 5414SOL    HW227702   0.518   4.276  13.428  0.6474 -0.6468  1.4086
 5415SOL     OW27703   2.832   0.080   8.162 -0.1248  0.1936 -0.6448
 5415SOL    HW127704   2.752   0.132   8.161  0.5369  1.2164 -0.9877
 5415SOL    HW227705   2.808   4.713   8.146 -0.3652  0.2874 -0.8345
 5416SOL     OW27706   2.917   3.574   7.567  0.0135  0.0121  0.5705
 5416SOL    HW127707   2.914   3.571   7.662 -2.6873  0.3959  0.4718
 5416SOL    HW227708   3.005   3.593   7.532 -1.0530  1.6785 -1.1986
 5417SOL     OW27709   1.265   3.008   7.890 -0.5525  0.7053  0.2429
 5417SOL    HW127710   1.209   3.085   7.894 -0.5818  0.7565 -1.1253
 5417SOL    HW227711   1.271   2.976   7.980  0.6254 -0.2882 -0.1904
 5418SOL     OW27712   2.794   2.267  12.594  0.0143  0.3693 -0.1169
 5418SOL    HW127713   2.760   2.350  12.627 -1.1337  0.1420 -0.7521
 5418SOL    HW227714   2.823   2.237  12.680  2.3255 -1.0263 -1.3834
 5419SOL     OW27715   2.742   3.455   0.546 -0.4572  0.1071  0.5815
 5419SOL    HW127716   2.680   3.410   0.604 -1.1839 -1.1085 -1.1103
 5419SOL    HW227717   2.705   3.543   0.546  0.1575  0.3634  0.5042
 5420SOL     OW27718   0.617   3.518   8.937 -0.1358 -0.3212  0.2667
 5420SOL    HW127719   0.691   3.473   8.977  0.0997  0.9185  1.2514
 5420SOL    HW227720   0.602   3.600   8.985 -0.6528 -0.0955 -0.2785
 5421SOL     OW27721   0.120   3.095  15.942 -0.2531 -0.2583 -0.5002
 5421SOL    HW127722   0.084   3.182  15.928 -0.9096 -0.0323  2.6328
 5421SOL    HW227723   0.075   3.055  15.867 -0.9666 -1.3025  0.4845
 5422SOL     OW27724   1.562   3.911  10.029 -0.2250  0.4425 -0.0253
 5422SOL    HW127725   1.469   3.913  10.050 -0.1394  0.0264  0.3827
 5422SOL    HW227726   1.580   4.005  10.024 -1.0758  0.7686  2.9290
 5423SOL     OW27727   1.783   3.075   6.060 -0.0444 -0.0888 -0.6829
 5423SOL    HW127728   1.764   3.106   6.149  0.3335 -1.2318 -0.2125
 5423SOL    HW227729   1.870   3.110   6.037  0.6667 -0.6713  1.1087
 5424SOL     OW27730   0.229   2.106   6.242 -0.1606  0.1455 -0.9357
 5424SOL    HW127731   0.213   2.059   6.160  0.8693  1.3410 -1.8219
 5424SOL    HW227732   0.137   2.128   6.252  0.1075  0.7412  0.1850
 5425SOL     OW27733   2.180   0.095  15.225  0.4296  0.5452  0.4722
 5425SOL    HW127734   2.221   0.010  15.214 -1.2285 -0.3375  1.2128
 5425SOL    HW227735   2.096   0.076  15.267 -0.0670 -0.3426 -0.9187
 5426SOL     OW27736   0.165   0.297   3.166 -0.2557  0.4844 -0.2238
 5426SOL    HW127737   0.171   0.264   3.076  1.1204  0.7666 -0.2341
 5426SOL    HW227738   0.257   0.313   3.184 -1.1800  3.5304  1.8096
 5427SOL     OW27739   4.050   0.135   5.246  0.4541 -0.2564  0.1550
 5427SOL    HW127740   3.969   0.182   5.266 -0.9888 -2.3011 -0.8970
 5427SOL    HW227741   4.058   0.151   5.152  2.2663 -2.1985 -0.0262
 5428SOL     OW27742   3.398   1.615   1.594  1.0809 -0.1767 -0.2695
 5428SOL    HW127743   3.359   1.539   1.551  0.6457  1.6357 -3.0565
 5428SOL    HW227744   3.459   1.638   1.524  1.7869 -1.8712 -0.2187
 5429SOL     OW27745   4.017   4.647   3.682 -0.3995  0.3644 -0.5651
 5429SOL    HW127746   4.108   4.664   3.659  0.5946 -3.2798  0.7263
 5429SOL    HW227747   3.997   4.587   3.610  0.2081  0.0121 -0.4398
 5430SOL     OW27748   2.806   2.868  14.295  0.4354  0.2872  0.8502
 5430SOL    HW127749   2.842   2.914  14.220 -0.4079  0.5345  0.6116
 5430SOL    HW227750   2.884   2.862  14.351 -0.6097 -0.0266  2.2652
 5431SOL     OW27751   0.643   3.559   1.465  0.2390  0.6476 -0.3830
 5431SOL    HW127752   0.686   3.644   1.476  1.1869  0.3834 -2.1016
 5431SOL    HW227753   0.583   3.555   1.540 -2.7916 -1.1093 -2.9054
 5432SOL     OW27754   0.057   2.600   7.788  0.2818  0.0576 -0.0803
 5432SOL    HW127755   0.129   2.626   7.730 -0.2492  1.2622 -0.1963
 5432SOL    HW227756   0.078   2.518   7.833  1.6931  0.4603 -0.0070
 5433SOL     OW27757   1.609   2.639   9.781  0.3990 -0.0051  0.2623
 5433SOL    HW127758   1.611   2.663   9.874 -1.6017  0.0514  0.2936
 5433SOL    HW227759   1.528   2.681   9.753  0.4172 -1.4789 -1.9955
 5434SOL     OW27760   3.153   2.327   7.937 -0.3251 -0.1288  0.1449
 5434SOL    HW127761   3.235   2.295   7.975  0.5865  0.4452 -1.3265
 5434SOL    HW227762   3.188   2.358   7.853 -1.9308  1.0392 -0.0918
 5435SOL     OW27763   2.147   2.297  14.671 -0.1573  0.5585 -0.4698
 5435SOL    HW127764   2.239   2.286  14.696 -0.6944  0.9844  1.6923
 5435SOL    HW227765   2.120   2.356  14.741 -0.3638  0.0638 -0.1374
 5436SOL     OW27766   2.370   3.207   3.196  0.3844 -0.2638 -0.4771
 5436SOL    HW127767   2.368   3.208   3.101  1.6978 -1.8098 -0.5217
 5436SOL    HW227768   2.438   3.274   3.210 -0.0337 -0.2841  1.7106
 5437SOL     OW27769   1.163   1.060  17.302 -0.4541 -0.2134  0.5794
 5437SOL    HW127770   1.142   0.966  17.308 -0.7352 -0.2422 -0.8827
 5437SOL    HW227771   1.127   1.086  17.387  0.3619  2.3846  0.1137
 5438SOL     OW27772   1.619   0.269   7.531 -0.1394 -0.4931  0.2091
 5438SOL    HW127773   1.672   0.341   7.565  0.7097 -1.1251  0.2532
 5438SOL    HW227774   1.610   0.293   7.439  1.6977 -0.2192  0.0835
 5439SOL     OW27775   3.545   0.015   6.729  0.2613  0.1597  0.6072
 5439SOL    HW127776   3.623   0.070   6.721 -0.7006  1.4327 -0.2278
 5439SOL    HW227777   3.563   4.684   6.652 -1.9829 -1.8557  1.5067
 5440SOL     OW27778   2.881   2.668   9.888 -0.0226  0.4106 -0.0913
 5440SOL    HW127779   2.967   2.632   9.868 -0.0159  1.0305 -1.1900
 5440SOL    HW227780   2.866   2.633   9.976  3.9416  2.5674  1.4422
 5441SOL     OW27781   2.428   2.934   6.197 -0.0721 -0.4915 -0.5106
 5441SOL    HW127782   2.494   2.880   6.153 -0.0712 -1.5882  0.8441
 5441SOL    HW227783   2.460   3.018   6.163  1.4173 -0.1767  1.6747
 5442SOL     OW27784   2.639   3.760   3.789 -0.2696  0.2975  0.7191
 5442SOL    HW127785   2.571   3.745   3.723 -0.0121  0.4220  0.4221
 5442SOL    HW227786   2.595   3.813   3.855  1.6611  0.7810  1.6279
 5443SOL     OW27787   1.922   0.414   4.582  0.5103 -0.3809 -0.1540
 5443SOL    HW127788   1.968   0.371   4.653  1.4135 -1.0606 -1.1493
 5443SOL    HW227789   1.973   0.369   4.514  1.3136  1.5017 -0.8034
 5444SOL     OW27790   2.983   0.696   8.511 -0.5281 -0.3945  0.1693
 5444SOL    HW127791   2.905   0.735   8.550  0.4366 -0.2158  1.8918
 5444SOL    HW227792   3.043   0.769   8.529  1.5190 -1.7824 -0.9657
 5445SOL     OW27793   0.435   3.591  15.896 -0.4160  0.3159 -0.1127
 5445SOL    HW127794   0.463   3.607  15.806 -0.4161  0.8650 -0.0151
 5445SOL    HW227795   0.457   3.676  15.935  0.3118  0.0724 -0.0061
 5446SOL     OW27796   3.065   2.902   8.945  0.4320 -0.0771 -0.4265
 5446SOL    HW127797   3.147   2.853   8.948  0.4335 -0.0115  0.6176
 5446SOL    HW227798   3.054   2.929   9.036 -0.3536 -1.8347  0.0103
 5447SOL     OW27799   1.628   2.491   2.003 -0.7248  0.2465  0.4381
 5447SOL    HW127800   1.626   2.443   2.085  0.2686 -0.7229 -0.1093
 5447SOL    HW227801   1.703   2.438   1.976 -0.5795  0.5751  0.1858
 5448SOL     OW27802   4.062   2.046   4.436  0.4675  0.0139  0.9196
 5448SOL    HW127803   3.982   2.021   4.482 -0.4425  0.7821 -0.2289
 5448SOL    HW227804   4.133   2.028   4.499 -0.3608 -1.0691  1.5435
 5449SOL     OW27805   3.225   2.398   6.076  0.4313 -0.0927 -0.3085
 5449SOL    HW127806   3.240   2.333   6.007  1.7120 -0.8208  0.6538
 5449SOL    HW227807   3.187   2.338   6.140 -2.3573 -0.9302 -2.7613
 5450SOL     OW27808   3.529   3.592  12.085  0.0297  0.0169 -0.1076
 5450SOL    HW127809   3.465   3.660  12.106 -1.1986 -1.2643  0.3288
 5450SOL    HW227810   3.595   3.602  12.153 -2.3398  0.7133  2.1041
 5451SOL     OW27811   1.201   0.282  17.535  0.1787  0.1206 -0.2061
 5451SOL    HW127812   1.113   0.298  17.500  0.1267  0.6190  0.1498
 5451SOL    HW227813   1.187   0.270  17.629 -0.1494 -4.7369 -0.9002
 5452SOL     OW27814   4.547   0.265   0.505  0.2907 -0.3027  0.3410
 5452SOL    HW127815   4.531   0.267   0.410  1.2223 -0.9859  0.1649
 5452SOL    HW227816   4.521   0.176   0.528  0.9015 -0.4574  0.4333
 5453SOL     OW27817   4.309   2.248   4.652  0.1915  0.1030  0.0028
 5453SOL    HW127818   4.229   2.234   4.703  2.0110  1.0359  3.1131
 5453SOL    HW227819   4.358   2.174   4.687  0.7797  1.5114  2.1185
 5454SOL     OW27820   2.082   1.509   7.112  0.4554 -0.5755 -0.0823
 5454SOL    HW127821   2.106   1.488   7.203 -2.0897 -0.9013  0.5055
 5454SOL    HW227822   1.989   1.486   7.106  1.2982 -3.8492 -0.1536
 5455SOL     OW27823   0.104   0.196   2.143  0.3424  0.4047  0.3017
 5455SOL    HW127824   0.153   0.277   2.161 -1.8324  1.8364 -0.1944
 5455SOL    HW227825   0.093   0.214   2.050 -2.5211 -0.8204  0.4072
 5456SOL     OW27826   0.488   0.714   5.042 -0.9505  0.4158 -0.7391
 5456SOL    HW127827   0.552   0.645   5.022 -1.3268 -0.6058  1.5630
 5456SOL    HW227828   0.412   0.663   5.070 -1.0756  1.6483  1.1323
 5457SOL     OW27829   3.732   3.615   4.737 -0.1686  0.1157 -0.5862
 5457SOL    HW127830   3.758   3.638   4.648  2.3633 -2.2102 -0.4494
 5457SOL    HW227831   3.680   3.691   4.764  2.9498  1.1252  2.6251
 5458SOL     OW27832   0.952   0.594   4.330 -0.4919  0.8759 -0.1022
 5458SOL    HW127833   0.871   0.615   4.283 -0.7625 -1.7917 -0.7834
 5458SOL    HW227834   0.953   0.500   4.312 -0.0652  1.1079 -1.3021
 5459SOL     OW27835   0.643   4.158   7.753  0.6231  0.0186  0.3623
 5459SOL    HW127836   0.724   4.161   7.701  1.2171  3.3882  1.5386
 5459SOL    HW227837   0.669   4.196   7.836  1.5775 -1.0875  0.5684
 5460SOL     OW27838   4.280   2.360   5.064 -0.0331 -0.1209 -0.2690
 5460SOL    HW127839   4.197   2.335   5.021 -0.8619  1.8528  0.1933
 5460SOL    HW227840   4.257   2.428   5.128  1.0736 -0.9623  1.0097
 5461SOL     OW27841   4.268   0.253   8.246  0.5824 -0.7310 -0.3676
 5461SOL    HW127842   4.273   0.309   8.168 -0.4805 -0.8242 -0.5011
 5461SOL    HW227843   4.176   0.254   8.271  0.0036  2.5572 -2.6567
 5462SOL     OW27844   0.491   3.844   5.048 -0.1331  0.4406 -0.2345
 5462SOL    HW127845   0.430   3.848   4.974  0.4248  0.5634 -0.6863
 5462SOL    HW227846   0.574   3.829   5.003 -0.3173  1.0566 -0.7844
 5463SOL     OW27847   2.862   0.511   6.057  0.0450  0.2373 -0.0103
 5463SOL    HW127848   2.953   0.511   6.087 -0.0385  2.8563  0.2161
 5463SOL    HW227849   2.821   0.441   6.108  0.7576 -0.5542 -0.5143
 5464SOL     OW27850   4.437   4.367   6.556 -0.0025  0.4743 -0.4751
 5464SOL    HW127851   4.504   4.342   6.620  0.8735  1.6652 -0.9322
 5464SOL    HW227852   4.378   4.401   6.623 -0.3931 -1.0768 -0.0138
 5465SOL     OW27853   1.179   3.968   5.749  0.2014  0.1350 -0.0677
 5465SOL    HW127854   1.114   3.919   5.698 -1.4747  1.5731  0.6647
 5465SOL    HW227855   1.133   4.048   5.776  0.2744 -0.3718  1.5546
 5466SOL     OW27856   2.070   3.795   4.263 -0.4679 -0.8372  0.2418
 5466SOL    HW127857   1.982   3.777   4.296 -1.4705  1.6690 -1.1075
 5466SOL    HW227858   2.064   3.765   4.173  1.8699  1.1624 -0.5800
 5467SOL     OW27859   1.171   3.594   7.150  0.1476 -0.5374 -0.0066
 5467SOL    HW127860   1.219   3.512   7.163 -0.2484 -0.8444 -0.4725
 5467SOL    HW227861   1.165   3.590   7.055 -0.6977 -0.3076  0.0307
 5468SOL     OW27862   1.867   2.210  12.279  0.4162  0.3524 -0.1213
 5468SOL    HW127863   1.790   2.223  12.335 -0.3485 -0.3553 -1.0000
 5468SOL    HW227864   1.914   2.287  12.311  1.5262  0.1950 -1.3689
 5469SOL     OW27865   0.536   2.669   7.271 -0.1742 -0.0386  0.2649
 5469SOL    HW127866   0.527   2.700   7.362 -0.6909 -2.2950  0.9685
 5469SOL    HW227867   0.619   2.625   7.290  0.9246  1.1199 -1.9425
 5470SOL     OW27868   2.645   2.619  17.357 -0.3489 -0.1788 -0.2454
 5470SOL    HW127869   2.577   2.684  17.345 -0.5853 -0.1467  1.2458
 5470SOL    HW227870   2.725   2.667  17.338 -0.6869  0.5612  0.1999
 5471SOL     OW27871   1.318   1.688  17.559 -0.1237  0.1620  0.0100
 5471SOL    HW127872   1.289   1.611  17.511  2.2774 -1.3306  0.9024
 5471SOL    HW227873   1.403   1.693  17.514 -1.3623  1.0343 -2.2010
 5472SOL     OW27874   3.836   2.174   6.578  0.3236 -0.0183  0.3933
 5472SOL    HW127875   3.787   2.200   6.656  2.4519 -1.3893  2.1925
 5472SOL    HW227876   3.779   2.217   6.515 -0.8878 -1.5164  0.4772
 5473SOL     OW27877   4.315   1.183   4.620 -0.1175  0.4900 -1.1991
 5473SOL    HW127878   4.284   1.262   4.576  0.1161  1.2053 -0.0606
 5473SOL    HW227879   4.403   1.217   4.636  0.3157 -0.2828 -1.9534
 5474SOL     OW27880   1.266   1.964  11.559  0.3957  0.3735 -0.0046
 5474SOL    HW127881   1.354   1.985  11.529  0.6926 -0.6198  0.1749
 5474SOL    HW227882   1.287   1.905  11.631 -1.0390 -1.6682 -1.2754
 5475SOL     OW27883   1.341   2.369   0.860 -0.0939  0.1018  0.9698
 5475SOL    HW127884   1.328   2.420   0.780  1.8144  1.2414  1.3830
 5475SOL    HW227885   1.375   2.433   0.922 -1.5368  0.3196  1.5233
 5476SOL     OW27886   4.655   4.531   8.642  0.4383 -0.2745 -0.8569
 5476SOL    HW127887   0.022   4.507   8.658  0.9402  0.1155 -3.1500
 5476SOL    HW227888   4.624   4.441   8.631  1.0354 -0.6515  0.5300
 5477SOL     OW27889   2.640   1.151   8.393  0.0224 -0.1712 -0.5067
 5477SOL    HW127890   2.686   1.076   8.355 -0.9028 -0.8400 -0.3296
 5477SOL    HW227891   2.592   1.107   8.464  0.7712  3.8684  2.4833
 5478SOL     OW27892   4.429   1.843   7.095 -0.3743  0.7284 -0.5618
 5478SOL    HW127893   4.398   1.892   7.170  2.2512  0.1659  0.8795
 5478SOL    HW227894   4.522   1.861   7.108 -0.7768  0.8614  2.0678
 5479SOL     OW27895   2.378   4.316   0.175 -0.0941  0.4439 -0.0347
 5479SOL    HW127896   2.370   4.221   0.177  0.3990  0.4149  0.5983
 5479SOL    HW227897   2.382   4.339   0.082 -0.8985 -3.6070 -1.0506
 5480SOL     OW27898   0.478   4.591  12.930  0.5714  0.6525  0.0076
 5480SOL    HW127899   0.519   4.577  13.015 -0.4037 -2.5469 -0.0596
 5480SOL    HW227900   0.398   4.544  12.950  0.9542  0.7560  1.7766
 5481SOL     OW27901   1.462   1.179   7.247  0.0754 -0.1671 -0.3729
 5481SOL    HW127902   1.437   1.148   7.334 -1.1368  2.4397  0.2326
 5481SOL    HW227903   1.409   1.128   7.186 -0.4510  0.5388 -0.5153
 5482SOL     OW27904   3.361   3.784   6.656  0.2485  0.6258 -0.1995
 5482SOL    HW127905   3.358   3.830   6.573  2.1121  3.5268  1.3340
 5482SOL    HW227906   3.269   3.798   6.680 -0.2006 -1.2750 -0.8246
 5483SOL     OW27907   2.097   1.520   6.343 -0.1289 -0.4232 -0.3107
 5483SOL    HW127908   2.006   1.516   6.375 -0.4386  0.4416 -1.0781
 5483SOL    HW227909   2.097   1.444   6.285 -1.9130 -0.5977 -0.1057
 5484SOL     OW27910   1.900   0.704   6.471 -0.0342  0.2863  0.3221
 5484SOL    HW127911   1.810   0.688   6.442 -1.0621  0.3281  3.4665
 5484SOL    HW227912   1.914   0.616   6.505  0.7305  1.0167  1.9041
 5485SOL     OW27913   1.397   0.885   3.105 -0.3643 -0.7288  0.0577
 5485SOL    HW127914   1.474   0.923   3.148 -0.4988 -0.4531  0.0535
 5485SOL    HW227915   1.328   0.930   3.152  0.2519  1.0135 -0.7183
 5486SOL     OW27916   0.765   2.855   3.469 -0.0884  0.7743  0.2505
 5486SOL    HW127917   0.776   2.850   3.374 -0.1914 -0.4029  0.2912
 5486SOL    HW227918   0.778   2.948   3.486  1.8838  0.6765 -0.7481
 5487SOL     OW27919   0.856   0.208   2.225 -0.2388  0.0957  0.3000
 5487SOL    HW127920   0.876   0.261   2.149 -1.1079 -0.0828 -0.0476
 5487SOL    HW227921   0.826   0.129   2.180 -0.9738  2.4651 -3.2798
 5488SOL     OW27922   3.870   1.463  13.325  0.3064 -0.2676  0.3777
 5488SOL    HW127923   3.846   1.517  13.401  0.8908  2.0394 -1.0882
 5488SOL    HW227924   3.919   1.530  13.278  0.5962 -1.3854 -0.8939
 5489SOL     OW27925   2.179   2.144  16.396 -0.0792 -0.3660  0.0951
 5489SOL    HW127926   2.139   2.230  16.410  0.2579 -0.1109 -0.5188
 5489SOL    HW227927   2.094   2.099  16.400 -0.9273  1.3491  1.3287
 5490SOL     OW27928   3.841   1.711   6.332  0.0363 -0.6255  0.2938
 5490SOL    HW127929   3.884   1.776   6.388 -1.3820 -1.5071  2.3834
 5490SOL    HW227930   3.780   1.769   6.286  1.2809 -0.4085 -1.0861
 5491SOL     OW27931   2.668   3.832   7.758  0.5830  0.5931 -0.7219
 5491SOL    HW127932   2.580   3.863   7.776 -0.8049 -2.5854 -2.0230
 5491SOL    HW227933   2.695   3.903   7.700  0.5158  0.0694 -1.3985
 5492SOL     OW27934   0.893   0.864  17.097 -0.0735 -0.1469  0.4001
 5492SOL    HW127935   0.873   0.812  17.019 -2.5407 -0.3771  1.1711
 5492SOL    HW227936   0.978   0.899  17.071  0.3652 -1.1610  0.4435
 5493SOL     OW27937   0.048   0.989  15.992  0.5149 -0.3770 -0.0199
 5493SOL    HW127938   0.020   0.945  15.911 -0.1784 -0.8683  0.4876
 5493SOL    HW227939   4.701   1.052  16.001  1.0806  0.4386 -1.2160
 5494SOL     OW27940   2.317   4.597   4.474 -0.3853  0.2291  0.3808
 5494SOL    HW127941   2.323   4.661   4.544  0.3949  0.3317  0.2214
 5494SOL    HW227942   2.323   4.657   4.399 -3.2999 -0.9280 -0.7745
 5495SOL     OW27943   1.096   4.686  16.213  0.4848  0.1739  0.3023
 5495SOL    HW127944   1.006   4.657  16.226  0.4514  1.5429  3.1585
 5495SOL    HW227945   1.140   4.632  16.146 -1.6989 -3.5242  1.8272
 5496SOL     OW27946   0.186   4.024   9.951 -0.3300 -0.2420  0.5782
 5496SOL    HW127947   0.099   4.026   9.990 -1.0958  1.1394 -1.1982
 5496SOL    HW227948   0.241   3.995  10.024 -0.6552 -2.9116 -0.2631
 5497SOL     OW27949   3.577   1.756  15.842  0.0852  0.0179 -0.1374
 5497SOL    HW127950   3.640   1.767  15.913 -1.1853  0.4170  0.9133
 5497SOL    HW227951   3.549   1.668  15.866  2.2305 -1.1714 -1.9580
 5498SOL     OW27952   0.968   4.012   3.816  0.5239 -0.0686  0.1473
 5498SOL    HW127953   0.991   4.065   3.739 -1.2153 -0.8554 -0.9197
 5498SOL    HW227954   0.961   4.078   3.885  0.9056  0.8725 -0.7104
 5499SOL     OW27955   0.026   1.535  13.243  0.8360  0.0912  0.4209
 5499SOL    HW127956   4.668   1.529  13.195  1.0911  0.6945 -0.0858
 5499SOL    HW227957   0.008   1.577  13.327  2.5141  0.8588  0.4016
 5500SOL     OW27958   3.661   4.417   4.576 -0.3798  0.2091  0.7461
 5500SOL    HW127959   3.724   4.345   4.583  0.9429  1.6058  3.1683
 5500SOL    HW227960   3.724   4.488   4.586  0.4018  0.1441 -3.4591
 5501SOL     OW27961   3.595   3.415   8.500 -0.1585 -0.7510  0.2920
 5501SOL    HW127962   3.679   3.378   8.474 -0.6521 -2.2563  0.8510
 5501SOL    HW227963   3.605   3.507   8.476  0.5053 -1.3353 -1.6639
 5502SOL     OW27964   4.407   1.133  14.458  0.0616 -0.4556 -0.1989
 5502SOL    HW127965   4.467   1.207  14.463 -0.2941 -0.0639 -1.6976
 5502SOL    HW227966   4.454   1.067  14.509 -0.7587 -1.3349 -0.5608
 5503SOL     OW27967   0.691   4.372   1.970  0.6609 -0.5845 -0.6252
 5503SOL    HW127968   0.736   4.293   1.940  0.2093 -0.5116 -1.4858
 5503SOL    HW227969   0.753   4.401   2.036 -2.6207  0.2123  2.0867
 5504SOL     OW27970   1.392   1.015  13.568  0.1179  0.5531  0.0998
 5504SOL    HW127971   1.309   0.967  13.563  0.7243 -0.5453  0.5548
 5504SOL    HW227972   1.417   1.028  13.476  0.7105  0.4228  0.2452
 5505SOL     OW27973   4.040   1.601  15.795 -0.1059  0.2287 -0.3291
 5505SOL    HW127974   4.036   1.661  15.869 -0.0902 -1.0110  0.6700
 5505SOL    HW227975   4.009   1.520  15.834  0.5218  0.8741  1.4900
 5506SOL     OW27976   2.129   0.208  10.607  0.0092 -0.0137 -0.1036
 5506SOL    HW127977   2.059   0.274  10.604  1.5431  1.5892 -0.9489
 5506SOL    HW227978   2.090   0.139  10.660  1.0903  0.3372  1.1580
 5507SOL     OW27979   0.378   2.609   2.211  0.1155 -0.3501 -1.0017
 5507SOL    HW127980   0.375   2.655   2.295 -3.4843 -0.5988 -0.9912
 5507SOL    HW227981   0.471   2.590   2.213 -0.1192 -1.0244  2.8808
 5508SOL     OW27982   2.019   3.392   7.630  0.0006 -0.5962 -0.0212
 5508SOL    HW127983   2.045   3.367   7.719  1.8243  0.5710 -0.2192
 5508SOL    HW227984   2.106   3.393   7.590  0.7715 -3.2959  1.6082
 5509SOL     OW27985   3.716   0.546   8.628  0.5123 -0.1749 -0.1592
 5509SOL    HW127986   3.798   0.536   8.675 -0.7262 -1.3720  1.7381
 5509SOL    HW227987   3.753   0.554   8.540 -0.2215  0.0698 -0.4484
 5510SOL     OW27988   1.239   2.712   2.491  0.4789 -0.4483  0.3038
 5510SOL    HW127989   1.156   2.744   2.525 -1.8559 -3.3973 -2.6296
 5510SOL    HW227990   1.257   2.663   2.571  0.4618 -0.5789  0.2294
 5511SOL     OW27991   2.969   2.108   9.006 -0.1514 -0.0711 -0.1127
 5511SOL    HW127992   2.922   2.173   9.058 -2.2344  0.5109 -2.7363
 5511SOL    HW227993   2.906   2.101   8.934 -0.7731 -0.2797  0.4498
 5512SOL     OW27994   2.269   4.517   7.528 -0.4436 -0.0290  0.7183
 5512SOL    HW127995   2.246   4.600   7.485  1.1359 -0.8710 -1.7447
 5512SOL    HW227996   2.363   4.513   7.511 -0.3803  1.7149  0.6486
 5513SOL     OW27997   1.116   2.971   3.544  0.4387  0.3219  0.7229
 5513SOL    HW127998   1.209   2.993   3.543  0.3196  0.7432 -1.5180
 5513SOL    HW227999   1.110   2.884   3.582  0.2768  0.6449  1.4538
 5514SOL     OW28000   1.082   2.083   5.078 -0.2144  0.0952  0.0932
 5514SOL    HW128001   1.171   2.089   5.044  0.7662 -0.7785  2.5287
 5514SOL    HW228002   1.111   2.037   5.157 -1.9233  1.2524  1.4062
 5515SOL     OW28003   0.995   1.587   6.496  0.2637  0.1955  0.7697
 5515SOL    HW128004   1.068   1.644   6.522  1.7692 -2.1751  1.7354
 5515SOL    HW228005   1.049   1.523   6.450 -0.6962  1.0868 -1.6455
 5516SOL     OW28006   2.780   0.027   2.654 -0.3477  0.5599  0.1227
 5516SOL    HW128007   2.778   4.720   2.564 -1.9352  0.1306  0.3233
 5516SOL    HW228008   2.819   4.678   2.702 -0.2158  0.8431  0.4497
 5517SOL     OW28009   3.083   0.608   9.284 -0.1422 -0.2566  0.3519
 5517SOL    HW128010   3.032   0.675   9.239 -1.8605 -1.7770  0.0107
 5517SOL    HW228011   3.020   0.558   9.335 -1.2262  0.9450  0.1935
 5518SOL     OW28012   2.422   3.961   7.777  0.1468  0.2305 -0.1131
 5518SOL    HW128013   2.333   3.937   7.803  0.1647 -0.4425 -0.6865
 5518SOL    HW228014   2.385   3.996   7.696  0.4836 -0.8409 -0.7373
 5519SOL     OW28015   4.336   1.886   0.148  0.0262 -0.0807 -0.2188
 5519SOL    HW128016   4.299   1.865   0.063 -0.1305 -0.7653  0.0155
 5519SOL    HW228017   4.275   1.833   0.200  0.1119  1.8065  1.7954
 5520SOL     OW28018   4.247   2.428   3.679 -0.1736 -0.2344  0.1546
 5520SOL    HW128019   4.284   2.386   3.756 -1.9611 -0.4113  0.9090
 5520SOL    HW228020   4.243   2.357   3.615 -1.9538  1.1806 -1.2863
 5521SOL     OW28021   3.434   3.946   9.006 -0.2853 -0.1946  0.4865
 5521SOL    HW128022   3.492   4.018   9.029 -0.0668 -0.3275  0.3553
 5521SOL    HW228023   3.352   3.991   8.986  0.7403  1.1551 -0.7530
 5522SOL     OW28024   3.330   3.324   3.349  0.1332 -0.3219  0.3041
 5522SOL    HW128025   3.416   3.282   3.357 -0.1861 -0.6970  1.6893
 5522SOL    HW228026   3.292   3.311   3.435  1.2490 -0.7563  0.7281
 5523SOL     OW28027   3.755   4.365   9.024  0.3864  0.1874 -0.0854
 5523SOL    HW128028   3.788   4.428   8.960  0.9335  0.0560  0.0681
 5523SOL    HW228029   3.837   4.328   9.055 -0.1461 -0.9130  0.0226
 5524SOL     OW28030   0.365   2.151   4.992  0.0822 -0.2495 -0.5579
 5524SOL    HW128031   0.327   2.125   4.908 -0.2113  0.8928 -0.7853
 5524SOL    HW228032   0.300   2.140   5.061 -1.0982 -0.8670 -1.7617
 5525SOL     OW28033   4.473   0.787   6.009  0.5127  0.4914 -0.4525
 5525SOL    HW128034   4.411   0.846   6.052  0.5668 -1.8226  2.7186
 5525SOL    HW228035   4.440   0.703   6.041  0.5520  0.8785  0.5933
 5526SOL     OW28036   3.536   4.338   7.816 -0.1173 -0.1333  0.2390
 5526SOL    HW128037   3.570   4.256   7.851  0.7476 -0.4308 -1.2979
 5526SOL    HW228038   3.521   4.385   7.898  1.2316  0.9878 -0.1485
 5527SOL     OW28039   3.338   3.307   7.028 -0.0234 -0.3732  0.4278
 5527SOL    HW128040   3.321   3.238   6.963  1.5280 -1.1485  0.8482
 5527SOL    HW228041   3.271   3.296   7.095 -1.5263  0.7157 -0.9001
 5528SOL     OW28042   0.526   4.589   3.356 -0.1899  0.1549 -0.1481
 5528SOL    HW128043   0.442   4.559   3.393 -0.7547  1.0315 -0.7220
 5528SOL    HW228044   0.514   4.682   3.375  0.1428  0.2102 -0.2143
 5529SOL     OW28045   1.810   3.826  14.651  0.1622 -0.0879 -0.5953
 5529SOL    HW128046   1.890   3.827  14.702  1.1921 -3.3193 -2.1096
 5529SOL    HW228047   1.746   3.865  14.711 -1.2430 -2.4040 -0.5440
 5530SOL     OW28048   2.540   1.094   1.941  0.5949  0.5908  0.3730
 5530SOL    HW128049   2.570   1.165   1.884  0.8701  0.8227  0.8088
 5530SOL    HW228050   2.508   1.152   2.010  1.5256  0.0773  1.2401
 5531SOL     OW28051   0.348   4.248   4.350  0.3954 -0.2661  0.9405
 5531SOL    HW128052   0.407   4.241   4.425 -0.7375 -0.3692  1.8148
 5531SOL    HW228053   0.341   4.343   4.356  2.6509 -0.0071 -0.3272
 5532SOL     OW28054   1.804   4.001  11.619  0.2758 -0.2702  0.1770
 5532SOL    HW128055   1.875   4.039  11.568 -0.0979 -1.0311 -0.9112
 5532SOL    HW228056   1.795   4.058  11.696 -0.7921  0.1296 -0.2365
 5533SOL     OW28057   0.279   1.183   2.989  0.0960 -0.3099 -0.5275
 5533SOL    HW128058   0.304   1.194   3.081 -1.4983 -2.3757  0.1685
 5533SOL    HW228059   0.352   1.228   2.947 -0.3842 -0.0294 -1.0458
 5534SOL     OW28060   1.352   1.844   2.097 -0.6585  0.4230 -0.0669
 5534SOL    HW128061   1.443   1.847   2.126 -0.7753  0.5098  0.2863
 5534SOL    HW228062   1.356   1.755   2.063 -2.4994  1.0988 -2.0561
 5535SOL     OW28063   1.865   1.890   6.288  0.4529 -0.5361  0.2743
 5535SOL    HW128064   1.793   1.928   6.237  1.4597  1.0549  0.0287
 5535SOL    HW228065   1.862   1.945   6.367 -0.0684  0.5067 -0.4775
 5536SOL     OW28066   2.974   4.437  11.184  0.2479  0.6382 -0.4552
 5536SOL    HW128067   3.022   4.499  11.129  0.9257 -1.5220 -2.2978
 5536SOL    HW228068   3.050   4.384  11.208 -0.2047  0.8692  1.5084
 5537SOL     OW28069   3.723   0.950   6.166 -0.6330 -0.2208 -0.1671
 5537SOL    HW128070   3.800   0.923   6.216 -0.8121  0.5453  0.5231
 5537SOL    HW228071   3.697   0.862   6.138 -3.3185  1.1898 -2.1150
 5538SOL     OW28072   4.037   2.647   1.808  0.1579 -0.3321 -0.0983
 5538SOL    HW128073   4.048   2.683   1.896 -3.9146  1.8508 -0.4837
 5538SOL    HW228074   3.986   2.711   1.759  1.0379 -0.7460 -1.5374
 5539SOL     OW28075   0.256   3.235   7.733 -0.4268 -0.0402  0.0074
 5539SOL    HW128076   0.350   3.236   7.711 -0.4808 -1.5066 -0.3025
 5539SOL    HW228077   0.245   3.325   7.764 -2.3126 -0.7051  1.2135
 5540SOL     OW28078   4.240   0.769  11.728 -0.0941  0.1030 -0.6198
 5540SOL    HW128079   4.240   0.789  11.822 -1.7961  1.0323 -0.8129
 5540SOL    HW228080   4.236   0.674  11.738 -1.7685  0.0664 -1.7222
 5541SOL     OW28081   0.841   1.605   3.313 -0.1152 -0.4774 -0.3774
 5541SOL    HW128082   0.838   1.523   3.362 -2.1825 -1.0816 -1.5338
 5541SOL    HW228083   0.789   1.662   3.369  0.1432  1.0767 -1.7014
 5542SOL     OW28084   4.071   1.878   2.017 -0.1604  0.0524  0.4196
 5542SOL    HW128085   4.099   1.787   2.027 -0.0588  0.1957  1.3967
 5542SOL    HW228086   3.977   1.864   2.023 -0.5894  2.3448 -0.9107
 5543SOL     OW28087   0.637   4.386   6.867 -0.4079 -0.5053  0.3680
 5543SOL    HW128088   0.617   4.381   6.773 -2.4418  1.9731  0.6674
 5543SOL    HW228089   0.680   4.471   6.861  5.1007 -3.4399 -1.5533
 5544SOL     OW28090   0.736   1.251   8.507  0.1645 -0.6684 -0.2508
 5544SOL    HW128091   0.826   1.251   8.476  1.0705  0.4172  2.3470
 5544SOL    HW228092   0.755   1.190   8.579  0.9947 -0.3733 -0.2171
 5545SOL     OW28093   4.075   2.110   3.847  0.0147 -0.6723 -0.5405
 5545SOL    HW128094   4.068   2.205   3.856 -1.1660 -0.9055  1.0275
 5545SOL    HW228095   4.031   2.076   3.769 -0.3203 -2.0138  0.2216
 5546SOL     OW28096   0.171   3.260  15.593 -1.0024  0.0647 -0.0158
 5546SOL    HW128097   0.198   3.299  15.510  1.4125  0.8096  1.1266
 5546SOL    HW228098   0.239   3.295  15.651 -2.0319 -0.1161  1.3061
 5547SOL     OW28099   1.287   3.591   5.391  0.3323  0.6324  0.7186
 5547SOL    HW128100   1.212   3.561   5.441  0.7643  0.1295  1.0556
 5547SOL    HW228101   1.316   3.519   5.335 -1.4718 -1.0684  1.9632
 5548SOL     OW28102   1.455   2.409   3.614  0.6482 -0.6986  0.2078
 5548SOL    HW128103   1.502   2.354   3.551  1.3588  0.5936 -0.3742
 5548SOL    HW228104   1.378   2.353   3.627  0.6838 -1.1995 -1.7567
 5549SOL     OW28105   3.047   3.337  12.791 -0.4662 -0.4514  0.6267
 5549SOL    HW128106   3.069   3.415  12.842 -1.1992  1.6634 -2.3208
 5549SOL    HW228107   3.131   3.310  12.753  0.3803  1.9357  0.7921
 5550SOL     OW28108   2.887   1.574  17.095 -0.1507 -0.4707 -0.2184
 5550SOL    HW128109   2.854   1.653  17.053  2.2253  0.7591  0.2412
 5550SOL    HW228110   2.957   1.539  17.040 -0.8378  1.0170 -2.0461
 5551SOL     OW28111   0.577   2.151   4.298 -0.1495  0.2815 -0.0604
 5551SOL    HW128112   0.647   2.200   4.254 -0.0528 -0.1024 -0.3238
 5551SOL    HW228113   0.580   2.069   4.250  3.1890  1.0468 -1.1999
 5552SOL     OW28114   0.788   2.345  15.674  0.1802  0.2459 -0.4187
 5552SOL    HW128115   0.832   2.264  15.701 -0.7805 -0.0684  0.2039
 5552SOL    HW228116   0.795   2.338  15.579  1.9355  1.5119 -0.3947
 5553SOL     OW28117   3.124   3.568   3.696 -0.2106  0.3307 -0.2286
 5553SOL    HW128118   3.036   3.533   3.678 -0.8986  0.5906  2.6174
 5553SOL    HW228119   3.142   3.557   3.789  1.7500  0.5078 -0.5944
 5554SOL     OW28120   4.681   1.574   7.395 -0.2335 -0.1776  0.1912
 5554SOL    HW128121   0.032   1.516   7.409  1.3314  2.4082  2.4918
 5554SOL    HW228122   0.010   1.650   7.417 -1.4502  0.4285  1.0222
 5555SOL     OW28123   0.692   2.400  15.130 -0.1691 -0.0894  0.0647
 5555SOL    HW128124   0.688   2.426  15.222  3.4232 -0.3527  0.2586
 5555SOL    HW228125   0.700   2.481  15.081 -0.0581 -1.4650 -2.2155
 5556SOL     OW28126   2.339   0.121  10.207  0.2204 -0.5947 -0.2880
 5556SOL    HW128127   2.367   0.148  10.120 -1.9191 -0.1616 -0.8327
 5556SOL    HW228128   2.426   0.092  10.234  0.0015  0.4079  1.5643
 5557SOL     OW28129   0.787   3.548   4.471  0.4607 -0.4584 -0.3241
 5557SOL    HW128130   0.727   3.550   4.545 -1.3739 -0.4518 -1.7871
 5557SOL    HW228131   0.784   3.638   4.437 -1.6861  0.4969  2.3972
 5558SOL     OW28132   0.189   0.832  10.394  0.1273  0.2540  0.7740
 5558SOL    HW128133   0.224   0.914  10.358 -0.0127  0.3711  0.9059
 5558SOL    HW228134   0.246   0.837  10.471  0.7640 -1.7720  0.4416
 5559SOL     OW28135   4.697   3.170  16.199  0.2653 -0.2280  0.5210
 5559SOL    HW128136   4.679   3.223  16.122 -1.0216 -0.8012  0.4340
 5559SOL    HW228137   0.051   3.126  16.164  1.6846  2.9752 -0.3165
 5560SOL     OW28138   0.948   1.063   0.182 -0.1123  0.5392 -0.0240
 5560SOL    HW128139   0.997   1.111   0.249  0.5149 -1.7916  1.2045
 5560SOL    HW228140   0.999   1.066   0.101 -1.3779  1.1377 -0.8092
 5561SOL     OW28141   1.750   2.101  12.756 -0.0834 -0.1145 -0.0817
 5561SOL    HW128142   1.803   2.092  12.835 -0.6162 -1.1502  0.1562
 5561SOL    HW228143   1.660   2.108  12.787 -0.0488 -0.1094  0.0179
 5562SOL     OW28144   1.538   2.910   6.097 -0.4609  0.0691  0.3167
 5562SOL    HW128145   1.616   2.961   6.073  1.3688 -2.9121 -0.1152
 5562SOL    HW228146   1.577   2.824   6.083 -0.5552 -0.4354  3.1667
 5563SOL     OW28147   3.352   0.687   8.481  0.1832 -0.2421 -0.0593
 5563SOL    HW128148   3.284   0.744   8.515  1.9102  1.4885  0.4743
 5563SOL    HW228149   3.411   0.697   8.555  2.2495 -1.8700 -1.4592
 5564SOL     OW28150   0.602   4.430   1.102 -0.2075 -0.1032  0.6516
 5564SOL    HW128151   0.630   4.349   1.059 -0.7402  0.4869 -0.7923
 5564SOL    HW228152   0.587   4.472   1.018 -1.8789 -2.5761 -0.2766
 5565SOL     OW28153   3.151   1.110   6.024  0.3214 -0.0931 -0.6220
 5565SOL    HW128154   3.235   1.065   6.034 -0.4358 -1.5037 -0.6843
 5565SOL    HW228155   3.137   1.137   6.115  0.7207 -3.7846  0.5159
 5566SOL     OW28156   0.005   3.291  11.002  0.4828  0.2702 -0.0851
 5566SOL    HW128157   4.678   3.236  10.943  1.1808  3.3347 -3.5210
 5566SOL    HW228158   0.095   3.285  10.971 -0.1163 -2.9249 -1.2794
 5567SOL     OW28159   3.162   1.828   3.509 -0.1091  0.4166 -0.0855
 5567SOL    HW128160   3.151   1.828   3.414  0.1248  0.1904 -0.1097
 5567SOL    HW228161   3.075   1.797   3.534 -0.4630  1.1747 -0.3697
 5568SOL     OW28162   3.599   3.636   8.331 -0.2130 -0.1166  0.4324
 5568SOL    HW128163   3.602   3.587   8.249  0.3586 -0.9096  0.9185
 5568SOL    HW228164   3.692   3.657   8.338 -0.3705 -0.2737  2.9932
 5569SOL     OW28165   2.924   0.113   3.846 -0.1861 -0.7442 -0.1933
 5569SOL    HW128166   2.841   0.132   3.801 -0.0019 -0.2271 -0.3109
 5569SOL    HW228167   2.890   0.087   3.932  0.7316 -1.7331 -0.1226
 5570SOL     OW28168   2.797   2.355   5.375  0.1614 -0.2694 -0.2645
 5570SOL    HW128169   2.827   2.413   5.304 -0.9085 -1.5023 -1.7205
 5570SOL    HW228170   2.852   2.392   5.444 -0.5003  1.4588 -0.6705
 5571SOL     OW28171   1.396   1.973  15.069  0.4869  0.3402  0.0610
 5571SOL    HW128172   1.431   1.955  14.981 -0.7482 -1.5010 -0.0573
 5571SOL    HW228173   1.369   1.884  15.094 -2.2674  1.3690  0.7679
 5572SOL     OW28174   3.728   2.827   6.633  0.0059 -0.1155 -0.0694
 5572SOL    HW128175   3.739   2.838   6.539  1.2507  2.5632  0.3905
 5572SOL    HW228176   3.635   2.848   6.643  0.0589  0.6906 -1.2280
 5573SOL     OW28177   4.390   0.950   4.931 -0.7725 -0.0573  0.1515
 5573SOL    HW128178   4.450   0.950   5.005  1.2814 -1.9993 -1.5075
 5573SOL    HW228179   4.308   0.924   4.972 -0.7851 -0.0004  0.1627
 5574SOL     OW28180   1.068   1.058   7.415 -0.0115  0.3972  0.6024
 5574SOL    HW128181   0.993   1.055   7.473  0.5245 -0.2673  1.2481
 5574SOL    HW228182   1.056   1.143   7.372 -0.0583  0.0622 -0.0490
 5575SOL     OW28183   3.004   1.102  13.565 -0.1788 -0.2354  0.0601
 5575SOL    HW128184   3.051   1.162  13.623 -1.8925 -0.1449  1.3631
 5575SOL    HW228185   3.028   1.130  13.476 -2.7244 -0.3934 -0.6806
 5576SOL     OW28186   3.642   4.083   3.358 -0.5379 -0.3020 -0.2682
 5576SOL    HW128187   3.678   4.154   3.306  0.7435 -0.6355  0.1739
 5576SOL    HW228188   3.549   4.095   3.337 -0.2924  0.6150 -0.8256
 5577SOL     OW28189   0.297   4.601  13.155 -0.1392 -0.5802 -0.0012
 5577SOL    HW128190   0.350   4.543  13.209  0.9356 -0.3914 -0.8648
 5577SOL    HW228191   0.215   4.601  13.206 -0.0445 -0.9152  0.1556
 5578SOL     OW28192   0.626   2.432   8.642 -0.0372 -0.1299  0.6185
 5578SOL    HW128193   0.645   2.355   8.588 -0.8636 -0.6510  1.0509
 5578SOL    HW228194   0.558   2.395   8.699 -0.1943 -0.2039  0.3856
 5579SOL     OW28195   2.152   1.598   4.764  0.4939  0.3146  0.2973
 5579SOL    HW128196   2.122   1.674   4.814 -1.5753 -0.6772  0.5629
 5579SOL    HW228197   2.226   1.578   4.821 -0.7945  0.7748  2.1406
 5580SOL     OW28198   3.390   1.046   4.374  0.1205  0.0008 -0.8681
 5580SOL    HW128199   3.346   1.130   4.388  3.5142  1.8429 -1.2970
 5580SOL    HW228200   3.481   1.074   4.382  0.0020 -0.2415  1.2727
 5581SOL     OW28201   1.758   3.903   8.374  0.3209 -0.2146 -0.0517
 5581SOL    HW128202   1.696   3.975   8.386 -1.6462 -1.7069 -1.2146
 5581SOL    HW228203   1.737   3.879   8.283 -0.7027  0.1548  0.0924
 5582SOL     OW28204   3.380   2.140   3.398  1.2227  0.3251 -0.0189
 5582SOL    HW128205   3.338   2.188   3.470  0.8284 -1.7437  1.1376
 5582SOL    HW228206   3.309   2.125   3.336  1.4302 -1.5448  0.1879
 5583SOL     OW28207   1.645   1.608   6.723 -0.6169  0.1255 -0.4771
 5583SOL    HW128208   1.714   1.632   6.785  0.6803 -3.8484 -0.4148
 5583SOL    HW228209   1.614   1.689   6.682  3.6887  0.6399 -2.7291
 5584SOL     OW28210   1.519   1.614   4.547  0.1073  0.6619 -0.3621
 5584SOL    HW128211   1.584   1.572   4.604 -0.2403 -0.6968 -0.9875
 5584SOL    HW228212   1.488   1.676   4.613  0.4914  1.0092 -0.5071
 5585SOL     OW28213   3.739   4.217   5.335  0.7808  0.6185 -0.4388
 5585SOL    HW128214   3.682   4.249   5.405 -1.9427 -2.0550 -1.4431
 5585SOL    HW228215   3.769   4.130   5.364  0.8416  1.2989  1.5340
 5586SOL     OW28216   2.003   2.020  13.617 -0.2809  0.3561 -0.6382
 5586SOL    HW128217   1.995   2.105  13.661 -1.5788 -0.9500  1.6532
 5586SOL    HW228218   1.976   2.058  13.533 -0.5203 -0.1171 -0.7739
 5587SOL     OW28219   0.622   1.389   5.897  0.7331 -0.5297  0.0112
 5587SOL    HW128220   0.600   1.439   5.818  2.4814 -1.1360 -0.8339
 5587SOL    HW228221   0.704   1.350   5.869  0.6738 -2.4300  2.4616
 5588SOL     OW28222   2.731   0.078   8.452  0.0451  0.4765 -0.2734
 5588SOL    HW128223   2.685   0.139   8.509 -3.6853 -1.9660 -0.6340
 5588SOL    HW228224   2.769   0.143   8.392  0.1088 -1.1054 -1.9567
 5589SOL     OW28225   4.609   0.723   1.134  0.5278  0.4298  0.2250
 5589SOL    HW128226   4.687   0.668   1.125 -0.1773 -0.3491 -1.1257
 5589SOL    HW228227   4.616   0.772   1.052 -3.2593  0.1272 -0.2803
 5590SOL     OW28228   2.086   0.275   4.392  0.2553 -0.4687 -0.0029
 5590SOL    HW128229   2.112   0.254   4.303  2.2906 -1.6508  0.8796
 5590SOL    HW228230   2.136   0.356   4.400 -0.3897 -0.3501  3.0238
 5591SOL     OW28231   2.804   0.082   6.338 -0.2055 -0.3320  0.0303
 5591SOL    HW128232   2.719   0.114   6.308 -0.4364 -2.1780 -1.2842
 5591SOL    HW228233   2.807   0.086   6.434 -0.7705 -0.4840  0.0591
 5592SOL     OW28234   2.770   3.859   2.703  0.3617  0.1879 -0.4119
 5592SOL    HW128235   2.783   3.784   2.761 -1.8266  1.6387  1.9201
 5592SOL    HW228236   2.784   3.811   2.621 -1.4528 -2.0182  0.5668
 5593SOL     OW28237   3.407   3.607   2.837 -0.4499  0.6152  0.4575
 5593SOL    HW128238   3.472   3.537   2.834 -1.6559 -0.6231  2.6112
 5593SOL    HW228239   3.328   3.582   2.885 -0.1228 -0.6867  0.3309
 5594SOL     OW28240   1.694   1.208   0.081  0.1918 -0.4508 -0.4285
 5594SOL    HW128241   1.624   1.260   0.041 -1.1059 -1.2622  0.8094
 5594SOL    HW228242   1.716   1.144   0.013 -0.8337 -0.0252 -1.1617
 5595SOL     OW28243   4.355   4.426   3.517 -0.5270  0.1606  0.1019
 5595SOL    HW128244   4.264   4.444   3.495 -1.0996 -1.7691  0.9455
 5595SOL    HW228245   4.394   4.510   3.491 -0.7763  0.6967  1.4877
 5596SOL     OW28246   3.170   4.148  11.051 -0.3923 -0.2325  0.1138
 5596SOL    HW128247   3.107   4.187  10.990 -0.3040  1.9930  1.4702
 5596SOL    HW228248   3.234   4.104  10.995 -0.4120 -1.8047  1.3136
 5597SOL     OW28249   2.529   0.332   2.911 -0.5690  0.0185  0.0711
 5597SOL    HW128250   2.468   0.340   2.985 -1.4571 -3.3779 -0.3082
 5597SOL    HW228251   2.554   0.424   2.916  3.1806 -1.1178  2.0074
 5598SOL     OW28252   1.471   1.190  15.655 -0.4467 -0.4805 -0.0412
 5598SOL    HW128253   1.415   1.112  15.658 -0.3827 -0.4901  0.7304
 5598SOL    HW228254   1.558   1.150  15.654 -0.0191  0.4668 -0.2058
 5599SOL     OW28255   0.294   4.042  11.487 -0.1276 -0.9279  0.0234
 5599SOL    HW128256   0.278   4.123  11.438 -1.5020  0.0721  2.1425
 5599SOL    HW228257   0.362   3.996  11.438  0.1913 -0.4331 -0.0000
 5600SOL     OW28258   1.983   2.229  16.646 -0.2912 -0.0344  0.6718
 5600SOL    HW128259   1.983   2.275  16.563 -1.0470 -2.8815 -0.9114
 5600SOL    HW228260   2.062   2.264  16.687  0.0194  2.2323 -1.8721
 5601SOL     OW28261   1.732   3.421   5.339  0.2939  0.1387 -0.0171
 5601SOL    HW128262   1.696   3.475   5.268  1.0895  3.5138  2.1698
 5601SOL    HW228263   1.709   3.469   5.418 -0.8350 -0.6830  0.1540
 5602SOL     OW28264   4.488   4.472   9.082 -0.5886 -0.0534 -0.5480
 5602SOL    HW128265   4.457   4.553   9.122 -1.2238 -1.0199  0.8882
 5602SOL    HW228266   4.456   4.476   8.992 -1.8299 -0.8252 -0.1270
 5603SOL     OW28267   1.748   4.047   3.956 -0.1381 -0.5163 -0.0291
 5603SOL    HW128268   1.664   4.084   3.983  1.4497  0.9086  3.0337
 5603SOL    HW228269   1.734   3.952   3.952 -0.1561 -0.5582  1.0172
 5604SOL     OW28270   3.903   1.030   5.153  0.3443  0.0530 -0.4884
 5604SOL    HW128271   3.833   0.983   5.199  1.4733 -0.8569  0.3047
 5604SOL    HW228272   3.865   1.037   5.066 -0.5851 -1.0506 -0.1744
 5605SOL     OW28273   0.370   2.880   6.463 -0.6547  0.1930 -0.6910
 5605SOL    HW128274   0.337   2.915   6.546 -0.2614 -2.9141  0.7886
 5605SOL    HW228275   0.294   2.899   6.407  0.4532  2.8832 -1.2963
 5606SOL     OW28276   4.422   1.943   2.899  0.4072 -0.0035 -0.1498
 5606SOL    HW128277   4.351   1.889   2.863  0.6111  0.7770 -1.7291
 5606SOL    HW228278   4.404   1.927   2.991  3.8796  1.0801  0.7325
 5607SOL     OW28279   0.615   3.491   7.839  0.5073 -0.2799  0.2414
 5607SOL    HW128280   0.588   3.407   7.801 -2.3761  0.5311  0.4973
 5607SOL    HW228281   0.567   3.489   7.922  0.7144  0.5411  0.3804
 5608SOL     OW28282   0.248   2.384   4.004 -0.3077 -0.0666  0.3026
 5608SOL    HW128283   0.214   2.468   3.974 -0.7981  0.6860  2.9226
 5608SOL    HW228284   0.305   2.357   3.932  0.5022  0.3225  0.8045
 5609SOL     OW28285   2.720   1.887   4.412  0.2962 -0.1884 -0.1162
 5609SOL    HW128286   2.638   1.937   4.402  0.3580 -0.2372 -0.9000
 5609SOL    HW228287   2.719   1.837   4.493  1.8240 -4.4275 -2.7169
 5610SOL     OW28288   2.569   2.965   6.674 -0.0170 -0.2192  0.0567
 5610SOL    HW128289   2.518   2.959   6.593  1.6346 -1.3016 -0.9022
 5610SOL    HW228290   2.648   2.915   6.654  0.2869  0.5592 -0.6995
 5611SOL     OW28291   4.366   0.476  13.022  0.3797  0.1053  0.0443
 5611SOL    HW128292   4.292   0.435  13.066 -0.7877  0.9242 -1.1640
 5611SOL    HW228293   4.322   0.548  12.976  0.1059  0.1786  0.4281
 5612SOL     OW28294   3.268   1.959  10.879  0.2685  0.3894  0.7537
 5612SOL    HW128295   3.218   1.878  10.891  0.7796  0.1945  1.4935
 5612SOL    HW228296   3.220   2.022  10.933 -2.9820  0.3399 -2.0403
 5613SOL     OW28297   3.343   1.034   4.054  0.0951 -0.1079 -0.1427
 5613SOL    HW128298   3.290   1.051   4.132  1.1662  1.1984  0.3105
 5613SOL    HW228299   3.367   0.943   4.073 -2.0625 -0.9991 -1.6699
 5614SOL     OW28300   4.328   2.045  12.244 -0.0055 -0.1964  0.0229
 5614SOL    HW128301   4.402   2.015  12.190  1.1706 -1.1380  2.1476
 5614SOL    HW228302   4.300   2.120  12.193  0.2183 -0.9162 -1.1645
 5615SOL     OW28303   3.175   0.511   5.488  0.1040 -0.9761  0.7919
 5615SOL    HW128304   3.084   0.509   5.518  0.1075 -0.4067  0.8525
 5615SOL    HW228305   3.201   0.422   5.467 -1.8710 -0.8272 -2.3420
 5616SOL     OW28306   0.123   1.745   3.629  0.1478 -0.0503 -0.0138
 5616SOL    HW128307   0.092   1.834   3.646 -0.4488 -0.3359  0.3716
 5616SOL    HW228308   0.163   1.750   3.542  4.7004 -0.2365  2.0798
 5617SOL     OW28309   1.705   2.316   7.676  0.1932  0.4120  0.3457
 5617SOL    HW128310   1.750   2.267   7.745  0.7533  0.6304  0.1382
 5617SOL    HW228311   1.643   2.370   7.726 -0.3658 -0.8151  0.9772
 5618SOL     OW28312   3.889   1.122   5.875 -0.4373 -0.1139  0.2060
 5618SOL    HW128313   3.830   1.049   5.894 -1.6870  0.2990 -2.1168
 5618SOL    HW228314   3.858   1.157   5.791  0.9206  0.7391  0.0494
 5619SOL     OW28315   0.754   4.458  11.918  0.6537 -0.2745  0.2630
 5619SOL    HW128316   0.768   4.397  11.845 -1.8213 -0.9635  0.3626
 5619SOL    HW228317   0.830   4.447  11.975  0.6105  0.0936  0.3911
 5620SOL     OW28318   1.717   3.910   1.826  0.2422 -0.2218 -0.0191
 5620SOL    HW128319   1.785   3.844   1.846  2.5439  1.7691 -1.3273
 5620SOL    HW228320   1.709   3.883   1.735  4.8995  1.7292 -1.0116
 5621SOL     OW28321   0.326   2.685   2.895  0.2750 -0.6026 -0.0513
 5621SOL    HW128322   0.243   2.674   2.849  1.0680 -0.8135 -1.4387
 5621SOL    HW228323   0.321   2.776   2.924 -0.5468 -1.3895  2.2752
 5622SOL     OW28324   0.086   3.548   8.821 -0.3339 -0.2874  0.5600
 5622SOL    HW128325   0.180   3.545   8.839 -0.7456  0.1865  2.7318
 5622SOL    HW228326   0.057   3.603   8.894 -3.1046 -0.6666 -0.2842
 5623SOL     OW28327   4.653   1.626   6.367 -0.3893  0.5106  0.0919
 5623SOL    HW128328   4.585   1.565   6.339 -0.1290 -0.0365  0.6707
 5623SOL    HW228329   4.705   1.623   6.287 -0.1338 -0.3440  0.2877
 5624SOL     OW28330   1.453   1.865   7.928 -0.2632 -0.4807  0.4705
 5624SOL    HW128331   1.368   1.908   7.916  1.0780  2.4920  1.5957
 5624SOL    HW228332   1.434   1.798   7.993 -0.6082  0.7002  1.6013
 5625SOL     OW28333   2.047   1.434   2.454 -0.0899 -0.4511 -0.5201
 5625SOL    HW128334   2.012   1.434   2.365 -0.0535  2.5060 -0.5335
 5625SOL    HW228335   1.969   1.446   2.509  1.8294 -0.8467  2.2714
 5626SOL     OW28336   0.827   1.948  16.395  0.4987 -0.1576 -0.2352
 5626SOL    HW128337   0.879   1.941  16.475 -0.1277  1.5248  0.3202
 5626SOL    HW228338   0.875   1.887  16.339 -0.4163 -0.7240 -0.3883
 5627SOL     OW28339   4.665   0.020   3.216  0.0384 -0.0162  0.4207
 5627SOL    HW128340   0.036   0.032   3.225  0.3349 -2.9890  1.1926
 5627SOL    HW228341   4.658   4.675   3.150 -2.0759  0.0787  0.5653
 5628SOL     OW28342   4.235   2.544   4.739  0.7389 -0.4531 -0.3435
 5628SOL    HW128343   4.254   2.571   4.829  0.5667 -2.7633  0.3806
 5628SOL    HW228344   4.324   2.532   4.706  0.0475 -0.0511 -2.3487
 5629SOL     OW28345   0.436   4.582  11.953 -0.1287  0.1922  0.2319
 5629SOL    HW128346   0.470   4.557  12.039  1.1751 -2.4812 -1.0836
 5629SOL    HW228347   0.473   4.513  11.899 -2.7908 -1.5276  0.6143
 5630SOL     OW28348   3.938   1.356   8.544 -0.4757 -0.7607  0.3387
 5630SOL    HW128349   3.916   1.440   8.584  1.2182 -0.1784  0.0235
 5630SOL    HW228350   3.855   1.319   8.575 -0.4138 -1.0384  0.1788
 5631SOL     OW28351   3.425   3.161   1.428  0.2073  0.3542 -0.3958
 5631SOL    HW128352   3.376   3.167   1.346 -1.8245  0.4057  0.8469
 5631SOL    HW228353   3.420   3.249   1.465 -0.6428  0.4515 -0.7372
 5632SOL     OW28354   0.020   1.695   1.521 -0.0370 -0.1806 -0.6499
 5632SOL    HW128355   4.709   1.733   1.601 -0.5695 -1.2624 -0.3739
 5632SOL    HW228356   4.662   1.649   1.502 -1.0147  1.8252 -1.2481
 5633SOL     OW28357   4.178   4.287  17.559 -0.3136 -0.0602  0.6512
 5633SOL    HW128358   4.204   4.224  17.492  0.4793 -0.3420  1.2263
 5633SOL    HW228359   4.245   4.353  17.540 -0.1648 -0.5690 -0.6199
 5634SOL     OW28360   4.379   3.324   1.685 -0.4732 -0.1178 -0.6723
 5634SOL    HW128361   4.377   3.244   1.632 -1.4730 -0.9007  0.5306
 5634SOL    HW228362   4.471   3.351   1.686 -0.3795 -0.4696  1.5097
 5635SOL     OW28363   3.123   0.001   3.488  0.5490  0.3790 -0.0013
 5635SOL    HW128364   3.067   0.038   3.420  0.2170 -0.9790 -0.4626
 5635SOL    HW228365   3.206   0.041   3.462  0.5759  0.8577  0.8339
 5636SOL     OW28366   0.322   1.281   2.348  0.4802  0.0799 -0.0072
 5636SOL    HW128367   0.362   1.305   2.265  1.5145  0.9472  0.7372
 5636SOL    HW228368   0.347   1.349   2.410  1.3445  0.3478 -0.6593
 5637SOL     OW28369   1.715   2.064   6.125 -0.6030 -0.2155  0.1138
 5637SOL    HW128370   1.757   2.145   6.152 -2.6174  0.9976 -0.3824
 5637SOL    HW228371   1.668   2.085   6.044  1.1926  2.0622 -0.3344
 5638SOL     OW28372   4.560   3.696  17.658 -0.0347  0.4057 -0.3548
 5638SOL    HW128373   4.476   3.715   0.003 -0.2572 -2.7924  0.6225
 5638SOL    HW228374   4.534   3.694  17.566  2.1285 -0.9782 -0.9201
 5639SOL     OW28375   4.335   4.688   4.646  0.0865 -0.4704 -0.4326
 5639SOL    HW128376   4.414   0.003   4.609  1.5377 -3.6161 -0.5980
 5639SOL    HW228377   4.268   0.032   4.650 -0.3727 -0.9463  0.0651
 5640SOL     OW28378   2.384   0.017  12.981 -0.0474 -0.6326 -0.2372
 5640SOL    HW128379   2.372   0.085  12.914 -0.9015 -1.3340 -0.7914
 5640SOL    HW228380   2.476   4.717  12.975 -0.0240 -0.7536  0.5909
 5641SOL     OW28381   1.026   1.802   1.578  0.5151 -0.2461  0.1459
 5641SOL    HW128382   1.081   1.804   1.500 -1.2571  1.6969 -1.0616
 5641SOL    HW228383   0.972   1.725   1.560 -2.3676  1.6682  0.6383
 5642SOL     OW28384   3.139   2.997   4.658 -0.3487  0.3509 -0.4842
 5642SOL    HW128385   3.152   3.087   4.689 -2.9363 -0.2883  2.3691
 5642SOL    HW228386   3.045   2.989   4.670 -0.6017  1.0634 -2.0015
 5643SOL     OW28387   1.277   3.863   4.767  0.2779  0.2636  0.6506
 5643SOL    HW128388   1.316   3.808   4.835 -0.6107  0.8954  1.6700
 5643SOL    HW228389   1.237   3.928   4.824  0.8359  0.3909  0.9041
 5644SOL     OW28390   0.499   3.820  10.564 -0.1966 -0.0211  0.1594
 5644SOL    HW128391   0.534   3.797  10.478  1.0493  2.1423  0.0768
 5644SOL    HW228392   0.571   3.808  10.625 -1.1299 -1.5408  0.9567
 5645SOL     OW28393   0.717   1.296  14.109 -0.5742  0.5184 -0.0356
 5645SOL    HW128394   0.789   1.298  14.046 -1.3614 -0.3099 -0.9616
 5645SOL    HW228395   0.761   1.272  14.191 -0.4976  0.3795 -0.1174
 5646SOL     OW28396   4.557   0.116   1.453 -0.2365  0.7265  0.0281
 5646SOL    HW128397   4.527   0.193   1.406 -0.4232  0.9985  0.5876
 5646SOL    HW228398   4.500   0.048   1.418 -0.7116  1.9649 -1.5480
 5647SOL     OW28399   1.071   3.259   8.664 -0.6000  0.4210 -0.3055
 5647SOL    HW128400   1.108   3.232   8.748 -0.2190  0.9829 -0.2949
 5647SOL    HW228401   0.980   3.279   8.688  0.2575  1.8711  1.6903
 5648SOL     OW28402   2.387   4.554   8.946 -0.4631 -0.0196  0.4268
 5648SOL    HW128403   2.341   4.618   9.001 -0.7968  1.5494 -1.6742
 5648SOL    HW228404   2.365   4.466   8.977  0.0573 -0.3416 -0.1151
 5649SOL     OW28405   0.511   3.906   2.272  0.8317  0.3777 -0.4308
 5649SOL    HW128406   0.422   3.936   2.289  1.5271  0.7037  2.6483
 5649SOL    HW228407   0.529   3.856   2.352 -0.6099  2.5132  1.2143
 5650SOL     OW28408   2.899   3.610   5.252  0.1312  0.2597 -0.2057
 5650SOL    HW128409   2.807   3.615   5.224 -0.1611  2.1692  1.1283
 5650SOL    HW228410   2.907   3.523   5.291  0.1983 -0.3961 -1.7063
 5651SOL     OW28411   0.895   1.316   5.966 -0.5134  0.2241 -0.0097
 5651SOL    HW128412   0.907   1.391   5.908 -0.7853 -0.1806 -0.5925
 5651SOL    HW228413   0.936   1.352   6.044  0.3541 -0.0019 -0.3581
 5652SOL     OW28414   2.628   4.714  15.280  0.1774  0.3264  0.8806
 5652SOL    HW128415   2.686   0.065  15.265 -1.1323  1.5807  2.0571
 5652SOL    HW228416   2.608   4.711  15.373  1.1236 -1.7303  1.0064
 5653SOL     OW28417   4.379   2.671   9.027  0.0168  0.0131  0.3580
 5653SOL    HW128418   4.363   2.608   9.098 -1.2740 -1.5484 -1.3143
 5653SOL    HW228419   4.473   2.661   9.008  0.7053  1.5835  2.8843
 5654SOL     OW28420   2.490   0.735   6.470  0.0218  0.1613  0.4164
 5654SOL    HW128421   2.535   0.754   6.552  0.9253 -0.6254  0.0886
 5654SOL    HW228422   2.548   0.777   6.407  0.0576 -0.0629  0.3012
 5655SOL     OW28423   2.141   3.012   1.128  0.1043 -0.3401  0.0855
 5655SOL    HW128424   2.076   3.025   1.059  0.0326  0.0754  0.2328
 5655SOL    HW228425   2.197   3.084   1.099  0.0333 -0.0664  0.6326
 5656SOL     OW28426   1.294   3.671  11.733 -0.2363 -0.1373  0.9627
 5656SOL    HW128427   1.210   3.689  11.776 -0.2021  1.0699  0.5194
 5656SOL    HW228428   1.272   3.703  11.646  0.2591  0.8668  1.2033
 5657SOL     OW28429   0.394   4.659   8.187 -0.2314 -0.2987 -0.2293
 5657SOL    HW128430   0.420   4.608   8.264  1.3337 -1.1665 -1.3517
 5657SOL    HW228431   0.308   4.626   8.161 -1.4687  0.3786  3.0014
 5658SOL     OW28432   0.953   0.219  13.349  0.0858 -0.7217  0.0918
 5658SOL    HW128433   0.928   0.287  13.411 -0.0493 -1.4525  0.8480
 5658SOL    HW228434   0.909   0.251  13.270  2.1047 -0.8144 -1.0879
 5659SOL     OW28435   4.676   1.018   7.913  0.4484  0.0077  0.3109
 5659SOL    HW128436   0.047   1.021   7.922  0.3054  3.7909  0.7779
 5659SOL    HW228437   4.663   1.107   7.879  0.1095  0.3772  1.4023
 5660SOL     OW28438   0.354   0.179   9.741 -0.3366 -0.5621 -0.4103
 5660SOL    HW128439   0.423   0.198   9.805  1.4887 -0.3086 -2.4536
 5660SOL    HW228440   0.400   0.184   9.657  0.7827  0.2879  0.2492
 5661SOL     OW28441   2.719   4.401   6.983 -0.6363  0.6654 -0.5641
 5661SOL    HW128442   2.812   4.410   7.002 -0.8496  1.0359  0.3062
 5661SOL    HW228443   2.702   4.496   6.982 -1.8166  0.4340 -2.2025
 5662SOL     OW28444   0.454   1.900   8.214  0.1915 -0.0252  0.2511
 5662SOL    HW128445   0.378   1.872   8.164 -0.2517  1.6538 -0.0141
 5662SOL    HW228446   0.480   1.989   8.190  2.0366 -0.6810 -0.1849
 5663SOL     OW28447   0.948   0.988  10.861 -0.3285  0.5160  0.3008
 5663SOL    HW128448   1.007   0.916  10.844 -2.8279 -1.1066 -1.5813
 5663SOL    HW228449   0.930   1.019  10.772 -0.0703  1.0080  0.4190
 5664SOL     OW28450   1.630   4.370   7.770 -0.2158 -0.2595 -0.2433
 5664SOL    HW128451   1.671   4.298   7.722  0.7291 -0.3295  0.6685
 5664SOL    HW228452   1.553   4.380   7.715  1.6318  2.2571 -2.3875
 5665SOL     OW28453   1.062   1.821  15.167 -0.8295  0.2419 -0.0686
 5665SOL    HW128454   1.102   1.876  15.235 -0.8489  0.6926 -0.4254
 5665SOL    HW228455   1.018   1.887  15.114  0.6662  0.4590 -1.0361
 5666SOL     OW28456   2.280   1.962  11.774 -0.0286  0.0778 -0.0134
 5666SOL    HW128457   2.205   1.927  11.725 -0.0197  1.6720 -1.1580
 5666SOL    HW228458   2.233   1.990  11.852 -0.3471  3.7835 -1.5433
 5667SOL     OW28459   3.985   2.610   6.247 -0.2885 -0.1275 -0.2171
 5667SOL    HW128460   3.961   2.631   6.338 -0.9969  0.2747 -0.4925
 5667SOL    HW228461   3.925   2.663   6.196 -0.8045  1.6626  2.2357
 5668SOL     OW28462   0.760   3.136   3.850  0.1144 -0.0430 -0.3088
 5668SOL    HW128463   0.699   3.200   3.813  2.8367  1.5611 -2.0533
 5668SOL    HW228464   0.828   3.134   3.783 -0.1605  1.0053 -0.6251
 5669SOL     OW28465   4.448   2.478   4.253 -0.2119 -0.0775  0.3488
 5669SOL    HW128466   4.448   2.383   4.238  1.2839 -0.1424  0.8205
 5669SOL    HW228467   4.441   2.485   4.348 -1.6236  0.0212  0.2449
 5670SOL     OW28468   1.946   2.014  16.428  0.3242  0.1307 -0.6302
 5670SOL    HW128469   1.932   2.057  16.512  0.3912  1.8446 -1.4980
 5670SOL    HW228470   1.918   1.926  16.454 -0.5516  0.2131 -1.2847
 5671SOL     OW28471   3.271   1.313   4.427 -0.4869  0.1294  0.6138
 5671SOL    HW128472   3.285   1.408   4.427 -1.0926  0.2201  1.3341
 5671SOL    HW228473   3.279   1.296   4.521  0.9750 -2.8005 -0.0585
 5672SOL     OW28474   4.436   3.135   7.733  0.5262 -0.5266  0.2178
 5672SOL    HW128475   4.438   3.043   7.707  1.7224 -0.5474  0.3964
 5672SOL    HW228476   4.526   3.166   7.744  0.5636 -0.8356  0.7613
 5673SOL     OW28477   4.496   0.194   3.521  0.2133 -0.1985 -0.1627
 5673SOL    HW128478   4.446   0.236   3.591  0.7309  1.2184 -0.6441
 5673SOL    HW228479   4.564   0.252   3.485 -0.5420  0.5352 -0.4247
 5674SOL     OW28480   2.916   3.864  13.811  0.2093 -0.1022 -0.1464
 5674SOL    HW128481   2.995   3.820  13.780 -1.2999 -0.7156 -3.1033
 5674SOL    HW228482   2.946   3.955  13.801 -0.0213 -0.1637 -1.3454
 5675SOL     OW28483   2.851   4.462   4.050 -0.0317 -0.2127  0.5199
 5675SOL    HW128484   2.902   4.411   4.113  0.3385 -1.8958 -1.1218
 5675SOL    HW228485   2.775   4.489   4.101 -0.0070 -0.7368  0.8314
 5676SOL     OW28486   1.824   4.449  11.762  0.0482 -0.1521 -0.4133
 5676SOL    HW128487   1.815   4.469  11.669 -0.8092  0.5109 -0.1860
 5676SOL    HW228488   1.734   4.437  11.793  0.0776 -0.1409 -0.3240
 5677SOL     OW28489   3.778   3.725   4.484 -0.5608  0.4269  0.0187
 5677SOL    HW128490   3.850   3.781   4.517 -0.4207  0.9765 -1.2337
 5677SOL    HW228491   3.781   3.744   4.390  1.2005 -0.0845 -0.0281
 5678SOL     OW28492   3.431   4.218  14.527 -0.4326  0.0557  0.0289
 5678SOL    HW128493   3.501   4.280  14.546  0.9374 -1.9241  1.4562
 5678SOL    HW228494   3.431   4.217  14.431  0.1610 -0.9195  0.0376
 5679SOL     OW28495   3.742   0.853  12.081 -0.2073 -0.2384 -0.1828
 5679SOL    HW128496   3.704   0.780  12.130  2.0167 -0.8136  0.6876
 5679SOL    HW228497   3.659   0.883  12.044 -0.3280  1.2504  1.3244
 5680SOL     OW28498   0.950   0.254   1.523  0.0663 -0.0989  0.8146
 5680SOL    HW128499   0.968   0.174   1.474  1.5033  0.3230  0.6397
 5680SOL    HW228500   0.894   0.221   1.594 -1.7523  0.6177 -0.3190
 5681SOL     OW28501   2.821   2.194   7.401 -0.0800  0.4652 -0.5099
 5681SOL    HW128502   2.847   2.250   7.474 -1.6152 -0.0261  0.4159
 5681SOL    HW228503   2.847   2.107   7.430 -0.2997  0.4415 -0.3854
 5682SOL     OW28504   1.134   2.699   6.113  0.1190  0.0048  0.2486
 5682SOL    HW128505   1.118   2.783   6.070  0.0267 -0.3373 -0.3880
 5682SOL    HW228506   1.157   2.646   6.036  1.3078  0.6991  0.1303
 5683SOL     OW28507   1.505   1.206   4.948 -0.1615 -0.3645  0.4139
 5683SOL    HW128508   1.586   1.241   4.984 -0.5483 -1.3387  2.2241
 5683SOL    HW228509   1.439   1.274   4.963 -2.3710 -2.5552  0.5129
 5684SOL     OW28510   0.117   1.754   8.784 -0.0768  0.5006  0.5261
 5684SOL    HW128511   0.040   1.698   8.780 -0.6132  1.2432  0.4921
 5684SOL    HW228512   0.078   1.841   8.792 -0.0538  0.5330  0.2999
 5685SOL     OW28513   3.029   2.501   4.011  0.9251 -0.2053  0.4575
 5685SOL    HW128514   3.035   2.595   3.991 -1.9942 -0.4741 -1.7092
 5685SOL    HW228515   2.991   2.502   4.098  0.2784  1.0880  0.1535
 5686SOL     OW28516   1.319   2.653  16.168  0.7009 -0.0141 -0.2970
 5686SOL    HW128517   1.295   2.598  16.093 -0.2026 -1.2698  0.9213
 5686SOL    HW228518   1.243   2.710  16.162 -0.2702 -1.1565  1.1311
 5687SOL     OW28519   3.115   1.305   1.451 -0.3904 -0.0255 -0.1888
 5687SOL    HW128520   3.203   1.269   1.462 -0.3885  0.6874  2.1219
 5687SOL    HW228521   3.122   1.308   1.355 -0.0239 -0.2215 -0.1673
 5688SOL     OW28522   4.031   2.310   9.626  0.0342 -0.3653 -0.2953
 5688SOL    HW128523   3.997   2.301   9.537 -3.0789  0.6000  0.7882
 5688SOL    HW228524   3.962   2.366   9.663  0.7090  0.1117  0.2345
 5689SOL     OW28525   0.030   1.557   4.849 -0.3101  0.4632  0.0956
 5689SOL    HW128526   0.069   1.643   4.864 -3.9266  2.4877 -2.1007
 5689SOL    HW228527   0.105   1.505   4.822 -0.9358  0.0358 -0.8331
 5690SOL     OW28528   1.369   0.038   2.443 -0.2580 -0.5443  0.5864
 5690SOL    HW128529   1.325   4.678   2.429  2.1015 -1.7734  0.5098
 5690SOL    HW228530   1.435   0.029   2.374  0.3316  2.9558  0.6914
 5691SOL     OW28531   2.444   1.584   7.495  0.7219  0.0341  0.1334
 5691SOL    HW128532   2.501   1.661   7.500 -0.1752  0.5929  1.9904
 5691SOL    HW228533   2.364   1.622   7.459  0.1217 -0.3457  1.0568
 5692SOL     OW28534   4.615   1.957   3.218 -0.3113 -0.2846  0.0323
 5692SOL    HW128535   4.691   1.908   3.187  0.8902  2.1535 -0.8485
 5692SOL    HW228536   4.635   2.040   3.176  0.8592 -0.9357 -0.6821
 5693SOL     OW28537   0.533   3.500   4.233  0.1100  0.5835  0.0876
 5693SOL    HW128538   0.438   3.510   4.228 -0.3827 -2.9173  1.8107
 5693SOL    HW228539   0.546   3.502   4.328 -0.7837 -3.3717  0.3163
 5694SOL     OW28540   2.594   1.342   7.079  0.2718  0.0697 -0.0232
 5694SOL    HW128541   2.574   1.374   7.167  1.2148  0.4578  0.0517
 5694SOL    HW228542   2.525   1.279   7.055  0.2590 -0.8918  2.5271
 5695SOL     OW28543   3.171   3.875   8.172 -0.4972 -0.3559 -0.5678
 5695SOL    HW128544   3.165   3.815   8.098  0.9908 -1.6771  0.3931
 5695SOL    HW228545   3.129   3.818   8.236  0.0975 -0.0102  0.1429
 5696SOL     OW28546   4.400   0.513   3.858 -0.7315  0.7766 -0.4390
 5696SOL    HW128547   4.465   0.584   3.854 -3.3775  3.1702 -1.0247
 5696SOL    HW228548   4.366   0.536   3.772 -0.3101 -0.7260 -1.0026
 5697SOL     OW28549   0.708   3.948   3.762  0.0747  0.5558 -0.3428
 5697SOL    HW128550   0.677   4.038   3.765  0.2238  0.6769 -2.6461
 5697SOL    HW228551   0.801   3.952   3.784  0.2441 -0.4334 -0.8544
 5698SOL     OW28552   0.454   3.131   9.556 -0.7543  0.0147  0.0951
 5698SOL    HW128553   0.384   3.187   9.522 -1.1683 -0.3942  0.2648
 5698SOL    HW228554   0.515   3.127   9.482 -0.0818 -3.7629  0.8714
 5699SOL     OW28555   3.035   3.891   7.460 -0.0816  0.5443 -0.3604
 5699SOL    HW128556   3.077   3.896   7.546 -0.7090 -1.8717  0.0851
 5699SOL    HW228557   3.095   3.834   7.412 -1.7784 -2.1538  0.7421
 5700SOL     OW28558   1.546   0.911   9.360 -0.3435  0.2229  0.0195
 5700SOL    HW128559   1.580   0.985   9.311 -0.6370  0.0799 -0.3983
 5700SOL    HW228560   1.604   0.837   9.341  0.7087  0.6090  1.6963
 5701SOL     OW28561   0.151   1.614   2.126 -0.0416  0.1338  0.3973
 5701SOL    HW128562   0.206   1.538   2.108  0.3626  0.4002  0.5228
 5701SOL    HW228563   0.214   1.685   2.120 -0.8988  1.0047  1.6998
 5702SOL     OW28564   3.718   1.919   0.380 -0.2666 -0.4191 -0.6025
 5702SOL    HW128565   3.770   1.999   0.386  0.9410 -1.2429 -0.0373
 5702SOL    HW228566   3.630   1.956   0.380  0.4601  1.2619  0.4890
 5703SOL     OW28567   3.969   4.602   2.677  0.0724 -0.1247 -0.0705
 5703SOL    HW128568   4.054   4.566   2.702 -0.0555 -0.3194  0.0840
 5703SOL    HW228569   3.920   4.523   2.700 -1.9325  0.3650 -2.6107
 5704SOL     OW28570   0.816   3.090   0.100 -0.1526  0.1434  0.0391
 5704SOL    HW128571   0.780   3.081   0.012 -0.4651 -1.4015  0.3167
 5704SOL    HW228572   0.910   3.078   0.086 -0.0506  0.5239  0.3820
 5705SOL     OW28573   1.787   1.511   2.005 -0.3981  0.3361 -0.2092
 5705SOL    HW128574   1.742   1.589   1.973 -2.2315 -0.5193  0.2720
 5705SOL    HW228575   1.734   1.440   1.969  1.5748 -0.4853 -1.4536
 5706SOL     OW28576   3.707   2.076   9.818 -0.0830  0.0939 -0.0888
 5706SOL    HW128577   3.769   2.016   9.858 -1.5657 -0.6910  1.0234
 5706SOL    HW228578   3.735   2.164   9.843 -0.0069 -0.2585  1.0290
 5707SOL     OW28579   1.362   3.174   0.371  0.5810  0.0546 -0.5978
 5707SOL    HW128580   1.303   3.100   0.359  1.4959 -0.3113 -2.9530
 5707SOL    HW228581   1.306   3.232   0.424  2.2163  0.6438  0.4779
 5708SOL     OW28582   1.587   4.194  10.001  1.2133 -0.1142  0.0112
 5708SOL    HW128583   1.681   4.183   9.987  1.0186 -0.6837 -0.7794
 5708SOL    HW228584   1.591   4.290  10.009 -0.6731  0.0018 -0.4750
 5709SOL     OW28585   1.134   3.552   0.424 -0.1153  0.8961  0.3358
 5709SOL    HW128586   1.123   3.606   0.502 -0.1988  1.5919 -0.1592
 5709SOL    HW228587   1.191   3.600   0.365 -0.1641 -0.7457 -1.0434
 5710SOL     OW28588   4.583   0.062   4.547  0.1142  0.0618  0.1483
 5710SOL    HW128589   4.587   0.156   4.530 -1.3914 -0.1138 -1.1444
 5710SOL    HW228590   4.549   0.031   4.463  0.7824  0.9138 -0.4296
 5711SOL     OW28591   3.045   2.920   6.908  0.1689 -0.2482 -0.5733
 5711SOL    HW128592   2.949   2.925   6.902  0.0563 -0.8780  0.6079
 5711SOL    HW228593   3.064   2.856   6.840  0.1396  1.0982 -1.8475
 5712SOL     OW28594   1.092   3.480  14.960 -0.1581 -0.4059  0.8020
 5712SOL    HW128595   1.099   3.427  15.040  0.0320  2.7190  2.8445
 5712SOL    HW228596   1.035   3.549  14.994 -1.0491 -0.4390 -0.5924
 5713SOL     OW28597   3.834   2.955   8.588 -0.3072  0.2562 -0.5459
 5713SOL    HW128598   3.868   2.974   8.500  1.8924 -1.4611 -0.0670
 5713SOL    HW228599   3.821   2.860   8.593  0.0479  0.2947  1.0101
 5714SOL     OW28600   0.757   1.712   3.765 -0.1709  0.7576 -0.2003
 5714SOL    HW128601   0.745   1.696   3.859  0.8098 -2.2889 -0.5849
 5714SOL    HW228602   0.795   1.625   3.755  0.0653  0.7507  0.7904
 5715SOL     OW28603   0.783   2.639   7.765 -0.0314 -0.5383 -0.1460
 5715SOL    HW128604   0.858   2.698   7.776  0.6117 -1.2469 -0.8029
 5715SOL    HW228605   0.720   2.692   7.815 -0.0659  0.1301 -0.9029
 5716SOL     OW28606   2.611   0.381   4.310 -0.1070 -0.1511  0.3791
 5716SOL    HW128607   2.666   0.390   4.387  0.8476  1.4776 -0.4897
 5716SOL    HW228608   2.685   0.354   4.256 -1.6752 -0.3707 -1.7016
 5717SOL     OW28609   2.049   4.039   8.031 -0.1204  0.0391 -0.1584
 5717SOL    HW128610   1.975   4.099   8.032 -0.5545 -0.4766 -1.0764
 5717SOL    HW228611   2.060   4.016   8.123 -2.5209 -0.8328 -0.1075
 5718SOL     OW28612   1.308   3.974   0.013  0.0109 -0.4117  0.2128
 5718SOL    HW128613   1.338   3.967  17.620  1.4572 -0.2214  0.6812
 5718SOL    HW228614   1.383   4.023   0.045  0.7279 -1.9359  0.8768
 5719SOL     OW28615   4.183   2.878   7.163  0.0395 -0.4263 -0.6756
 5719SOL    HW128616   4.143   2.929   7.092 -0.2366  1.2263  0.6800
 5719SOL    HW228617   4.100   2.847   7.197 -0.1303  1.1261  0.2891
 5720SOL     OW28618   0.398   1.229  17.641 -0.0232 -0.9308  0.0958
 5720SOL    HW128619   0.446   1.155  17.602  0.7161  1.0054 -2.6692
 5720SOL    HW228620   0.474   1.277  17.673 -0.2516  0.8342 -1.9985
 5721SOL     OW28621   1.655   0.367   3.667 -0.3174  0.3021  0.1463
 5721SOL    HW128622   1.719   0.409   3.609 -0.0073  0.7919  0.8436
 5721SOL    HW228623   1.706   0.292   3.697  0.3525 -0.3456 -2.6260
 5722SOL     OW28624   4.163   4.051  11.453 -0.2264 -0.0462 -0.6012
 5722SOL    HW128625   4.209   3.979  11.410  2.4115  2.2797 -1.6411
 5722SOL    HW228626   4.174   4.117  11.385  1.7469 -0.9395 -1.1548
 5723SOL     OW28627   3.600   3.513   3.757 -0.5347 -0.1272  0.0172
 5723SOL    HW128628   3.530   3.505   3.821 -2.6286 -3.3216 -2.6905
 5723SOL    HW228629   3.644   3.431   3.782 -1.0709  0.1406  1.8351
 5724SOL     OW28630   0.435   0.350   8.721 -0.0655  0.7949 -0.0407
 5724SOL    HW128631   0.494   0.403   8.667 -4.0677  3.2890 -1.9499
 5724SOL    HW228632   0.365   0.413   8.733 -2.4553 -2.5091  3.4013
 5725SOL     OW28633   0.394   3.304   3.401 -0.1458 -0.1727  0.2630
 5725SOL    HW128634   0.457   3.232   3.404 -1.3722 -1.2038  1.2692
 5725SOL    HW228635   0.330   3.272   3.337  1.7252 -0.6692 -1.3441
 5726SOL     OW28636   1.105   4.233   0.865  0.0662  0.0715  0.3427
 5726SOL    HW128637   1.163   4.309   0.870  1.1707 -0.6914 -0.7615
 5726SOL    HW228638   1.025   4.260   0.909  0.5513  0.9633  0.6850
 5727SOL     OW28639   2.655   4.009   7.328 -0.2881 -0.2855 -0.3501
 5727SOL    HW128640   2.680   4.058   7.250 -1.8534 -0.9602 -1.2805
 5727SOL    HW228641   2.560   4.005   7.316 -0.1940  2.7302 -1.8430
 5728SOL     OW28642   0.682   2.589  15.988 -0.1637  0.2876  0.0655
 5728SOL    HW128643   0.702   2.496  15.995  1.1339  0.7453  2.5265
 5728SOL    HW228644   0.768   2.629  16.001  0.5101 -0.8907 -0.7522
 5729SOL     OW28645   1.560   0.652  13.907 -0.4362  0.0277  0.0167
 5729SOL    HW128646   1.573   0.558  13.894 -2.0690 -0.0453 -1.0059
 5729SOL    HW228647   1.563   0.682  13.816 -0.5467 -0.6823 -0.2183
 5730SOL     OW28648   3.951   3.389   2.370  0.6510  0.5456 -0.1635
 5730SOL    HW128649   3.952   3.478   2.334  0.4128  0.8133  0.4863
 5730SOL    HW228650   4.000   3.333   2.311 -1.6026 -0.9077 -0.6595
 5731SOL     OW28651   3.463   0.974   2.403 -0.5675  0.6033 -0.0579
 5731SOL    HW128652   3.497   1.063   2.414  0.4500  0.4274 -1.6773
 5731SOL    HW228653   3.434   0.973   2.311 -0.7995 -0.6636  0.0357
 5732SOL     OW28654   2.011   4.374   7.525 -0.8222  0.2476  0.3811
 5732SOL    HW128655   1.971   4.390   7.610 -1.3515  0.4273  0.1013
 5732SOL    HW228656   2.096   4.416   7.535  0.3169 -2.2279  0.8447
 5733SOL     OW28657   3.380   0.219  15.208  0.0007 -0.2569 -0.0721
 5733SOL    HW128658   3.346   0.306  15.190  0.8713  0.5206  2.0417
 5733SOL    HW228659   3.383   0.173  15.124 -0.4362  1.0820 -0.8047
 5734SOL     OW28660   2.590   3.068   8.561  0.2771  0.3738  0.1172
 5734SOL    HW128661   2.680   3.066   8.528  0.4911  1.4101  0.6207
 5734SOL    HW228662   2.594   3.022   8.644 -2.9381 -0.9147 -0.4279
 5735SOL     OW28663   3.609   0.198   2.913  0.5197 -0.4815 -0.0449
 5735SOL    HW128664   3.663   0.222   2.988  0.9315 -1.1022 -0.1483
 5735SOL    HW228665   3.685   0.176   2.859  0.9766  0.4767  0.2059
 5736SOL     OW28666   0.037   3.937   4.632  0.7145 -0.2934 -0.0200
 5736SOL    HW128667   0.021   4.031   4.638  2.3189  0.0598 -1.1603
 5736SOL    HW228668   0.028   3.911   4.724  4.8243 -1.3318  0.1047
 5737SOL     OW28669   4.418   0.212  16.455  0.2360  0.5334  0.0612
 5737SOL    HW128670   4.389   0.261  16.532  0.7847  0.4611  0.3168
 5737SOL    HW228671   4.432   0.291  16.404 -0.3661 -0.2967 -1.3861
 5738SOL     OW28672   4.225   3.268   8.182 -0.2689  0.2593 -0.0994
 5738SOL    HW128673   4.296   3.240   8.240 -0.6456  1.5392  0.9904
 5738SOL    HW228674   4.266   3.263   8.096 -1.5539  0.7591 -0.7281
 5739SOL     OW28675   0.411   1.831   8.757 -1.1479 -0.4097  0.4074
 5739SOL    HW128676   0.378   1.752   8.799  1.1566 -1.3706  0.3784
 5739SOL    HW228677   0.391   1.817   8.665  0.4929 -0.4544  0.0703
 5740SOL     OW28678   2.990   2.469  15.674 -0.4388  0.0201  0.0960
 5740SOL    HW128679   3.074   2.428  15.656 -0.4233  0.4765 -0.8702
 5740SOL    HW228680   2.949   2.461  15.588  1.1893 -1.5470 -0.5323
 5741SOL     OW28681   0.010   3.526   7.789 -0.5671  0.2676  0.1626
 5741SOL    HW128682   0.017   3.610   7.833 -1.5264  0.3078  0.2247
 5741SOL    HW228683   0.095   3.492   7.818  0.2002  1.0003 -1.2334
 5742SOL     OW28684   3.086   3.999   1.066  0.1940 -0.1628 -0.0615
 5742SOL    HW128685   3.046   4.044   0.992  0.0381 -0.0339  0.1027
 5742SOL    HW228686   3.162   3.953   1.031 -0.8696 -1.5079 -0.5759
 5743SOL     OW28687   0.230   3.950  13.989 -0.2077  0.1911  0.1692
 5743SOL    HW128688   0.221   3.854  13.986  3.1685 -0.1458  0.4244
 5743SOL    HW228689   0.304   3.971  14.046  0.7583 -1.1852 -0.5703
 5744SOL     OW28690   3.508   0.658  10.216 -0.4122  0.1369 -0.0721
 5744SOL    HW128691   3.559   0.729  10.256 -0.6515 -0.0572  0.5769
 5744SOL    HW228692   3.438   0.706  10.172 -0.6938 -0.7591 -0.6058
 5745SOL     OW28693   1.141   4.317  15.404 -0.1764  0.0919  0.0817
 5745SOL    HW128694   1.083   4.293  15.476  0.7874 -1.3769  0.3608
 5745SOL    HW228695   1.216   4.361  15.444  0.7508 -0.2779 -1.2496
 5746SOL     OW28696   4.066   3.761   3.890  0.6108 -0.7103 -0.4100
 5746SOL    HW128697   4.020   3.739   3.809 -1.8009  1.8692  0.2516
 5746SOL    HW228698   4.085   3.671   3.918 -0.3313 -1.0480 -0.8459
 5747SOL     OW28699   1.600   2.519   3.826 -0.9276 -0.0919 -0.2227
 5747SOL    HW128700   1.538   2.574   3.873 -1.4032 -0.3493 -0.5448
 5747SOL    HW228701   1.551   2.494   3.748  0.7076  0.7249 -1.5051
 5748SOL     OW28702   1.883   4.501   5.659  0.1740 -0.0344 -0.4521
 5748SOL    HW128703   1.969   4.473   5.692 -0.4709 -1.9684 -0.4227
 5748SOL    HW228704   1.875   4.424   5.603  1.3349 -0.7374  0.3580
 5749SOL     OW28705   3.910   3.772  12.500 -0.1908  0.0768  0.4694
 5749SOL    HW128706   3.890   3.715  12.575  0.1239 -2.6119 -1.5092
 5749SOL    HW228707   3.998   3.738  12.485 -1.2311 -3.4649  2.5283
 5750SOL     OW28708   3.933   4.091   8.086 -0.4923  0.3662 -0.0847
 5750SOL    HW128709   3.842   4.115   8.072 -0.2037  1.8777  0.5978
 5750SOL    HW228710   3.958   4.161   8.147 -0.2796  0.0751  0.1674
 5751SOL     OW28711   0.920   1.139   2.319  0.0215 -0.1644 -0.2819
 5751SOL    HW128712   0.986   1.162   2.253 -0.1282 -0.8896 -0.6869
 5751SOL    HW228713   0.977   1.085   2.374 -0.5197 -0.7053 -0.2606
 5752SOL     OW28714   1.012   3.821   1.814 -0.2454 -0.3438  0.2143
 5752SOL    HW128715   1.004   3.897   1.756 -1.9605 -2.4080 -2.2503
 5752SOL    HW228716   1.043   3.759   1.748  0.6130 -0.7233  0.9768
 5753SOL     OW28717   1.974   4.566   8.021 -0.0286 -0.2363 -0.2898
 5753SOL    HW128718   2.067   4.587   8.034 -0.1976 -0.8617  1.9154
 5753SOL    HW228719   1.968   4.500   8.090 -1.0433 -0.1131 -0.2630
 5754SOL     OW28720   3.225   4.490   8.392 -0.2228 -0.5084  0.1966
 5754SOL    HW128721   3.226   4.411   8.446  0.2279  0.2692  1.3198
 5754SOL    HW228722   3.266   4.455   8.312  1.6994 -0.6346  1.2193
 5755SOL     OW28723   0.009   2.181   4.064  0.1846 -0.5498 -0.3989
 5755SOL    HW128724   4.681   2.250   4.022 -0.9928 -1.0547  0.2067
 5755SOL    HW228725   0.097   2.217   4.053  0.3489 -1.2994 -1.5903
 5756SOL     OW28726   2.043   4.300  16.794  0.3687 -0.3538 -0.1617
 5756SOL    HW128727   2.020   4.302  16.701  0.0128 -2.6778 -0.1380
 5756SOL    HW228728   2.109   4.231  16.782 -1.1539 -1.9158  0.4352
 5757SOL     OW28729   0.923   0.385  13.110 -0.3178  0.3052  0.5207
 5757SOL    HW128730   0.981   0.325  13.063 -0.5630 -0.4519  1.1949
 5757SOL    HW228731   0.846   0.331  13.091 -1.2353  0.3050  4.3555
 5758SOL     OW28732   4.493   1.176   6.215 -0.2246 -0.5131 -0.4516
 5758SOL    HW128733   4.491   1.272   6.208 -0.0651 -0.4318  0.6622
 5758SOL    HW228734   4.585   1.170   6.189  0.2804  2.7603  0.5625
 5759SOL     OW28735   0.928   3.691  13.268  0.5019 -0.5315 -0.3379
 5759SOL    HW128736   1.012   3.678  13.224  0.8497  0.1566  0.1234
 5759SOL    HW228737   0.962   3.689  13.358 -0.6599  0.2220  0.1258
 5760SOL     OW28738   2.471   4.339   2.829 -0.7287  0.0114  0.0297
 5760SOL    HW128739   2.438   4.288   2.755 -1.3435  1.2520 -0.5465
 5760SOL    HW228740   2.562   4.309   2.826 -1.1079 -1.1035 -0.7009
 5761SOL     OW28741   1.628   3.641  12.492  0.4533  0.2832  0.6230
 5761SOL    HW128742   1.565   3.659  12.422  1.1842  1.1721  0.1936
 5761SOL    HW228743   1.709   3.647  12.443 -0.4412 -0.8445 -0.9984
 5762SOL     OW28744   1.947   1.781   9.835 -0.0919  0.3222  0.0808
 5762SOL    HW128745   1.988   1.720   9.897 -0.2065 -2.4855 -2.5598
 5762SOL    HW228746   2.014   1.849   9.836  1.9869 -1.6893 -2.9933
 5763SOL     OW28747   1.652   3.757  15.722 -0.0781  0.3225 -0.1551
 5763SOL    HW128748   1.612   3.780  15.638 -1.0872 -1.3573 -0.1223
 5763SOL    HW228749   1.659   3.844  15.762 -0.9363  1.0797 -1.6415
 5764SOL     OW28750   0.892   2.102   3.856 -0.2420 -0.5852 -0.0371
 5764SOL    HW128751   0.805   2.085   3.821  0.2839 -2.9794 -0.2529
 5764SOL    HW228752   0.929   2.014   3.844 -1.9905 -1.2846 -0.1962
 5765SOL     OW28753   0.231   2.515   7.197  0.8222  0.3115 -0.0410
 5765SOL    HW128754   0.302   2.457   7.227 -0.4840 -1.5255 -0.5091
 5765SOL    HW228755   0.280   2.561   7.129  3.5927 -1.8178  0.5006
 5766SOL     OW28756   2.209   1.329   8.393 -0.1392 -0.2765 -0.1172
 5766SOL    HW128757   2.233   1.241   8.365  0.9018  0.0138 -0.1422
 5766SOL    HW228758   2.129   1.317   8.443  0.2526  1.0696  0.8308
 5767SOL     OW28759   1.691   3.319   2.800 -0.9582 -0.0120 -0.1865
 5767SOL    HW128760   1.608   3.342   2.841 -1.5893  0.8342 -1.9460
 5767SOL    HW228761   1.695   3.375   2.723 -0.5286 -0.5001 -0.5286
 5768SOL     OW28762   3.052   2.779   4.324  0.8368 -0.2095  0.2578
 5768SOL    HW128763   3.050   2.690   4.288  0.3993 -0.9556  2.1046
 5768SOL    HW228764   3.008   2.775   4.409 -0.0736  0.4000 -0.1819
 5769SOL     OW28765   2.495   2.182   1.659  0.2966 -0.1899 -0.2809
 5769SOL    HW128766   2.579   2.175   1.614  2.2016  0.9374  3.0730
 5769SOL    HW228767   2.487   2.109   1.720  2.5900  0.9305  1.3623
 5770SOL     OW28768   1.070   3.819   4.593  0.1825 -0.2994 -0.1778
 5770SOL    HW128769   1.082   3.731   4.558  0.2366 -0.0792 -0.7188
 5770SOL    HW228770   1.135   3.832   4.662  0.7161 -0.2701 -0.6813
 5771SOL     OW28771   1.835   3.649   8.798  0.4828  0.2747  0.3802
 5771SOL    HW128772   1.771   3.579   8.814  0.0970  0.5189 -0.0831
 5771SOL    HW228773   1.834   3.647   8.702 -1.0258 -0.6750  0.4077
 5772SOL     OW28774   1.925   0.644   1.915  0.1194  0.2891 -0.4278
 5772SOL    HW128775   1.946   0.568   1.861 -1.0030  0.6920 -1.4296
 5772SOL    HW228776   1.838   0.667   1.883  0.1513  1.0654  0.0445
 5773SOL     OW28777   2.434   4.215   7.392  0.1959  0.4515 -0.1958
 5773SOL    HW128778   2.364   4.189   7.453  1.2640  0.0808  0.8790
 5773SOL    HW228779   2.413   4.163   7.315  2.1658 -0.5460 -0.0634
 5774SOL     OW28780   4.273   2.799   4.917  0.2095  0.2164 -0.0449
 5774SOL    HW128781   4.206   2.768   4.978  2.0235  2.1896  2.9657
 5774SOL    HW228782   4.340   2.831   4.977  2.3724 -0.2295 -2.2199
 5775SOL     OW28783   1.977   1.213  17.423  0.1571 -0.8003  0.6009
 5775SOL    HW128784   2.012   1.186  17.338  1.0296  0.2491  0.6217
 5775SOL    HW228785   1.899   1.159  17.436 -0.0349 -0.5816  0.3730
 5776SOL     OW28786   4.175   0.929   8.360  0.2130  0.2540  0.3218
 5776SOL    HW128787   4.147   0.974   8.440  2.5081  2.6606 -0.2163
 5776SOL    HW228788   4.237   0.993   8.325 -0.3255 -0.1821 -1.4031
 5777SOL     OW28789   0.189   3.676   6.963 -0.4657  0.4017  0.5383
 5777SOL    HW128790   0.202   3.767   6.992 -1.2295 -0.0431  2.3099
 5777SOL    HW228791   0.105   3.691   6.920  0.1779 -0.1095 -0.8898
 5778SOL     OW28792   1.659   2.653   3.380  0.2656  0.0591  0.2054
 5778SOL    HW128793   1.752   2.634   3.364  0.0492 -0.8508  0.0132
 5778SOL    HW228794   1.617   2.568   3.366  0.4328  0.0629 -0.3391
 5779SOL     OW28795   2.361   2.841  17.564  0.4119 -0.2273  0.1128
 5779SOL    HW128796   2.402   2.855  17.478 -0.9784  0.3766 -0.4505
 5779SOL    HW228797   2.331   2.750  17.558  2.4775 -0.8783 -0.1593
 5780SOL     OW28798   0.412   4.319  12.328  0.3091  0.3487 -0.6626
 5780SOL    HW128799   0.366   4.363  12.257  1.5711 -0.6575 -2.1066
 5780SOL    HW228800   0.360   4.336  12.407 -0.5845 -2.7211 -0.6090
 5781SOL     OW28801   1.678   2.828   3.930 -0.4143 -0.0294 -0.4466
 5781SOL    HW128802   1.771   2.848   3.943 -0.0763 -3.2730  2.0594
 5781SOL    HW228803   1.684   2.818   3.834 -2.0610  0.8613 -0.6304
 5782SOL     OW28804   1.040   3.048  14.687 -0.0090 -0.3290  0.3138
 5782SOL    HW128805   1.099   3.105  14.736  1.9875 -1.2410 -0.9840
 5782SOL    HW228806   1.051   3.078  14.597 -1.0312  0.7887  0.5617
 5783SOL     OW28807   1.300   2.336   5.241  0.3825  0.1845 -0.1306
 5783SOL    HW128808   1.260   2.393   5.176 -1.0535  1.2658  1.6980
 5783SOL    HW228809   1.387   2.309   5.210  0.1640 -0.2941 -0.3265
 5784SOL     OW28810   4.065   2.429  13.210  0.2241 -0.5276 -0.4272
 5784SOL    HW128811   3.972   2.409  13.223  0.6968 -3.1848 -1.1877
 5784SOL    HW228812   4.096   2.360  13.152  2.7339 -0.4540  0.8326
 5785SOL     OW28813   1.157   3.394   2.960  0.0974  0.2530  0.2280
 5785SOL    HW128814   1.067   3.407   2.931 -0.0575 -1.6409 -0.1744
 5785SOL    HW228815   1.163   3.299   2.974  1.3506  0.3863  0.6371
 5786SOL     OW28816   1.031   2.166  15.276  0.1196 -0.0382 -0.3347
 5786SOL    HW128817   1.050   2.085  15.323 -1.9718  0.7151  1.8233
 5786SOL    HW228818   1.102   2.161  15.212  0.4147 -1.4668  0.0957
 5787SOL     OW28819   0.471   2.413   3.328  0.0084  0.5716  0.2811
 5787SOL    HW128820   0.478   2.501   3.290  0.9460  0.4942  0.2857
 5787SOL    HW228821   0.484   2.356   3.253 -0.4202 -1.0232  1.4185
 5788SOL     OW28822   1.204   0.905  10.757 -0.6231  0.5062  0.0694
 5788SOL    HW128823   1.223   0.849  10.832  2.7035 -1.3227 -2.0963
 5788SOL    HW228824   1.239   0.987  10.791 -0.3911  0.6403 -0.4807
 5789SOL     OW28825   4.543   0.643   0.840  0.6472  0.2654  0.3435
 5789SOL    HW128826   4.519   0.562   0.884  0.8258 -0.2839 -0.5789
 5789SOL    HW228827   4.460   0.659   0.795  1.5836  1.4903 -0.9181
 5790SOL     OW28828   2.877   1.371   8.387 -0.3695  0.0341  0.0735
 5790SOL    HW128829   2.887   1.461   8.356  3.6428 -0.4568 -0.0103
 5790SOL    HW228830   2.810   1.334   8.330 -0.5116  1.9554 -0.9897
 5791SOL     OW28831   1.067   3.986  11.367  0.4875  0.1652  0.4495
 5791SOL    HW128832   1.040   3.924  11.300 -0.1797  1.9214 -0.8944
 5791SOL    HW228833   1.127   4.043  11.319  0.4607  1.5319  2.0114
 5792SOL     OW28834   4.272   0.776   5.385 -0.2953  0.5800  0.1457
 5792SOL    HW128835   4.224   0.693   5.380 -1.3921  1.1603  0.8881
 5792SOL    HW228836   4.232   0.825   5.313 -1.9714 -3.8277 -1.8896
 5793SOL     OW28837   3.478   2.762   2.004  0.3435 -0.4114  0.5942
 5793SOL    HW128838   3.455   2.751   2.097  1.2261 -4.6452  0.2883
 5793SOL    HW228839   3.388   2.770   1.972  0.8795  3.0666 -0.0259
 5794SOL     OW28840   4.548   2.266   7.225 -0.0708  0.0733 -0.0147
 5794SOL    HW128841   4.567   2.337   7.287  0.8381 -1.4842  1.4739
 5794SOL    HW228842   4.610   2.290   7.156  0.7451  1.4659  1.1757
 5795SOL     OW28843   0.840   2.734   4.161 -0.0035 -0.1953  0.4407
 5795SOL    HW128844   0.857   2.804   4.098 -0.7167  0.0339  0.4984
 5795SOL    HW228845   0.810   2.667   4.100  2.2145  1.1165 -2.0528
 5796SOL     OW28846   3.606   4.439   6.302 -0.7095 -0.1414  0.4205
 5796SOL    HW128847   3.575   4.359   6.345 -1.3621  0.4145  0.9914
 5796SOL    HW228848   3.639   4.483   6.381  0.4613 -1.2661  0.5503
 5797SOL     OW28849   3.852   1.466   1.425 -0.2178 -0.8281  0.2031
 5797SOL    HW128850   3.925   1.440   1.369 -0.5872 -1.8149  0.1614
 5797SOL    HW228851   3.878   1.408   1.497 -1.1159 -0.9576  0.4219
 5798SOL     OW28852   3.471   2.792   6.840 -0.4233 -0.0568  0.4209
 5798SOL    HW128853   3.391   2.748   6.869 -1.3248  0.3618 -1.4946
 5798SOL    HW228854   3.470   2.864   6.904 -0.2733 -0.3512  0.7584
 5799SOL     OW28855   4.300   2.522  13.567 -0.3140  0.3421  0.3677
 5799SOL    HW128856   4.236   2.454  13.546 -2.8910  3.3595 -1.7354
 5799SOL    HW228857   4.292   2.515  13.662 -0.3334 -0.0257  0.3377
 5800SOL     OW28858   1.993   0.991   0.577  0.8397  0.4467  0.1053
 5800SOL    HW128859   2.077   0.984   0.622  0.7949 -0.3848  0.0649
 5800SOL    HW228860   1.979   0.904   0.539  0.2064  0.6271 -0.0759
 5801SOL     OW28861   1.699   0.056   4.233  0.1013 -0.2666 -0.4284
 5801SOL    HW128862   1.716   0.037   4.325 -2.7388 -0.2346  0.0918
 5801SOL    HW228863   1.730   4.706   4.182  0.0157 -0.1483 -0.6513
 5802SOL     OW28864   3.364   3.205   0.551 -0.3652 -0.1429 -0.2661
 5802SOL    HW128865   3.428   3.229   0.485 -0.0605 -0.2164  0.0041
 5802SOL    HW228866   3.301   3.147   0.507 -1.6532  0.0614  1.2787
 5803SOL     OW28867   1.291   4.063   5.975 -0.4602 -0.3202 -0.0767
 5803SOL    HW128868   1.271   4.018   5.893  1.7598 -1.2751 -0.0930
 5803SOL    HW228869   1.309   3.998   6.042 -0.7608  0.5854  0.8831
 5804SOL     OW28870   2.301   0.589   2.807 -0.0729  0.2204 -0.4720
 5804SOL    HW128871   2.274   0.681   2.807  0.1923  0.3094  0.8370
 5804SOL    HW228872   2.372   0.589   2.872  0.2706 -1.0628 -0.8436
 5805SOL     OW28873   0.639   3.901   3.177  0.2854 -0.0996 -0.5467
 5805SOL    HW128874   0.564   3.946   3.216  1.5110  1.3100  0.1922
 5805SOL    HW228875   0.701   3.894   3.250 -0.5143 -1.2373  0.0295
 5806SOL     OW28876   1.216   1.511   1.547 -0.9225 -0.7953 -0.2102
 5806SOL    HW128877   1.155   1.531   1.476  0.3021 -0.1285 -1.0773
 5806SOL    HW228878   1.210   1.595   1.592  1.3829 -0.7773  0.0853
 5807SOL     OW28879   4.697   2.236   8.937 -0.4619 -0.2654  0.4594
 5807SOL    HW128880   0.010   2.284   8.862  1.7473 -2.3536  0.2158
 5807SOL    HW228881   0.020   2.286   9.003  0.1679  0.4628 -0.5258
 5808SOL     OW28882   3.132   2.580   4.702 -0.3679  0.4859  0.1398
 5808SOL    HW128883   3.198   2.631   4.749 -0.4731  0.9124 -0.1809
 5808SOL    HW228884   3.067   2.561   4.770  0.7468  0.7549  1.2724
 5809SOL     OW28885   1.944   3.515  13.067 -0.6826  0.0275 -0.4889
 5809SOL    HW128886   1.979   3.526  13.155 -1.7536 -1.3628  0.1080
 5809SOL    HW228887   1.997   3.584  13.027 -0.7266  0.6922  0.5966
 5810SOL     OW28888   4.066   4.076   7.246 -0.1297 -0.7804  0.2758
 5810SOL    HW128889   3.993   4.104   7.189  0.0915  1.0905  0.9017
 5810SOL    HW228890   4.024   4.040   7.324  0.0504 -0.1250  0.6759
 5811SOL     OW28891   0.211   2.053   4.754  0.6091 -0.0762  0.4936
 5811SOL    HW128892   0.242   2.093   4.673  1.6008 -3.8106 -0.9642
 5811SOL    HW228893   0.120   2.080   4.765  0.8686  2.0069 -2.4864
 5812SOL     OW28894   2.614   2.636   9.584 -0.3141 -0.5149  0.0646
 5812SOL    HW128895   2.594   2.545   9.607 -0.5923  0.0901  2.2175
 5812SOL    HW228896   2.565   2.654   9.503  0.2502  0.3917 -0.0729
 5813SOL     OW28897   0.961   4.599   6.289 -0.3839  0.2017 -0.5485
 5813SOL    HW128898   1.024   4.553   6.345 -2.3415 -0.9119  0.7071
 5813SOL    HW228899   0.910   4.529   6.247  0.4039 -0.4681 -0.4083
 5814SOL     OW28900   2.252   1.969  14.453  0.0267 -0.3426 -0.1883
 5814SOL    HW128901   2.215   1.883  14.473  3.3584 -1.6188  0.5356
 5814SOL    HW228902   2.232   1.977  14.360 -1.9990 -1.6988  0.1296
 5815SOL     OW28903   2.341   2.493   5.438 -0.1230  0.0427 -0.1153
 5815SOL    HW128904   2.288   2.446   5.374  0.4489 -0.5199 -0.1780
 5815SOL    HW228905   2.430   2.460   5.425  0.6637  1.9699  0.3915
 5816SOL     OW28906   0.480   2.165  13.929  0.3810  0.9704  0.9299
 5816SOL    HW128907   0.427   2.229  13.977 -0.2148 -0.8743  2.7442
 5816SOL    HW228908   0.441   2.177  13.842  0.2307  1.1499  1.0220
 5817SOL     OW28909   0.848   1.897   8.457  0.0748  0.5250  0.2737
 5817SOL    HW128910   0.901   1.977   8.447 -2.5804  2.2791  0.1340
 5817SOL    HW228911   0.780   1.930   8.516  1.9443  2.4801  1.3213
 5818SOL     OW28912   1.144   1.574   3.517  0.0476  0.3599 -0.0698
 5818SOL    HW128913   1.088   1.546   3.589 -2.2085  1.4673 -1.3536
 5818SOL    HW228914   1.193   1.496   3.491 -1.5326 -0.1463 -1.5598
 5819SOL     OW28915   4.162   2.971   7.941  0.3582  0.3797  0.2008
 5819SOL    HW128916   4.188   2.951   7.852  1.5109  1.7923  0.2245
 5819SOL    HW228917   4.246   3.010   7.966  0.0138  0.3888  1.3524
 5820SOL     OW28918   0.015   1.118   6.573  0.4327  0.1570  0.1318
 5820SOL    HW128919   0.091   1.158   6.531 -0.4857  0.6628 -1.0346
 5820SOL    HW228920   4.668   1.174   6.542  1.0346  0.1690 -1.2146
 5821SOL     OW28921   3.596   1.872   4.096 -0.2547  0.5797 -0.3258
 5821SOL    HW128922   3.588   1.875   4.001  0.6212 -1.5591 -0.4638
 5821SOL    HW228923   3.507   1.902   4.118 -0.7400  0.2220 -1.8302
 5822SOL     OW28924   3.158   4.531   6.531 -0.3524 -0.2407  0.4934
 5822SOL    HW128925   3.165   4.540   6.436  0.0328  0.9930  0.6393
 5822SOL    HW228926   3.174   4.618   6.567 -0.8620 -0.4037  1.1177
 5823SOL     OW28927   1.042   0.868   1.626 -0.2202  1.0283 -0.1912
 5823SOL    HW128928   0.946   0.873   1.624 -0.2992 -1.6204 -2.4857
 5823SOL    HW228929   1.048   0.774   1.646 -1.3147  1.3075  1.4513
 5824SOL     OW28930   1.923   1.136   5.343  0.5780  0.7627 -0.5875
 5824SOL    HW128931   1.839   1.092   5.358  1.4727  0.3682  3.3892
 5824SOL    HW228932   1.929   1.112   5.251 -2.9522  2.0997 -1.1912
 5825SOL     OW28933   2.339   4.544   6.605  0.1165 -0.3256  0.0998
 5825SOL    HW128934   2.298   4.461   6.583 -0.8344  0.1676  0.0421
 5825SOL    HW228935   2.427   4.515   6.580 -0.7735 -1.7909 -1.3010
 5826SOL     OW28936   3.628   0.154   9.593 -0.3895 -0.6248 -0.4748
 5826SOL    HW128937   3.563   0.183   9.658  0.5037 -1.7270  0.9175
 5826SOL    HW228938   3.591   0.072   9.560 -0.4247 -1.0855  0.6990
 5827SOL     OW28939   1.417   3.464  17.382 -0.3918  1.0340  0.4346
 5827SOL    HW128940   1.471   3.519  17.439  0.4017 -0.8148  1.4784
 5827SOL    HW228941   1.330   3.465  17.422  0.4492  0.2395  2.2874
 5828SOL     OW28942   1.834   2.190   4.874 -0.0287 -0.1970  0.3436
 5828SOL    HW128943   1.842   2.226   4.785 -1.5946 -1.0940 -0.1500
 5828SOL    HW228944   1.765   2.247   4.907 -0.3997 -0.1432 -0.5175
 5829SOL     OW28945   0.295   1.655   4.575  0.0644  0.1501 -0.2168
 5829SOL    HW128946   0.374   1.631   4.525  0.9588  0.6507  0.9397
 5829SOL    HW228947   0.266   1.570   4.609 -1.1499  1.0900  1.1120
 5830SOL     OW28948   1.600   1.871   6.679 -0.1061  0.1720  0.1980
 5830SOL    HW128949   1.524   1.878   6.621  0.7629 -1.7758 -1.1697
 5830SOL    HW228950   1.572   1.907   6.763  0.4478 -1.1137  0.9409
 5831SOL     OW28951   3.840   1.036   7.046 -0.3049 -0.1374  0.2543
 5831SOL    HW128952   3.793   1.112   7.011 -0.5858 -0.2044  0.4857
 5831SOL    HW228953   3.810   1.037   7.137  1.2672 -1.5309  0.7863
 5832SOL     OW28954   3.753   3.992  12.396 -0.5557  0.3834 -0.1667
 5832SOL    HW128955   3.820   3.931  12.426 -2.1620 -1.3404 -0.1236
 5832SOL    HW228956   3.714   4.036  12.472  1.8066  1.9347  0.1581
 5833SOL     OW28957   0.361   1.181   5.076  0.6238  0.2876 -0.4754
 5833SOL    HW128958   0.291   1.165   5.139  0.3887  0.1329 -0.7767
 5833SOL    HW228959   0.372   1.276   5.086  0.6914  0.1467  0.7719
 5834SOL     OW28960   4.633   3.451   3.024 -0.1508  0.4471 -0.4665
 5834SOL    HW128961   4.613   3.400   2.946 -1.1989 -1.1822  0.8463
 5834SOL    HW228962   4.593   3.401   3.096 -1.6585  1.2533 -0.7559
 5835SOL     OW28963   1.066   2.237   4.564  0.1994  0.5629  0.0600
 5835SOL    HW128964   1.089   2.207   4.652 -0.5303  0.0049  0.0607
 5835SOL    HW228965   1.042   2.148   4.538 -0.3485  1.3278 -2.0399
 5836SOL     OW28966   2.000   4.070   3.084 -0.6608  0.4027 -0.0084
 5836SOL    HW128967   1.951   4.076   3.166 -1.2197  2.0703 -0.4636
 5836SOL    HW228968   2.035   4.159   3.076 -1.2420  0.8047  1.8589
 5837SOL     OW28969   0.944   3.357   6.012  0.2774  0.5381 -0.8600
 5837SOL    HW128970   0.850   3.372   6.001 -0.5951 -1.0904  4.2185
 5837SOL    HW228971   0.950   3.321   6.101  1.2168 -0.0594 -1.1649
 5838SOL     OW28972   3.232   4.153   4.350  0.1571  0.6631 -0.1441
 5838SOL    HW128973   3.211   4.060   4.354  0.3043  0.7004  1.4534
 5838SOL    HW228974   3.324   4.151   4.324 -0.2423 -0.9603 -1.4434
 5839SOL     OW28975   0.984   3.298   6.855  0.0685  0.6372  0.2973
 5839SOL    HW128976   0.963   3.392   6.850  0.8248  0.8186  0.5215
 5839SOL    HW228977   0.902   3.253   6.837  0.7314 -0.9860  1.4006
 5840SOL     OW28978   4.467   1.929   5.619 -0.4827 -0.4373  0.6867
 5840SOL    HW128979   4.377   1.957   5.600 -0.0204  0.1438 -0.6526
 5840SOL    HW228980   4.454   1.834   5.612  1.7466 -0.8441  2.1819
 5841SOL     OW28981   3.983   3.966   7.746  0.0007 -0.5824  0.5146
 5841SOL    HW128982   4.048   3.933   7.808  0.6516 -0.6963 -0.2259
 5841SOL    HW228983   3.913   3.902   7.756 -1.3911  0.7586 -0.6355
 5842SOL     OW28984   3.929   2.671   9.692  0.1554 -0.0771  0.2788
 5842SOL    HW128985   3.882   2.614   9.753  2.4848 -1.3091  0.9195
 5842SOL    HW228986   3.992   2.722   9.741 -0.9121  1.5715 -0.0696
 5843SOL     OW28987   0.028   1.619  15.640 -0.1046  0.0895 -0.1242
 5843SOL    HW128988   0.049   1.663  15.558  1.9288 -0.3794  0.1514
 5843SOL    HW228989   0.117   1.614  15.674 -0.3360  0.8707  0.6201
 5844SOL     OW28990   0.252   2.012   3.561 -0.6065 -0.4610 -0.0112
 5844SOL    HW128991   0.167   2.036   3.524 -0.5444 -3.5857 -2.2522
 5844SOL    HW228992   0.296   1.978   3.482  4.9391 -1.9644  3.7161
 5845SOL     OW28993   1.090   1.218  11.817 -0.1840  0.6928  0.0911
 5845SOL    HW128994   1.053   1.223  11.729  0.1434  2.2619  0.0403
 5845SOL    HW228995   1.127   1.130  11.813  1.3559  1.2240  2.6336
 5846SOL     OW28996   2.613   2.770   2.143  0.6789 -0.4531  0.0736
 5846SOL    HW128997   2.702   2.759   2.178  0.1534 -4.1505  0.2316
 5846SOL    HW228998   2.607   2.722   2.060  2.3265 -0.3010 -0.1517
 5847SOL     OW28999   1.019   1.171  10.399  0.2077 -0.1960  0.4548
 5847SOL    HW129000   0.965   1.101  10.361  0.8941  0.5127 -1.8303
 5847SOL    HW229001   1.076   1.191  10.325  3.2629 -0.7568  2.6653
 5848SOL     OW29002   4.155   4.264   4.890  0.3485 -0.2038 -0.1454
 5848SOL    HW129003   4.190   4.351   4.905 -3.7465  2.0551 -3.4768
 5848SOL    HW229004   4.211   4.207   4.942 -0.2853  0.4514  1.2360
 5849SOL     OW29005   2.497   1.034   0.830 -0.7871  0.2739 -0.2683
 5849SOL    HW129006   2.537   1.091   0.764  0.6322 -1.7149 -1.1159
 5849SOL    HW229007   2.540   0.949   0.817 -0.0443  0.4458  1.0124
 5850SOL     OW29008   1.458   1.763   4.769 -0.0826  0.4599 -0.4713
 5850SOL    HW129009   1.515   1.785   4.843 -0.4238  1.6878 -0.5709
 5850SOL    HW229010   1.393   1.833   4.772  0.0823  0.5168  1.5371
 5851SOL     OW29011   4.067   2.629  15.172  0.4644  0.1753 -0.3098
 5851SOL    HW129012   4.044   2.585  15.253  1.5635  1.1647  0.5325
 5851SOL    HW229013   4.096   2.715  15.202  0.2015  0.3190 -0.4637
 5852SOL     OW29014   2.471   0.250   4.918  0.9012 -0.6177 -0.3177
 5852SOL    HW129015   2.526   0.226   4.843  3.1362 -1.1278  1.5044
 5852SOL    HW229016   2.392   0.293   4.884  0.3745 -2.7033 -1.7307
 5853SOL     OW29017   0.268   1.184   6.449  0.2479  0.2561  0.9137
 5853SOL    HW129018   0.276   1.275   6.421  2.7023 -0.2108  0.0739
 5853SOL    HW229019   0.221   1.137   6.379  2.0573  0.4320 -0.4144
 5854SOL     OW29020   3.464   2.651   9.746 -0.4161 -0.1055  0.2972
 5854SOL    HW129021   3.499   2.564   9.727 -1.5619 -0.5910  0.3797
 5854SOL    HW229022   3.399   2.632   9.814  1.5561 -0.0567  2.1707
 5855SOL     OW29023   3.900   1.599   7.608  0.0125  0.6068  0.1204
 5855SOL    HW129024   3.964   1.643   7.551  0.8705 -1.8302 -0.7713
 5855SOL    HW229025   3.901   1.648   7.690  0.9471  1.6908 -0.5416
 5856SOL     OW29026   1.940   3.395   1.739  0.3416 -0.1701  0.0276
 5856SOL    HW129027   2.019   3.343   1.752  0.9716  0.5606 -0.8129
 5856SOL    HW229028   1.991   3.476   1.745 -1.9990  1.2026  1.3296
 5857SOL     OW29029   1.271   3.742   0.268 -0.3857 -0.4057  0.4543
 5857SOL    HW129030   1.270   3.836   0.286 -3.5028 -0.1549 -0.9198
 5857SOL    HW229031   1.335   3.729   0.199 -1.9343  1.1409 -1.2834
 5858SOL     OW29032   0.886   3.138   5.455 -0.5704  0.1247  0.1582
 5858SOL    HW129033   0.855   3.108   5.370  0.7653  0.7450 -0.5358
 5858SOL    HW229034   0.980   3.126   5.446 -0.5222  0.0724  0.7415
 5859SOL     OW29035   0.443   3.824   0.065  0.0072 -0.1832 -0.1949
 5859SOL    HW129036   0.362   3.783   0.095  0.3916  0.9708  2.3822
 5859SOL    HW229037   0.414   3.863  17.680  1.2866  0.8287 -0.1580
 5860SOL     OW29038   2.743   0.367   7.689  0.6058 -0.7367 -0.2802
 5860SOL    HW129039   2.665   0.421   7.675 -1.3178 -3.2808  0.7671
 5860SOL    HW229040   2.731   0.312   7.612  1.0388  0.1532 -0.9774
 5861SOL     OW29041   2.788   2.560   3.497 -0.0268 -0.2260  0.0173
 5861SOL    HW129042   2.825   2.568   3.585 -1.3285 -2.0613  0.7436
 5861SOL    HW229043   2.847   2.499   3.453 -0.8395 -1.1890  0.2555
 5862SOL     OW29044   1.139   2.579  17.414 -0.1674 -0.0898 -0.0347
 5862SOL    HW129045   1.079   2.509  17.440  0.4590 -0.2710  0.9049
 5862SOL    HW229046   1.216   2.534  17.379 -1.0896 -0.7109 -1.2914
 5863SOL     OW29047   3.652   4.348  10.088  0.0677  0.1089  0.4576
 5863SOL    HW129048   3.742   4.353  10.121  0.6508  1.2000 -1.3185
 5863SOL    HW229049   3.605   4.350  10.171 -0.8685 -0.2009 -0.0671
 5864SOL     OW29050   0.854   3.646  17.191 -0.0530 -0.2092  0.0229
 5864SOL    HW129051   0.832   3.566  17.238 -0.3625  0.1292  0.4566
 5864SOL    HW229052   0.811   3.708  17.249  1.1779 -0.6001  1.3534
 5865SOL     OW29053   4.476   3.157   5.109 -0.4600 -0.0648  0.6259
 5865SOL    HW129054   4.505   3.189   5.195  0.8777 -0.3215  0.2654
 5865SOL    HW229055   4.420   3.233   5.092 -0.2327 -0.0935 -0.2060
 5866SOL     OW29056   3.895   3.104   3.450  0.2064 -0.4552  1.1357
 5866SOL    HW129057   3.962   3.094   3.383 -1.1577 -0.0333 -0.2813
 5866SOL    HW229058   3.942   3.154   3.518 -1.7759  2.2675  0.5307
 5867SOL     OW29059   2.029   2.143  14.476 -0.3967 -0.3214 -0.8778
 5867SOL    HW129060   2.088   2.186  14.538  0.3839  2.0917 -3.2995
 5867SOL    HW229061   2.100   2.090  14.441 -1.6917 -3.3439  1.0940
 5868SOL     OW29062   2.531   4.634   6.915 -0.2505 -0.5097  0.5719
 5868SOL    HW129063   2.565   4.698   6.852 -0.9138 -0.8843 -0.1620
 5868SOL    HW229064   2.437   4.638   6.900 -0.4293  0.7508  2.0299
 5869SOL     OW29065   1.905   0.003  10.676  0.0254 -0.0557 -0.0947
 5869SOL    HW129066   1.885   0.028  10.586  1.9990 -0.3377 -0.6238
 5869SOL    HW229067   1.837   0.047  10.726  1.0927  0.7794  0.6403
 5870SOL     OW29068   1.183   0.416   6.297  0.2767 -0.6228  0.6572
 5870SOL    HW129069   1.113   0.404   6.361 -0.1409  0.6515  0.4512
 5870SOL    HW229070   1.141   0.375   6.221 -1.2321  1.1537  0.5281
 5871SOL     OW29071   1.620   3.854  14.135 -0.0511 -0.4090 -0.4886
 5871SOL    HW129072   1.682   3.896  14.194  1.5751 -3.0204 -0.3293
 5871SOL    HW229073   1.547   3.832  14.194  0.8975 -0.4092  0.6880
 5872SOL     OW29074   2.956   1.638   4.803 -0.0514  0.7373 -0.1430
 5872SOL    HW129075   2.868   1.603   4.817  0.3797 -0.9775 -1.7924
 5872SOL    HW229076   3.010   1.572   4.847  0.5785  2.0713  1.0961
 5873SOL     OW29077   2.381   2.786   8.495 -0.2375  0.0708  0.2801
 5873SOL    HW129078   2.465   2.785   8.448 -0.3797  0.0970  0.0284
 5873SOL    HW229079   2.386   2.702   8.541 -1.5524 -0.5268 -0.6788
 5874SOL     OW29080   3.239   3.545   1.952 -0.2021 -0.1853  0.1069
 5874SOL    HW129081   3.183   3.503   2.016 -1.7924  0.5612 -0.7760
 5874SOL    HW229082   3.178   3.556   1.878 -1.0107  1.5972  1.0465
 5875SOL     OW29083   4.073   3.231   0.684  0.0540 -0.3688  0.0727
 5875SOL    HW129084   4.080   3.290   0.759 -1.4588  1.0357 -0.8862
 5875SOL    HW229085   3.989   3.194   0.711  0.8011 -0.9505  1.6130
 5876SOL     OW29086   3.406   4.484  13.490  0.3939 -0.3308  0.5810
 5876SOL    HW129087   3.378   4.554  13.431  0.2623 -0.1592  0.8458
 5876SOL    HW229088   3.496   4.466  13.464 -0.4159 -1.4458 -1.4527
 5877SOL     OW29089   1.845   3.726  11.894 -0.1231  0.0524  0.5994
 5877SOL    HW129090   1.816   3.679  11.972 -3.0139  0.7231 -0.0681
 5877SOL    HW229091   1.858   3.652  11.835 -1.7813  0.7232 -0.6031
 5878SOL     OW29092   3.542   4.273   5.527 -0.2017  0.1559  0.6026
 5878SOL    HW129093   3.490   4.195   5.510  0.0868 -0.1008  0.9110
 5878SOL    HW229094   3.579   4.244   5.611  0.7177  0.1287  0.1855
 5879SOL     OW29095   3.618   4.569  16.042 -0.0680  0.4526  0.3967
 5879SOL    HW129096   3.534   4.523  16.045 -1.1865  2.3424 -1.1244
 5879SOL    HW229097   3.685   4.503  16.059 -1.6862 -1.2541  0.1479
 5880SOL     OW29098   3.194   1.364  13.467 -0.8077 -0.1892 -0.2600
 5880SOL    HW129099   3.201   1.320  13.552 -3.2931 -1.6839 -0.7984
 5880SOL    HW229100   3.154   1.448  13.489 -0.8379 -0.0972 -0.6587
 5881SOL     OW29101   3.232   0.033   2.382 -0.0118 -0.2316 -0.2257
 5881SOL    HW129102   3.174   0.040   2.306  0.1039  0.9356 -0.2007
 5881SOL    HW229103   3.206   0.113   2.429  0.4413  0.2747 -0.8390
 5882SOL     OW29104   4.287   0.968  10.106  0.2395 -0.0480 -0.3723
 5882SOL    HW129105   4.324   0.880  10.096 -0.6888 -0.4916  0.1170
 5882SOL    HW229106   4.285   0.991  10.013  0.6311 -1.1602 -0.6494
 5883SOL     OW29107   2.126   0.241  12.449  0.4018 -0.0704  0.4338
 5883SOL    HW129108   2.166   0.259  12.364  0.4344  0.2245  0.5140
 5883SOL    HW229109   2.086   0.327  12.461 -1.2536 -0.7152 -0.4008
 5884SOL     OW29110   2.202   0.850   4.173 -0.1740 -0.5987 -0.4665
 5884SOL    HW129111   2.201   0.822   4.265  2.2089 -0.6662 -0.4662
 5884SOL    HW229112   2.111   0.881   4.166 -1.0401 -2.4975  2.1623
 5885SOL     OW29113   4.650   2.175   6.893 -0.1363  0.0292  0.5657
 5885SOL    HW129114   4.683   2.088   6.915 -0.1126 -0.6709 -2.1948
 5885SOL    HW229115   4.697   2.217   6.965 -0.0762  0.1776  0.4383
 5886SOL     OW29116   1.459   4.163  11.730  0.3291 -0.5162  0.0561
 5886SOL    HW129117   1.489   4.072  11.728 -0.8482 -0.8771 -1.0227
 5886SOL    HW229118   1.368   4.144  11.752  0.5032  1.2494  2.2333
 5887SOL     OW29119   1.043   3.986   9.510  0.4554  0.8647  0.5392
 5887SOL    HW129120   0.995   3.946   9.437  2.1897 -0.9439  0.3796
 5887SOL    HW229121   1.138   3.979   9.495  0.2928  1.8241 -0.9336
 5888SOL     OW29122   1.018   1.246   2.734 -0.3936 -0.8691 -0.3194
 5888SOL    HW129123   0.967   1.218   2.810  0.4650 -3.9499 -0.8912
 5888SOL    HW229124   0.982   1.332   2.712  2.0507  0.0881 -0.6089
 5889SOL     OW29125   1.539   0.062   3.429  0.6612 -0.0041 -0.0695
 5889SOL    HW129126   1.503   0.078   3.341  0.3624 -0.1976  0.0162
 5889SOL    HW229127   1.537   0.145   3.475  1.1689  0.4326 -0.8290
 5890SOL     OW29128   1.747   1.690   7.997  0.4643 -0.3485  0.6683
 5890SOL    HW129129   1.811   1.686   8.068  3.0636  1.5059 -1.5567
 5890SOL    HW229130   1.796   1.745   7.936  0.2452  0.7773  1.5254
 5891SOL     OW29131   0.742   4.111   8.079  0.5389  0.4133  0.4865
 5891SOL    HW129132   0.755   4.073   8.166  0.7618  0.8440  0.6388
 5891SOL    HW229133   0.649   4.091   8.072  0.9193 -1.8569  1.7835
 5892SOL     OW29134   2.637   1.963   5.808 -0.1854  0.2878 -0.2367
 5892SOL    HW129135   2.664   2.013   5.885 -1.2283 -0.1873  0.4426
 5892SOL    HW229136   2.722   1.956   5.764  0.4413  1.2678  0.8078
 5893SOL     OW29137   2.254   4.589   8.079  0.6948  0.3859  0.2647
 5893SOL    HW129138   2.309   4.563   8.153  2.4065 -1.7352 -1.7511
 5893SOL    HW229139   2.265   4.513   8.022 -0.8798 -0.4369  1.0701
 5894SOL     OW29140   2.191   3.288   1.837 -0.7031  0.0680  0.2278
 5894SOL    HW129141   2.279   3.260   1.863 -1.1416 -1.7209 -0.2352
 5894SOL    HW229142   2.141   3.208   1.855 -0.0139 -0.2845  0.5739
 5895SOL     OW29143   4.448   4.278   1.782 -0.0338  0.1189 -0.1172
 5895SOL    HW129144   4.473   4.267   1.873 -0.0151 -3.3870 -0.5227
 5895SOL    HW229145   4.355   4.266   1.801 -0.1901  0.1007 -0.8759
 5896SOL     OW29146   2.182   2.017   7.860 -0.9170  0.2067  0.6915
 5896SOL    HW129147   2.260   1.979   7.820 -0.2968  2.3495 -0.1670
 5896SOL    HW229148   2.197   2.032   7.954  1.5981  0.5291  0.2336
 5897SOL     OW29149   1.323   2.638  12.958  0.1732 -0.1017  0.8802
 5897SOL    HW129150   1.257   2.705  12.974 -1.3909 -1.2593 -0.6355
 5897SOL    HW229151   1.271   2.557  12.961 -0.3264  0.1544 -0.5182
 5898SOL     OW29152   1.085   2.706   7.890 -0.0805 -0.1305  0.2771
 5898SOL    HW129153   1.138   2.731   7.814 -1.4822 -1.2280 -1.0778
 5898SOL    HW229154   1.142   2.647   7.938  1.5428  0.6959 -0.6496
 5899SOL     OW29155   2.279   3.759   9.432 -0.0586 -0.2952  0.8279
 5899SOL    HW129156   2.196   3.761   9.479 -0.2552 -0.2041  0.4745
 5899SOL    HW229157   2.250   3.761   9.341  0.0905 -1.9237  0.7512
 5900SOL     OW29158   1.042   1.436   6.160  0.0789  0.3128 -0.0608
 5900SOL    HW129159   1.081   1.509   6.112 -1.7844  0.4484 -1.3687
 5900SOL    HW229160   1.089   1.445   6.243  0.3206  1.1559 -0.2943
 5901SOL     OW29161   0.179   0.134   5.106 -0.3270 -0.3740 -0.2406
 5901SOL    HW129162   0.162   0.218   5.065 -0.4280 -1.0142 -1.5075
 5901SOL    HW229163   0.135   0.068   5.053 -0.4567  1.9185 -3.0023
 5902SOL     OW29164   1.552   4.534   5.308  0.5151 -0.1658  0.2614
 5902SOL    HW129165   1.506   4.617   5.320  3.1616  1.3213  0.1593
 5902SOL    HW229166   1.631   4.543   5.360  0.2740 -0.6349  0.7071
 5903SOL     OW29167   4.079   3.908   6.038 -0.0731  0.9721  0.7178
 5903SOL    HW129168   4.158   3.956   6.013  0.2882 -0.3527 -0.7299
 5903SOL    HW229169   4.109   3.881   6.125 -0.9551  2.8097  1.5843
 5904SOL     OW29170   1.198   0.457   7.155  0.5701  0.1794  0.0461
 5904SOL    HW129171   1.169   0.377   7.198 -2.5643  2.0057  1.3016
 5904SOL    HW229172   1.267   0.489   7.213 -0.2305  1.7553  0.1279
 5905SOL     OW29173   2.806   0.904   6.677 -0.2648 -0.2318 -0.5302
 5905SOL    HW129174   2.755   0.985   6.674 -0.0950 -0.1047  0.0153
 5905SOL    HW229175   2.761   0.866   6.753  0.3788  1.7136  0.8030
 5906SOL     OW29176   0.313   4.478   6.690  0.0079 -0.3728 -0.3731
 5906SOL    HW129177   0.376   4.550   6.701 -0.7128  0.2262 -0.1829
 5906SOL    HW229178   0.232   4.527   6.676 -0.2306 -0.7664 -0.3702
 5907SOL     OW29179   3.819   4.139   4.145 -0.4238  0.6210  0.0225
 5907SOL    HW129180   3.790   4.224   4.176  0.9636 -0.0265  3.0763
 5907SOL    HW229181   3.890   4.172   4.090  0.9176 -2.4335 -0.0781
 5908SOL     OW29182   4.358   2.236   4.157 -0.1458 -0.3528  0.0613
 5908SOL    HW129183   4.266   2.258   4.171 -0.1576  1.2106 -2.5115
 5908SOL    HW229184   4.368   2.153   4.204 -2.6953 -1.4182 -1.2632
 5909SOL     OW29185   2.210   0.497   8.918  0.2448 -0.5863 -0.5568
 5909SOL    HW129186   2.272   0.492   8.991 -1.5131  4.0214  1.2689
 5909SOL    HW229187   2.150   0.567   8.941  1.5499 -0.1104  1.3727
 5910SOL     OW29188   4.674   3.674  13.933 -0.1018 -0.8228  0.4151
 5910SOL    HW129189   4.586   3.694  13.901 -0.9047 -1.9910  1.8604
 5910SOL    HW229190   0.010   3.717  13.872 -1.7444 -2.6519 -2.4956
 5911SOL     OW29191   2.147   4.681  15.582  0.0770  0.2793  0.6609
 5911SOL    HW129192   2.235   4.668  15.546  0.5071 -0.3760  1.9513
 5911SOL    HW229193   2.093   4.698  15.506 -1.5863 -1.4437  1.4519
 5912SOL     OW29194   4.447   3.187   8.337  0.2058  0.5259 -0.3791
 5912SOL    HW129195   4.505   3.132   8.391  0.3625  0.8393 -0.2314
 5912SOL    HW229196   4.436   3.268   8.387 -0.4291  0.7217 -0.8431
 5913SOL     OW29197   0.608   0.703  10.667  0.2967  0.9957  0.0745
 5913SOL    HW129198   0.590   0.733  10.756  1.7110  0.2994  0.5992
 5913SOL    HW229199   0.539   0.637  10.667 -0.6366  1.9903 -1.7876
 5914SOL     OW29200   0.868   4.183   1.848  0.0882 -0.2248 -0.1096
 5914SOL    HW129201   0.883   4.150   1.760 -1.9144  0.9012 -0.8590
 5914SOL    HW229202   0.826   4.106   1.885 -0.6482  0.2148 -0.0367
 5915SOL     OW29203   1.705   3.745   3.947  0.7875  0.4155 -0.5313
 5915SOL    HW129204   1.630   3.732   3.888  0.2329 -0.6542  0.4205
 5915SOL    HW229205   1.680   3.676   4.008 -0.1296  0.1739 -1.1741
 5916SOL     OW29206   0.162   1.430  15.889  0.0839  0.6403  0.2756
 5916SOL    HW129207   0.116   1.402  15.810  0.0610 -0.9237  0.8540
 5916SOL    HW229208   0.206   1.509  15.856 -1.2216  1.4980  0.5877
 5917SOL     OW29209   2.820   0.062   5.509  0.0832 -0.5358 -0.4506
 5917SOL    HW129210   2.780   0.034   5.427 -0.5271  0.2178 -0.4156
 5917SOL    HW229211   2.903   0.067   5.464  0.3174 -2.3436 -0.2312
 5918SOL     OW29212   2.514   3.116   2.690 -0.1394 -0.1669  0.0985
 5918SOL    HW129213   2.486   3.028   2.713  2.0831 -1.5624 -2.5545
 5918SOL    HW229214   2.589   3.087   2.638 -1.0658 -0.4995 -1.0692
 5919SOL     OW29215   2.644   1.930   3.901  0.1674  0.3026 -0.2996
 5919SOL    HW129216   2.552   1.914   3.922  0.7054 -3.4917 -0.8318
 5919SOL    HW229217   2.650   1.915   3.807 -2.1721  1.1791 -0.5968
 5920SOL     OW29218   0.015   2.482   9.753  0.4249 -0.5568 -0.1470
 5920SOL    HW129219   0.040   2.432   9.831  0.3584  0.5475  0.5839
 5920SOL    HW229220   0.091   2.535   9.732 -0.5760  1.0104  0.2317
 5921SOL     OW29221   3.958   1.872  14.079  0.3625 -0.2665  0.1463
 5921SOL    HW129222   3.905   1.826  14.144 -2.7331  0.5955 -1.8208
 5921SOL    HW229223   4.044   1.863  14.121 -0.1339  1.2373  1.4999
 5922SOL     OW29224   3.207   3.082  16.960 -0.3405 -0.6911 -0.4324
 5922SOL    HW129225   3.223   3.074  17.054 -0.9106  1.5193 -0.1401
 5922SOL    HW229226   3.127   3.134  16.952  0.3445  0.6709  1.5559
 5923SOL     OW29227   3.345   1.611   4.327 -0.2145 -0.1556 -0.9635
 5923SOL    HW129228   3.310   1.695   4.358  2.8207 -0.1117  2.3572
 5923SOL    HW229229   3.421   1.621   4.270  0.7831  1.6337  0.6648
 5924SOL     OW29230   2.264   1.498  16.401 -0.3208  0.1116 -0.2701
 5924SOL    HW129231   2.293   1.410  16.425  0.6313  0.8719  1.3555
 5924SOL    HW229232   2.175   1.507  16.435 -0.2933  0.5821 -0.3216
 5925SOL     OW29233   3.974   2.711  17.415 -0.0527  0.0911 -0.3320
 5925SOL    HW129234   4.062   2.739  17.388 -0.0603  1.9308  1.5633
 5925SOL    HW229235   3.924   2.720  17.334 -0.3620  0.4353 -0.1028
 5926SOL     OW29236   1.966   1.885   2.492 -0.4106  0.4404 -0.1202
 5926SOL    HW129237   1.931   1.956   2.546  1.1534  1.0228  0.1310
 5926SOL    HW229238   2.055   1.875   2.524 -0.6645  1.2182  0.8299
 5927SOL     OW29239   2.455   4.253  14.533  0.3129  0.3563 -0.3881
 5927SOL    HW129240   2.467   4.163  14.564 -0.5660  0.6585  0.7918
 5927SOL    HW229241   2.486   4.247  14.442  4.3543 -1.1893  1.0711
 5928SOL     OW29242   1.168   3.215  17.469 -0.1668  0.5542  0.0909
 5928SOL    HW129243   1.245   3.172  17.506  1.6454  1.9167 -2.1182
 5928SOL    HW229244   1.178   3.206  17.374  1.8037 -0.4031  0.3831
 5929SOL     OW29245   4.518   1.271   6.997 -0.2955  0.4485  0.1043
 5929SOL    HW129246   4.504   1.336   7.067 -1.3055 -0.8771  1.1343
 5929SOL    HW229247   4.565   1.200   7.039  0.0939  1.1087  0.7802
 5930SOL     OW29248   2.261   3.661   2.098 -0.2438 -0.1165  0.5559
 5930SOL    HW129249   2.303   3.599   2.158  0.6949 -1.2147 -1.2575
 5930SOL    HW229250   2.333   3.724   2.104  0.5900 -0.9133 -1.1932
 5931SOL     OW29251   2.950   2.046  12.376  0.0825  0.0003  0.3322
 5931SOL    HW129252   3.025   2.026  12.431 -0.3837  1.7520  1.6170
 5931SOL    HW229253   2.940   1.968  12.321 -1.6035  0.6187 -0.2381
 5932SOL     OW29254   2.287   0.688  13.512 -0.4283  0.2424  0.6314
 5932SOL    HW129255   2.206   0.638  13.500 -1.1951  1.6039  0.1985
 5932SOL    HW229256   2.293   0.744  13.435 -0.2356  1.1048  1.2770
 5933SOL     OW29257   4.491   1.906   1.504 -0.3871  0.4045 -0.0235
 5933SOL    HW129258   4.423   1.946   1.558 -1.2983  0.5401 -1.2595
 5933SOL    HW229259   4.574   1.944   1.532  0.4074 -0.1189 -1.6490
 5934SOL     OW29260   1.605   3.868   6.044  0.3369  0.0609 -0.4487
 5934SOL    HW129261   1.522   3.861   5.996 -0.6287  1.0074  1.1089
 5934SOL    HW229262   1.569   3.899   6.127 -3.3150  1.9189 -2.7201
 5935SOL     OW29263   3.375   2.390   2.814  0.4772  0.4786  0.1776
 5935SOL    HW129264   3.385   2.362   2.905 -0.6309 -1.9501 -0.4572
 5935SOL    HW229265   3.446   2.348   2.765  0.1603 -1.1066  1.0871
 5936SOL     OW29266   1.178   2.387   4.170  0.0359 -0.0030  0.0968
 5936SOL    HW129267   1.227   2.323   4.222 -0.9400 -1.2422 -0.5211
 5936SOL    HW229268   1.096   2.346   4.144  0.1803 -0.2027 -0.0405
 5937SOL     OW29269   1.475   3.374   0.099 -0.1912  0.3317  0.6876
 5937SOL    HW129270   1.567   3.398   0.112  0.3816 -1.0334 -0.8254
 5937SOL    HW229271   1.445   3.342   0.184  1.3532  0.6044  1.3418
 5938SOL     OW29272   4.369   0.645   7.299  0.1665 -0.4119 -0.0295
 5938SOL    HW129273   4.383   0.676   7.389  0.3079  0.7058 -0.4494
 5938SOL    HW229274   4.436   0.577   7.293 -1.2087 -1.5721 -2.0653
 5939SOL     OW29275   4.114   1.925   9.653  0.0784  0.2149 -0.7930
 5939SOL    HW129276   4.075   1.847   9.613 -2.7837  0.4359  1.4818
 5939SOL    HW229277   4.049   1.991   9.630 -0.0413  0.5253  0.4462
 5940SOL     OW29278   2.360   1.933   6.848 -0.1852 -0.0258  0.1169
 5940SOL    HW129279   2.336   1.878   6.923  1.2929 -0.3559  0.3422
 5940SOL    HW229280   2.381   1.863   6.786  0.2650  0.5399 -0.3661
 5941SOL     OW29281   0.145   1.270   4.058 -0.5150 -0.1426 -0.2668
 5941SOL    HW129282   0.137   1.311   4.145 -0.4277 -0.3304 -0.1713
 5941SOL    HW229283   0.087   1.323   4.003 -0.1403 -0.3620 -0.8691
 5942SOL     OW29284   3.922   2.003   5.165 -0.0155  0.1190  0.1990
 5942SOL    HW129285   3.881   1.982   5.081  1.4815 -2.0471 -0.0042
 5942SOL    HW229286   3.915   2.098   5.155 -1.5653 -0.1066 -0.8946
 5943SOL     OW29287   2.504   2.665   6.666 -0.4289  0.1306 -0.3657
 5943SOL    HW129288   2.492   2.648   6.760  0.5299 -2.4682 -0.6940
 5943SOL    HW229289   2.518   2.759   6.668 -1.7505  0.3006  1.3314
 5944SOL     OW29290   3.094   1.477   8.699  0.4526  0.5359  0.4451
 5944SOL    HW129291   3.035   1.405   8.677  1.3105 -0.4855  1.4788
 5944SOL    HW229292   3.170   1.447   8.648 -1.2973 -0.8215 -1.3773
 5945SOL     OW29293   3.902   2.102   2.936  0.3423 -0.3707  0.7815
 5945SOL    HW129294   3.970   2.168   2.952 -2.6904  2.4907  1.9005
 5945SOL    HW229295   3.849   2.103   3.016  0.5821 -2.3102  0.9502
 5946SOL     OW29296   1.375   0.014   6.835 -0.1553  0.1130  0.2550
 5946SOL    HW129297   1.374   0.107   6.815  1.1585  0.1417  0.3641
 5946SOL    HW229298   1.317   0.008   6.911  1.3638 -1.0180  1.3324
 5947SOL     OW29299   4.273   2.690   2.000  0.0133 -0.0365  0.3877
 5947SOL    HW129300   4.256   2.597   1.989  0.4576 -0.3240  2.1301
 5947SOL    HW229301   4.360   2.688   2.040 -1.2902  1.7178  3.2879
 5948SOL     OW29302   2.250   4.145   3.658 -0.0076  0.2100  0.2969
 5948SOL    HW129303   2.271   4.116   3.747 -1.7444 -0.0657  0.6075
 5948SOL    HW229304   2.155   4.136   3.655 -0.0142  0.6228 -0.8388
 5949SOL     OW29305   1.287   3.381   2.191 -0.8533  0.5829  0.1256
 5949SOL    HW129306   1.368   3.330   2.184 -1.1288  0.2953 -0.8407
 5949SOL    HW229307   1.221   3.316   2.171  1.7226 -2.2909  0.8760
 5950SOL     OW29308   4.089   4.492   3.420 -0.1419 -0.2732  0.0843
 5950SOL    HW129309   4.013   4.442   3.449  0.4764 -2.5627 -2.1331
 5950SOL    HW229310   4.053   4.559   3.363 -1.6751 -1.8058 -0.7425
 5951SOL     OW29311   4.180   2.826   9.741 -0.4491  0.0811 -0.3227
 5951SOL    HW129312   4.204   2.841   9.649  3.2968  0.6788  0.7363
 5951SOL    HW229313   4.243   2.887   9.779  0.3468 -0.0370 -1.4339
 5952SOL     OW29314   3.805   1.725   5.476 -0.1991 -0.0610 -0.1521
 5952SOL    HW129315   3.798   1.662   5.549 -1.2232  1.4612  1.0644
 5952SOL    HW229316   3.729   1.698   5.425 -0.5959  1.6582 -0.4568
 5953SOL     OW29317   3.806   3.247   8.415 -0.2763  0.2694  0.1216
 5953SOL    HW129318   3.900   3.257   8.431  0.0314 -0.2637 -1.3866
 5953SOL    HW229319   3.769   3.217   8.498 -0.5960  0.4687  0.0481
 5954SOL     OW29320   3.291   1.786  16.008 -0.0498  0.2788  0.3487
 5954SOL    HW129321   3.224   1.746  16.064 -0.0255  0.9118  0.8221
 5954SOL    HW229322   3.243   1.788  15.925  0.3849 -0.7565  0.0690
 5955SOL     OW29323   4.683   2.895   3.614  0.5781  0.4883  0.0101
 5955SOL    HW129324   4.629   2.923   3.688  1.4575  0.5866  0.6228
 5955SOL    HW229325   4.619   2.911   3.545  0.7715  1.1868 -0.0082
 5956SOL     OW29326   1.410   2.976   2.768 -0.0513 -0.4464  0.2160
 5956SOL    HW129327   1.495   3.019   2.780 -0.4429 -0.4935  3.1436
 5956SOL    HW229328   1.442   2.920   2.697  0.1148  1.4895 -1.2801
 5957SOL     OW29329   4.301   0.547   7.778 -0.3937 -0.0823 -0.5550
 5957SOL    HW129330   4.323   0.587   7.862  1.5818 -1.0306 -0.6249
 5957SOL    HW229331   4.212   0.516   7.795  0.0832 -1.9359 -1.4082
 5958SOL     OW29332   1.940   4.303  17.119 -0.3420 -0.6916 -0.7871
 5958SOL    HW129333   1.887   4.271  17.192 -3.0589  0.1254 -2.3909
 5958SOL    HW229334   1.864   4.319  17.063  0.2211  0.1322 -1.3086
 5959SOL     OW29335   2.747   1.269   4.541  0.0101  0.5554 -0.0017
 5959SOL    HW129336   2.698   1.238   4.465  1.0343  2.6651 -1.5191
 5959SOL    HW229337   2.829   1.300   4.503  0.1015  0.5741  0.2140
 5960SOL     OW29338   0.252   3.469   4.254 -0.0762  0.0259 -0.5341
 5960SOL    HW129339   0.278   3.382   4.286  2.9289  1.0660 -0.1417
 5960SOL    HW229340   0.242   3.444   4.162 -0.3399  1.0379 -0.7748
 5961SOL     OW29341   1.210   3.298   7.962  0.0551  0.2027  0.3311
 5961SOL    HW129342   1.277   3.263   8.021 -0.0344  1.2289  1.0361
 5961SOL    HW229343   1.239   3.389   7.954  0.7969 -0.0190  0.4570
 5962SOL     OW29344   1.280   4.483   2.413  0.3857 -0.3406 -0.0965
 5962SOL    HW129345   1.372   4.457   2.417  0.2067 -1.4878 -3.8935
 5962SOL    HW229346   1.243   4.394   2.418 -1.2080  0.3697  0.7277
 5963SOL     OW29347   1.872   4.581   3.922 -0.2910 -0.5628 -0.2605
 5963SOL    HW129348   1.925   4.535   3.856  0.8875  0.5831 -0.1156
 5963SOL    HW229349   1.784   4.575   3.886 -0.2884  1.2144 -0.5589
 5964SOL     OW29350   1.742   3.591   9.767  0.1201  0.4819 -0.1186
 5964SOL    HW129351   1.780   3.633   9.690  3.4687 -2.1958  0.1095
 5964SOL    HW229352   1.761   3.499   9.748 -1.0783 -0.1437  1.6399
 5965SOL     OW29353   1.877   2.989   9.190  0.1535 -0.2585 -0.1397
 5965SOL    HW129354   1.953   2.957   9.142 -0.4582 -1.4504 -0.3358
 5965SOL    HW229355   1.893   2.955   9.278  0.3609 -0.5734 -0.2968
 5966SOL     OW29356   1.325   0.605   0.297 -0.2674  0.1972 -0.3585
 5966SOL    HW129357   1.380   0.672   0.258 -0.8512 -0.0855 -1.6710
 5966SOL    HW229358   1.296   0.646   0.378 -1.2784 -0.9299 -0.1434
 5967SOL     OW29359   0.040   4.339   2.073  0.7935 -0.2471  0.4302
 5967SOL    HW129360   0.007   4.321   1.985  1.9373 -1.5531  0.2789
 5967SOL    HW229361   4.700   4.404   2.101 -0.3492 -0.5563 -1.4314
 5968SOL     OW29362   4.322   1.691   4.292  0.0853  0.1851  0.9791
 5968SOL    HW129363   4.381   1.690   4.216 -0.1652  1.1062  0.7661
 5968SOL    HW229364   4.266   1.614   4.290  1.2730 -0.7108  2.7974
 5969SOL     OW29365   3.569   1.122   6.340 -0.0055  0.4279 -0.1934
 5969SOL    HW129366   3.624   1.173   6.281 -0.0365 -1.5186 -1.8989
 5969SOL    HW229367   3.595   1.031   6.324 -2.6958 -0.3336 -0.3312
 5970SOL     OW29368   2.840   2.196   7.124  0.5183  0.1004  0.4301
 5970SOL    HW129369   2.792   2.123   7.162 -1.0929 -0.2644 -2.3707
 5970SOL    HW229370   2.849   2.244   7.207 -3.0706  0.3044  0.6937
 5971SOL     OW29371   0.278   4.088   8.188 -0.4407  0.4517 -0.4579
 5971SOL    HW129372   0.239   4.084   8.276  0.0572  0.9446 -0.2161
 5971SOL    HW229373   0.201   4.102   8.134  0.5382 -1.9732 -2.4747
 5972SOL     OW29374   0.221   1.473   9.926  0.9756  0.0671  0.6995
 5972SOL    HW129375   0.194   1.521   9.848  0.3078 -0.4773  0.5887
 5972SOL    HW229376   0.275   1.405   9.884 -1.7249 -2.0695  0.7081
 5973SOL     OW29377   3.653   2.769   2.812  0.4993 -0.0351  0.3783
 5973SOL    HW129378   3.611   2.712   2.876  0.3585  1.8491  1.9734
 5973SOL    HW229379   3.724   2.710   2.786 -1.0341 -2.0611  0.8078
 5974SOL     OW29380   4.571   3.879   8.566  0.2388  0.7608  0.0913
 5974SOL    HW129381   4.632   3.898   8.494 -0.5977 -0.5772 -0.9745
 5974SOL    HW229382   4.602   3.927   8.642  0.7798 -0.7720  0.8510
 5975SOL     OW29383   1.438   1.226  17.582  0.3861 -0.5676  0.0990
 5975SOL    HW129384   1.381   1.158  17.616 -0.7513 -0.5598 -1.7713
 5975SOL    HW229385   1.404   1.300  17.633 -1.2202 -0.7992 -0.6471
 5976SOL     OW29386   4.073   2.535   5.302 -0.6122  0.3057 -0.0138
 5976SOL    HW129387   4.011   2.599   5.336  1.3019  2.5972 -0.8671
 5976SOL    HW229388   4.142   2.600   5.286 -0.6010 -0.2707 -2.3130
 5977SOL     OW29389   1.587   3.148   1.517 -0.0081 -0.0749  0.1472
 5977SOL    HW129390   1.641   3.223   1.542 -0.3021 -0.1136  0.9044
 5977SOL    HW229391   1.513   3.191   1.474  0.2121  0.2284  0.0668
 5978SOL     OW29392   0.971   0.317   6.449 -0.4499  0.4477  0.0986
 5978SOL    HW129393   0.909   0.256   6.489  0.3188 -0.6135 -0.3367
 5978SOL    HW229394   1.028   0.245   6.422  0.8393  1.7905 -0.7461
 5979SOL     OW29395   0.990   0.935   4.011 -0.6445 -0.2941 -0.6073
 5979SOL    HW129396   0.973   1.029   4.015  0.6976  0.0314 -2.4604
 5979SOL    HW229397   1.074   0.922   3.968 -0.3468  1.0687 -0.4531
 5980SOL     OW29398   3.098   2.893   2.462  0.6707  0.2841  0.3123
 5980SOL    HW129399   3.163   2.862   2.399  0.6625 -0.0251  0.4575
 5980SOL    HW229400   3.076   2.815   2.513  1.3977 -0.4888 -0.5635
 5981SOL     OW29401   1.394   0.468   8.146  0.0052 -0.1579  0.0363
 5981SOL    HW129402   1.378   0.563   8.139  0.2271 -0.1830 -0.8831
 5981SOL    HW229403   1.432   0.465   8.234  1.1432 -3.0045 -0.5427
 5982SOL     OW29404   0.921   0.479   7.494 -0.4268 -0.0638  0.1868
 5982SOL    HW129405   0.952   0.466   7.405  1.2268  0.6460  0.6693
 5982SOL    HW229406   0.828   0.459   7.485 -0.4450  0.4924 -0.8565
 5983SOL     OW29407   1.477   0.218   3.202  0.0209 -0.6317 -0.5365
 5983SOL    HW129408   1.390   0.248   3.229 -0.3389  0.1351 -2.5548
 5983SOL    HW229409   1.460   0.226   3.109  3.5136  0.8737 -1.0570
 5984SOL     OW29410   4.690   3.341  15.984  0.6073  0.0792  0.2268
 5984SOL    HW129411   0.045   3.388  16.013  0.0729  1.2069 -0.1330
 5984SOL    HW229412   4.626   3.410  15.966 -1.2628 -2.0968 -1.4317
 5985SOL     OW29413   4.713   2.499   8.237  0.0687  0.4495 -0.1990
 5985SOL    HW129414   4.669   2.576   8.202 -0.4825  1.5529  2.8904
 5985SOL    HW229415   0.056   2.475   8.173  0.0597  0.3629 -0.1769
 5986SOL     OW29416   1.064   3.752   0.607 -0.2361  0.5194 -0.1292
 5986SOL    HW129417   1.107   3.826   0.650  1.2888 -0.1331 -0.5514
 5986SOL    HW229418   0.989   3.801   0.573 -1.4430 -0.6913  0.7556
 5987SOL     OW29419   0.567   2.879  15.820  0.1589  0.4229  0.1500
 5987SOL    HW129420   0.499   2.928  15.867 -1.4351 -0.3987 -1.3030
 5987SOL    HW229421   0.564   2.934  15.742 -0.9645 -3.2075 -2.3227
 5988SOL     OW29422   0.140   3.379   7.530  0.9028 -0.1830 -0.5775
 5988SOL    HW129423   0.080   3.314   7.493 -1.4064  0.6508  1.7299
 5988SOL    HW229424   0.181   3.337   7.606  0.9121 -0.8231 -0.9305
 5989SOL     OW29425   0.108   2.902   9.331 -0.4202 -0.7935 -0.6760
 5989SOL    HW129426   0.070   2.988   9.315 -1.0103 -1.0941 -0.8585
 5989SOL    HW229427   0.056   2.848   9.390 -1.6051 -0.3081 -1.2734
 5990SOL     OW29428   0.688   3.577   2.617  0.2319  0.6292 -0.0236
 5990SOL    HW129429   0.667   3.522   2.693 -1.3380 -0.5050 -1.2656
 5990SOL    HW229430   0.770   3.608   2.656 -0.9033  1.2365  1.8656
 5991SOL     OW29431   3.325   0.042   5.225  0.0950 -0.2983 -0.1356
 5991SOL    HW129432   3.262   0.028   5.296  2.3347 -2.0331  1.5112
 5991SOL    HW229433   3.262   0.047   5.153  1.3381  1.3968 -1.1133
 5992SOL     OW29434   4.364   2.955   3.579  0.4112  0.4682  0.6338
 5992SOL    HW129435   4.276   2.923   3.599 -0.4043  1.8842 -0.6890
 5992SOL    HW229436   4.371   2.961   3.484  0.3666 -0.5819  0.5674
 5993SOL     OW29437   3.807   4.315   6.167 -0.2870  0.1176  0.2670
 5993SOL    HW129438   3.733   4.368   6.200 -0.1525  1.0657 -0.9685
 5993SOL    HW229439   3.767   4.278   6.088  1.3736 -1.6138  0.2610
 5994SOL     OW29440   3.608   4.002  17.391 -0.0122 -0.6173 -0.6115
 5994SOL    HW129441   3.608   4.058  17.469 -1.7881 -0.9532 -0.3859
 5994SOL    HW229442   3.648   3.920  17.418 -0.4513 -0.6462 -0.0441
 5995SOL     OW29443   1.571   2.772   1.971 -0.1587 -0.1550 -0.0724
 5995SOL    HW129444   1.616   2.688   1.983 -0.6594  0.0566  3.5573
 5995SOL    HW229445   1.643   2.830   1.996 -0.5743  0.1398  0.4400
 5996SOL     OW29446   1.323   2.391   7.438  0.1018 -0.1095  0.0020
 5996SOL    HW129447   1.314   2.438   7.356  0.3773 -1.6939 -0.9329
 5996SOL    HW229448   1.368   2.459   7.488 -1.8029  1.9198 -1.0871
 5997SOL     OW29449   4.699   0.246   5.370 -0.0401 -0.1834 -0.0113
 5997SOL    HW129450   0.035   0.302   5.419 -0.1652 -0.5140  0.5067
 5997SOL    HW229451   4.684   0.307   5.297 -2.1267 -0.2535  0.3621
 5998SOL     OW29452   0.762   2.231   2.678 -0.8254 -0.4636  0.2653
 5998SOL    HW129453   0.708   2.154   2.689 -1.9229 -0.0068 -1.9211
 5998SOL    HW229454   0.706   2.283   2.620  1.0949  4.1141  2.4296
 5999SOL     OW29455   2.672   3.299   8.360  0.0503 -0.2577 -0.4115
 5999SOL    HW129456   2.710   3.219   8.395  0.2333  0.7206  1.5822
 5999SOL    HW229457   2.608   3.254   8.305 -0.2904  1.3821 -1.3807
 6000SOL     OW29458   0.193   4.088   6.724  0.6640 -0.1547  0.5217
 6000SOL    HW129459   0.243   4.128   6.795  1.5862  0.4020 -0.4292
 6000SOL    HW229460   0.221   3.996   6.718 -0.9322 -0.6650  1.0492
 6001SOL     OW29461   4.463   0.183   4.849 -0.5367 -0.2573  0.0173
 6001SOL    HW129462   4.479   0.260   4.794 -2.1656  0.2803  0.2934
 6001SOL    HW229463   4.489   0.109   4.795 -0.3304 -1.7236  2.1311
 6002SOL     OW29464   0.793   4.049   8.368 -0.2025  0.0963  0.1385
 6002SOL    HW129465   0.830   3.985   8.307  2.3867  1.7018  0.0118
 6002SOL    HW229466   0.829   4.023   8.452 -2.8484 -0.1246  1.1961
 6003SOL     OW29467   3.167   3.514   1.636 -0.0437 -0.2321 -0.2394
 6003SOL    HW129468   3.085   3.562   1.644 -0.1471 -0.3154 -0.8263
 6003SOL    HW229469   3.221   3.591   1.620  0.3872 -0.2382  1.1454
 6004SOL     OW29470   0.767   2.334   6.430 -0.3509 -0.2560 -0.1971
 6004SOL    HW129471   0.769   2.339   6.335  1.7765  1.2701 -0.0783
 6004SOL    HW229472   0.829   2.397   6.465 -1.3034  0.0144  1.0160
 6005SOL     OW29473   1.107   2.055   4.166  0.2823  0.3524  0.6383
 6005SOL    HW129474   1.104   2.032   4.073 -1.8112  1.7362  0.3600
 6005SOL    HW229475   1.033   2.009   4.206 -0.1081 -0.3715 -0.9280
 6006SOL     OW29476   3.365   1.352   6.366  0.0150  0.3811  0.1946
 6006SOL    HW129477   3.429   1.281   6.372 -1.0968 -0.5290  1.3224
 6006SOL    HW229478   3.392   1.399   6.445  0.8984 -0.6767  0.5340
 6007SOL     OW29479   3.245   1.580   5.315  0.3545  0.0505  0.2919
 6007SOL    HW129480   3.154   1.596   5.341  0.2168 -0.5613  0.1835
 6007SOL    HW229481   3.259   1.644   5.246 -2.1210  1.7514  1.3710
 6008SOL     OW29482   3.271   3.583   8.709  0.3454 -0.3973  0.4424
 6008SOL    HW129483   3.183   3.580   8.672  0.6165  2.0730 -0.4189
 6008SOL    HW229484   3.314   3.504   8.677 -0.6339 -1.6322  2.1897
 6009SOL     OW29485   2.007   0.474  12.504  0.1400  0.1811 -0.6536
 6009SOL    HW129486   1.931   0.499  12.451 -0.1888 -4.4576 -2.4074
 6009SOL    HW229487   2.061   0.548  12.479 -1.2791  1.5528  0.3342
 6010SOL     OW29488   3.152   0.923   8.646  0.3698  0.2433  0.1887
 6010SOL    HW129489   3.148   0.974   8.727 -2.8718 -0.0196  0.1875
 6010SOL    HW229490   3.206   0.979   8.590 -2.2615 -0.7572 -3.3924
 6011SOL     OW29491   3.219   0.907   5.502  0.2353  0.1909  0.6841
 6011SOL    HW129492   3.159   0.981   5.511  0.4566  0.3500  0.8417
 6011SOL    HW229493   3.287   0.955   5.550 -0.3758  1.0634  0.6789
 6012SOL     OW29494   0.315   0.771   1.689  0.2838 -0.2476 -0.0029
 6012SOL    HW129495   0.310   0.863   1.663  1.8741 -0.0155  0.4721
 6012SOL    HW229496   0.365   0.775   1.771 -1.3487  1.5936  0.8916
 6013SOL     OW29497   3.676   3.273  13.354 -0.1667  0.1278 -0.2814
 6013SOL    HW129498   3.738   3.341  13.377 -3.7695  3.0925  0.6942
 6013SOL    HW229499   3.591   3.312  13.376  0.2592  1.0808 -0.3582
 6014SOL     OW29500   1.612   2.573   6.931  0.2713  0.2225  0.2288
 6014SOL    HW129501   1.575   2.576   6.843  1.1777  0.1327 -0.1523
 6014SOL    HW229502   1.689   2.627   6.919  1.1709 -0.1856  4.0622
 6015SOL     OW29503   1.887   3.498   4.543  0.6731 -0.4238  0.1204
 6015SOL    HW129504   1.833   3.545   4.606 -1.3117 -1.0280 -1.1337
 6015SOL    HW229505   1.930   3.572   4.500 -0.4419  0.1825  0.0614
 6016SOL     OW29506   1.945   4.448  15.489 -0.2033 -0.4793  0.1781
 6016SOL    HW129507   1.947   4.385  15.417  0.7308  0.9431 -1.0387
 6016SOL    HW229508   2.040   4.445  15.500  0.0502 -0.6134 -2.1716
 6017SOL     OW29509   3.038   0.188  15.202  0.5541  0.0909  0.1270
 6017SOL    HW129510   3.106   0.133  15.162  1.6391  0.1177  1.9346
 6017SOL    HW229511   3.021   0.249  15.130  0.3552 -0.6875 -0.4885
 6018SOL     OW29512   3.474   3.762   3.498  0.1030  0.0764  0.5573
 6018SOL    HW129513   3.446   3.752   3.589 -3.1064 -1.5163 -0.6211
 6018SOL    HW229514   3.496   3.855   3.505 -0.0184  0.0992  0.6224
 6019SOL     OW29515   0.018   3.306   3.640 -0.0529  0.1074  0.4094
 6019SOL    HW129516   4.677   3.238   3.624 -1.6652  2.0994 -1.4472
 6019SOL    HW229517   0.059   3.265   3.716  1.8188 -0.7178 -1.0447
 6020SOL     OW29518   2.734   2.703   9.285  0.0812 -0.4364  0.1261
 6020SOL    HW129519   2.818   2.678   9.323 -0.7461 -0.5935  1.8403
 6020SOL    HW229520   2.738   2.799   9.282 -0.3956 -0.4813 -2.0173
 6021SOL     OW29521   0.091   4.572   4.949  0.1789  0.2055  0.1765
 6021SOL    HW129522   0.025   4.612   4.892  1.4804  1.4652 -0.4496
 6021SOL    HW229523   0.178   4.590   4.912 -0.3358  0.4233 -0.9415
 6022SOL     OW29524   1.310   3.173   8.579  0.8426 -0.0753  0.0610
 6022SOL    HW129525   1.272   3.095   8.539 -0.6941 -0.2638  1.9449
 6022SOL    HW229526   1.224   3.212   8.597  1.1929  0.3372  0.8579
 6023SOL     OW29527   2.492   3.160  17.542 -0.3694  0.0439  0.4134
 6023SOL    HW129528   2.508   3.107  17.620  1.6124  0.5256  0.3364
 6023SOL    HW229529   2.421   3.220  17.565  1.3270  2.3826 -0.5065
 6024SOL     OW29530   0.912   2.977  11.813  0.2097  0.8329 -0.2429
 6024SOL    HW129531   0.983   3.017  11.862  0.4309  0.8934 -0.6116
 6024SOL    HW229532   0.930   2.884  11.800 -2.6567 -0.0368  1.9797
 6025SOL     OW29533   4.640   3.829  16.782 -0.3470 -0.6982 -0.3483
 6025SOL    HW129534   0.009   3.808  16.773 -0.9096 -3.3182 -0.1850
 6025SOL    HW229535   4.628   3.921  16.759 -1.5617 -0.9926 -0.9131
 6026SOL     OW29536   3.447   3.035  17.637  0.0979 -0.5479 -0.5081
 6026SOL    HW129537   3.543   3.041  17.629 -0.0850  2.3068 -0.8181
 6026SOL    HW229538   3.413   2.965  17.582 -0.1438  0.7650 -2.0461
 6027SOL     OW29539   3.440   2.779   3.702  0.4645 -0.2865 -0.6646
 6027SOL    HW129540   3.384   2.855   3.718  1.7394  0.3948  0.6601
 6027SOL    HW229541   3.412   2.751   3.615  1.5948  1.4112 -1.5764
 6028SOL     OW29542   1.009   0.090   2.415  0.6352  0.0166 -0.4596
 6028SOL    HW129543   0.926   0.129   2.389 -0.2773 -1.2087  0.6048
 6028SOL    HW229544   1.068   0.124   2.348  2.6800 -0.9773  0.8444
 6029SOL     OW29545   1.492   1.775   5.754  0.6397 -0.1048  0.1766
 6029SOL    HW129546   1.583   1.749   5.765  0.3078 -0.2635  2.4420
 6029SOL    HW229547   1.503   1.861   5.714  0.9245 -1.2461 -2.2376
 6030SOL     OW29548   4.076   0.790  17.610 -0.5628  0.3072  0.8434
 6030SOL    HW129549   4.090   0.811   0.005  0.0949 -2.2234  1.2965
 6030SOL    HW229550   3.991   0.749  17.623 -0.0937 -0.3114  1.9474
 6031SOL     OW29551   2.372   4.311   6.790 -1.0117 -0.8574 -0.0967
 6031SOL    HW129552   2.386   4.402   6.816  0.4821 -1.0388 -0.2501
 6031SOL    HW229553   2.294   4.291   6.842 -2.9671  4.4539 -0.9782
 6032SOL     OW29554   0.866   2.432  11.561 -0.3800 -0.5506 -0.2419
 6032SOL    HW129555   0.903   2.431  11.649  1.8002  2.8532 -1.1486
 6032SOL    HW229556   0.830   2.520  11.557  0.0929 -0.3461  0.0981
 6033SOL     OW29557   2.657   2.809   6.086 -0.2476 -0.3609 -0.0140
 6033SOL    HW129558   2.733   2.863   6.063 -2.0199  1.6053 -1.2762
 6033SOL    HW229559   2.677   2.730   6.035 -0.1894 -0.8975  0.8362
 6034SOL     OW29560   4.026   2.192  16.857  0.0643 -0.6122  0.2117
 6034SOL    HW129561   4.046   2.241  16.777 -1.1758 -1.0722 -0.3759
 6034SOL    HW229562   4.106   2.209  16.907 -0.6147  1.2125  0.6986
 6035SOL     OW29563   2.049   0.919   0.138 -0.5691 -0.8595  0.0043
 6035SOL    HW129564   2.139   0.929   0.107 -0.3249  0.3031  1.0934
 6035SOL    HW229565   2.016   1.008   0.123 -0.6236 -0.4507  2.5426
 6036SOL     OW29566   3.643   2.003   3.627  0.3525 -0.2869 -0.0823
 6036SOL    HW129567   3.555   1.966   3.633 -0.0251  0.3951 -1.5165
 6036SOL    HW229568   3.663   1.986   3.535 -0.1501  0.6584 -0.3748
 6037SOL     OW29569   3.506   3.980   4.801 -0.1939  0.5350 -0.0420
 6037SOL    HW129570   3.524   4.045   4.869 -3.3243  2.8491 -1.4141
 6037SOL    HW229571   3.428   3.941   4.841  0.7683 -0.1871  1.1355
 6038SOL     OW29572   0.156   0.292   9.994  0.3391 -0.1297 -0.3546
 6038SOL    HW129573   0.245   0.276  10.026 -0.5863 -2.0904  1.2339
 6038SOL    HW229574   0.121   0.334  10.073  1.5770  1.2445 -0.5216
 6039SOL     OW29575   4.673   1.912   5.806 -0.0773 -0.5265  0.1934
 6039SOL    HW129576   4.625   1.841   5.849  0.6172 -1.7420 -1.0452
 6039SOL    HW229577   4.604   1.942   5.747 -0.3578 -3.3400 -0.9035
 6040SOL     OW29578   2.600   1.801   7.455  0.4986  0.5892  0.1205
 6040SOL    HW129579   2.663   1.829   7.389  0.5310 -1.2501 -0.6333
 6040SOL    HW229580   2.528   1.861   7.437 -0.6654  0.3241  3.8288
 6041SOL     OW29581   1.836   1.917   4.825 -0.2756 -0.0327  0.5698
 6041SOL    HW129582   1.844   2.008   4.854 -1.5806  0.4926 -0.7766
 6041SOL    HW229583   1.911   1.877   4.869 -0.9122 -1.2472  0.5543
 6042SOL     OW29584   2.629   1.193   4.331 -0.2955  0.1938 -0.6350
 6042SOL    HW129585   2.543   1.152   4.322 -0.8565  1.2986 -0.3595
 6042SOL    HW229586   2.653   1.236   4.249  0.8789  1.1443  0.2139
 6043SOL     OW29587   3.220   1.764   6.793  0.1080  0.0060  0.2422
 6043SOL    HW129588   3.187   1.802   6.875 -0.3014 -1.4692  0.7614
 6043SOL    HW229589   3.223   1.670   6.810 -1.9998  0.0529  0.8576
 6044SOL     OW29590   1.511   4.711   7.934 -0.1545  0.5932  0.1930
 6044SOL    HW129591   1.570   0.032   7.873 -0.5293 -0.7737 -1.1936
 6044SOL    HW229592   1.513   0.048   8.007  1.9755 -0.6847  1.2027
 6045SOL     OW29593   1.205   1.016   1.091 -0.0320  0.2686 -0.6187
 6045SOL    HW129594   1.217   0.967   1.010  0.2066  1.5961 -1.3887
 6045SOL    HW229595   1.181   0.944   1.149 -0.1343  1.4110  0.7652
 6046SOL     OW29596   4.606   3.055   8.537 -0.4701  0.0847 -0.2901
 6046SOL    HW129597   4.599   3.136   8.588 -1.0605  0.2248 -0.5860
 6046SOL    HW229598   4.590   2.986   8.601  1.0009 -0.8762 -0.9653
 6047SOL     OW29599   1.225   2.658   3.407  0.0690  0.0517 -0.1879
 6047SOL    HW129600   1.243   2.752   3.394 -1.4272  0.4351  0.5325
 6047SOL    HW229601   1.207   2.660   3.501 -1.0575  1.6567 -0.4335
 6048SOL     OW29602   4.613   4.567   8.271  0.4982  0.0808 -0.4292
 6048SOL    HW129603   4.571   4.581   8.356 -0.2254 -2.8438 -0.3058
 6048SOL    HW229604   4.596   4.655   8.236 -0.8081 -0.7937 -2.0102
 6049SOL     OW29605   2.650   2.770   5.274 -0.4132  0.1653 -0.2852
 6049SOL    HW129606   2.723   2.763   5.335 -1.4730 -0.4368  0.9259
 6049SOL    HW229607   2.618   2.859   5.290  0.9287  0.6540 -0.3635
 6050SOL     OW29608   4.021   3.969   2.390  0.3542  0.4630  0.1593
 6050SOL    HW129609   3.946   4.008   2.344  0.8591 -1.2187 -2.0552
 6050SOL    HW229610   4.095   3.993   2.335 -0.1486  1.5099 -0.0746
 6051SOL     OW29611   0.947   1.197   6.322 -0.2478  0.3350  0.1556
 6051SOL    HW129612   0.919   1.142   6.249  0.0520 -1.2285  1.2195
 6051SOL    HW229613   0.905   1.280   6.298 -1.3359  0.4485  2.4076
 6052SOL     OW29614   0.313   3.637   5.509  0.1419  0.3134 -0.5706
 6052SOL    HW129615   0.406   3.638   5.486  0.1717  1.2155 -0.3989
 6052SOL    HW229616   0.275   3.555   5.477  1.1043 -0.3046 -0.1278
 6053SOL     OW29617   1.632   3.604   2.106  0.1181 -0.0091 -0.2029
 6053SOL    HW129618   1.719   3.618   2.144 -0.1563 -0.8412  0.7239
 6053SOL    HW229619   1.578   3.671   2.148 -0.5356 -0.9130  0.3983
 6054SOL     OW29620   0.957   0.623   0.506  0.1392 -0.0138  0.0245
 6054SOL    HW129621   0.993   0.676   0.435  0.7915  0.2373  0.5530
 6054SOL    HW229622   0.893   0.683   0.544 -0.1186 -0.1002 -0.2634
 6055SOL     OW29623   0.887   0.866   5.028 -0.1211  0.8060  0.8454
 6055SOL    HW129624   0.866   0.932   5.093 -1.3708  1.9043 -0.6882
 6055SOL    HW229625   0.884   0.787   5.082  1.8181  0.1822  0.0778
 6056SOL     OW29626   2.320   4.656  10.807  0.3588  0.2777 -0.0692
 6056SOL    HW129627   2.226   4.667  10.824  0.5451  0.1060  1.0817
 6056SOL    HW229628   2.357   0.004  10.858 -1.6811  1.5641 -0.4325
 6057SOL     OW29629   2.036   4.244   1.926 -0.1999  0.5461 -0.2502
 6057SOL    HW129630   2.042   4.327   1.973  0.5329 -0.3043  1.1518
 6057SOL    HW229631   1.942   4.228   1.918 -0.0833 -0.1240 -0.3537
 6058SOL     OW29632   0.831   1.291   5.025 -0.5301  0.4643  0.3655
 6058SOL    HW129633   0.912   1.287   4.974 -0.6270  3.1113  0.0102
 6058SOL    HW229634   0.833   1.209   5.074 -0.6674  0.4174  0.2926
 6059SOL     OW29635   4.666   0.805   4.756 -0.2071 -0.3317  0.3155
 6059SOL    HW129636   4.573   0.828   4.755 -0.1522 -0.4170 -4.4575
 6059SOL    HW229637   4.674   0.722   4.709 -0.3062 -0.6012  0.7747
 6060SOL     OW29638   1.174   4.609  15.927 -0.2114  0.2200 -0.1827
 6060SOL    HW129639   1.168   4.689  15.875 -4.4083 -0.0151 -0.0730
 6060SOL    HW229640   1.262   4.580  15.906 -0.0780  0.2622  0.3213
 6061SOL     OW29641   3.199   1.980   6.958  0.6450  0.1172  0.2019
 6061SOL    HW129642   3.214   1.971   7.052 -1.0694  0.0146  0.4523
 6061SOL    HW229643   3.109   2.005   6.942  0.3290 -0.8563  0.4382
 6062SOL     OW29644   4.355   1.360   3.934 -0.4809 -0.1364 -0.1607
 6062SOL    HW129645   4.282   1.422   3.943  0.0752  0.4002  0.6724
 6062SOL    HW229646   4.398   1.379   3.850 -2.3013 -0.4774 -1.1608
 6063SOL     OW29647   2.958   2.693   9.615  0.6202 -0.3537 -0.5793
 6063SOL    HW129648   3.036   2.731   9.656  0.3276 -0.3032 -0.0752
 6063SOL    HW229649   3.005   2.635   9.554  0.6591 -1.1832  0.2410
 6064SOL     OW29650   0.640   2.823   1.872  0.0733  0.5140 -0.2038
 6064SOL    HW129651   0.641   2.786   1.784 -0.6207 -0.6456  0.2826
 6064SOL    HW229652   0.545   2.819   1.879 -0.1460 -1.4959 -4.1573
 6065SOL     OW29653   3.221   3.503   2.417 -0.6105 -0.3077 -0.1680
 6065SOL    HW129654   3.281   3.547   2.358 -1.2455 -0.2690 -0.7866
 6065SOL    HW229655   3.279   3.431   2.442 -0.3639  0.0388  0.2404
 6066SOL     OW29656   2.826   3.138   8.145 -0.0724 -0.4222  0.3371
 6066SOL    HW129657   2.798   3.181   8.065  0.6027  0.2222  0.4472
 6066SOL    HW229658   2.748   3.092   8.175  0.3695  0.4907  2.8880
 6067SOL     OW29659   2.639   0.008   9.838 -0.6595 -0.0445 -0.1617
 6067SOL    HW129660   2.578   4.658   9.837  0.0960 -0.6588 -0.8772
 6067SOL    HW229661   2.576   0.077   9.860 -0.2791  0.3464 -0.2888
 6068SOL     OW29662   0.304   0.341   4.819  0.3961  0.1402 -0.1325
 6068SOL    HW129663   0.338   0.384   4.740 -0.2756  0.2971 -0.3349
 6068SOL    HW229664   0.250   0.415   4.847  0.2594  0.7881 -2.0787
 6069SOL     OW29665   1.311   0.452   5.508  0.2375  0.1051 -0.3026
 6069SOL    HW129666   1.343   0.531   5.552 -0.2458  0.0472  0.1603
 6069SOL    HW229667   1.275   0.409   5.586 -3.3671  3.2674 -0.2090
 6070SOL     OW29668   0.254   2.672   7.601  0.7108  0.2632  0.1716
 6070SOL    HW129669   0.342   2.692   7.568  1.6041 -0.6997  2.0033
 6070SOL    HW229670   0.217   2.656   7.514  0.5242 -1.8408  0.6595
 6071SOL     OW29671   1.094   3.304   8.242  0.5689 -0.6169  0.1350
 6071SOL    HW129672   1.181   3.277   8.214  0.2865  2.3878 -3.6421
 6071SOL    HW229673   1.059   3.216   8.253  3.9275 -1.9916 -0.1020
 6072SOL     OW29674   3.308   2.330   7.251 -0.0468 -0.3921  0.0589
 6072SOL    HW129675   3.257   2.366   7.324 -0.0070 -0.4978  0.1391
 6072SOL    HW229676   3.249   2.268   7.209 -1.3383  2.5040 -2.4183
 6073SOL     OW29677   4.669   4.028   1.341  0.0005  0.3527 -0.2381
 6073SOL    HW129678   4.606   4.065   1.403  1.3347 -1.8155  2.4024
 6073SOL    HW229679   4.715   3.963   1.395  3.1065  1.8588 -1.0815
 6074SOL     OW29680   3.121   3.202  15.923 -0.5116  0.2432  0.6309
 6074SOL    HW129681   3.083   3.230  15.840 -0.2511 -0.1014  0.3929
 6074SOL    HW229682   3.037   3.194  15.968 -1.7030  3.5678 -1.0444
 6075SOL     OW29683   3.085   1.107  11.780  0.2371 -0.1307 -0.0509
 6075SOL    HW129684   3.121   1.022  11.754 -0.2769 -0.8566  1.5936
 6075SOL    HW229685   3.039   1.081  11.860  0.3725  0.5931  0.2594
 6076SOL     OW29686   2.919   3.754   6.922 -0.6459  0.1796 -0.1532
 6076SOL    HW129687   2.931   3.743   7.017 -2.0301 -0.0871 -0.0149
 6076SOL    HW229688   2.870   3.836   6.917 -0.9128  0.0005 -0.4445
 6077SOL     OW29689   1.611   0.597   1.965 -0.2226  0.1095 -0.1597
 6077SOL    HW129690   1.545   0.533   1.938 -3.0212  1.7648  2.6906
 6077SOL    HW229691   1.571   0.684   1.966 -1.7195 -0.5685 -2.0849
 6078SOL     OW29692   2.422   0.834  11.164 -0.3519  0.1377  0.3582
 6078SOL    HW129693   2.376   0.916  11.145 -1.6764 -0.4501  1.0220
 6078SOL    HW229694   2.345   0.777  11.164  0.8671 -1.5277  1.6913
 6079SOL     OW29695   1.089   0.390   1.729  0.0079  0.2411 -0.1980
 6079SOL    HW129696   1.066   0.350   1.644 -2.3115 -0.7700  0.9162
 6079SOL    HW229697   1.164   0.332   1.743  0.8639  0.6034 -3.2275
 6080SOL     OW29698   1.326   3.545   5.052  0.4152 -0.3520 -0.4341
 6080SOL    HW129699   1.281   3.522   4.970 -0.1074 -1.2727  0.1071
 6080SOL    HW229700   1.384   3.615   5.023 -1.5798  0.8932 -1.4817
 6081SOL     OW29701   3.885   3.433  13.484 -0.0139 -0.1842 -0.1802
 6081SOL    HW129702   3.941   3.476  13.420  0.6632 -0.7458  0.0424
 6081SOL    HW229703   3.899   3.484  13.564 -1.4633  0.2689 -0.2034
 6082SOL     OW29704   4.281   3.215   2.442  0.4171 -0.9486 -0.1017
 6082SOL    HW129705   4.359   3.223   2.386 -1.2239  1.4944 -2.0042
 6082SOL    HW229706   4.218   3.244   2.376  0.4846  2.7451  1.4910
 6083SOL     OW29707   2.524   3.869   6.975  0.1607  0.2602  0.1762
 6083SOL    HW129708   2.465   3.912   6.913 -0.4107 -1.9381 -0.8323
 6083SOL    HW229709   2.516   3.779   6.941  1.9792  0.0027  0.4383
 6084SOL     OW29710   4.699   3.994   8.782 -0.5985 -0.3768  0.3644
 6084SOL    HW129711   0.041   3.926   8.801 -1.2398 -1.3555 -0.9065
 6084SOL    HW229712   4.668   4.020   8.869 -0.2784 -0.3618  0.4781
 6085SOL     OW29713   0.059   3.531   6.665 -0.2123 -0.0015 -0.0304
 6085SOL    HW129714   0.121   3.488   6.723  0.1789 -0.4036 -0.7366
 6085SOL    HW229715   4.711   3.534   6.727 -1.3108  3.2332 -1.4691
 6086SOL     OW29716   4.219   1.638   4.738 -0.1354 -0.2157  0.2662
 6086SOL    HW129717   4.262   1.573   4.794 -2.1306  0.0566  2.1174
 6086SOL    HW229718   4.128   1.634   4.765 -0.6869  1.5594 -1.3500
 6087SOL     OW29719   2.736   0.871   7.935  0.3202  0.2760 -0.5711
 6087SOL    HW129720   2.726   0.810   8.009  1.9617 -0.1335 -0.7005
 6087SOL    HW229721   2.827   0.857   7.912  0.1209 -2.0273  0.0360
 6088SOL     OW29722   0.218   1.520   1.662  0.0419  0.2508 -0.3658
 6088SOL    HW129723   0.193   1.599   1.709 -1.8218 -1.5112  1.5785
 6088SOL    HW229724   0.197   1.544   1.572 -1.2845  0.2839 -0.0361
 6089SOL     OW29725   0.666   3.984   6.785  0.3371 -0.2555 -0.0791
 6089SOL    HW129726   0.723   4.012   6.856  0.2362 -0.8909  0.2584
 6089SOL    HW229727   0.718   3.915   6.743  1.0845 -0.0842  0.5779
 6090SOL     OW29728   1.796   2.589   0.463  0.3607 -0.4484 -0.1262
 6090SOL    HW129729   1.839   2.536   0.396  0.3292  1.9573 -2.0666
 6090SOL    HW229730   1.760   2.654   0.403  2.0965 -0.9056 -1.6773
 6091SOL     OW29731   3.651   4.159   5.733 -0.1856 -0.1722 -0.3212
 6091SOL    HW129732   3.692   4.073   5.721  1.6834  0.8920 -1.4471
 6091SOL    HW229733   3.639   4.162   5.828 -2.1056 -0.4070 -0.5617
 6092SOL     OW29734   3.931   1.592   3.247  0.4174  0.2808  0.4052
 6092SOL    HW129735   3.861   1.527   3.254 -0.5474  1.2255 -0.5168
 6092SOL    HW229736   3.887   1.676   3.234 -2.3116 -0.8470  2.1827
 6093SOL     OW29737   0.790   0.120   6.571  0.0759 -0.4673 -0.8766
 6093SOL    HW129738   0.759   0.045   6.519 -0.2471 -1.0592  0.1624
 6093SOL    HW229739   0.708   0.169   6.558  0.3891  0.0123 -1.0151
 6094SOL     OW29740   3.731   1.757   8.165  0.6009 -0.3961 -0.0888
 6094SOL    HW129741   3.767   1.703   8.235  1.4918 -2.2091 -1.9205
 6094SOL    HW229742   3.637   1.744   8.179  0.6176 -0.5739 -0.1406
 6095SOL     OW29743   1.585   4.471  10.005  0.1451  0.6674 -0.4373
 6095SOL    HW129744   1.492   4.495  10.002  0.4251  1.8992  0.4708
 6095SOL    HW229745   1.620   4.527   9.936  1.3527  0.4335 -0.0096
 6096SOL     OW29746   4.243   2.877   9.446  0.0366 -0.1670 -0.0885
 6096SOL    HW129747   4.270   2.964   9.477  3.0305 -1.4347  0.8116
 6096SOL    HW229748   4.203   2.899   9.362  0.3532 -0.2551 -0.2598
 6097SOL     OW29749   1.050   0.010   3.518  0.2013  0.1801  0.1116
 6097SOL    HW129750   1.118   4.679   3.556  0.3879  1.7996  2.1266
 6097SOL    HW229751   0.974   4.678   3.508  0.7544 -0.8330  1.5836
 6098SOL     OW29752   0.761   0.945  14.588  0.2594 -0.0196  0.5215
 6098SOL    HW129753   0.814   1.011  14.543 -0.1344  1.2974  1.9689
 6098SOL    HW229754   0.829   0.918  14.649  0.8946  2.1192  0.7509
 6099SOL     OW29755   0.834   0.768   7.657  0.4121 -0.0852 -0.1512
 6099SOL    HW129756   0.930   0.774   7.659  0.4490 -0.2841 -1.1668
 6099SOL    HW229757   0.821   0.778   7.562 -0.7687  1.4325  0.1690
 6100SOL     OW29758   1.140   1.285   7.736 -0.3386  0.2998 -0.4320
 6100SOL    HW129759   1.130   1.347   7.808 -0.6095 -2.8113  2.1723
 6100SOL    HW229760   1.185   1.342   7.673 -0.6438  2.7828  1.6275
 6101SOL     OW29761   2.581   3.350  12.816  0.5541  0.2829 -0.1286
 6101SOL    HW129762   2.658   3.296  12.829  0.4454  0.3479  0.7871
 6101SOL    HW229763   2.564   3.366  12.909  1.1254 -0.0366  0.0318
 6102SOL     OW29764   1.277   4.686   7.792 -0.2648  0.4211  0.2881
 6102SOL    HW129765   1.368   4.668   7.817 -0.8708 -1.0633  1.4451
 6102SOL    HW229766   1.287   0.046   7.748 -3.0583  1.0075  0.7515
 6103SOL     OW29767   0.558   2.654   3.225  0.4671 -0.7222  0.5787
 6103SOL    HW129768   0.525   2.671   3.136  3.5044 -1.1779 -0.6470
 6103SOL    HW229769   0.648   2.682   3.211 -0.5495  1.4530 -1.6105
 6104SOL     OW29770   2.530   4.604  16.474 -0.1080 -0.4399  0.1298
 6104SOL    HW129771   2.583   4.625  16.397 -1.2981 -2.8287 -1.3258
 6104SOL    HW229772   2.501   4.692  16.496 -0.6232 -0.6955  0.4876
 6105SOL     OW29773   1.577   0.997  17.254  0.6317 -0.2536 -1.0472
 6105SOL    HW129774   1.644   0.929  17.260  1.2179  0.0728 -4.0113
 6105SOL    HW229775   1.505   0.949  17.214 -0.3910  0.5148 -0.1531
 6106SOL     OW29776   1.274   0.274   7.745 -0.0837 -0.3638 -0.4813
 6106SOL    HW129777   1.340   0.342   7.759 -1.1602  0.0990  2.2965
 6106SOL    HW229778   1.190   0.320   7.751  0.4955  0.2706  2.7529
 6107SOL     OW29779   3.808   2.798   4.516 -0.0993 -0.4548  0.0165
 6107SOL    HW129780   3.759   2.830   4.591  0.6612  0.2278  0.2354
 6107SOL    HW229781   3.892   2.772   4.554 -0.5842 -2.7661 -0.4846
 6108SOL     OW29782   2.477   2.994   0.049 -0.1925 -0.1094  0.3506
 6108SOL    HW129783   2.490   2.924   0.113  1.6537  0.2983  0.4263
 6108SOL    HW229784   2.421   2.944  17.686  0.7628 -2.3751  1.3278
 6109SOL     OW29785   4.345   3.813   5.853 -0.5433  0.6813 -0.2031
 6109SOL    HW129786   4.360   3.882   5.918 -1.8173  0.6955  0.0828
 6109SOL    HW229787   4.299   3.855   5.780 -1.1692  1.0398  0.3963
 6110SOL     OW29788   2.620   4.689   4.483  0.1716 -0.1515  0.2690
 6110SOL    HW129789   2.565   0.007   4.417  1.7735  0.8537 -0.3933
 6110SOL    HW229790   2.555   4.620   4.497  0.8499 -0.8782 -0.2263
 6111SOL     OW29791   0.766   1.209   1.760 -0.2962 -0.0695  0.3536
 6111SOL    HW129792   0.823   1.234   1.833 -0.9405  0.9220  0.5158
 6111SOL    HW229793   0.775   1.274   1.691  2.5873 -1.0101 -0.1696
 6112SOL     OW29794   0.251   4.462   4.179  0.3401 -0.5605  0.2909
 6112SOL    HW129795   0.274   4.555   4.174  3.4724 -1.3292  0.3015
 6112SOL    HW229796   0.263   4.442   4.086 -0.1637 -0.4237  0.2002
 6113SOL     OW29797   4.007   1.857  13.599  0.5718  0.1292 -0.1781
 6113SOL    HW129798   3.919   1.889  13.622  0.3783 -1.9447  1.9625
 6113SOL    HW229799   4.053   1.900  13.671  2.2457 -0.9454 -0.6230
 6114SOL     OW29800   0.905   3.452   2.462 -0.0070  0.2340 -0.1975
 6114SOL    HW129801   0.822   3.498   2.463 -0.3316 -0.2743 -2.4973
 6114SOL    HW229802   0.939   3.458   2.372 -2.5770  0.3906 -1.1510
 6115SOL     OW29803   3.589   2.398   2.493 -0.1719 -0.0635  0.1220
 6115SOL    HW129804   3.637   2.334   2.440 -0.0234  0.4132 -0.3129
 6115SOL    HW229805   3.567   2.471   2.436 -0.0196 -0.4047 -0.3823
 6116SOL     OW29806   0.583   3.231   4.236 -0.1009  0.3856 -0.0856
 6116SOL    HW129807   0.581   3.182   4.154  0.6965 -2.0014  1.3261
 6116SOL    HW229808   0.553   3.318   4.208  1.0417  0.8524  0.1119
 6117SOL     OW29809   2.953   4.395   6.681  0.1325  0.6468 -0.0136
 6117SOL    HW129810   2.946   4.453   6.757 -0.1767  1.1245 -0.4065
 6117SOL    HW229811   3.013   4.447   6.627  1.1166 -2.4605 -1.9268
 6118SOL     OW29812   1.708   1.165   9.701 -0.4101  0.1128 -0.4747
 6118SOL    HW129813   1.758   1.247   9.708  1.3204 -1.0806  1.2050
 6118SOL    HW229814   1.621   1.191   9.671 -1.0146 -1.5804 -0.1902
 6119SOL     OW29815   4.312   3.687   3.524 -0.3332 -0.0553  0.2545
 6119SOL    HW129816   4.330   3.754   3.590  1.6368 -0.4113  0.0580
 6119SOL    HW229817   4.304   3.613   3.584  1.3834 -0.4523 -0.0116
 6120SOL     OW29818   4.051   1.851   5.357 -0.5057  0.0811 -0.0492
 6120SOL    HW129819   3.972   1.800   5.371 -1.4492  2.1826  2.3650
 6120SOL    HW229820   4.023   1.905   5.283 -0.1714  0.4580  0.0965
 6121SOL     OW29821   1.417   0.760  14.962 -0.4100 -0.1827  0.4435
 6121SOL    HW129822   1.464   0.812  15.027 -1.2076  0.3109  0.6198
 6121SOL    HW229823   1.496   0.723  14.921 -0.3480  1.6147 -1.0674
 6122SOL     OW29824   0.271   0.797  14.058 -0.1563  0.2819  0.2204
 6122SOL    HW129825   0.209   0.835  14.120  0.4205 -0.3713  1.2010
 6122SOL    HW229826   0.275   0.867  13.992  2.7374 -0.6355 -0.5959
 6123SOL     OW29827   0.423   3.655   7.689 -0.1754 -0.0444 -0.3314
 6123SOL    HW129828   0.504   3.618   7.725 -0.3767 -2.1011 -2.0258
 6123SOL    HW229829   0.454   3.745   7.677  0.5988 -0.2643  0.0320
 6124SOL     OW29830   3.428   3.580  11.825  0.0203 -0.5145 -0.4756
 6124SOL    HW129831   3.444   3.546  11.913 -0.6232  1.3530  0.3619
 6124SOL    HW229832   3.431   3.674  11.842  0.6520 -0.5900 -0.1550
 6125SOL     OW29833   3.419   0.224   5.534  0.3937  0.0358  0.0543
 6125SOL    HW129834   3.350   0.223   5.601 -0.3879  0.5197 -0.7368
 6125SOL    HW229835   3.491   0.182   5.580 -1.6452 -1.3152  1.9794
 6126SOL     OW29836   1.417   0.490   7.847 -0.0886 -0.7416 -0.0814
 6126SOL    HW129837   1.377   0.487   7.933 -0.3650  1.5604 -0.1502
 6126SOL    HW229838   1.507   0.469   7.871 -0.1857  0.9009  1.6826
 6127SOL     OW29839   1.700   1.023   4.447  0.1442 -0.2263 -0.4690
 6127SOL    HW129840   1.787   0.985   4.433 -0.8091 -2.7427  0.4585
 6127SOL    HW229841   1.684   1.049   4.356  1.0270 -1.2165 -0.9120
 6128SOL     OW29842   4.238   3.797   2.493 -0.0090 -0.2662  0.3763
 6128SOL    HW129843   4.149   3.828   2.480 -0.3277 -1.0406  0.7013
 6128SOL    HW229844   4.227   3.739   2.569 -1.3251  0.0832  0.4566
 6129SOL     OW29845   1.459   4.126   7.216  0.1889 -0.3285  0.4953
 6129SOL    HW129846   1.553   4.145   7.216  0.0673  0.2814 -0.3369
 6129SOL    HW229847   1.440   4.064   7.287  0.9349  2.0736  2.8258
 6130SOL     OW29848   2.833   2.966   9.697 -0.5198  0.2576 -0.0528
 6130SOL    HW129849   2.867   3.023   9.628 -2.1206 -0.7782 -1.6799
 6130SOL    HW229850   2.846   3.023   9.773 -4.3044  0.0956  0.7214
 6131SOL     OW29851   4.368   1.489   3.187  0.3152  0.2833  0.3482
 6131SOL    HW129852   4.281   1.521   3.161 -0.4745 -0.6680  1.8198
 6131SOL    HW229853   4.401   1.481   3.098 -0.4529  0.2079  0.0753
 6132SOL     OW29854   1.904   1.272   7.488 -0.0114  0.2712  0.6384
 6132SOL    HW129855   1.855   1.251   7.408  1.3700 -1.4956  0.2662
 6132SOL    HW229856   1.834   1.263   7.553 -0.7129  0.5882 -0.0746
 6133SOL     OW29857   2.400   1.332   3.061 -0.2931 -0.5225 -0.0918
 6133SOL    HW129858   2.395   1.302   2.970 -0.4918 -1.8977  0.3647
 6133SOL    HW229859   2.308   1.338   3.087 -0.0713 -1.3161  0.9000
 6134SOL     OW29860   4.495   1.056  11.539 -0.2903  0.0542 -0.2320
 6134SOL    HW129861   4.566   0.996  11.514 -1.4209 -0.7007 -1.6377
 6134SOL    HW229862   4.523   1.077  11.628 -0.5685  0.2002 -0.1788
 6135SOL     OW29863   1.432   3.041  17.202 -0.1417 -0.1596  0.4614
 6135SOL    HW129864   1.514   3.088  17.214  0.1540 -0.2538 -1.2537
 6135SOL    HW229865   1.362   3.106  17.194 -1.1816 -1.1617  1.2006
 6136SOL     OW29866   0.966   2.860   2.513 -0.1675 -0.0948  0.2905
 6136SOL    HW129867   0.898   2.800   2.485  0.6559 -0.8878  0.0065
 6136SOL    HW229868   0.989   2.905   2.432 -1.2187  0.7572  0.4600
 6137SOL     OW29869   0.334   1.594  16.474 -0.0245 -0.4722  0.1423
 6137SOL    HW129870   0.291   1.512  16.452 -2.5021  0.8276  0.1085
 6137SOL    HW229871   0.321   1.625  16.384  3.0744  1.3796  0.3132
 6138SOL     OW29872   2.904   4.159   4.631 -0.1088  0.1757  0.0184
 6138SOL    HW129873   2.917   4.149   4.725 -1.6550  0.2254  0.2357
 6138SOL    HW229874   2.993   4.136   4.603 -0.0049  0.0935  0.4234
 6139SOL     OW29875   4.006   0.603   3.647  0.0650 -0.1115  0.3618
 6139SOL    HW129876   4.012   0.576   3.739  0.8745  1.1594  0.6839
 6139SOL    HW229877   4.088   0.566   3.615 -0.2812 -0.2658 -0.3391
 6140SOL     OW29878   2.516   3.835   9.064  0.1274 -0.7255 -0.5364
 6140SOL    HW129879   2.594   3.883   9.035 -0.6523 -0.6233 -2.4876
 6140SOL    HW229880   2.526   3.839   9.159  1.2681 -0.1550 -0.6788
 6141SOL     OW29881   0.892   3.319   4.413  0.3631  0.8408  0.5527
 6141SOL    HW129882   0.959   3.293   4.477 -2.6966  0.1463  3.5013
 6141SOL    HW229883   0.863   3.402   4.451 -0.5331  1.6990 -2.0242
 6142SOL     OW29884   1.657   2.296  13.417 -0.3119 -0.1727 -0.0679
 6142SOL    HW129885   1.736   2.324  13.463  0.5331  0.0546 -1.6610
 6142SOL    HW229886   1.622   2.228  13.475 -2.4403  0.8662 -0.1151
 6143SOL     OW29887   0.110   0.877   5.057 -0.4572  0.1498  0.2334
 6143SOL    HW129888   0.166   0.869   4.979  1.9113  2.4545  1.6804
 6143SOL    HW229889   0.040   0.936   5.028  1.0058  2.3488  1.1791
 6144SOL     OW29890   0.906   4.507  10.228 -0.2662  0.1254  0.2412
 6144SOL    HW129891   0.960   4.428  10.223 -0.5086 -0.0885  0.9771
 6144SOL    HW229892   0.914   4.517  10.323  1.0695 -0.3251  0.1791
 6145SOL     OW29893   0.247   2.306   5.307 -0.0795  0.0943  0.4689
 6145SOL    HW129894   0.252   2.395   5.274  1.0463  0.8763  2.7695
 6145SOL    HW229895   0.292   2.318   5.390  0.5342  0.1557  0.1236
 6146SOL     OW29896   4.665   4.440   7.272 -0.0870  0.1272 -0.0948
 6146SOL    HW129897   0.030   4.443   7.238  0.2915  2.4660  1.0642
 6146SOL    HW229898   4.614   4.489   7.207 -0.1952 -0.1725 -0.2359
 6147SOL     OW29899   1.851   2.985   6.594 -0.4238  0.3998 -0.2556
 6147SOL    HW129900   1.769   2.986   6.644 -1.1487 -1.0176 -1.4139
 6147SOL    HW229901   1.920   3.002   6.659 -0.7708  2.9211 -0.5579
 6148SOL     OW29902   2.795   0.667   7.087  0.1040 -0.3050  0.2811
 6148SOL    HW129903   2.818   0.680   7.178 -1.1921  1.2656  0.3803
 6148SOL    HW229904   2.863   0.602   7.071  1.6939  0.7000  2.9713
 6149SOL     OW29905   4.175   2.977  16.483 -0.4120 -0.1798 -0.1715
 6149SOL    HW129906   4.178   3.041  16.554  4.2108  0.1289 -0.6720
 6149SOL    HW229907   4.262   2.937  16.481 -0.7180 -0.6939 -2.9960
 6150SOL     OW29908   3.547   4.635  10.124  0.0941 -0.1188 -0.3218
 6150SOL    HW129909   3.486   4.630  10.198  0.7812  0.9018  0.3015
 6150SOL    HW229910   3.623   4.667  10.171 -0.5225  0.6300  0.1627
 6151SOL     OW29911   3.469   3.252   3.824  0.3303  0.5672  0.7488
 6151SOL    HW129912   3.419   3.264   3.744  0.6003 -2.4082  0.1245
 6151SOL    HW229913   3.393   3.265   3.881  0.7877 -0.4389  1.6023
 6152SOL     OW29914   0.585   1.638   8.015  0.3179  0.3473  0.4079
 6152SOL    HW129915   0.526   1.613   8.086  1.8289 -0.1296  1.4945
 6152SOL    HW229916   0.633   1.710   8.055 -1.9851  1.9386  0.3512
 6153SOL     OW29917   2.005   3.375   9.601 -0.2080 -0.3694  0.6989
 6153SOL    HW129918   1.926   3.321   9.609 -1.2706  1.0569 -0.2479
 6153SOL    HW229919   1.957   3.454   9.577  0.2095 -1.5743 -3.9575
 6154SOL     OW29920   2.992   4.427  13.605 -0.0991  0.3889 -0.6793
 6154SOL    HW129921   2.990   4.331  13.610 -0.9783  0.4823  0.7448
 6154SOL    HW229922   3.060   4.454  13.667 -0.5722  3.2506 -1.4166
 6155SOL     OW29923   2.253   4.209  11.525  0.0073  0.1141 -0.1758
 6155SOL    HW129924   2.322   4.229  11.589 -1.0298  0.9418  0.6856
 6155SOL    HW229925   2.299   4.210  11.441  1.8999 -0.7441  0.8196
 6156SOL     OW29926   1.741   1.226   7.255  0.5743 -0.0615  0.2444
 6156SOL    HW129927   1.744   1.131   7.271 -0.0596 -0.4077 -1.5689
 6156SOL    HW229928   1.648   1.233   7.230  0.0629 -2.1776  1.5136
 6157SOL     OW29929   3.771   3.427   3.244  0.4926  0.5007 -0.5139
 6157SOL    HW129930   3.783   3.378   3.325  0.5274 -1.1356 -1.4997
 6157SOL    HW229931   3.676   3.427   3.232  0.5608  0.9258 -1.0370
 6158SOL     OW29932   4.077   2.097  16.039  0.6858  0.1638 -0.1133
 6158SOL    HW129933   4.156   2.097  15.986 -0.0951 -0.3714 -1.2718
 6158SOL    HW229934   4.019   2.155  15.989 -0.6298 -1.1226 -0.0941
 6159SOL     OW29935   3.492   0.964   3.703 -1.0481  0.0459  0.4108
 6159SOL    HW129936   3.528   0.927   3.622 -0.3122  0.9931  0.3067
 6159SOL    HW229937   3.400   0.960   3.677 -0.8581 -1.8489 -0.0161
 6160SOL     OW29938   2.288   2.704   2.608 -0.1478 -0.2744 -0.2259
 6160SOL    HW129939   2.310   2.618   2.573  0.8487 -0.0870 -0.0484
 6160SOL    HW229940   2.230   2.729   2.536  0.5402  0.4858 -0.5100
 6161SOL     OW29941   4.398   1.269  11.408  0.1814  0.6101  0.1301
 6161SOL    HW129942   4.308   1.244  11.429  0.5728 -1.7505 -1.0914
 6161SOL    HW229943   4.455   1.207  11.453 -1.1920 -0.6734  0.0813
 6162SOL     OW29944   3.337   0.413   6.349 -0.3619  0.0362 -0.2379
 6162SOL    HW129945   3.393   0.335   6.355 -1.1948 -0.4303  1.2984
 6162SOL    HW229946   3.337   0.439   6.441  0.5570  0.9595 -0.4963
 6163SOL     OW29947   3.563   0.038  16.230  0.8033 -0.0491  0.1056
 6163SOL    HW129948   3.547   4.684  16.283  1.4913  0.5160  1.1494
 6163SOL    HW229949   3.583   4.711  16.151 -0.3464  0.7459 -0.7021
 6164SOL     OW29950   2.096   3.791  11.909 -0.1504 -0.2585  0.1431
 6164SOL    HW129951   2.004   3.765  11.904 -0.5598  1.1423  0.5336
 6164SOL    HW229952   2.137   3.718  11.862  0.1483  1.1294 -1.7075
 6165SOL     OW29953   0.877   0.989   9.027  0.0444 -0.0732  0.2920
 6165SOL    HW129954   0.813   1.022   9.090  0.2129 -0.3279  0.5969
 6165SOL    HW229955   0.840   1.019   8.944 -0.3642 -3.9443 -0.8920
 6166SOL     OW29956   2.493   1.944   1.792 -0.0534 -1.3531  0.3864
 6166SOL    HW129957   2.485   1.922   1.884  1.7353 -1.3162  0.5445
 6166SOL    HW229958   2.494   1.861   1.744  2.4770 -0.2988 -1.4073
 6167SOL     OW29959   2.432   2.514   6.423  0.0709  0.4439 -0.2895
 6167SOL    HW129960   2.450   2.424   6.449 -0.7273  0.7522  1.2701
 6167SOL    HW229961   2.461   2.563   6.500 -2.3176  0.1304  0.7841
 6168SOL     OW29962   3.030   4.236  10.063 -0.3030 -0.4055 -0.1153
 6168SOL    HW129963   3.080   4.236  10.145  1.8194 -3.0011 -1.4085
 6168SOL    HW229964   2.948   4.196  10.092 -0.3905 -0.2404 -0.1359
 6169SOL     OW29965   1.516   3.576   7.775  0.1245 -0.3500 -0.1580
 6169SOL    HW129966   1.579   3.599   7.843 -0.2189 -2.4246  0.8894
 6169SOL    HW229967   1.525   3.481   7.780  1.1566 -0.3189 -1.5075
 6170SOL     OW29968   3.769   2.252   7.690  0.6226  0.1990  0.4605
 6170SOL    HW129969   3.854   2.208   7.698  0.6803  0.1197 -0.5699
 6170SOL    HW229970   3.795   2.343   7.674  0.0752  0.0005 -1.5611
 6171SOL     OW29971   4.224   2.598   7.852  0.2837  0.1365 -0.6009
 6171SOL    HW129972   4.315   2.626   7.847  0.3442 -0.0577 -0.5921
 6171SOL    HW229973   4.230   2.503   7.847  3.0326  0.1460  2.4897
 6172SOL     OW29974   0.874   0.329   4.540 -0.2420 -0.3990 -0.0581
 6172SOL    HW129975   0.898   0.333   4.448 -1.6074 -1.1315 -0.4344
 6172SOL    HW229976   0.782   0.353   4.540  0.0674  0.6978 -3.5561
 6173SOL     OW29977   3.093   0.184   8.187 -0.1914  0.1132 -0.5563
 6173SOL    HW129978   3.088   0.249   8.257  0.0255 -3.0704  2.4551
 6173SOL    HW229979   3.004   0.149   8.181 -0.2354  0.0772  0.3228
 6174SOL     OW29980   3.764   0.850   4.633 -0.1907  0.3656 -0.1616
 6174SOL    HW129981   3.737   0.758   4.631  1.1960 -0.0551  0.1176
 6174SOL    HW229982   3.754   0.881   4.543 -1.2609 -3.1443 -1.2452
 6175SOL     OW29983   3.379   1.952   3.603 -0.2880 -0.0411 -0.7453
 6175SOL    HW129984   3.301   1.905   3.575  0.3643 -0.2474 -2.2131
 6175SOL    HW229985   3.381   2.010   3.527 -0.4752  0.4358 -0.3859
 6176SOL     OW29986   2.499   2.665   4.412  0.2569  0.1607  0.4551
 6176SOL    HW129987   2.464   2.580   4.387 -0.6860  0.5411  0.4953
 6176SOL    HW229988   2.446   2.724   4.360  0.5079 -3.4459 -3.9095
 6177SOL     OW29989   1.095   0.775  17.312  0.3123 -0.0598 -0.0015
 6177SOL    HW129990   1.019   0.783  17.255 -0.0595  0.5638  0.5899
 6177SOL    HW229991   1.075   0.698  17.365 -1.9993  0.3569 -0.2920
 6178SOL     OW29992   1.676   1.270  15.415  0.4099 -0.6005 -0.1002
 6178SOL    HW129993   1.595   1.249  15.462  0.4670 -0.1828  0.1887
 6178SOL    HW229994   1.692   1.362  15.438  1.7015 -0.4261 -1.6794
 6179SOL     OW29995   1.083   3.091   6.207  0.0189  0.2221  1.1225
 6179SOL    HW129996   1.069   3.073   6.114 -1.9471  0.8790  1.2816
 6179SOL    HW229997   1.070   3.003   6.244  1.2992  0.7668  2.8524
 6180SOL     OW29998   1.446   0.373   7.044  0.2114 -0.1520  0.0731
 6180SOL    HW129999   1.475   0.368   6.952 -0.0875 -2.1860  0.0978
 6180SOL    HW230000   1.353   0.354   7.035  0.0538  0.7600 -0.2259
 6181SOL     OW30001   4.617   0.372   2.597  0.5195  0.5222  0.1307
 6181SOL    HW130002   4.601   0.279   2.613  0.8239  0.3888 -0.3571
 6181SOL    HW230003   4.696   0.391   2.647  1.2712  0.0837 -0.9093
 6182SOL     OW30004   1.845   4.208  13.095 -0.1810 -0.3678  0.1140
 6182SOL    HW130005   1.913   4.218  13.161 -0.2620 -1.3508  0.3389
 6182SOL    HW230006   1.848   4.298  13.061 -1.0633  0.0556  1.1929
 6183SOL     OW30007   2.589   1.344   6.574 -0.5330 -0.9189 -0.1577
 6183SOL    HW130008   2.633   1.428   6.589  2.7719 -3.0456  2.1280
 6183SOL    HW230009   2.504   1.378   6.546  1.0496  1.8502 -1.6020
 6184SOL     OW30010   0.357   2.196   9.802 -0.4057 -0.6398 -0.1346
 6184SOL    HW130011   0.359   2.281   9.757  0.8427 -0.3109  0.5430
 6184SOL    HW230012   0.446   2.175   9.775  0.1175  1.0002  0.2812
 6185SOL     OW30013   3.696   3.909   8.108 -0.7649 -0.0117 -0.1663
 6185SOL    HW130014   3.676   3.905   8.202  0.9807 -0.0782  0.2011
 6185SOL    HW230015   3.627   3.863   8.060  0.8099 -0.3455 -2.1072
 6186SOL     OW30016   0.884   2.548   4.353  0.6054 -0.3733 -0.4555
 6186SOL    HW130017   0.863   2.461   4.319 -0.8687 -0.2449  0.0976
 6186SOL    HW230018   0.837   2.608   4.294  2.3170  0.6023 -0.8224
 6187SOL     OW30019   0.342   3.883   5.260  0.3584 -0.8177  0.6932
 6187SOL    HW130020   0.407   3.872   5.192 -0.6081  1.2967 -0.5826
 6187SOL    HW230021   0.350   3.977   5.277  1.5383 -0.9584  0.9139
 6188SOL     OW30022   2.816   2.718   2.381  0.0831 -0.4725 -0.0652
 6188SOL    HW130023   2.816   2.655   2.453 -0.3442  2.3075  2.3719
 6188SOL    HW230024   2.825   2.802   2.426  2.1299 -0.7701  0.0928
 6189SOL     OW30025   3.399   2.935   5.026  0.5904  0.4136  0.2105
 6189SOL    HW130026   3.393   2.862   4.964 -1.5575  1.4886 -0.8649
 6189SOL    HW230027   3.456   2.995   4.978  0.1382  1.5418  1.0765
 6190SOL     OW30028   1.223   3.271  12.904  0.2827 -0.3807  0.3946
 6190SOL    HW130029   1.310   3.237  12.881  1.0679  1.4102  0.6820
 6190SOL    HW230030   1.242   3.364  12.920 -0.4710 -0.0933 -0.3426
 6191SOL     OW30031   1.501   2.558  12.307  0.1003 -0.1323  0.3853
 6191SOL    HW130032   1.536   2.622  12.244 -1.0563  2.0118  1.9044
 6191SOL    HW230033   1.409   2.570  12.281  0.2748 -2.8114 -1.5180
 6192SOL     OW30034   1.152   0.645   8.651  0.0964  1.0839  0.2293
 6192SOL    HW130035   1.098   0.697   8.591  0.0113  1.6733  0.8169
 6192SOL    HW230036   1.093   0.574   8.674  0.7281 -0.1226 -1.8232
 6193SOL     OW30037   3.647   1.359   5.330  0.0560  0.4096  0.6048
 6193SOL    HW130038   3.632   1.279   5.381 -2.6457  1.2129  1.0933
 6193SOL    HW230039   3.741   1.378   5.330 -0.2437  1.8599 -2.8219
 6194SOL     OW30040   2.568   1.624   4.292  0.1954 -0.7230 -0.0374
 6194SOL    HW130041   2.640   1.599   4.234  0.7382  0.9494 -0.0822
 6194SOL    HW230042   2.583   1.717   4.308 -0.1979 -0.5537 -0.6241
 6195SOL     OW30043   0.033   2.175   9.391 -0.3645  0.1635 -0.1501
 6195SOL    HW130044   0.002   2.208   9.476 -1.4744 -0.2081 -0.4137
 6195SOL    HW230045   0.112   2.223   9.365  0.8983 -0.6105  2.2050
 6196SOL     OW30046   2.684   3.073   3.866 -0.1252 -1.3542  0.6805
 6196SOL    HW130047   2.676   3.097   3.774 -0.6785 -1.4031  0.7149
 6196SOL    HW230048   2.599   3.044   3.899 -0.7121 -0.0781  0.2648
 6197SOL     OW30049   2.372   2.633   4.765 -0.0165 -0.0585 -0.2028
 6197SOL    HW130050   2.409   2.681   4.690 -2.2877  3.2932  0.8227
 6197SOL    HW230051   2.417   2.549   4.753 -2.2373 -1.4229  1.0072
 6198SOL     OW30052   4.681   2.445   5.437  0.0510 -0.1060  0.2459
 6198SOL    HW130053   4.689   2.364   5.488  0.4270 -1.6871 -2.2737
 6198SOL    HW230054   4.669   2.407   5.350  0.1058 -0.2373  0.2955
 6199SOL     OW30055   4.214   2.549   8.300 -0.2521  0.3039 -0.4104
 6199SOL    HW130056   4.174   2.500   8.372  1.5138  2.3973  1.9881
 6199SOL    HW230057   4.133   2.563   8.251 -1.3226 -2.6488  0.5238
 6200SOL     OW30058   3.050   1.805  10.624 -0.5074 -0.4038  0.3606
 6200SOL    HW130059   2.978   1.855  10.663 -0.1242  0.3237  0.1360
 6200SOL    HW230060   3.110   1.803  10.699 -0.9796 -0.2296  0.7439
 6201SOL     OW30061   0.984   0.341   0.470  0.0546 -0.2309  0.0013
 6201SOL    HW130062   0.903   0.336   0.418  0.7636 -0.1310 -1.1132
 6201SOL    HW230063   0.966   0.428   0.507 -0.3569 -0.3229  0.0161
 6202SOL     OW30064   1.125   0.800   6.421  0.2024 -0.4943 -0.4308
 6202SOL    HW130065   1.179   0.734   6.464 -1.6964 -1.4265  0.5376
 6202SOL    HW230066   1.187   0.873   6.419 -0.8484  0.3575 -1.5923
 6203SOL     OW30067   4.054   3.588   9.865 -0.0570  0.0007 -0.4200
 6203SOL    HW130068   4.124   3.555   9.922 -0.0562 -2.1902 -1.6829
 6203SOL    HW230069   4.091   3.677   9.861  0.7174 -0.2659  0.8359
 6204SOL     OW30070   4.621   1.388  13.636 -0.0062 -0.3144  0.4940
 6204SOL    HW130071   4.538   1.418  13.598 -0.0642 -1.4070 -0.2558
 6204SOL    HW230072   4.669   1.470  13.636  1.6575 -1.2849  0.3948
 6205SOL     OW30073   4.566   4.012   9.011  0.0235 -0.4476 -0.1965
 6205SOL    HW130074   4.492   4.037   9.066  0.0363  2.1657 -1.3656
 6205SOL    HW230075   4.602   3.948   9.072  1.3398  1.1879  0.7708
 6206SOL     OW30076   4.220   2.205   3.504 -0.1356  0.2289  0.3091
 6206SOL    HW130077   4.268   2.190   3.423  0.3912 -0.5195  0.7662
 6206SOL    HW230078   4.272   2.153   3.565  0.0816 -0.3438 -0.3646
 6207SOL     OW30079   0.812   3.390   5.486 -0.3370 -0.4792 -0.0989
 6207SOL    HW130080   0.820   3.295   5.487  0.2176 -0.4182  0.7570
 6207SOL    HW230081   0.748   3.419   5.421 -1.9411 -2.1050  0.7294
 6208SOL     OW30082   2.700   1.957   7.239 -0.1097 -0.0790  0.6092
 6208SOL    HW130083   2.672   1.917   7.157 -1.2133 -0.2403  1.0734
 6208SOL    HW230084   2.620   2.003   7.261 -0.8015 -0.5530 -0.9370
 6209SOL     OW30085   3.227   0.047   6.593  0.5304  0.3676 -0.9088
 6209SOL    HW130086   3.158   0.110   6.611 -1.3734 -1.6685 -1.0447
 6209SOL    HW230087   3.307   0.098   6.610  0.0474  0.1418  2.0281
 6210SOL     OW30088   1.082   3.484   5.516 -0.1408  0.3280 -0.2809
 6210SOL    HW130089   1.003   3.433   5.497  0.9411 -0.9128 -1.4975
 6210SOL    HW230090   1.111   3.441   5.596 -0.2262  3.9348  1.6898
 6211SOL     OW30091   4.203   4.488  16.694  0.3164  0.6807  0.0764
 6211SOL    HW130092   4.281   4.434  16.686 -1.4795 -1.9175  0.2553
 6211SOL    HW230093   4.219   4.553  16.625 -1.9199  0.2776 -0.8232
 6212SOL     OW30094   0.349   1.794   0.743  0.9543 -0.1770 -0.1227
 6212SOL    HW130095   0.276   1.856   0.754  0.7260 -0.2217 -1.3765
 6212SOL    HW230096   0.409   1.820   0.813  1.3311 -0.4481 -0.3495
 6213SOL     OW30097   1.568   0.580   4.262 -0.4335 -0.0442 -0.4305
 6213SOL    HW130098   1.504   0.651   4.259  1.0070  1.1012 -3.8157
 6213SOL    HW230099   1.644   0.621   4.221 -0.6973 -0.5140 -1.3855
 6214SOL     OW30100   1.517   3.276   3.344 -1.2782  0.2241  0.2839
 6214SOL    HW130101   1.537   3.279   3.438 -2.5204 -1.7610  0.6350
 6214SOL    HW230102   1.423   3.259   3.343 -1.4215  0.9211  1.6654
 6215SOL     OW30103   1.678   2.047  17.007 -0.3649  0.0122 -0.0786
 6215SOL    HW130104   1.769   2.046  16.976 -0.7900 -0.4983 -1.3068
 6215SOL    HW230105   1.664   2.127  17.057 -1.6710  0.8195 -1.7332
 6216SOL     OW30106   0.715   4.692  17.431  0.2612 -0.6373 -0.1829
 6216SOL    HW130107   0.628   4.653  17.438  0.1326 -0.4281 -0.6743
 6216SOL    HW230108   0.747   4.603  17.445  1.8972  0.2994  1.9881
 6217SOL     OW30109   4.501   3.129   1.377 -0.3668 -0.5445 -0.2338
 6217SOL    HW130110   4.436   3.184   1.334 -0.3163 -0.1736  0.1625
 6217SOL    HW230111   4.494   3.131   1.472  0.3628  1.5865 -0.2115
 6218SOL     OW30112   2.140   3.714   6.006 -0.6122  0.4866  0.3865
 6218SOL    HW130113   2.052   3.747   5.989 -1.1162 -0.8915  0.3641
 6218SOL    HW230114   2.186   3.784   6.052 -0.5703 -0.2665  1.4773
 6219SOL     OW30115   1.043   2.826  17.571 -0.4358  0.0368  0.1477
 6219SOL    HW130116   1.109   2.872  17.520 -0.4020 -1.0704 -0.8232
 6219SOL    HW230117   1.035   2.750  17.513  0.0551 -1.0710  1.5149
 6220SOL     OW30118   0.994   3.562   7.970  0.0731 -0.3178 -0.2308
 6220SOL    HW130119   1.001   3.581   8.063  1.8369 -2.3651  0.0320
 6220SOL    HW230120   1.079   3.584   7.933 -0.3556 -0.6120 -1.4063
 6221SOL     OW30121   3.315   0.272   8.078  0.2254 -0.1995 -0.1028
 6221SOL    HW130122   3.383   0.215   8.114 -0.5757 -0.3602  1.1584
 6221SOL    HW230123   3.239   0.216   8.094 -0.4575  0.2917 -1.6053
 6222SOL     OW30124   2.849   0.064   4.529 -0.8835 -0.1000 -0.6204
 6222SOL    HW130125   2.777   0.017   4.487 -0.5523 -0.9184 -0.2772
 6222SOL    HW230126   2.922   0.003   4.523 -1.3491 -0.7192 -0.0282
 6223SOL     OW30127   2.530   4.498  11.780 -0.2687 -0.0139 -0.1216
 6223SOL    HW130128   2.499   4.415  11.744 -0.7612  1.2469 -2.6021
 6223SOL    HW230129   2.447   4.543  11.793 -0.7769 -1.0600  0.1813
 6224SOL     OW30130   0.640   1.105   1.450 -0.1076  0.1927  0.1790
 6224SOL    HW130131   0.549   1.077   1.445 -0.1438 -0.0178  2.0291
 6224SOL    HW230132   0.660   1.144   1.365  0.8921 -3.3193 -1.1875
 6225SOL     OW30133   2.358   4.546   2.593  0.1619 -0.0933 -0.2234
 6225SOL    HW130134   2.419   4.569   2.523  0.3346  0.4966  0.1177
 6225SOL    HW230135   2.370   4.451   2.594 -1.1093 -0.2701 -1.2097
 6226SOL     OW30136   2.385   3.424   4.410 -0.5815  0.1985 -0.0775
 6226SOL    HW130137   2.295   3.401   4.433 -0.3777  0.7314  1.2912
 6226SOL    HW230138   2.380   3.438   4.316 -2.8075  0.3060  0.0543
 6227SOL     OW30139   4.669   2.371   1.464 -0.4102 -0.6275  0.1238
 6227SOL    HW130140   4.581   2.337   1.452  0.0798 -2.0347  0.4807
 6227SOL    HW230141   4.697   2.393   1.375 -0.6364 -1.2178 -0.0961
 6228SOL     OW30142   4.568   2.827   6.356 -0.1658 -0.4011 -0.1991
 6228SOL    HW130143   4.535   2.861   6.439  3.3960  1.4718  0.4488
 6228SOL    HW230144   4.510   2.862   6.289 -1.3037 -1.6067  0.1612
 6229SOL     OW30145   1.459   4.568   7.184 -0.1206 -0.1237 -0.6052
 6229SOL    HW130146   1.427   4.625   7.114  1.3725  1.8988  0.3521
 6229SOL    HW230147   1.536   4.614   7.218 -1.7126  2.1029  0.0121
 6230SOL     OW30148   0.268   1.443  13.137 -0.1168  0.2256  0.0694
 6230SOL    HW130149   0.184   1.481  13.164 -0.4510  0.6291 -1.5303
 6230SOL    HW230150   0.295   1.368  13.191 -1.5296  0.6242  1.3297
 6231SOL     OW30151   0.972   2.069   5.510  0.1557  0.1630  0.7679
 6231SOL    HW130152   0.898   2.034   5.460  1.6896  1.2521 -2.2641
 6231SOL    HW230153   0.944   2.160   5.522  1.2971  0.5217  0.7377
 6232SOL     OW30154   3.402   0.282   4.894  0.1136 -0.0824  0.1110
 6232SOL    HW130155   3.491   0.270   4.927 -0.4940  0.8105  2.0562
 6232SOL    HW230156   3.386   0.195   4.857  2.3662 -0.9736  1.2307
 6233SOL     OW30157   4.021   0.831   7.320  0.2105  0.2197 -0.0264
 6233SOL    HW130158   4.075   0.909   7.319 -0.0570  0.4554  3.2237
 6233SOL    HW230159   4.043   0.808   7.229  0.8152 -0.0859  0.1944
 6234SOL     OW30160   2.230   2.817   4.915  0.4252 -0.3305 -0.0957
 6234SOL    HW130161   2.303   2.874   4.941  0.5833 -0.6037  0.0635
 6234SOL    HW230162   2.272   2.755   4.854  0.7846 -0.3128  0.1323
 6235SOL     OW30163   2.197   4.386  15.036  0.0780  0.1101  0.3649
 6235SOL    HW130164   2.239   4.406  14.952  1.1542 -1.7236  0.4665
 6235SOL    HW230165   2.275   4.373  15.089  0.1923 -0.1974  0.1252
 6236SOL     OW30166   2.405   4.056   1.167  0.2356 -0.1425  0.0941
 6236SOL    HW130167   2.489   4.020   1.196  0.6099  1.5559  1.1021
 6236SOL    HW230168   2.440   4.134   1.124 -0.7749  0.8720  1.1467
 6237SOL     OW30169   0.335   2.249   1.566 -0.5841  0.2263 -0.3787
 6237SOL    HW130170   0.318   2.342   1.578 -2.4291 -0.4387  2.1151
 6237SOL    HW230171   0.358   2.250   1.473 -1.8801 -0.6564 -0.7150
 6238SOL     OW30172   2.222   1.715   2.249 -0.3285  0.6756 -0.5341
 6238SOL    HW130173   2.308   1.682   2.224  0.3125 -0.6693  3.4765
 6238SOL    HW230174   2.171   1.642   2.285  0.5191  0.1214 -0.4443
 6239SOL     OW30175   3.819   2.554   3.792 -0.1976  0.0586  0.1733
 6239SOL    HW130176   3.846   2.537   3.882 -0.0546 -0.1904  0.0831
 6239SOL    HW230177   3.724   2.559   3.804  0.1435  1.6181  2.2569
 6240SOL     OW30178   1.746   1.659  10.453 -0.1189  0.4352  0.7573
 6240SOL    HW130179   1.735   1.669  10.548  0.0434 -0.2015  0.8456
 6240SOL    HW230180   1.726   1.749  10.428  2.4114  1.7948  3.5216
 6241SOL     OW30181   2.725   3.518   7.135 -0.6182 -0.0937 -0.1521
 6241SOL    HW130182   2.713   3.581   7.206 -1.2945 -0.2611 -0.1213
 6241SOL    HW230183   2.819   3.528   7.123 -0.5850  1.2426  1.2137
 6242SOL     OW30184   3.501   3.364   7.817  0.2262  0.2566 -0.4772
 6242SOL    HW130185   3.478   3.413   7.896 -1.3072 -0.1851 -0.6531
 6242SOL    HW230186   3.543   3.287   7.853 -1.2738 -1.7554 -3.0250
 6243SOL     OW30187   1.144   1.198   1.311  0.2315 -0.2637 -0.0451
 6243SOL    HW130188   1.177   1.134   1.375 -1.0226  0.0385  0.9033
 6243SOL    HW230189   1.120   1.143   1.236 -2.5566  1.8772 -0.7467
 6244SOL     OW30190   2.505   1.996   6.347 -0.1282  0.3789 -0.8103
 6244SOL    HW130191   2.442   2.046   6.399  0.5410  2.2403 -1.7984
 6244SOL    HW230192   2.578   2.058   6.344  2.1420 -2.2800 -0.2781
 6245SOL     OW30193   0.530   1.632   7.499  0.3213 -0.0230  0.1668
 6245SOL    HW130194   0.547   1.601   7.588 -1.0805 -1.1068  0.0642
 6245SOL    HW230195   0.588   1.571   7.454  1.1978  0.3830  0.7472
 6246SOL     OW30196   2.230   4.327  13.983  0.1603  0.6206  0.1945
 6246SOL    HW130197   2.219   4.251  14.041 -0.9419 -0.8763 -1.9645
 6246SOL    HW230198   2.164   4.383  14.024 -0.5273  0.5778 -0.8458
 6247SOL     OW30199   1.682   1.507   5.997 -0.3718  0.5007 -0.1217
 6247SOL    HW130200   1.732   1.459   5.931 -1.6757 -3.0309  1.5043
 6247SOL    HW230201   1.595   1.468   6.006 -1.0908  1.4776 -2.8942
 6248SOL     OW30202   1.019   1.013   7.909  0.5385  0.0304 -0.2168
 6248SOL    HW130203   1.088   1.063   7.865 -1.4481  0.5582 -2.6999
 6248SOL    HW230204   1.074   0.984   7.982 -0.7166 -0.0814  0.6746
 6249SOL     OW30205   1.493   3.616   2.991 -0.3788 -0.4572 -0.7089
 6249SOL    HW130206   1.410   3.630   3.037 -0.6117 -0.4919 -1.1225
 6249SOL    HW230207   1.504   3.710   2.978 -1.5037 -0.4737 -1.7039
 6250SOL     OW30208   3.555   3.428  14.854 -0.2662 -0.4377  0.4140
 6250SOL    HW130209   3.536   3.389  14.939 -2.0271  1.7019  1.0125
 6250SOL    HW230210   3.494   3.502  14.849 -0.4224 -0.3443  3.6931
 6251SOL     OW30211   2.498   1.230   7.517  0.0142  1.0440 -0.0642
 6251SOL    HW130212   2.531   1.276   7.440 -1.0821 -1.7090 -2.1202
 6251SOL    HW230213   2.570   1.268   7.569  1.2212 -1.9263  0.4426
 6252SOL     OW30214   0.179   2.133  15.045 -0.2630  0.3612 -0.5140
 6252SOL    HW130215   0.210   2.084  14.969 -2.1787 -1.7197  0.0286
 6252SOL    HW230216   0.114   2.074  15.085 -0.8335  0.1937 -1.6883
 6253SOL     OW30217   4.390   1.654   3.526  0.3077  0.2099 -0.4359
 6253SOL    HW130218   4.308   1.666   3.478 -0.0681  0.4002  0.2624
 6253SOL    HW230219   4.406   1.741   3.562  0.1080 -0.4268  1.1845
 6254SOL     OW30220   1.566   0.163   8.168 -0.4970 -0.5205 -0.5812
 6254SOL    HW130221   1.653   0.178   8.132  0.4393  1.7267  2.6015
 6254SOL    HW230222   1.545   0.243   8.215 -1.1190 -1.6753  1.1303
 6255SOL     OW30223   2.929   0.716   0.039  0.5440  0.5253 -0.5136
 6255SOL    HW130224   2.856   0.689  17.681  1.1550  1.1015 -1.5998
 6255SOL    HW230225   2.885   0.693   0.121 -0.9571 -0.0074 -1.4613
 6256SOL     OW30226   2.946   1.381  12.357  0.2064  0.1142 -0.0103
 6256SOL    HW130227   2.893   1.430  12.419  1.1041 -0.4653  1.2151
 6256SOL    HW230228   3.035   1.398  12.386 -0.0622  1.6424 -0.0727
 6257SOL     OW30229   0.167   4.386   8.677  0.4166 -0.6476  0.1365
 6257SOL    HW130230   0.244   4.342   8.641 -0.0016 -1.4373  0.2066
 6257SOL    HW230231   0.174   4.376   8.772 -2.6515  1.9999  0.6228
 6258SOL     OW30232   0.418   3.154  15.978 -0.0945  0.1669 -0.2774
 6258SOL    HW130233   0.333   3.136  16.018  0.5121  1.4088  1.6044
 6258SOL    HW230234   0.387   3.216  15.912  0.0152 -1.5478 -1.9056
 6259SOL     OW30235   4.552   0.054   8.562  0.2177  0.7980  0.4302
 6259SOL    HW130236   4.616   0.044   8.491 -1.0235 -1.4322 -0.3832
 6259SOL    HW230237   4.548   4.684   8.581  2.8169  0.8688  1.3525
 6260SOL     OW30238   2.176   1.973   4.088 -0.1732 -0.0403  0.5957
 6260SOL    HW130239   2.120   1.908   4.129  1.1419 -1.5230  0.0576
 6260SOL    HW230240   2.157   2.049   4.143  1.4147 -0.0618  1.1946
 6261SOL     OW30241   2.323   4.475   5.688  1.1740 -0.5361 -0.1800
 6261SOL    HW130242   2.402   4.477   5.634  0.5871  1.8914 -0.9411
 6261SOL    HW230243   2.356   4.517   5.768  1.8430 -1.6087  0.1146
 6262SOL     OW30244   0.947   4.497  15.843 -0.2537  0.0452 -0.0694
 6262SOL    HW130245   1.004   4.550  15.900 -0.6654  0.5843 -0.1622
 6262SOL    HW230246   1.004   4.451  15.781  0.0732  0.8352 -0.3538
 6263SOL     OW30247   2.054   3.972  13.533 -0.0373  0.4278 -0.2643
 6263SOL    HW130248   2.026   4.023  13.609  0.7950  0.4774  0.0193
 6263SOL    HW230249   2.076   3.892  13.581  2.4648 -0.1511 -2.3383
 6264SOL     OW30250   3.155   3.030   6.390  0.6624  0.1196 -0.6703
 6264SOL    HW130251   3.060   3.028   6.378  0.7368 -1.0420 -0.9945
 6264SOL    HW230252   3.172   2.936   6.388 -1.7741 -0.2969 -1.3343
 6265SOL     OW30253   0.047   4.141   0.036 -0.0673 -0.1739  0.1524
 6265SOL    HW130254   0.067   4.050   0.013  0.9692 -0.0758  0.6967
 6265SOL    HW230255   0.126   4.189   0.011  0.5219 -0.3937  1.6327
 6266SOL     OW30256   1.711   2.791   3.667 -0.1963 -0.1690  0.4171
 6266SOL    HW130257   1.782   2.768   3.607  0.1900 -2.1469  1.6444
 6266SOL    HW230258   1.684   2.701   3.685 -2.1972  0.1960 -0.8475
 6267SOL     OW30259   2.821   1.589   5.544  0.2498  0.4499  0.4900
 6267SOL    HW130260   2.891   1.647   5.514  0.6583  0.3099  1.1832
 6267SOL    HW230261   2.866   1.515   5.503  2.2546  3.0402 -2.0240
 6268SOL     OW30262   4.522   0.794   1.852 -0.2455 -0.1251  0.0304
 6268SOL    HW130263   4.564   0.709   1.865 -2.0357 -1.0847 -0.4664
 6268SOL    HW230264   4.481   0.782   1.766  0.8782 -2.7066 -0.1506
 6269SOL     OW30265   1.097   1.710  10.852 -0.1105  0.0042 -0.2970
 6269SOL    HW130266   1.054   1.637  10.896  0.9923  0.2139  1.1101
 6269SOL    HW230267   1.096   1.775  10.922  0.6813  1.0067 -1.2044
 6270SOL     OW30268   3.545   1.890   8.468  0.0706 -0.5938 -0.2734
 6270SOL    HW130269   3.538   1.896   8.563  0.2863  1.6678 -0.3905
 6270SOL    HW230270   3.482   1.820   8.450 -1.9962  0.7912  1.5823
 6271SOL     OW30271   1.696   0.530   0.091  0.1245  0.1866  0.0713
 6271SOL    HW130272   1.641   0.589   0.039 -0.3560 -1.3258 -1.1343
 6271SOL    HW230273   1.725   0.592   0.157 -2.5284  1.7213 -0.1812
 6272SOL     OW30274   2.202   2.055  12.502 -0.3687  0.2574  0.0278
 6272SOL    HW130275   2.177   2.148  12.506 -3.2053 -0.5402  0.9687
 6272SOL    HW230276   2.297   2.053  12.499 -0.3701  0.4059 -0.1116
 6273SOL     OW30277   2.022   2.196  11.502  0.1073 -0.4095 -0.3633
 6273SOL    HW130278   1.980   2.178  11.586  0.4600 -4.3120 -1.0461
 6273SOL    HW230279   2.097   2.137  11.508 -0.7629 -1.5999 -1.1837
 6274SOL     OW30280   1.822   0.971   7.283 -0.0954  0.5658 -1.1597
 6274SOL    HW130281   1.793   0.920   7.207  1.2238  0.4521 -1.5859
 6274SOL    HW230282   1.917   0.968   7.267 -0.4687  1.2630 -3.5012
 6275SOL     OW30283   2.669   0.085  12.719 -0.1112  0.1022  0.0548
 6275SOL    HW130284   2.602   0.103  12.653 -0.8948  0.0919  0.8392
 6275SOL    HW230285   2.751   0.105  12.675  0.6017 -1.9747  0.4395
 6276SOL     OW30286   3.118   2.171  11.014 -0.6297 -0.2722 -0.7954
 6276SOL    HW130287   3.146   2.251  10.971  1.9329 -1.2908 -1.0000
 6276SOL    HW230288   3.126   2.204  11.104 -1.7651 -0.5201 -0.6025
 6277SOL     OW30289   3.469   4.310  11.167  0.1078  0.8558  0.4300
 6277SOL    HW130290   3.466   4.300  11.071 -2.7707  3.2476  0.2725
 6277SOL    HW230291   3.559   4.290  11.194  0.3548  0.1205 -0.9421
 6278SOL     OW30292   1.261   0.201   8.061  0.1177  0.1492 -0.1081
 6278SOL    HW130293   1.341   0.151   8.076 -0.1722  0.0157  1.0146
 6278SOL    HW230294   1.303   0.286   8.079  0.7311  0.1130 -1.3859
 6279SOL     OW30295   4.665   0.203   6.744 -0.4708 -0.4041  0.3223
 6279SOL    HW130296   0.014   0.243   6.697  1.5046 -1.9322  2.1276
 6279SOL    HW230297   4.603   0.164   6.682 -0.3651  2.3571 -1.5080
 6280SOL     OW30298   2.498   1.393   8.338  0.3619  0.4879 -0.6867
 6280SOL    HW130299   2.405   1.385   8.355  0.4918 -1.2833 -0.7371
 6280SOL    HW230300   2.526   1.301   8.340 -2.3243 -0.3628 -2.4636
 6281SOL     OW30301   1.509   2.253   1.139  0.2037 -0.0051  0.3064
 6281SOL    HW130302   1.504   2.229   1.046 -0.8900 -1.1104  0.6363
 6281SOL    HW230303   1.415   2.246   1.159 -0.6140  2.2437 -2.8449
 6282SOL     OW30304   4.377   0.670   7.567  0.4505  0.0788 -0.2216
 6282SOL    HW130305   4.395   0.759   7.599 -0.9175 -0.5281  2.2392
 6282SOL    HW230306   4.347   0.626   7.646 -0.4948 -1.0955 -1.2286
 6283SOL     OW30307   0.043   3.695   9.287  0.9008  0.2861  0.5670
 6283SOL    HW130308   0.086   3.779   9.272 -0.7533  0.6713 -2.0632
 6283SOL    HW230309   0.063   3.681   9.380  1.0596  2.5502  0.8610
 6284SOL     OW30310   1.634   4.218  15.460 -0.0202 -0.0606  0.1170
 6284SOL    HW130311   1.662   4.165  15.385 -1.5959 -1.3919  0.4679
 6284SOL    HW230312   1.678   4.300  15.434 -1.9312  0.3191 -1.9768
 6285SOL     OW30313   2.446   1.344   3.566 -0.4478 -0.0414 -0.1091
 6285SOL    HW130314   2.390   1.269   3.545  1.0979 -1.1898 -0.0747
 6285SOL    HW230315   2.440   1.335   3.661 -0.3411 -0.8259 -0.1752
 6286SOL     OW30316   3.186   0.377   6.843 -0.3983 -0.2199  0.1388
 6286SOL    HW130317   3.263   0.327   6.869  0.1232  0.0584 -0.8447
 6286SOL    HW230318   3.135   0.311   6.797 -0.9152 -0.2713  0.7978
 6287SOL     OW30319   2.878   3.478   3.681  0.5160  0.3903 -0.0501
 6287SOL    HW130320   2.811   3.419   3.646  0.7589  0.8574 -1.2750
 6287SOL    HW230321   2.828   3.518   3.753 -0.2142  1.6143 -1.2309
 6288SOL     OW30322   2.100   1.993  12.007  0.1938 -0.1422 -0.2328
 6288SOL    HW130323   2.007   2.010  12.021  0.8104  1.8156  1.3792
 6288SOL    HW230324   2.120   1.899  12.002  0.3273 -0.0886 -0.7067
 6289SOL     OW30325   4.352   1.832   2.230 -0.6847 -0.7333  0.2990
 6289SOL    HW130326   4.411   1.887   2.282 -0.5376  0.6784 -1.3473
 6289SOL    HW230327   4.421   1.784   2.186  0.6209  1.3166  0.0881
 6290SOL     OW30328   0.396   3.350   3.996  0.4133 -0.2339 -0.4619
 6290SOL    HW130329   0.331   3.372   3.930  0.4478 -1.3648 -0.8625
 6290SOL    HW230330   0.433   3.437   4.013  0.5021 -0.2363 -0.6509
 6291SOL     OW30331   0.760   1.499  15.221 -0.3996 -0.4506 -0.2539
 6291SOL    HW130332   0.845   1.490  15.178 -0.1199 -3.9030  1.0539
 6291SOL    HW230333   0.740   1.427  15.281 -1.0476 -0.6411 -0.7125
 6292SOL     OW30334   3.845   0.148   2.755 -0.2632  0.0926 -0.6262
 6292SOL    HW130335   3.826   0.137   2.662 -0.0168  0.3991 -0.7118
 6292SOL    HW230336   3.940   0.147   2.750 -0.1725  2.5111  0.3374
 6293SOL     OW30337   4.686   2.421   6.420 -0.1612 -0.5016 -0.7299
 6293SOL    HW130338   0.036   2.394   6.365 -0.4190  0.7071 -1.6666
 6293SOL    HW230339   0.001   2.398   6.505  0.1381  1.7529 -0.2560
 6294SOL     OW30340   4.660   3.221  10.347 -0.4282 -0.1398 -0.0986
 6294SOL    HW130341   4.710   3.168  10.408 -0.7989 -1.2065 -0.7160
 6294SOL    HW230342   4.611   3.274  10.410  1.8654 -1.1280  2.4967
 6295SOL     OW30343   0.926   3.533   1.265  0.7607 -0.1543 -0.0443
 6295SOL    HW130344   0.847   3.480   1.273 -0.2993  1.3559 -0.6967
 6295SOL    HW230345   0.898   3.623   1.282  0.1451 -0.7953  2.3952
 6296SOL     OW30346   4.472   2.206   2.986 -0.4777  0.1662  0.4104
 6296SOL    HW130347   4.464   2.126   2.935  1.2021 -0.5383  1.2688
 6296SOL    HW230348   4.566   2.213   3.002 -0.1378  0.4229 -1.6828
 6297SOL     OW30349   3.878   4.021   3.100  0.3288 -0.1749 -0.9204
 6297SOL    HW130350   3.785   4.024   3.124  0.1400  0.3626 -1.7252
 6297SOL    HW230351   3.910   4.107   3.073  0.2349 -0.8049 -3.0387
 6298SOL     OW30352   1.195   0.516  13.799  0.0962  0.3633  1.1341
 6298SOL    HW130353   1.230   0.482  13.881 -1.4474 -1.3270  1.1149
 6298SOL    HW230354   1.221   0.608  13.806  0.1681  0.4319  0.0135
 6299SOL     OW30355   2.240   1.558   5.679 -0.3673  0.2623 -0.3006
 6299SOL    HW130356   2.200   1.601   5.755 -1.3694 -1.6642  0.2419
 6299SOL    HW230357   2.200   1.612   5.610 -2.9487  2.4255  2.9039
 6300SOL     OW30358   1.613   2.685   0.051  0.2906  0.6339  0.4083
 6300SOL    HW130359   1.565   2.611   0.015  0.6895  0.5908 -0.0356
 6300SOL    HW230360   1.664   2.727  17.679  0.4202  0.5175  0.4346
 6301SOL     OW30361   3.233   1.933   5.018  0.5131 -0.7311 -0.2561
 6301SOL    HW130362   3.278   1.963   4.939  0.0526  3.5138  1.0842
 6301SOL    HW230363   3.143   1.915   4.991 -0.1676  0.2686  1.3577
 6302SOL     OW30364   2.734   1.235   2.223  0.0440  0.4025 -1.2836
 6302SOL    HW130365   2.796   1.230   2.150  1.3230  1.3471 -0.2597
 6302SOL    HW230366   2.785   1.186   2.287  1.4282  3.6808  0.1241
 6303SOL     OW30367   0.924   0.090   1.326  0.4080  0.1812 -0.3557
 6303SOL    HW130368   0.846   0.052   1.368  0.4813 -0.7864 -1.0885
 6303SOL    HW230369   0.900   0.075   1.235  1.8813 -0.8610 -0.5774
 6304SOL     OW30370   3.343   0.515   8.163  0.0217 -0.2505 -0.0173
 6304SOL    HW130371   3.354   0.430   8.119  1.1155 -0.7874  1.2670
 6304SOL    HW230372   3.331   0.484   8.253 -0.7163 -0.1925 -0.0965
 6305SOL     OW30373   0.978   4.707   8.180  0.0281  0.0606  0.1412
 6305SOL    HW130374   1.014   4.630   8.224  0.5708  0.6105  0.6537
 6305SOL    HW230375   1.003   4.714   8.088 -0.5972 -2.9000 -0.2523
 6306SOL     OW30376   2.680   0.396   5.286 -0.1639 -0.8667  0.2080
 6306SOL    HW130377   2.729   0.348   5.220 -0.9452 -3.2699  1.3441
 6306SOL    HW230378   2.655   0.471   5.233  0.6142  0.0577  1.1680
 6307SOL     OW30379   3.003   2.953   8.588  0.7299 -0.3031  0.3462
 6307SOL    HW130380   3.087   2.910   8.603  2.2169  3.0047  1.5570
 6307SOL    HW230381   3.010   2.960   8.493 -1.2549 -1.1013  0.1443
 6308SOL     OW30382   1.883   3.803   2.550  0.1660 -0.2999  0.3920
 6308SOL    HW130383   1.887   3.896   2.571 -3.0684 -0.1389  0.2908
 6308SOL    HW230384   1.819   3.769   2.613  1.1365 -0.7705  1.1241
 6309SOL     OW30385   1.034   4.654   0.648  0.0559  0.3604 -0.3599
 6309SOL    HW130386   0.992   4.636   0.564 -1.3012 -2.1052  0.8668
 6309SOL    HW230387   1.096   4.583   0.665  0.8142  0.8660 -1.0184
 6310SOL     OW30388   1.099   3.585   8.728  0.1308  0.3511 -0.2240
 6310SOL    HW130389   1.027   3.581   8.791  1.4528  2.9722  1.4399
 6310SOL    HW230390   1.048   3.564   8.650 -0.0157 -3.1932  0.8127
 6311SOL     OW30391   1.073   1.404   4.649  0.6306 -0.0407  0.0753
 6311SOL    HW130392   1.168   1.413   4.637  0.3472  1.4351 -1.0680
 6311SOL    HW230393   1.050   1.341   4.581 -1.6967  0.1912  0.6359
 6312SOL     OW30394   0.678   0.767   4.604  0.1844  0.4188  0.0001
 6312SOL    HW130395   0.616   0.757   4.532 -1.5058 -0.0095  1.5004
 6312SOL    HW230396   0.620   0.797   4.675  3.4965  0.2799  2.7425
 6313SOL     OW30397   2.830   0.070   1.875 -0.4024  0.8082  0.0954
 6313SOL    HW130398   2.893   0.022   1.928 -0.3822  1.3479  0.5604
 6313SOL    HW230399   2.754   0.012   1.874 -0.5242  0.9834 -1.5119
 6314SOL     OW30400   1.094   4.034   0.190  0.0980 -0.2287 -0.6227
 6314SOL    HW130401   1.168   4.046   0.250 -0.9678 -0.1608  0.6738
 6314SOL    HW230402   1.145   4.023   0.110  0.9403 -1.9403  0.1566
 6315SOL     OW30403   3.135   1.626  13.267 -0.0054  0.2345  0.2882
 6315SOL    HW130404   3.140   1.718  13.294  0.3752  0.0273  0.9448
 6315SOL    HW230405   3.120   1.640  13.174  2.3972  1.9761  0.1604
 6316SOL     OW30406   3.382   3.710   8.471 -0.4659  0.3861 -0.3847
 6316SOL    HW130407   3.407   3.653   8.544  0.3479 -1.4671 -2.1009
 6316SOL    HW230408   3.449   3.684   8.408 -0.1331  1.7405 -0.5877
 6317SOL     OW30409   0.779   4.176   4.520 -0.0786  0.0380 -0.1642
 6317SOL    HW130410   0.781   4.087   4.486  0.1037  1.0239 -2.7811
 6317SOL    HW230411   0.812   4.155   4.607  1.7781  1.9805 -0.3879
 6318SOL     OW30412   1.101   0.762   5.222  0.6207  0.1497 -0.3006
 6318SOL    HW130413   1.144   0.844   5.201  1.3193 -0.9613 -3.2760
 6318SOL    HW230414   1.168   0.711   5.176 -1.0484 -1.9776 -0.3729
 6319SOL     OW30415   1.845   2.528   4.122 -0.1329 -0.3340  0.2202
 6319SOL    HW130416   1.901   2.592   4.166  0.8558 -0.3642 -0.9919
 6319SOL    HW230417   1.763   2.575   4.110  0.9475  1.6708  0.6976
 6320SOL     OW30418   0.891   4.641   2.029 -0.1591 -0.4252  0.3402
 6320SOL    HW130419   0.956   4.578   1.998 -1.5775 -0.8644 -1.7252
 6320SOL    HW230420   0.853   4.591   2.101 -0.0636 -2.5209 -1.0619
 6321SOL     OW30421   3.325   0.859   5.119 -0.1082 -0.4343 -0.2503
 6321SOL    HW130422   3.332   0.800   5.194  0.7552 -0.0510 -0.0221
 6321SOL    HW230423   3.276   0.934   5.151 -1.1457 -0.7324 -1.1461
 6322SOL     OW30424   2.893   2.321   3.349  0.1992 -0.8614 -0.0284
 6322SOL    HW130425   2.820   2.334   3.289 -0.6366  0.5647  1.3090
 6322SOL    HW230426   2.929   2.235   3.325 -2.5060 -2.3179  1.0800
 6323SOL     OW30427   2.235   2.250   3.290 -0.8459 -0.1435  0.4795
 6323SOL    HW130428   2.241   2.316   3.221 -0.7463 -1.3412 -0.6520
 6323SOL    HW230429   2.323   2.214   3.279 -0.4941  1.6155 -2.6338
 6324SOL     OW30430   0.262   0.271   5.922  0.0674 -0.3632 -0.1435
 6324SOL    HW130431   0.355   0.251   5.912  0.1613  0.3258 -0.6852
 6324SOL    HW230432   0.223   0.218   5.853  2.7492 -2.8011  0.2304
 6325SOL     OW30433   3.675   3.951  10.046  0.1085 -0.6476  0.1973
 6325SOL    HW130434   3.719   3.923   9.965  0.3179 -2.0681  0.8100
 6325SOL    HW230435   3.737   4.015  10.081  1.5857  0.1000 -3.6938
 6326SOL     OW30436   4.267   4.104   3.207  0.4005  0.3587 -0.4723
 6326SOL    HW130437   4.207   4.051   3.259  1.6692 -0.2734  0.3428
 6326SOL    HW230438   4.333   4.130   3.272 -0.0286  0.1117  0.0617
 6327SOL     OW30439   0.622   2.776   7.918 -0.6724 -0.1622  0.3140
 6327SOL    HW130440   0.649   2.808   8.004  2.9048  0.6491 -1.1062
 6327SOL    HW230441   0.559   2.846   7.904  0.1081  0.6190  0.6790
 6328SOL     OW30442   1.218   0.173   1.342 -0.2253 -0.3359 -0.2144
 6328SOL    HW130443   1.137   0.140   1.380 -3.2786  3.8209 -3.1485
 6328SOL    HW230444   1.255   0.238   1.402 -0.3903 -2.1415  1.8487
 6329SOL     OW30445   4.249   3.136   4.235 -0.6674  0.3105  0.0046
 6329SOL    HW130446   4.229   3.172   4.321  1.0427 -2.5396  1.6019
 6329SOL    HW230447   4.165   3.153   4.192  0.5402  0.5809 -2.2162
 6330SOL     OW30448   0.313   2.112   4.433 -0.4730  0.0655  0.6028
 6330SOL    HW130449   0.240   2.149   4.384  1.5947  0.9035 -1.8494
 6330SOL    HW230450   0.387   2.157   4.393  0.0466 -0.7636  0.6366
 6331SOL     OW30451   2.159   3.091   5.237 -0.1164  0.3744 -0.2115
 6331SOL    HW130452   2.124   3.145   5.309  0.4706 -0.3504  0.6192
 6331SOL    HW230453   2.123   3.008   5.266  1.2941 -0.2383 -0.1942
 6332SOL     OW30454   4.696   4.235   6.985  0.9145  0.1612  0.8456
 6332SOL    HW130455   0.009   4.193   7.063  0.5198 -0.9430  0.4444
 6332SOL    HW230456   0.011   4.322   6.989  0.2457  0.5264 -0.6369
 6333SOL     OW30457   2.453   1.763   6.615  0.5343  0.9700 -0.1143
 6333SOL    HW130458   2.422   1.718   6.536 -1.6516 -0.6919  1.6814
 6333SOL    HW230459   2.494   1.687   6.657 -0.2167  0.8863  0.4543
 6334SOL     OW30460   0.812   2.795   8.634  0.0821 -0.0509 -0.2129
 6334SOL    HW130461   0.846   2.734   8.699 -1.1226  0.0551  0.5141
 6334SOL    HW230462   0.720   2.793   8.659  0.6372 -0.1561  1.7760
 6335SOL     OW30463   4.697   3.528   7.230  0.1726 -0.1675 -0.2629
 6335SOL    HW130464   0.061   3.514   7.195  0.2737 -0.2930  0.0365
 6335SOL    HW230465   4.694   3.621   7.254  0.1843  0.7501 -3.8268
 6336SOL     OW30466   4.555   1.274  13.024 -0.1109 -0.1466  0.6562
 6336SOL    HW130467   4.562   1.369  13.033 -0.7292  0.1291 -2.0048
 6336SOL    HW230468   4.605   1.244  13.100 -0.2023 -0.4958  0.5810
 6337SOL     OW30469   4.232   0.516  16.357  0.5517  0.1158  0.1015
 6337SOL    HW130470   4.250   0.574  16.284 -0.4985  0.4000  0.0732
 6337SOL    HW230471   4.137   0.523  16.365  0.8459  3.1521  0.8769
 6338SOL     OW30472   0.453   3.710  17.317 -0.0767 -0.0871 -0.1747
 6338SOL    HW130473   0.371   3.757  17.335 -0.5294 -0.9978  0.1318
 6338SOL    HW230474   0.443   3.623  17.355 -1.7399  0.9720  1.8198
 6339SOL     OW30475   2.930   3.784   8.373  0.2217  0.3651 -0.6876
 6339SOL    HW130476   2.858   3.838   8.406  1.0068  0.6705  0.5616
 6339SOL    HW230477   2.887   3.700   8.359  0.7031  0.0791 -0.4721
 6340SOL     OW30478   4.012   0.146   4.979 -0.0097  0.1689 -0.2750
 6340SOL    HW130479   4.021   0.051   4.977 -0.0642  0.1510  0.3062
 6340SOL    HW230480   4.007   0.165   4.885 -2.3879 -2.8814 -0.7978
 6341SOL     OW30481   1.706   3.230   2.093  0.5258 -0.1863 -0.1125
 6341SOL    HW130482   1.720   3.307   2.038  3.6717 -0.1063  0.8127
 6341SOL    HW230483   1.773   3.168   2.064  1.1109  0.2800  0.2542
 6342SOL     OW30484   4.245   4.043   4.312 -0.1281  0.8363  0.0934
 6342SOL    HW130485   4.235   3.966   4.255  0.6489  1.0341 -0.3168
 6342SOL    HW230486   4.291   4.004   4.386 -0.5330  0.6820  0.2624
 6343SOL     OW30487   3.728   2.845   9.551 -0.3736  0.2891 -0.3111
 6343SOL    HW130488   3.758   2.786   9.619 -0.5164 -0.1805 -0.6568
 6343SOL    HW230489   3.633   2.834   9.543 -0.3568  0.6095 -0.9222
 6344SOL     OW30490   0.209   2.996   3.702  0.2853 -0.1470  0.0502
 6344SOL    HW130491   0.190   2.983   3.795  3.6487 -1.8400  0.5225
 6344SOL    HW230492   0.130   2.965   3.658 -0.1996 -0.5682  1.2159
 6345SOL     OW30493   0.267   4.270  17.427  0.3931 -0.5044 -0.0802
 6345SOL    HW130494   0.307   4.211  17.363 -0.1907 -0.5963 -0.3547
 6345SOL    HW230495   0.352   4.297  17.462 -0.2919  1.8337 -0.2299
 6346SOL     OW30496   3.926   3.440   5.999  0.2191  0.4088 -0.3561
 6346SOL    HW130497   3.994   3.462   5.936 -1.1833  1.6465 -1.4657
 6346SOL    HW230498   3.927   3.518   6.055 -1.6424  2.1336 -2.7343
 6347SOL     OW30499   4.478   1.693   2.616  0.0771  0.7415 -0.5458
 6347SOL    HW130500   4.453   1.779   2.581  0.5869  0.2866 -2.0243
 6347SOL    HW230501   4.389   1.659   2.614  0.9080 -1.4964  0.4293
 6348SOL     OW30502   2.611   2.770  10.161 -0.6063  0.1689  0.8559
 6348SOL    HW130503   2.516   2.779  10.158 -0.8627 -2.2542  1.3335
 6348SOL    HW230504   2.631   2.791  10.252  1.1727  1.4126  0.1684
 6349SOL     OW30505   0.851   0.705   6.990  0.1887  0.0379 -0.6150
 6349SOL    HW130506   0.894   0.681   6.908 -2.2159  1.8606 -2.4001
 6349SOL    HW230507   0.801   0.624   6.999 -0.0712  0.4033  1.1317
 6350SOL     OW30508   3.264   3.991  12.093  0.1877 -0.2484  0.3046
 6350SOL    HW130509   3.341   4.048  12.084  0.1116 -0.0792  0.7447
 6350SOL    HW230510   3.309   3.909  12.115 -1.2399 -1.5991 -1.7803
 6351SOL     OW30511   2.312   4.681  11.577  0.2622 -0.2296 -0.1663
 6351SOL    HW130512   2.255   0.017  11.530 -0.5933 -0.7524  0.1919
 6351SOL    HW230513   2.275   4.597  11.549 -0.4652 -0.0956  0.3826
 6352SOL     OW30514   3.045   4.115   1.908  0.0474 -0.1623 -0.6219
 6352SOL    HW130515   3.080   4.036   1.866  0.9743 -0.7301  1.1940
 6352SOL    HW230516   2.952   4.094   1.905  0.2315 -1.0343 -0.3999
 6353SOL     OW30517   3.311   2.892   1.351 -0.0151 -0.3889 -0.3816
 6353SOL    HW130518   3.394   2.847   1.336 -0.3250 -1.0718 -0.0727
 6353SOL    HW230519   3.316   2.978   1.309 -2.6411  0.0159  0.1469
 6354SOL     OW30520   4.636   1.510   1.990  0.2870 -0.0359 -0.0379
 6354SOL    HW130521   4.712   1.535   2.042  1.3348 -0.8921 -1.1655
 6354SOL    HW230522   4.670   1.440   1.934  0.1548  2.0261 -2.7234
 6355SOL     OW30523   4.016   2.187   4.718  0.3386  0.0877 -0.3034
 6355SOL    HW130524   3.981   2.257   4.662  1.0855  0.8932  0.2402
 6355SOL    HW230525   3.955   2.115   4.700 -1.3745  0.8352  2.3900
 6356SOL     OW30526   1.356   2.497  17.257 -0.0759  0.1863  0.2852
 6356SOL    HW130527   1.405   2.579  17.249  0.2646 -0.2023 -1.7562
 6356SOL    HW230528   1.313   2.497  17.171  2.2102 -1.5425 -0.8763
 6357SOL     OW30529   3.048   4.154   2.788 -0.2712 -0.6404  0.0556
 6357SOL    HW130530   3.028   4.127   2.699 -0.3302 -0.8650  0.1362
 6357SOL    HW230531   3.138   4.185   2.785  0.6527 -3.2634  0.5365
 6358SOL     OW30532   4.371   0.127   0.680  0.4357 -0.3166  0.6488
 6358SOL    HW130533   4.318   0.055   0.645 -1.1447  1.4618 -0.6453
 6358SOL    HW230534   4.374   0.114   0.774  1.0325  2.4005  0.9944
 6359SOL     OW30535   0.385   1.398   4.296 -0.2446  0.1433  0.4201
 6359SOL    HW130536   0.430   1.441   4.369  0.3216  2.4353 -1.2983
 6359SOL    HW230537   0.418   1.450   4.223  0.9050 -1.7345 -0.3909
 6360SOL     OW30538   2.947   3.151  12.276  0.0136  0.0425  0.2080
 6360SOL    HW130539   2.937   3.221  12.341 -1.6997 -1.0508  1.1440
 6360SOL    HW230540   3.021   3.097  12.301 -0.0421  0.0460  0.3789
 6361SOL     OW30541   1.179   0.110  13.405  0.7018 -0.0096  0.1308
 6361SOL    HW130542   1.089   0.141  13.393  1.1961  1.4552  0.2683
 6361SOL    HW230543   1.173   0.079  13.495 -1.2148  0.6056  0.2209
 6362SOL     OW30544   1.604   2.943   3.434 -0.0327 -0.2299  0.4798
 6362SOL    HW130545   1.645   2.856   3.437  1.3940  0.3889 -0.8038
 6362SOL    HW230546   1.688   2.979   3.404  0.0791  0.5606  1.7582
 6363SOL     OW30547   1.285   0.376  12.559  0.0436 -0.2822  0.5802
 6363SOL    HW130548   1.362   0.390  12.504 -1.2945 -2.0017 -1.7429
 6363SOL    HW230549   1.325   0.313  12.619 -0.3940  0.6940  1.9009
 6364SOL     OW30550   3.613   1.418   7.255  0.7051  0.0697 -0.8676
 6364SOL    HW130551   3.561   1.338   7.256 -0.5506  0.8963 -0.0595
 6364SOL    HW230552   3.595   1.453   7.342  1.7885  0.3236 -0.7419
 6365SOL     OW30553   4.329   3.783   5.149 -0.2787 -0.4325  0.1367
 6365SOL    HW130554   4.243   3.758   5.184 -0.5627  0.4762  0.0990
 6365SOL    HW230555   4.378   3.745   5.222  0.5004 -0.1635 -0.2433
 6366SOL     OW30556   0.424   3.347   0.290  0.7193 -0.1883  0.0978
 6366SOL    HW130557   0.334   3.340   0.321  0.1266 -0.5051 -1.6583
 6366SOL    HW230558   0.461   3.413   0.348 -1.9265  1.9487 -0.6250
 6367SOL     OW30559   3.925   3.262   1.725  0.1922  0.1878  0.6266
 6367SOL    HW130560   3.955   3.172   1.739 -0.3495 -0.2865 -1.2072
 6367SOL    HW230561   3.831   3.252   1.707  0.4813  0.9027 -1.2412
 6368SOL     OW30562   4.448   1.740   9.065 -0.1604 -0.4854 -0.4214
 6368SOL    HW130563   4.535   1.727   9.105  0.0672  1.9025 -0.0877
 6368SOL    HW230564   4.407   1.654   9.073  1.7192 -1.2475  1.1130
 6369SOL     OW30565   2.742   3.077   3.273 -0.0207 -0.4300  0.5584
 6369SOL    HW130566   2.757   3.138   3.201 -1.6332  0.3075  0.8429
 6369SOL    HW230567   2.832   3.075   3.304 -0.3104 -1.8778  1.3082
 6370SOL     OW30568   3.762   1.161   3.495 -0.4003 -0.2176 -0.4425
 6370SOL    HW130569   3.743   1.067   3.496 -0.1928 -0.2576 -0.0892
 6370SOL    HW230570   3.782   1.178   3.587 -2.4421  0.6732 -0.1688
 6371SOL     OW30571   0.979   2.589   8.868 -0.4502  0.7539 -0.1805
 6371SOL    HW130572   1.018   2.579   8.955 -1.7241  1.2589  0.4477
 6371SOL    HW230573   0.889   2.558   8.872 -1.0438  2.2750 -1.9632
 6372SOL     OW30574   2.217   3.582   6.834 -0.3609 -0.0106  0.0484
 6372SOL    HW130575   2.279   3.545   6.771  0.1488 -1.4417  1.3815
 6372SOL    HW230576   2.247   3.672   6.842  0.2566  0.0616 -2.7887
 6373SOL     OW30577   4.268   1.813   6.872  0.3196  0.2756 -0.4776
 6373SOL    HW130578   4.334   1.820   6.940 -0.3086  0.3615  0.1226
 6373SOL    HW230579   4.317   1.834   6.793 -0.4111  0.1037 -0.9778
 6374SOL     OW30580   0.537   1.735   0.548  0.1035 -0.0890  0.1344
 6374SOL    HW130581   0.476   1.746   0.621 -0.1617 -1.7662  0.1573
 6374SOL    HW230582   0.618   1.756   0.594 -0.0252  1.7443 -0.4709
 6375SOL     OW30583   3.723   4.689   5.066  0.5094  0.1286 -0.4184
 6375SOL    HW130584   3.811   4.656   5.052  0.6789  0.4538 -0.1329
 6375SOL    HW230585   3.711   4.658   5.156 -1.6093 -2.4234 -1.5792
 6376SOL     OW30586   2.215   0.226   5.546  0.7156 -0.2482 -0.5811
 6376SOL    HW130587   2.253   0.263   5.626 -2.0230  1.3716 -0.0278
 6376SOL    HW230588   2.292   0.176   5.518  0.5546 -0.9070  0.1371
 6377SOL     OW30589   2.460   3.091   7.269 -0.4545 -0.1265  0.7713
 6377SOL    HW130590   2.515   3.048   7.334  1.1163 -0.2684 -0.6493
 6377SOL    HW230591   2.387   3.114   7.326  0.2551  0.2459  1.5199
 6378SOL     OW30592   4.163   2.422  14.965 -0.1508 -0.2004  0.1832
 6378SOL    HW130593   4.100   2.353  14.945  0.2148 -1.0280  1.8520
 6378SOL    HW230594   4.117   2.457  15.042  0.9075  2.3807 -0.3517
 6379SOL     OW30595   1.045   1.519  14.301 -0.6622  0.0881  0.7755
 6379SOL    HW130596   1.014   1.433  14.274 -1.9069  0.8625 -0.2170
 6379SOL    HW230597   0.984   1.584  14.267  0.2446  0.4851 -0.0794
 6380SOL     OW30598   4.377   0.496   2.729  0.3180  0.1376  0.5208
 6380SOL    HW130599   4.469   0.471   2.726 -0.0083 -0.6812 -2.4409
 6380SOL    HW230600   4.350   0.487   2.638  0.5112 -0.5704  0.5348
 6381SOL     OW30601   0.076   0.944   9.068  0.2683  0.0008 -0.3117
 6381SOL    HW130602   0.034   0.870   9.024 -2.2736  1.7159 -0.8126
 6381SOL    HW230603   0.147   0.957   9.006 -0.1909  2.1684 -0.3724
 6382SOL     OW30604   1.172   1.065  11.460  0.1822 -0.8189 -0.1089
 6382SOL    HW130605   1.100   1.121  11.487  0.1568 -0.9931  0.1862
 6382SOL    HW230606   1.127   0.980  11.461 -0.6575 -0.3897 -1.8323
 6383SOL     OW30607   3.969   3.390   2.973 -0.4645  0.0545  0.9671
 6383SOL    HW130608   3.897   3.403   3.034 -1.1840 -1.9055  0.5259
 6383SOL    HW230609   3.934   3.321   2.917  2.5744  0.7380 -1.8168
 6384SOL     OW30610   1.514   3.641  11.897  0.8079  0.3167  0.0551
 6384SOL    HW130611   1.444   3.664  11.836  0.2276 -2.9394 -0.4690
 6384SOL    HW230612   1.586   3.642  11.834  0.0006  0.1347 -0.8754
 6385SOL     OW30613   1.612   1.328   6.550  0.3714  0.0314  0.5104
 6385SOL    HW130614   1.581   1.297   6.635  1.6561  0.2840  1.0781
 6385SOL    HW230615   1.573   1.259   6.497 -3.8626  2.1815  0.8480
 6386SOL     OW30616   2.302   4.449   9.579 -0.3183 -0.1991 -0.0975
 6386SOL    HW130617   2.373   4.386   9.568  0.0197  0.2136 -0.2606
 6386SOL    HW230618   2.236   4.393   9.622  0.5479 -1.2790 -0.1816
 6387SOL     OW30619   3.963   4.120   9.020 -0.0188  0.1424 -0.0240
 6387SOL    HW130620   4.058   4.106   9.024 -0.0675  0.2524  1.3084
 6387SOL    HW230621   3.946   4.106   8.927  1.7027  0.2327 -0.3469
 6388SOL     OW30622   3.424   4.133   9.999  0.4257 -0.2632 -0.2290
 6388SOL    HW130623   3.346   4.078   9.991 -0.2994  0.7768 -0.3034
 6388SOL    HW230624   3.489   4.066  10.022  0.9175  0.0576 -0.6831
 6389SOL     OW30625   3.973   3.219   4.192  0.5150  0.7760 -0.6683
 6389SOL    HW130626   3.920   3.232   4.114 -1.1440  1.6318  0.6125
 6389SOL    HW230627   3.910   3.179   4.251  1.0342  1.0015  0.0492
 6390SOL     OW30628   3.478   0.781   4.424 -0.1514 -0.2089 -0.2502
 6390SOL    HW130629   3.556   0.733   4.454  1.5825  3.2747  0.7777
 6390SOL    HW230630   3.518   0.865   4.403  0.4721 -0.4039  0.1307
 6391SOL     OW30631   0.833   3.131   0.365  0.0591  0.6715 -0.0862
 6391SOL    HW130632   0.915   3.178   0.348 -0.5613  1.9482  0.4461
 6391SOL    HW230633   0.807   3.109   0.275  3.0348  0.7037 -0.9694
 6392SOL     OW30634   4.596   4.098   4.056  0.5221 -0.3016 -0.3320
 6392SOL    HW130635   4.550   4.182   4.046  0.1515 -0.6149 -1.3095
 6392SOL    HW230636   4.662   4.124   4.120 -0.5806  0.3016  0.5736
 6393SOL     OW30637   2.611   1.414   7.660  0.3807  0.0394 -0.1223
 6393SOL    HW130638   2.583   1.407   7.751  1.7697  0.4495  0.3334
 6393SOL    HW230639   2.542   1.473   7.629 -0.1223  0.6329  2.1050
 6394SOL     OW30640   3.941   0.800   5.785 -0.3807  0.3774  0.3359
 6394SOL    HW130641   3.989   0.724   5.752 -0.9670  0.5845 -1.0157
 6394SOL    HW230642   3.972   0.861   5.718 -0.1492 -0.5516 -0.4087
 6395SOL     OW30643   2.549   1.029   2.984  0.5812  0.2549  0.2125
 6395SOL    HW130644   2.534   1.078   3.064  0.3188  1.8747 -0.8418
 6395SOL    HW230645   2.460   1.006   2.958  0.4030 -0.7368  1.6515
 6396SOL     OW30646   3.162   4.326   5.943  0.2807 -0.3555 -0.3541
 6396SOL    HW130647   3.107   4.383   5.889 -0.9017 -0.8266  0.3542
 6396SOL    HW230648   3.112   4.334   6.025 -0.7715  0.2506 -1.0537
 6397SOL     OW30649   0.124   4.323  14.449 -0.4639 -0.0063  0.5219
 6397SOL    HW130650   0.208   4.367  14.463 -0.8586  1.1158 -0.7174
 6397SOL    HW230651   0.118   4.285  14.537 -1.4345  0.7289  0.7760
 6398SOL     OW30652   3.403   0.707   7.557  0.5325  0.2861  0.6655
 6398SOL    HW130653   3.469   0.641   7.574 -0.1588 -0.5116  0.2701
 6398SOL    HW230654   3.464   0.762   7.507 -4.0122  2.7939 -2.1923
 6399SOL     OW30655   4.064   2.237   6.679  0.2154 -0.4812 -0.2697
 6399SOL    HW130656   4.004   2.288   6.732  0.6887  0.7094 -0.8695
 6399SOL    HW230657   4.014   2.185   6.616  1.1950  0.8827 -2.2102
 6400SOL     OW30658   1.305   3.570  14.778 -0.2521  0.1288 -0.2791
 6400SOL    HW130659   1.356   3.589  14.856 -1.0534  1.1222  0.0070
 6400SOL    HW230660   1.220   3.549  14.818 -0.1505 -0.8707 -0.5877
 6401SOL     OW30661   3.943   2.659  11.211 -0.6534 -0.6067  0.1121
 6401SOL    HW130662   3.870   2.676  11.271  2.3767 -0.0208  3.6343
 6401SOL    HW230663   4.004   2.605  11.261  0.0023 -0.0566 -0.0916
 6402SOL     OW30664   1.870   0.420   6.844  0.3153  0.2968  0.0032
 6402SOL    HW130665   1.820   0.417   6.926 -0.4212 -0.1412 -0.4608
 6402SOL    HW230666   1.849   0.511   6.823  1.6745  0.6556  0.1879
 6403SOL     OW30667   2.416   2.681   7.748  0.0902 -0.2459  0.6794
 6403SOL    HW130668   2.337   2.655   7.700  0.8917  1.3323 -1.4925
 6403SOL    HW230669   2.405   2.641   7.834  0.1018 -1.9905 -0.1294
 6404SOL     OW30670   0.692   1.806   2.470 -0.1763  0.0489 -0.1442
 6404SOL    HW130671   0.637   1.758   2.408  1.0864 -3.6400  1.5932
 6404SOL    HW230672   0.771   1.819   2.418 -0.1893 -1.3752 -0.5102
 6405SOL     OW30673   3.736   1.068  13.730 -0.0820 -0.3620 -0.2028
 6405SOL    HW130674   3.655   1.064  13.680  0.4834 -2.2757 -0.9903
 6405SOL    HW230675   3.778   1.145  13.691  1.2253  0.0315  2.0343
 6406SOL     OW30676   0.243   3.942   8.926  0.3001 -0.2122  0.4761
 6406SOL    HW130677   0.319   3.914   8.977 -0.5875 -1.0615  1.3286
 6406SOL    HW230678   0.261   3.914   8.836  0.5532  3.9518 -0.7673
 6407SOL     OW30679   0.555   3.156   4.737 -0.1208  0.1427  0.0344
 6407SOL    HW130680   0.582   3.233   4.788  0.0863  0.1832 -0.1383
 6407SOL    HW230681   0.594   3.191   4.657  1.8110  1.5438  1.5879
 6408SOL     OW30682   4.696   1.565   5.107 -0.0809  0.0567  0.3375
 6408SOL    HW130683   4.709   1.562   5.012 -2.2576 -1.1173  0.0718
 6408SOL    HW230684   4.707   1.659   5.119  0.1740 -0.3476  3.2214
 6409SOL     OW30685   3.426   0.443   2.391 -0.2634 -0.4015  0.0218
 6409SOL    HW130686   3.443   0.370   2.332 -0.1420 -0.2644 -0.1154
 6409SOL    HW230687   3.454   0.508   2.326  0.6646 -0.6980  0.1196
 6410SOL     OW30688   3.121   2.435   3.442 -0.0564  0.2651  0.3612
 6410SOL    HW130689   3.142   2.361   3.499  0.5672  0.7813  0.7938
 6410SOL    HW230690   3.033   2.406   3.416 -0.3126  0.7463  0.7007
 6411SOL     OW30691   1.337   0.544   9.342 -0.7264 -0.2265  0.6114
 6411SOL    HW130692   1.339   0.588   9.427 -0.5539 -0.1383  0.5616
 6411SOL    HW230693   1.412   0.488   9.358 -0.5322 -0.0589  0.2844
 6412SOL     OW30694   2.658   2.450   1.774 -0.1551  0.2190 -0.4625
 6412SOL    HW130695   2.698   2.531   1.803  0.0233  0.2828 -0.8833
 6412SOL    HW230696   2.628   2.466   1.685  0.4449 -1.8863 -1.0473
 6413SOL     OW30697   2.629   4.544  14.331  0.2347 -0.8913 -0.3416
 6413SOL    HW130698   2.625   4.505  14.243  2.1720  0.0499 -0.8479
 6413SOL    HW230699   2.665   4.626  14.299  0.2191 -1.2344 -1.2698
 6414SOL     OW30700   0.286   4.544   5.453  0.5745 -0.0730  0.5047
 6414SOL    HW130701   0.247   4.509   5.373  0.9339 -0.5879  0.5576
 6414SOL    HW230702   0.273   4.639   5.452 -0.5355 -0.2815 -3.2138
 6415SOL     OW30703   2.683   1.109   4.763  0.0287 -0.1871 -0.0771
 6415SOL    HW130704   2.760   1.052   4.756  0.3380 -0.0882  2.2354
 6415SOL    HW230705   2.684   1.150   4.677 -2.0150 -1.3608 -0.6289
 6416SOL     OW30706   2.447   1.785   1.043 -0.3018 -0.0806 -0.3224
 6416SOL    HW130707   2.522   1.731   1.017 -0.0737 -0.0301  0.2179
 6416SOL    HW230708   2.380   1.756   0.982 -1.3499  0.0355  0.7698
 6417SOL     OW30709   4.145   2.171   5.419  0.1331 -0.6620  0.0325
 6417SOL    HW130710   4.222   2.118   5.399  0.6894 -0.4746  1.6693
 6417SOL    HW230711   4.080   2.107   5.390 -0.2188  0.0781 -0.8013
 6418SOL     OW30712   2.121   0.081   2.013 -0.2679 -0.3833  0.3810
 6418SOL    HW130713   2.092   0.141   1.945  2.6496  0.7603  0.1542
 6418SOL    HW230714   2.215   0.090   1.999 -0.4138  0.6852  0.1237
 6419SOL     OW30715   3.773   2.519   9.873 -0.2551  0.0938 -0.6018
 6419SOL    HW130716   3.689   2.482   9.845 -0.8722  0.9090  0.1793
 6419SOL    HW230717   3.813   2.446   9.920 -1.4580  0.2305  0.6307
 6420SOL     OW30718   1.947   0.638   2.197  0.1446 -0.0259 -0.4250
 6420SOL    HW130719   2.008   0.565   2.208 -0.9958 -1.2558 -2.1067
 6420SOL    HW230720   1.944   0.658   2.103 -1.6540 -2.8774 -0.9835
 6421SOL     OW30721   1.483   4.378   3.308  0.4001  0.1343  0.1840
 6421SOL    HW130722   1.544   4.351   3.240  1.5400 -1.5568  1.8915
 6421SOL    HW230723   1.434   4.452   3.271 -0.9558 -1.6748 -1.6308
 6422SOL     OW30724   4.472   4.211   3.385  0.6843 -0.3326  0.5825
 6422SOL    HW130725   4.542   4.195   3.447  2.0005 -1.7054 -1.2479
 6422SOL    HW230726   4.433   4.294   3.415  0.5592  0.3246 -1.3502
 6423SOL     OW30727   2.811   3.080   8.420 -0.4470  0.2100 -0.1673
 6423SOL    HW130728   2.885   3.084   8.480 -1.3403  2.3257  0.7953
 6423SOL    HW230729   2.844   3.085   8.330 -0.0493 -1.2112 -0.0952
 6424SOL     OW30730   2.028   2.548  14.491  0.0635 -0.2166  0.7462
 6424SOL    HW130731   2.027   2.466  14.541 -2.4369 -1.1600 -0.8202
 6424SOL    HW230732   2.079   2.606  14.547 -0.2078 -1.5082  2.3434
 6425SOL     OW30733   0.127   1.810   4.861  0.1145 -0.0915  0.2094
 6425SOL    HW130734   0.160   1.884   4.811 -1.7232 -1.5195 -3.1621
 6425SOL    HW230735   0.183   1.815   4.938  0.1424 -1.1464  0.2559
 6426SOL     OW30736   4.253   1.283   5.174 -0.2184 -0.9390 -0.1640
 6426SOL    HW130737   4.175   1.330   5.144 -0.4906  1.4338  4.2663
 6426SOL    HW230738   4.266   1.223   5.101 -0.5836 -1.5117  0.2459
 6427SOL     OW30739   4.085   1.676   9.180  0.0087  0.3186  0.0830
 6427SOL    HW130740   4.002   1.647   9.141 -0.1751  0.4633  0.3658
 6427SOL    HW230741   4.109   1.753   9.129 -0.5388  0.0216 -0.6277
 6428SOL     OW30742   2.365   2.527  17.237 -0.0536  0.2995 -0.1432
 6428SOL    HW130743   2.287   2.520  17.182 -1.4407  0.2673  1.8260
 6428SOL    HW230744   2.328   2.554  17.321  1.8146 -1.4001  1.2525
 6429SOL     OW30745   4.645   1.108   4.580 -0.1894 -0.1049 -0.0148
 6429SOL    HW130746   4.606   1.184   4.623  0.0447 -0.3471  0.6309
 6429SOL    HW230747   4.617   1.036   4.636 -0.0964 -0.0127  0.1486
 6430SOL     OW30748   3.898   4.352   4.852 -0.2745  0.0199  0.3511
 6430SOL    HW130749   3.880   4.305   4.771 -1.4008  0.5493  0.2957
 6430SOL    HW230750   3.989   4.330   4.872 -0.0885 -0.1239 -0.6587
 6431SOL     OW30751   1.693   4.111   2.884  0.2163 -0.3660 -0.8864
 6431SOL    HW130752   1.788   4.096   2.883  0.3401  0.3356  0.5173
 6431SOL    HW230753   1.673   4.135   2.794  0.6670  0.9718 -0.6224
 6432SOL     OW30754   0.802   1.921   5.365 -0.1745  0.5468 -0.2178
 6432SOL    HW130755   0.841   1.909   5.278 -0.5547 -2.4627  0.0245
 6432SOL    HW230756   0.711   1.894   5.349 -0.2087 -0.1453  1.1434
 6433SOL     OW30757   1.636   3.864   1.228 -0.4966 -0.5691  0.2463
 6433SOL    HW130758   1.543   3.847   1.214 -1.4060  4.0787  0.7742
 6433SOL    HW230759   1.669   3.779   1.258 -1.6416 -1.0520  0.1504
 6434SOL     OW30760   1.576   0.438   7.299 -0.6318 -0.3594 -0.1760
 6434SOL    HW130761   1.512   0.509   7.296 -0.0693  0.0751 -1.7024
 6434SOL    HW230762   1.557   0.393   7.216 -0.3967  0.3785 -0.6263
 6435SOL     OW30763   3.325   1.622   3.924  0.2889 -0.3589 -0.3241
 6435SOL    HW130764   3.382   1.545   3.920  1.4581  0.4523  0.8700
 6435SOL    HW230765   3.392   1.688   3.938  0.4967 -0.3649 -1.3110
 6436SOL     OW30766   0.855   2.485  15.366  0.1830  0.2720  0.7414
 6436SOL    HW130767   0.879   2.557  15.423 -2.1753  0.3267  1.6601
 6436SOL    HW230768   0.932   2.482  15.309 -0.5383  2.7031 -0.3581
 6437SOL     OW30769   0.857   2.589  17.594 -0.1085  0.2963  0.1617
 6437SOL    HW130770   0.833   2.663  17.650  0.9214  1.2081 -0.6069
 6437SOL    HW230771   0.914   2.541  17.654  0.7919 -0.6155 -1.4229
 6438SOL     OW30772   3.597   1.222   2.417 -0.4065  0.5653  0.4220
 6438SOL    HW130773   3.539   1.297   2.428 -1.0166  0.1601 -0.0993
 6438SOL    HW230774   3.618   1.225   2.324 -0.3155  0.0910  0.4291
 6439SOL     OW30775   1.974   2.031  16.161  0.2306  0.4679 -0.0559
 6439SOL    HW130776   1.944   2.122  16.159  0.1132  0.3972 -1.5083
 6439SOL    HW230777   1.946   2.006  16.249  0.2919 -1.8297 -0.7006
 6440SOL     OW30778   3.062   3.488   4.583  0.1793  0.0459 -0.5090
 6440SOL    HW130779   3.055   3.393   4.567  0.9049  0.3451 -2.6259
 6440SOL    HW230780   3.152   3.506   4.609 -0.5435 -1.8097  3.2723
 6441SOL     OW30781   0.639   4.344   9.587  0.0690 -0.8124 -0.2145
 6441SOL    HW130782   0.676   4.414   9.534  0.2235  0.0214  0.9978
 6441SOL    HW230783   0.709   4.280   9.577  0.1587 -0.8138  0.3996
 6442SOL     OW30784   1.083   4.201   3.134 -0.0849  0.0964  0.0362
 6442SOL    HW130785   1.026   4.162   3.200  0.6251 -1.3283 -0.1917
 6442SOL    HW230786   1.023   4.209   3.060  0.5898 -3.1435 -0.8536
 6443SOL     OW30787   0.523   3.917   7.662 -0.2226 -0.1689 -0.4955
 6443SOL    HW130788   0.557   3.987   7.719 -0.3841 -1.6844  1.4502
 6443SOL    HW230789   0.512   3.976   7.587  1.9508 -0.1383 -0.8108
 6444SOL     OW30790   3.506   0.267   5.263  0.4045 -0.0821  0.1175
 6444SOL    HW130791   3.453   0.201   5.219  0.7291  0.0946 -0.5437
 6444SOL    HW230792   3.468   0.265   5.351  0.0327  0.0429 -0.0445
 6445SOL     OW30793   1.173   4.612  15.608  0.9831  0.3515 -0.1254
 6445SOL    HW130794   1.234   4.545  15.577 -0.9503 -1.6092  0.2896
 6445SOL    HW230795   1.091   4.585  15.567 -0.8111  1.5746  2.6219
 6446SOL     OW30796   1.711   3.972  11.941 -0.1664 -0.2290 -0.3533
 6446SOL    HW130797   1.758   4.048  11.907 -0.3219  0.3589  0.7441
 6446SOL    HW230798   1.772   3.899  11.941 -0.4212 -0.4410 -0.3046
 6447SOL     OW30799   1.750   3.485   3.458 -0.5959 -0.1503 -0.0177
 6447SOL    HW130800   1.740   3.463   3.551  0.3446 -0.3104  0.0443
 6447SOL    HW230801   1.779   3.401   3.423  0.2905  0.4266 -0.6610
 6448SOL     OW30802   1.485   0.537  10.938 -0.0442 -0.0706 -0.6818
 6448SOL    HW130803   1.447   0.550  11.024  0.0788  0.1427 -0.6612
 6448SOL    HW230804   1.538   0.614  10.919  0.2392 -0.1737 -0.3073
 6449SOL     OW30805   3.360   3.206   4.275  0.0074  0.6486 -0.0914
 6449SOL    HW130806   3.416   3.148   4.224  0.1235  0.8515 -0.1940
 6449SOL    HW230807   3.271   3.175   4.260 -0.4141  2.5723 -1.6397
 6450SOL     OW30808   2.308   4.059   4.421  0.3529  0.6361  0.0385
 6450SOL    HW130809   2.260   4.092   4.344  1.0847 -0.6431 -0.9772
 6450SOL    HW230810   2.306   3.963   4.414  2.6838  0.5498  0.6724
 6451SOL     OW30811   4.698   3.067   2.988 -0.0311  0.4863 -0.0768
 6451SOL    HW130812   4.686   3.065   3.083 -0.7858  2.1076 -0.1466
 6451SOL    HW230813   4.651   2.990   2.956 -0.5192  0.6252  0.3048
 6452SOL     OW30814   0.274   0.493   9.504  0.5023 -0.4559  0.1070
 6452SOL    HW130815   0.255   0.456   9.418 -1.8256 -1.2254  0.9621
 6452SOL    HW230816   0.296   0.421   9.563 -0.0724 -1.5386 -1.0034
 6453SOL     OW30817   2.392   2.432   2.549 -0.3277  0.3796  1.1244
 6453SOL    HW130818   2.392   2.345   2.510  2.4245  1.4996 -1.3640
 6453SOL    HW230819   2.426   2.483   2.475 -0.0532 -0.6538  0.5456
 6454SOL     OW30820   3.959   3.095   8.041 -0.0256 -0.1463  0.0704
 6454SOL    HW130821   4.028   3.033   8.017  1.1969  1.7109 -1.1683
 6454SOL    HW230822   3.938   3.077   8.133  2.9211  0.0463  0.7692
 6455SOL     OW30823   4.281   0.988   5.660 -0.0361 -0.5012 -0.2506
 6455SOL    HW130824   4.322   1.049   5.598  1.3890 -1.6621 -0.4266
 6455SOL    HW230825   4.277   0.913   5.601 -1.3467 -0.4451 -0.2534
 6456SOL     OW30826   1.559   1.864   5.407  0.6242  0.4926 -0.3308
 6456SOL    HW130827   1.642   1.862   5.359  0.9339  1.3307  0.1702
 6456SOL    HW230828   1.538   1.772   5.424 -0.6114  0.8888  0.3253
 6457SOL     OW30829   0.929   4.029   3.276  0.0032  0.5265 -0.4039
 6457SOL    HW130830   0.863   4.020   3.344  0.3441  3.5396  0.3222
 6457SOL    HW230831   0.972   3.944   3.286 -0.6700  0.2628  0.2064
 6458SOL     OW30832   4.581   4.675   4.063 -0.4933  0.2834  0.5009
 6458SOL    HW130833   4.644   4.626   4.115 -0.4239 -0.5921 -0.4086
 6458SOL    HW230834   4.515   4.606   4.068 -0.1577 -0.0026  0.9760
 6459SOL     OW30835   3.438   0.583   3.512 -0.1286  0.1659 -0.0039
 6459SOL    HW130836   3.489   0.661   3.490 -1.1652  1.1751  1.1460
 6459SOL    HW230837   3.356   0.615   3.549 -0.4515 -1.0495  0.3294
 6460SOL     OW30838   0.116   4.227   3.803  1.0978  0.4844 -0.1590
 6460SOL    HW130839   0.176   4.161   3.836  0.2677 -0.1357  0.1261
 6460SOL    HW230840   0.123   4.292   3.873 -1.2133 -0.0242  0.5528
 6461SOL     OW30841   3.786   4.507   1.213 -0.5558  0.0247  0.3706
 6461SOL    HW130842   3.810   4.561   1.288 -0.1798  1.2622 -0.6512
 6461SOL    HW230843   3.697   4.537   1.198  0.5529  3.5007  0.8555
 6462SOL     OW30844   0.528   2.837   2.677  0.6125  0.7686 -0.0365
 6462SOL    HW130845   0.604   2.875   2.722 -0.2307  2.0841  0.2950
 6462SOL    HW230846   0.470   2.890   2.731  1.4207  1.1484  0.4666
 6463SOL     OW30847   2.489   1.545   3.192 -0.2510  0.2719 -0.6543
 6463SOL    HW130848   2.405   1.592   3.189  0.7050  1.8418 -2.6726
 6463SOL    HW230849   2.463   1.470   3.139 -1.9807  0.9157 -0.7289
 6464SOL     OW30850   1.653   0.446   4.585 -0.4701 -0.9705 -0.6445
 6464SOL    HW130851   1.627   0.376   4.524  1.6142 -1.5296 -0.8916
 6464SOL    HW230852   1.748   0.431   4.591 -0.3284  0.5595  0.7507
 6465SOL     OW30853   2.712   1.399   1.285 -0.1204 -0.1797  0.1977
 6465SOL    HW130854   2.634   1.379   1.234  0.2499 -1.4888  0.1393
 6465SOL    HW230855   2.723   1.494   1.289  2.7248 -0.3777 -3.3513
 6466SOL     OW30856   2.299   2.403   7.264  0.0551 -0.3881 -0.1152
 6466SOL    HW130857   2.304   2.355   7.347  0.1365 -0.4973 -0.1842
 6466SOL    HW230858   2.212   2.440   7.281  0.0002 -1.0155  1.0159
 6467SOL     OW30859   2.388   0.511   1.545  0.2598 -0.7163 -0.2892
 6467SOL    HW130860   2.454   0.461   1.497  3.7600  3.3187  0.3219
 6467SOL    HW230861   2.413   0.485   1.634 -2.0612 -1.0502  0.2720
 6468SOL     OW30862   1.271   4.024   6.574 -0.2823 -0.0334  0.4080
 6468SOL    HW130863   1.226   4.094   6.621  0.0202  0.0918  0.5103
 6468SOL    HW230864   1.267   4.063   6.486  0.8255  0.7878  0.7293
 6469SOL     OW30865   2.151   0.075  15.842 -0.2547  0.2747 -0.4070
 6469SOL    HW130866   2.206   0.143  15.804 -0.8530  1.2564  0.4849
 6469SOL    HW230867   2.164   0.015  15.768 -0.8003  1.0445 -1.1237
 6470SOL     OW30868   4.146   0.777   0.219 -0.5360  0.5496 -0.5988
 6470SOL    HW130869   4.081   0.707   0.220 -1.2296  1.1827 -1.7660
 6470SOL    HW230870   4.111   0.828   0.292 -3.1372 -0.6366 -1.0068
 6471SOL     OW30871   1.056   3.789   4.245  0.1284  0.5100  0.0016
 6471SOL    HW130872   1.054   3.698   4.275 -0.0902  0.3709 -0.4357
 6471SOL    HW230873   1.062   3.777   4.150  2.2693 -0.6053  0.2684
 6472SOL     OW30874   3.822   2.686  15.943  0.9566 -0.0805 -0.5087
 6472SOL    HW130875   3.898   2.728  15.983  1.3240 -2.3348  1.1521
 6472SOL    HW230876   3.779   2.652  16.022 -1.4207  2.1104 -0.8431
 6473SOL     OW30877   4.510   3.433  13.322 -0.2975 -0.5899  0.0817
 6473SOL    HW130878   4.465   3.389  13.395 -0.5097  0.6510  0.6936
 6473SOL    HW230879   4.484   3.372  13.253 -2.8920 -0.3120  0.8022
 6474SOL     OW30880   0.999   2.622  15.972  0.6408  0.1288 -0.0172
 6474SOL    HW130881   1.058   2.697  15.976 -0.0012  0.5428  1.6532
 6474SOL    HW230882   1.056   2.554  15.934  0.2114 -0.8693  1.1113
 6475SOL     OW30883   0.657   2.604   5.436 -0.3475  0.0503 -0.9350
 6475SOL    HW130884   0.638   2.654   5.356 -0.1797  1.5934 -0.0087
 6475SOL    HW230885   0.718   2.669   5.471 -2.0257  0.5919  0.9435
 6476SOL     OW30886   3.443   3.737   6.273 -0.3762  0.5793  0.4766
 6476SOL    HW130887   3.379   3.669   6.256 -1.1311  0.3886  4.0031
 6476SOL    HW230888   3.485   3.690   6.346 -0.3022  0.5162  0.3939
 6477SOL     OW30889   3.895   1.579   9.417  0.8370 -0.0443 -0.3060
 6477SOL    HW130890   3.823   1.626   9.375  1.7861  1.7090  0.0310
 6477SOL    HW230891   3.969   1.639   9.415  0.7333  0.0766 -0.5214
 6478SOL     OW30892   3.152   1.947   5.580 -0.2043 -0.0691  0.3661
 6478SOL    HW130893   3.070   1.910   5.547 -0.2624  1.7089 -1.4926
 6478SOL    HW230894   3.195   1.986   5.504  1.1615 -0.7531  0.7969
 6479SOL     OW30895   2.102   2.490   7.722  0.2993 -0.3549  0.3300
 6479SOL    HW130896   2.103   2.513   7.815  2.3694 -1.7398  0.6625
 6479SOL    HW230897   2.090   2.395   7.722 -2.5816 -0.0004  3.0703
 6480SOL     OW30898   0.322   3.364   3.652  0.2745  0.0282  0.1942
 6480SOL    HW130899   0.226   3.366   3.652  0.3656  4.2842  0.0393
 6480SOL    HW230900   0.353   3.348   3.564 -0.0195  1.1727 -0.1166
 6481SOL     OW30901   4.383   0.646   6.831  0.1290 -0.0383  0.4161
 6481SOL    HW130902   4.470   0.683   6.845  0.0957  0.5582 -0.9485
 6481SOL    HW230903   4.344   0.697   6.903 -1.0033  2.4027 -1.9276
 6482SOL     OW30904   3.868   2.464   2.227 -0.1525 -0.1338 -0.1331
 6482SOL    HW130905   3.784   2.479   2.184 -0.5646  2.2135  1.4863
 6482SOL    HW230906   3.865   2.538   2.288 -2.6659 -0.5005  0.2076
 6483SOL     OW30907   0.133   0.811   7.253 -0.7398  0.1620  0.2395
 6483SOL    HW130908   0.048   0.796   7.294 -1.3095  1.2962 -0.5461
 6483SOL    HW230909   0.193   0.778   7.320 -0.7635  2.2480  1.2681
 6484SOL     OW30910   0.864   3.492   9.646  0.6319  0.4153 -0.3867
 6484SOL    HW130911   0.789   3.454   9.600  0.1352  2.6710 -1.4089
 6484SOL    HW230912   0.909   3.538   9.576 -0.7500  0.0342 -1.5144
 6485SOL     OW30913   1.449   0.118  10.932  0.5051  0.1239 -0.0801
 6485SOL    HW130914   1.426   0.077  11.015 -0.7207  0.1630 -0.4032
 6485SOL    HW230915   1.453   0.043  10.873  4.0920 -0.1949  0.5901
 6486SOL     OW30916   0.189   0.441   0.177 -0.7302  0.1446 -0.2174
 6486SOL    HW130917   0.147   0.463   0.260 -1.9450  1.8346 -1.2935
 6486SOL    HW230918   0.245   0.516   0.161  1.8939 -1.8738 -0.4225
 6487SOL     OW30919   3.066   4.650   2.171  0.1549  0.2936  0.3575
 6487SOL    HW130920   2.996   4.585   2.171  0.2514  0.1818 -1.0489
 6487SOL    HW230921   3.142   4.591   2.171  0.6829  0.9749  1.0501
 6488SOL     OW30922   4.085   0.888   7.729 -0.5968  0.6222  0.0643
 6488SOL    HW130923   4.110   0.796   7.720  0.4112  0.8396  0.6682
 6488SOL    HW230924   4.072   0.899   7.823 -1.8957 -0.4583  0.0074
 6489SOL     OW30925   0.614   0.269   0.998  0.4184 -0.0943  0.1788
 6489SOL    HW130926   0.649   0.357   0.980  2.4348 -0.7031  1.1113
 6489SOL    HW230927   0.649   0.258   1.086  1.3895  1.3815 -0.0119
 6490SOL     OW30928   0.740   0.468  10.051 -0.0284 -0.0991  0.5329
 6490SOL    HW130929   0.755   0.560  10.030  0.3599 -0.0752  0.9214
 6490SOL    HW230930   0.824   0.423  10.059  0.8594  1.6245  0.7691
 6491SOL     OW30931   0.673   0.374   1.254  0.8012 -0.2921  0.0354
 6491SOL    HW130932   0.611   0.437   1.290 -0.3675 -2.6165  2.0916
 6491SOL    HW230933   0.661   0.302   1.315  0.0590 -0.4024 -0.2465
 6492SOL     OW30934   4.680   1.659   5.520 -0.2538  0.1519 -0.0145
 6492SOL    HW130935   4.589   1.643   5.542 -0.1169 -2.4688 -1.3297
 6492SOL    HW230936   4.672   1.750   5.493 -0.9579 -0.0758 -0.5604
 6493SOL     OW30937   4.153   4.482   6.646  0.1585  0.2311  0.3020
 6493SOL    HW130938   4.063   4.510   6.635 -0.5015 -1.1770  2.1053
 6493SOL    HW230939   4.145   4.392   6.615 -2.4099  1.0040 -1.2541
 6494SOL     OW30940   0.082   2.345   8.716  0.2973 -0.3917 -0.2270
 6494SOL    HW130941   0.019   2.383   8.654  0.3443 -1.9820 -1.2464
 6494SOL    HW230942   0.144   2.297   8.660  1.0142  0.7519 -0.4124
 6495SOL     OW30943   2.766   1.393   6.863  0.4768 -1.1191 -0.3537
 6495SOL    HW130944   2.736   1.387   6.953 -1.3520  0.3665 -0.8737
 6495SOL    HW230945   2.678   1.416   6.832  0.9712 -0.2465 -1.0861
 6496SOL     OW30946   2.751   0.753  14.376 -0.1529  0.8345  0.3576
 6496SOL    HW130947   2.822   0.760  14.312  0.4077 -1.5207  0.7189
 6496SOL    HW230948   2.694   0.701  14.319  0.3003  0.0186  0.6577
 6497SOL     OW30949   2.407   3.805   1.266 -0.3011 -0.6533  0.5721
 6497SOL    HW130950   2.477   3.744   1.243 -0.6951 -0.0186 -2.3247
 6497SOL    HW230951   2.367   3.836   1.184  1.1016 -0.0584  0.1232
 6498SOL     OW30952   0.997   2.547  12.640 -0.2015 -0.1355  0.4075
 6498SOL    HW130953   1.079   2.554  12.591 -0.1067  1.2964  0.7698
 6498SOL    HW230954   0.961   2.463  12.612  1.8859  0.1659 -3.2712
 6499SOL     OW30955   0.697   1.691   3.049 -0.2043  0.0354 -0.1749
 6499SOL    HW130956   0.748   1.650   3.119 -1.0015 -1.0878 -0.2291
 6499SOL    HW230957   0.629   1.738   3.098  0.9499  0.2870  1.1803
 6500SOL     OW30958   1.280   2.573   2.710 -0.0239  0.8481 -0.6092
 6500SOL    HW130959   1.285   2.612   2.797 -1.5371 -0.6353  0.1510
 6500SOL    HW230960   1.331   2.492   2.716 -0.5014  0.6362  0.6145
 6501SOL     OW30961   3.203   1.672   7.297 -0.3745 -0.9952  0.1296
 6501SOL    HW130962   3.139   1.710   7.237  1.3161  2.5958  0.5608
 6501SOL    HW230963   3.276   1.733   7.281 -0.7487 -0.2816  1.1239
 6502SOL     OW30964   3.867   4.440  16.160 -0.7389  0.3565  0.1689
 6502SOL    HW130965   3.891   4.526  16.126 -2.6681  0.6729 -0.3975
 6502SOL    HW230966   3.952   4.428  16.204 -0.4185  0.7637 -0.3303
 6503SOL     OW30967   4.499   0.807   6.511 -0.5194 -0.1910 -0.9594
 6503SOL    HW130968   4.409   0.839   6.510  0.0079  1.3030  1.0672
 6503SOL    HW230969   4.481   0.714   6.502 -1.4412  0.1148 -2.3105
 6504SOL     OW30970   0.450   0.500   7.914  0.1902  0.1636  0.1395
 6504SOL    HW130971   0.446   0.595   7.903  0.7836  0.2967  1.0787
 6504SOL    HW230972   0.529   0.492   7.967  0.6335  0.3430 -0.4958
 6505SOL     OW30973   4.285   1.338   8.658 -0.1789  0.8946  0.4118
 6505SOL    HW130974   4.267   1.431   8.645  0.6641  0.9064 -0.6242
 6505SOL    HW230975   4.261   1.326   8.750  0.3895  0.0539  0.4553
 6506SOL     OW30976   0.646   2.329   7.717  0.1020 -0.7821  0.0332
 6506SOL    HW130977   0.560   2.302   7.750 -0.4968  0.1846 -0.7233
 6506SOL    HW230978   0.632   2.421   7.740 -0.1046 -0.4846 -1.2714
 6507SOL     OW30979   2.981   0.178  13.056 -0.2245  0.7449  0.8043
 6507SOL    HW130980   2.911   0.239  13.030  1.4110  1.8831 -0.9623
 6507SOL    HW230981   2.944   0.153  13.140  0.9363  0.9914  1.3948
 6508SOL     OW30982   0.740   0.043   7.599  0.0230  0.4713 -0.2913
 6508SOL    HW130983   0.674   0.083   7.543  0.3368  1.0366 -0.2502
 6508SOL    HW230984   0.759   0.113   7.662  1.4013 -0.0097 -0.1857
 6509SOL     OW30985   1.592   2.128   5.895  0.0355  0.0060 -0.0741
 6509SOL    HW130986   1.615   2.208   5.849 -0.3649 -1.2282 -2.4252
 6509SOL    HW230987   1.580   2.069   5.820  0.1876 -1.6024  1.1545
 6510SOL     OW30988   1.716   2.759   7.964  0.1122  0.3421 -0.4061
 6510SOL    HW130989   1.682   2.763   7.875 -1.0700  0.3467  0.0583
 6510SOL    HW230990   1.661   2.818   8.015  0.3075 -0.3987  0.6553
 6511SOL     OW30991   2.845   3.829   8.861  0.6431  0.8648  0.0406
 6511SOL    HW130992   2.858   3.883   8.782  0.5827  0.0449 -0.5327
 6511SOL    HW230993   2.938   3.808   8.868  0.3127  0.2470  2.3352
 6512SOL     OW30994   4.434   1.065   2.625  0.0382 -0.3495  0.5931
 6512SOL    HW130995   4.455   1.126   2.554 -0.8586 -1.5427 -0.6953
 6512SOL    HW230996   4.405   1.123   2.695 -0.2761  0.1987  0.0099
 6513SOL     OW30997   4.448   1.506  10.501 -0.0695 -0.1339  0.1445
 6513SOL    HW130998   4.433   1.429  10.556  1.9209  0.9750  2.2174
 6513SOL    HW230999   4.370   1.557  10.524  1.6123  2.3414  0.3278
 6514SOL     OW31000   0.019   2.206   3.745  0.2305  0.1450  0.1142
 6514SOL    HW131001   0.008   2.281   3.804 -0.7397  1.3761 -1.6589
 6514SOL    HW231002   0.105   2.219   3.704  0.8088  0.6706  1.4997
 6515SOL     OW31003   0.904   4.213   0.529 -0.1109  0.1768  0.0475
 6515SOL    HW131004   0.990   4.252   0.541  1.3219 -2.6154 -1.1525
 6515SOL    HW231005   0.883   4.254   0.445 -1.7861  0.1185  0.4254
 6516SOL     OW31006   3.752   0.405   4.051  0.1908 -0.4502 -0.4964
 6516SOL    HW131007   3.733   0.347   3.977  0.9354  1.9407 -2.5384
 6516SOL    HW231008   3.815   0.345   4.091 -0.5906 -1.2844 -0.5116
 6517SOL     OW31009   2.940   4.363  13.081  0.1388  0.3319 -0.0787
 6517SOL    HW131010   2.888   4.292  13.045 -1.7853  1.1024  1.1746
 6517SOL    HW231011   2.914   4.436  13.026  0.5629 -0.9212 -1.9283
 6518SOL     OW31012   0.939   3.571   6.277 -0.2105 -0.0184 -0.4141
 6518SOL    HW131013   0.971   3.660   6.264  2.0312 -1.0603 -1.9501
 6518SOL    HW231014   1.023   3.526   6.268 -0.0409 -0.5398  3.7712
 6519SOL     OW31015   1.964   1.449   2.203  0.7055 -0.1957 -0.0341
 6519SOL    HW131016   1.913   1.502   2.142 -1.0508 -0.3854  1.3030
 6519SOL    HW231017   1.951   1.362   2.166 -1.0187  0.4109 -0.8468
 6520SOL     OW31018   3.794   3.246   0.061  0.4418 -0.2090  0.0085
 6520SOL    HW131019   3.790   3.339   0.035 -2.0193 -0.3102 -0.0128
 6520SOL    HW231020   3.790   3.205  17.672  1.2525  0.8734 -0.5401
 6521SOL     OW31021   0.905   0.681   8.444 -0.3088  0.1623  0.7748
 6521SOL    HW131022   0.876   0.693   8.353 -2.4353  1.5939  1.6483
 6521SOL    HW231023   0.922   0.587   8.455  1.1153  0.4298  0.8609
 6522SOL     OW31024   0.110   0.092   1.557 -0.1648  0.2620  0.1735
 6522SOL    HW131025   0.125   0.003   1.525 -0.3388  0.6084 -0.8828
 6522SOL    HW231026   0.019   0.099   1.529 -0.6435  0.7818  1.8581
 6523SOL     OW31027   1.322   1.341   7.035  0.0398 -0.0476  0.4095
 6523SOL    HW131028   1.317   1.248   7.016 -1.1556  0.2730 -0.9037
 6523SOL    HW231029   1.232   1.360   7.007  0.5360  1.1138 -0.4286
 6524SOL     OW31030   3.359   2.174   2.241  0.3392 -0.7839 -0.1218
 6524SOL    HW131031   3.280   2.190   2.190  0.7039 -1.0647 -0.7674
 6524SOL    HW231032   3.344   2.217   2.325 -0.4316  0.1061 -0.7170
 6525SOL     OW31033   1.522   4.306   5.896  0.1064  0.3929  0.3001
 6525SOL    HW131034   1.483   4.227   5.934  1.1843 -0.7509 -0.9770
 6525SOL    HW231035   1.473   4.304   5.814  0.2646 -1.0696  0.2420
 6526SOL     OW31036   3.385   0.679   2.114 -0.3385 -0.1167  0.3176
 6526SOL    HW131037   3.401   0.613   2.046  0.0179  0.7425 -0.4302
 6526SOL    HW231038   3.452   0.743   2.091 -2.9240  1.6968 -2.0887
 6527SOL     OW31039   2.334   1.404   2.266  0.2263  0.0350 -0.0209
 6527SOL    HW131040   2.369   1.316   2.254  1.2449  0.8354 -2.8280
 6527SOL    HW231041   2.298   1.403   2.355 -0.1052 -0.5551 -0.1630
 6528SOL     OW31042   1.120   2.854   2.878  0.6135  0.2240 -0.1185
 6528SOL    HW131043   1.096   2.900   2.958 -0.6289 -0.8955  0.1557
 6528SOL    HW231044   1.164   2.776   2.912 -2.0814 -0.8077  0.9657
 6529SOL     OW31045   2.860   0.497   2.066  0.0532  0.6975 -0.0809
 6529SOL    HW131046   2.866   0.501   2.161 -1.4791  3.4215 -0.0971
 6529SOL    HW231047   2.895   0.583   2.040 -1.2962  1.0931 -0.6160
 6530SOL     OW31048   2.656   0.095   2.955  0.1250 -0.5956  0.4907
 6530SOL    HW131049   2.601   0.023   2.924 -0.8750  0.2998  0.2040
 6530SOL    HW231050   2.598   0.171   2.947  2.2351  0.7985 -1.7931
 6531SOL     OW31051   3.020   4.121   0.825  0.4176 -0.1183  0.3730
 6531SOL    HW131052   3.084   4.152   0.762  1.4557  0.2136  1.5883
 6531SOL    HW231053   2.998   4.034   0.793 -0.7951 -0.1011  1.1410
 6532SOL     OW31054   2.552   3.011   7.728 -0.0314 -0.1458 -0.0171
 6532SOL    HW131055   2.598   2.947   7.783 -0.7111 -1.3827 -0.8721
 6532SOL    HW231056   2.462   2.980   7.731  0.6194 -1.8332  2.1635
 6533SOL     OW31057   1.016   3.693   2.954 -0.1214 -0.0057 -0.2340
 6533SOL    HW131058   0.983   3.603   2.959 -1.3226  0.5516  2.0717
 6533SOL    HW231059   1.086   3.692   3.020 -1.1230  1.3841  0.8491
 6534SOL     OW31060   3.829   3.189   0.786 -0.0305 -0.4568 -0.1375
 6534SOL    HW131061   3.749   3.145   0.755 -0.9685  0.7204  0.6429
 6534SOL    HW231062   3.799   3.272   0.822  3.2554  0.3996  0.5963
 6535SOL     OW31063   1.587   3.958   4.816 -0.3025  0.2949  0.5006
 6535SOL    HW131064   1.602   3.998   4.730  3.2882 -0.3696  0.8196
 6535SOL    HW231065   1.662   3.975   4.873 -0.6821  3.1115  0.1772
 6536SOL     OW31066   0.216   1.887   2.057  0.3973  0.0317 -0.2581
 6536SOL    HW131067   0.271   1.923   2.127 -0.1118  0.9298 -0.3235
 6536SOL    HW231068   0.165   1.963   2.029 -0.4133 -0.7115 -0.7912
 6537SOL     OW31069   1.982   0.621  11.220 -0.3102 -0.0641 -0.0337
 6537SOL    HW131070   1.906   0.642  11.274 -0.0294 -1.1363  0.7748
 6537SOL    HW231071   1.934   0.589  11.144 -0.6983  0.9282 -0.2036
 6538SOL     OW31072   2.211   0.524   0.634 -0.3051  0.2613 -0.6222
 6538SOL    HW131073   2.289   0.477   0.605 -0.4924 -0.0760 -0.5916
 6538SOL    HW231074   2.220   0.504   0.728 -0.4814 -1.0237 -0.8830
 6539SOL     OW31075   3.567   2.811   3.189 -0.3481 -0.1934  0.2637
 6539SOL    HW131076   3.645   2.759   3.170  1.4757  1.9965  1.6666
 6539SOL    HW231077   3.571   2.825   3.283 -1.0217 -0.1336  0.2824
 6540SOL     OW31078   4.118   2.369   0.943 -0.0594  0.1230  0.2981
 6540SOL    HW131079   4.086   2.436   0.883  0.5573 -0.4243 -0.6398
 6540SOL    HW231080   4.203   2.405   0.967  0.3099  1.0369 -2.4147
 6541SOL     OW31081   1.962   4.026  12.292 -0.1995  0.0499  0.1560
 6541SOL    HW131082   1.889   4.088  12.289 -0.4249 -0.2812 -1.0436
 6541SOL    HW231083   2.002   4.035  12.379  2.3209 -0.9319 -0.9020
 6542SOL     OW31084   4.503   0.227   3.121 -0.3394 -0.1634 -0.0795
 6542SOL    HW131085   4.448   0.179   3.059 -0.3078  0.7970 -0.8478
 6542SOL    HW231086   4.548   0.156   3.168 -0.4822 -1.2579 -1.5880
 6543SOL     OW31087   2.975   0.979  13.985 -0.1263  0.0611 -0.9617
 6543SOL    HW131088   2.922   1.014  13.913  1.7561  1.8762 -1.4712
 6543SOL    HW231089   3.032   1.054  14.003 -0.0832 -0.2449  0.2201
 6544SOL     OW31090   1.244   4.274   1.994  0.7820  0.4596  0.2856
 6544SOL    HW131091   1.226   4.184   1.968 -0.5638  1.0074 -0.6865
 6544SOL    HW231092   1.301   4.256   2.068  0.1284  3.3844  1.5113
 6545SOL     OW31093   4.407   4.305  11.116 -0.2804 -0.1466  0.5693
 6545SOL    HW131094   4.450   4.236  11.065  1.1885  1.7569 -0.7249
 6545SOL    HW231095   4.429   4.376  11.056  1.7981 -0.4214  1.0300
 6546SOL     OW31096   2.795   4.189   5.882  0.1766  0.6731  0.2232
 6546SOL    HW131097   2.728   4.138   5.837  1.9877 -0.4809 -1.1474
 6546SOL    HW231098   2.867   4.126   5.876 -2.2746 -2.2003  1.1624
 6547SOL     OW31099   0.341   1.645   3.765 -0.1381 -0.2577  0.3295
 6547SOL    HW131100   0.273   1.696   3.720  0.4574  1.7652  1.7099
 6547SOL    HW231101   0.332   1.666   3.858  0.7122 -0.9306  0.5639
 6548SOL     OW31102   4.698   0.975   1.458 -0.0888  0.2681  0.3766
 6548SOL    HW131103   4.616   0.940   1.424  0.2266 -1.7393  1.6907
 6548SOL    HW231104   4.666   1.008   1.542 -0.3073  0.0834  0.3649
 6549SOL     OW31105   1.015   4.625  15.043  0.0803  0.0280 -0.0056
 6549SOL    HW131106   1.105   4.622  15.076 -0.0909  0.2236  0.4718
 6549SOL    HW231107   0.968   4.587  15.117  1.1253 -1.2895 -0.0178
 6550SOL     OW31108   4.363   4.651   7.646 -0.8671  1.2079 -0.4051
 6550SOL    HW131109   4.311   4.609   7.578  0.2840 -1.9256  0.6659
 6550SOL    HW231110   4.419   4.576   7.663 -1.0850  1.4892  1.4909
 6551SOL     OW31111   2.321   1.894   2.920  0.6805  0.1696 -0.3702
 6551SOL    HW131112   2.369   1.945   2.986  0.1486  2.4845 -1.7666
 6551SOL    HW231113   2.343   1.803   2.940  2.6357  1.0002  1.2603
 6552SOL     OW31114   0.005   2.886   2.611  0.3305  0.1629 -0.3707
 6552SOL    HW131115   0.016   2.887   2.516 -1.3742 -2.3341 -0.5890
 6552SOL    HW231116   4.652   2.942   2.620  1.7403  2.2541 -1.1883
 6553SOL     OW31117   2.342   3.404   3.483 -0.0016  0.1063  0.0928
 6553SOL    HW131118   2.269   3.433   3.428 -2.1873 -0.9602  2.4541
 6553SOL    HW231119   2.402   3.386   3.411  0.3919 -0.8677  0.6639
 6554SOL     OW31120   3.597   4.014   2.997  0.4356  0.1135 -0.0549
 6554SOL    HW131121   3.597   4.102   2.959 -2.8565 -0.1398 -0.5910
 6554SOL    HW231122   3.533   4.017   3.067 -1.5596 -2.7832 -1.7588
 6555SOL     OW31123   3.272   3.940   4.931 -0.0791 -0.1276  0.0296
 6555SOL    HW131124   3.181   3.912   4.924 -0.3669  1.4361 -2.3645
 6555SOL    HW231125   3.281   3.937   5.026  1.8286 -0.7668 -0.1666
 6556SOL     OW31126   2.449   3.527   6.679 -0.0230  0.2783  0.5034
 6556SOL    HW131127   2.493   3.444   6.657 -1.4926 -0.1169 -0.9223
 6556SOL    HW231128   2.520   3.585   6.707 -0.5159  1.4444 -0.6626
 6557SOL     OW31129   2.030   3.021   4.630 -0.6341 -0.1670  0.1595
 6557SOL    HW131130   2.020   3.091   4.696  0.7042  0.2836 -0.1197
 6557SOL    HW231131   2.124   3.006   4.637 -0.1512  2.4649 -0.6726
 6558SOL     OW31132   2.813   1.028   7.583  0.2506  0.0345  0.1521
 6558SOL    HW131133   2.857   0.966   7.641 -2.0465 -2.4120 -0.6908
 6558SOL    HW231134   2.723   1.012   7.612 -0.2219  2.1632 -0.1568
 6559SOL     OW31135   4.563   0.984  15.796  0.5908 -0.6278 -0.0909
 6559SOL    HW131136   4.606   0.937  15.725  0.6413  1.1531 -1.2319
 6559SOL    HW231137   4.477   0.941  15.792 -0.2475  1.1215 -0.6980
 6560SOL     OW31138   3.348   0.982  12.109  0.1715  0.0921  0.2401
 6560SOL    HW131139   3.296   1.059  12.130  0.4655 -0.1244  1.7413
 6560SOL    HW231140   3.280   0.929  12.066 -0.4827  0.0949  1.2745
 6561SOL     OW31141   3.046   4.127   8.088  1.1677  0.3392  0.4254
 6561SOL    HW131142   3.016   4.146   8.177 -0.6331 -1.5124  0.2058
 6561SOL    HW231143   3.111   4.058   8.101  2.3580  1.2033 -0.9287
 6562SOL     OW31144   0.894   3.528   6.742 -0.0291 -0.5401 -0.1654
 6562SOL    HW131145   0.902   3.620   6.718 -1.6840 -0.6078 -0.9465
 6562SOL    HW231146   0.809   3.514   6.703 -0.2908  2.1896 -0.6024
 6563SOL     OW31147   0.305   4.720   4.206  0.0243 -0.2975  0.2766
 6563SOL    HW131148   0.386   0.033   4.173 -0.5154  1.0651  0.4704
 6563SOL    HW231149   0.239   0.049   4.161 -2.4378 -2.0163  1.7913
 6564SOL     OW31150   3.233   1.751   5.780  0.1020 -0.1833 -0.6066
 6564SOL    HW131151   3.187   1.803   5.714  2.7737  0.3649 -2.0076
 6564SOL    HW231152   3.232   1.671   5.727  0.4652 -0.9065  0.4911
 6565SOL     OW31153   4.670   0.572   4.354 -0.3408  0.4681  0.0036
 6565SOL    HW131154   4.650   0.583   4.261  0.2206  1.3146 -0.0174
 6565SOL    HW231155   4.598   0.624   4.390 -0.6829 -0.8054  1.1340
 6566SOL     OW31156   0.524   1.265   2.896  0.5998  0.4242 -0.7414
 6566SOL    HW131157   0.539   1.241   2.804  0.3108  0.0487 -0.6893
 6566SOL    HW231158   0.554   1.185   2.939  0.9688  1.3904  0.8044
 6567SOL     OW31159   3.250   0.035  16.400  0.3330  0.6990  0.5188
 6567SOL    HW131160   3.221   4.705  16.327  1.1879  2.9379 -1.4662
 6567SOL    HW231161   3.332   4.710  16.409 -0.1295 -0.1392  0.1911
 6568SOL     OW31162   1.095   2.608   7.002 -0.4096  0.5050  0.6951
 6568SOL    HW131163   1.031   2.669   6.965  0.7826 -1.0512 -3.8725
 6568SOL    HW231164   1.032   2.561   7.056  0.0163 -1.1994 -0.2913
 6569SOL     OW31165   2.485   3.816   2.217 -0.6692 -0.3128 -0.2214
 6569SOL    HW131166   2.578   3.799   2.205 -0.5389  1.1661 -1.4063
 6569SOL    HW231167   2.472   3.783   2.306 -1.4276 -1.3968 -0.7353
 6570SOL     OW31168   4.238   2.963   6.533 -0.0971 -0.6825  0.2483
 6570SOL    HW131169   4.317   3.010   6.560 -0.6915 -1.0572  2.6622
 6570SOL    HW231170   4.171   3.013   6.580  0.3239 -1.1212  1.3189
 6571SOL     OW31171   3.806   2.340   7.364 -0.0181 -0.2538 -0.2780
 6571SOL    HW131172   3.768   2.391   7.436 -1.7317  1.9476 -2.7808
 6571SOL    HW231173   3.730   2.317   7.311 -0.3493  0.0422  0.0707
 6572SOL     OW31174   2.766   0.482   4.792 -0.8043 -0.1486 -0.0876
 6572SOL    HW131175   2.848   0.522   4.763 -1.0419  1.6538  1.7323
 6572SOL    HW231176   2.810   0.413   4.841 -1.2946 -0.5515 -0.2107
 6573SOL     OW31177   4.190   3.275  16.628  0.1932 -0.4509  0.2428
 6573SOL    HW131178   4.106   3.274  16.583  1.0614 -1.9109 -1.3468
 6573SOL    HW231179   4.179   3.355  16.679 -1.3782 -1.6808  1.8407
 6574SOL     OW31180   3.968   2.794   3.262 -0.3202 -0.0790  0.2139
 6574SOL    HW131181   3.891   2.758   3.219 -0.6248  1.5784 -0.6451
 6574SOL    HW231182   3.937   2.775   3.350 -0.9789  0.9077  0.1957
 6575SOL     OW31183   1.368   1.163  10.580 -0.3240 -0.2321  0.1843
 6575SOL    HW131184   1.394   1.182  10.670 -0.3692 -0.1289  0.1752
 6575SOL    HW231185   1.273   1.168  10.586 -0.2545 -0.6853  1.6754
 6576SOL     OW31186   1.042   3.482   3.994 -0.1823 -0.6275 -0.0047
 6576SOL    HW131187   1.111   3.456   3.933 -1.1196 -2.6790 -0.1812
 6576SOL    HW231188   1.011   3.400   4.033 -1.3237 -0.6812 -1.0079
 6577SOL     OW31189   2.175   1.159   3.830 -0.2574 -0.0972  0.0265
 6577SOL    HW131190   2.171   1.222   3.902  0.5727  1.7151 -1.5221
 6577SOL    HW231191   2.260   1.119   3.851 -2.0388 -1.6971  4.0951
 6578SOL     OW31192   3.568   2.627   4.239  0.5849  0.0254 -0.3950
 6578SOL    HW131193   3.494   2.634   4.178 -1.1730  0.2673  1.7587
 6578SOL    HW231194   3.617   2.550   4.211 -1.2867 -1.4639  0.4434
 6579SOL     OW31195   3.234   0.102   7.000 -0.1311  0.1724 -0.3553
 6579SOL    HW131196   3.306   0.132   6.945  0.1682  0.9419  0.4536
 6579SOL    HW231197   3.265   0.033   7.059  1.1106  0.6916 -0.4042
 6580SOL     OW31198   1.245   0.855   9.070 -0.2091 -0.5011  0.4292
 6580SOL    HW131199   1.196   0.904   9.137 -0.3416 -0.1954  0.1118
 6580SOL    HW231200   1.270   0.923   9.007  0.0252  0.0650  1.1351
 6581SOL     OW31201   1.323   2.793   5.356 -0.1868  0.2388  0.3425
 6581SOL    HW131202   1.265   2.763   5.287 -0.7771 -0.4678  1.1488
 6581SOL    HW231203   1.406   2.748   5.339 -0.1205  0.5206 -0.0883
 6582SOL     OW31204   0.358   2.209   2.104  0.2762  0.4354 -0.3048
 6582SOL    HW131205   0.406   2.182   2.026  0.6155 -1.4956  0.5541
 6582SOL    HW231206   0.333   2.299   2.085  1.8278  0.7184 -1.0020
 6583SOL     OW31207   4.621   3.438  14.084  0.6086  0.0623  0.3693
 6583SOL    HW131208   4.650   3.510  14.027  0.1396  0.3697  0.5201
 6583SOL    HW231209   4.681   3.431  14.158 -0.0010 -1.9744  0.6722
 6584SOL     OW31210   0.293   0.742  17.640 -0.0506  0.1374  0.1107
 6584SOL    HW131211   0.213   0.731  17.691 -1.6147 -2.6502 -2.8663
 6584SOL    HW231212   0.355   0.795  17.689  2.1586 -1.8450 -0.5579
 6585SOL     OW31213   1.624   1.949   3.820  0.3637  0.0542 -0.6086
 6585SOL    HW131214   1.607   2.041   3.840 -2.1545 -1.2376  3.1352
 6585SOL    HW231215   1.615   1.943   3.725 -2.4461 -1.0484 -0.2649
 6586SOL     OW31216   0.224   3.005   5.648 -0.2931 -0.3747  1.2021
 6586SOL    HW131217   0.221   3.061   5.570  2.8258 -1.2608  0.4371
 6586SOL    HW231218   0.263   2.926   5.611 -0.3096 -0.1136  0.6217
 6587SOL     OW31219   3.788   3.269   3.775  0.1201 -0.2815 -0.1323
 6587SOL    HW131220   3.835   3.337   3.823 -1.4077 -0.6439  1.9183
 6587SOL    HW231221   3.853   3.231   3.716  0.4425  0.0972 -0.0196
 6588SOL     OW31222   1.510   3.130   3.063  0.5042  0.0540 -0.3181
 6588SOL    HW131223   1.425   3.096   3.035  0.6664  0.0744 -0.8354
 6588SOL    HW231224   1.481   3.202   3.120 -1.5675 -0.1757 -1.0748
 6589SOL     OW31225   1.434   4.385   0.309  0.6089 -0.1284 -0.5801
 6589SOL    HW131226   1.470   4.452   0.251  0.6959 -0.1717 -0.5769
 6589SOL    HW231227   1.465   4.414   0.395 -3.1890 -0.5863  0.9401
 6590SOL     OW31228   1.328   0.747   1.714 -0.2917 -0.4882  0.1702
 6590SOL    HW131229   1.339   0.664   1.668 -2.1040  1.2185 -3.3209
 6590SOL    HW231230   1.275   0.726   1.791 -0.6628 -0.6129 -0.1209
 6591SOL     OW31231   1.819   4.576   7.417 -0.1348 -0.1452 -0.4231
 6591SOL    HW131232   1.878   4.650   7.434 -0.8801  0.6798 -1.4433
 6591SOL    HW231233   1.865   4.504   7.461 -0.4860  0.6995  1.3183
 6592SOL     OW31234   2.192   2.352   5.618 -0.2284 -0.3877  0.0129
 6592SOL    HW131235   2.213   2.424   5.559 -0.1027 -1.7097 -1.5541
 6592SOL    HW231236   2.262   2.289   5.605 -0.3016  0.0081 -2.2583
 6593SOL     OW31237   0.514   1.708  10.568 -0.2074  0.2598  0.7341
 6593SOL    HW131238   0.447   1.656  10.613  1.6423 -2.8161 -0.1053
 6593SOL    HW231239   0.588   1.649  10.554 -0.9799 -1.0336  2.1895
 6594SOL     OW31240   4.648   0.528   5.975  0.4723  0.7177 -0.2850
 6594SOL    HW131241   0.005   0.529   5.924  0.1450 -2.2998 -0.8576
 6594SOL    HW231242   4.580   0.549   5.910 -0.4087  1.5728  0.8987
 6595SOL     OW31243   0.578   0.578  10.253  0.0119  0.2837 -0.2158
 6595SOL    HW131244   0.567   0.672  10.270  2.2395  0.7940 -1.6591
 6595SOL    HW231245   0.633   0.567  10.176  0.6985  0.0352  0.3126
 6596SOL     OW31246   3.149   3.630   7.409 -0.1637 -0.4228 -0.3768
 6596SOL    HW131247   3.167   3.539   7.388 -0.9399 -0.2366 -1.8535
 6596SOL    HW231248   3.174   3.667   7.324 -1.2834  0.2063 -0.4317
 6597SOL     OW31249   3.846   1.306   7.345 -0.2955 -0.6807 -0.0115
 6597SOL    HW131250   3.803   1.377   7.297  0.6511 -0.0993 -0.0078
 6597SOL    HW231251   3.939   1.315   7.325 -0.2071 -0.7659  0.3583
 6598SOL     OW31252   0.478   4.241   4.578  0.3958 -0.2109  0.1243
 6598SOL    HW131253   0.484   4.274   4.668  2.4750 -2.1826  0.7092
 6598SOL    HW231254   0.533   4.163   4.588 -0.1988 -0.5607  0.6778
 6599SOL     OW31255   2.287   1.019  17.535 -0.4093  0.3435  0.4234
 6599SOL    HW131256   2.316   1.107  17.511 -0.2112  0.2048  0.1552
 6599SOL    HW231257   2.313   0.965  17.460 -0.5861  0.4278  0.3006
 6600SOL     OW31258   0.192   2.295   1.277  0.0456 -0.2003 -0.6746
 6600SOL    HW131259   0.288   2.297   1.271 -0.0331 -0.2810 -1.9422
 6600SOL    HW231260   0.174   2.388   1.267  1.8560  0.3776  1.3634
 6601SOL     OW31261   1.023   3.776   3.286  0.1502  0.1898 -0.3076
 6601SOL    HW131262   0.975   3.712   3.234 -0.2669  1.4350 -1.4772
 6601SOL    HW231263   1.035   3.733   3.371 -0.6250  2.1104  0.7858
 6602SOL     OW31264   3.663   3.142   7.926  0.2241  0.2148  0.4932
 6602SOL    HW131265   3.634   3.060   7.966  1.0372  0.4096  1.4962
 6602SOL    HW231266   3.710   3.173   8.003  1.7388  1.2649 -0.8622
 6603SOL     OW31267   1.520   0.339   6.521 -0.4011  0.1190 -0.2640
 6603SOL    HW131268   1.494   0.252   6.490 -0.9694  0.3400 -0.4199
 6603SOL    HW231269   1.512   0.400   6.447 -0.6316 -0.3563 -0.6349
 6604SOL     OW31270   2.968   3.481  17.593 -0.5360 -0.3332 -1.2097
 6604SOL    HW131271   3.056   3.501  17.560  0.1727 -0.6836  0.4367
 6604SOL    HW231272   2.923   3.482  17.508 -2.9224 -1.9213  0.0290
 6605SOL     OW31273   2.858   2.686  16.297 -0.0829  0.2613  0.6362
 6605SOL    HW131274   2.847   2.764  16.352 -1.4614 -0.5014  1.4391
 6605SOL    HW231275   2.840   2.622  16.366  1.4235 -0.5758  0.2384
 6606SOL     OW31276   2.477   0.372   2.431  1.2051  0.3834 -0.1310
 6606SOL    HW131277   2.538   0.327   2.489  2.4901 -1.0442 -2.5607
 6606SOL    HW231278   2.399   0.318   2.446  1.7745  0.9761  4.7849
 6607SOL     OW31279   0.622   3.046  17.057  0.0263 -0.4187 -0.1909
 6607SOL    HW131280   0.610   3.040  17.152  2.5644  0.5137  0.1869
 6607SOL    HW231281   0.532   3.051  17.023 -0.4707  0.6528  1.2652
 6608SOL     OW31282   2.753   1.417  13.519  0.1381 -0.3619 -0.0440
 6608SOL    HW131283   2.835   1.416  13.570  0.9579  0.4511 -1.3620
 6608SOL    HW231284   2.695   1.388  13.589  0.3143 -0.5369  0.0308
 6609SOL     OW31285   1.143   2.614   6.386 -0.3342  0.1575  0.4380
 6609SOL    HW131286   1.164   2.551   6.318  0.0552  3.1135 -2.1968
 6609SOL    HW231287   1.136   2.689   6.327 -3.5620 -0.1978  0.3588
 6610SOL     OW31288   3.380   4.399   7.044 -0.3138 -0.2964  0.0849
 6610SOL    HW131289   3.456   4.435   6.998 -0.6974  0.2713 -0.1004
 6610SOL    HW231290   3.398   4.307   7.062  0.8143 -0.1814 -0.3929
 6611SOL     OW31291   3.993   4.542   6.048  0.1917 -0.0843  0.6636
 6611SOL    HW131292   4.008   4.552   5.954 -1.0244 -1.3873  0.3301
 6611SOL    HW231293   3.910   4.495   6.048  0.4087 -0.4604 -0.6007
 6612SOL     OW31294   1.966   4.608   0.223  0.1621 -0.3999  0.6509
 6612SOL    HW131295   2.048   4.619   0.174  0.5042 -2.5262  0.7763
 6612SOL    HW231296   1.916   4.540   0.179 -1.7216 -1.5408  4.6452
 6613SOL     OW31297   3.023   1.416   5.461 -0.0597 -0.3838  0.1384
 6613SOL    HW131298   3.115   1.418   5.486 -0.3942  1.3527  1.2523
 6613SOL    HW231299   3.023   1.332   5.414  1.1416 -0.4884  0.3239
 6614SOL     OW31300   2.140   3.060   8.139 -0.4316 -0.5587  0.0029
 6614SOL    HW131301   2.234   3.057   8.122 -0.7116 -0.1586 -1.6694
 6614SOL    HW231302   2.128   2.994   8.207 -2.4071 -1.9876 -1.7189
 6615SOL     OW31303   4.359   0.100  11.389  0.7373 -0.5440 -0.6156
 6615SOL    HW131304   4.295   0.142  11.445  0.3299 -0.0125 -1.4843
 6615SOL    HW231305   4.411   0.172  11.354 -0.7588  0.4566 -0.7715
 6616SOL     OW31306   4.161   1.108   8.023  0.6246 -0.4527  0.2898
 6616SOL    HW131307   4.173   1.130   7.931 -0.5652 -1.9601 -0.2256
 6616SOL    HW231308   4.131   1.017   8.021 -0.2632 -0.0944 -2.2298
 6617SOL     OW31309   2.212   2.093   5.233 -0.5840  0.1600  0.2335
 6617SOL    HW131310   2.137   2.033   5.228 -0.9948  0.8442 -1.7682
 6617SOL    HW231311   2.276   2.024   5.216 -0.1557  0.0451  2.3049
 6618SOL     OW31312   2.457   0.692   3.218 -0.2130 -0.3279  0.2251
 6618SOL    HW131313   2.380   0.720   3.168  1.1524  0.4117 -1.4457
 6618SOL    HW231314   2.482   0.766   3.273  0.9389 -3.0785  3.3975
 6619SOL     OW31315   0.902   4.245  17.110 -0.4423 -0.6866  0.1265
 6619SOL    HW131316   0.864   4.162  17.140 -1.1509 -1.3604 -2.5960
 6619SOL    HW231317   0.826   4.300  17.090  0.0594 -0.1823 -0.4071
 6620SOL     OW31318   2.110   2.634   3.147  0.2530 -0.7793 -0.5947
 6620SOL    HW131319   2.033   2.623   3.203 -0.6201  3.9321 -0.8582
 6620SOL    HW231320   2.177   2.605   3.209 -0.6366 -0.5363  0.4936
 6621SOL     OW31321   3.438   2.679   4.489 -0.8244  0.4264  0.3216
 6621SOL    HW131322   3.349   2.656   4.464 -0.1901 -3.1407  1.4616
 6621SOL    HW231323   3.481   2.645   4.410  0.5012 -0.4010  1.4129
 6622SOL     OW31324   3.550   0.780  11.710  0.3434 -0.4591  0.1682
 6622SOL    HW131325   3.497   0.775  11.789 -0.7115 -1.1755 -0.5791
 6622SOL    HW231326   3.642   0.786  11.735  0.3803  0.3498 -0.1710
 6623SOL     OW31327   3.661   2.157   9.147  0.5859 -0.4573  0.3767
 6623SOL    HW131328   3.641   2.134   9.238  0.2151  0.0457  0.4199
 6623SOL    HW231329   3.599   2.228   9.129 -0.4140 -1.3014  0.4972
 6624SOL     OW31330   3.854   1.169   6.548  0.1796 -0.0744 -0.1581
 6624SOL    HW131331   3.760   1.178   6.538  0.1281 -0.0947  0.3207
 6624SOL    HW231332   3.863   1.132   6.636 -1.1352  0.7396  0.3063
 6625SOL     OW31333   3.608   3.713   4.995 -0.0196 -0.3952  0.4860
 6625SOL    HW131334   3.516   3.695   4.976 -0.0972  1.9809 -1.4330
 6625SOL    HW231335   3.641   3.624   4.986  1.8734  0.3513  0.0690
 6626SOL     OW31336   2.825   2.750   6.652  0.0690  0.1398 -0.6299
 6626SOL    HW131337   2.785   2.664   6.636 -0.9662  0.2951  1.1939
 6626SOL    HW231338   2.909   2.729   6.692  0.3412 -0.2481 -1.3981
 6627SOL     OW31339   4.621   1.557   7.809  0.0431  0.2010 -0.6746
 6627SOL    HW131340   4.541   1.514   7.840 -0.5226  1.3696 -0.4975
 6627SOL    HW231341   4.621   1.627   7.874  1.5235 -0.4707  0.0467
 6628SOL     OW31342   0.969   1.284   1.935  0.2089  0.3730  0.4143
 6628SOL    HW131343   0.985   1.193   1.959 -1.1758 -0.4823 -1.8910
 6628SOL    HW231344   1.027   1.297   1.859 -0.2130  2.2900  0.4136
 6629SOL     OW31345   1.644   1.593   5.228 -0.0987 -0.2440  0.8566
 6629SOL    HW131346   1.701   1.669   5.224 -1.4895  0.7890  0.7571
 6629SOL    HW231347   1.667   1.553   5.312  0.2584 -0.6590  0.5619
 6630SOL     OW31348   4.159   0.584   6.501 -0.6914  0.4197 -0.3500
 6630SOL    HW131349   4.084   0.544   6.457 -1.2388  0.2209  0.7632
 6630SOL    HW231350   4.184   0.647   6.434  0.1579  0.2245 -0.2212
 6631SOL     OW31351   3.960   4.174   8.716 -0.6238 -0.1596 -0.2641
 6631SOL    HW131352   3.937   4.158   8.624 -1.5731 -0.8365  0.0838
 6631SOL    HW231353   4.025   4.243   8.703  1.4098 -1.8761  0.8582
 6632SOL     OW31354   0.063   3.449  12.809  0.1814 -0.2896  0.2206
 6632SOL    HW131355   0.141   3.474  12.761  1.4352 -1.8390  1.4474
 6632SOL    HW231356   0.001   3.502  12.759 -1.7646 -0.9817  1.8802
 6633SOL     OW31357   1.612   3.381   6.487  1.0275 -0.0260  0.1924
 6633SOL    HW131358   1.560   3.308   6.454  0.7112 -0.3392  1.3953
 6633SOL    HW231359   1.665   3.346   6.558 -1.0734 -0.6115  1.4718
 6634SOL     OW31360   0.299   4.113   2.330 -0.1702 -0.5359  0.1830
 6634SOL    HW131361   0.298   4.180   2.262 -0.0107  1.3601  2.0563
 6634SOL    HW231362   0.212   4.072   2.321 -0.4893 -0.4729  3.2204
 6635SOL     OW31363   1.140   4.658   1.033  0.6712 -0.0011  0.3281
 6635SOL    HW131364   1.137   4.582   1.090  1.8092  1.3882  2.2333
 6635SOL    HW231365   1.060   4.648   0.981  0.4067  0.1970  0.6986
 6636SOL     OW31366   0.666   4.038   9.754  0.3098 -0.1402  0.1696
 6636SOL    HW131367   0.754   4.073   9.736 -0.5491  1.5891 -0.6416
 6636SOL    HW231368   0.614   4.115   9.775  1.6958  0.9974 -0.5387
 6637SOL     OW31369   4.257   3.643  17.163 -0.0717  0.6101 -0.1828
 6637SOL    HW131370   4.205   3.627  17.242  1.1889  0.9593  0.7086
 6637SOL    HW231371   4.344   3.616  17.190  0.5979  1.6236 -1.3155
 6638SOL     OW31372   2.748   0.247  15.286 -0.5152 -0.1842 -0.0934
 6638SOL    HW131373   2.694   0.304  15.340 -0.1977  2.5677 -2.6619
 6638SOL    HW231374   2.779   0.303  15.214  1.8880 -1.2851  0.1079
 6639SOL     OW31375   1.797   3.003   2.573 -0.4448 -0.4503 -0.3305
 6639SOL    HW131376   1.882   3.043   2.591  0.1178 -1.6715 -0.2939
 6639SOL    HW231377   1.751   3.014   2.656  1.6086  1.1488  0.5929
 6640SOL     OW31378   2.129   0.173   8.041 -0.1139 -0.7127 -0.2304
 6640SOL    HW131379   2.161   0.084   8.055 -0.8434 -1.0195 -0.5509
 6640SOL    HW231380   2.036   0.160   8.058 -0.1818 -0.2170 -0.2212
 6641SOL     OW31381   4.372   2.358   5.376  0.0764 -0.3695  0.0453
 6641SOL    HW131382   4.290   2.315   5.352 -0.5471  0.9910 -0.2522
 6641SOL    HW231383   4.341   2.401   5.455  1.8868 -0.2114  0.6766
 6642SOL     OW31384   3.782   2.721   0.249  0.1839  0.0654 -0.4401
 6642SOL    HW131385   3.863   2.699   0.297  2.1641 -0.1121 -3.8369
 6642SOL    HW231386   3.736   2.637   0.248 -0.3054  0.3227  0.7303
 6643SOL     OW31387   0.433   3.378   4.591 -0.6252  0.1851  0.1963
 6643SOL    HW131388   0.396   3.290   4.597 -0.6452  0.1603 -0.3062
 6643SOL    HW231389   0.386   3.422   4.663  2.4437  1.5040  1.3894
 6644SOL     OW31390   2.098   2.379   3.477 -0.0423 -0.5469  0.2949
 6644SOL    HW131391   2.139   2.312   3.423  0.2540 -1.1200  1.2339
 6644SOL    HW231392   2.056   2.326   3.545 -1.8004  0.9596  0.3782
 6645SOL     OW31393   2.642   1.091   3.565  0.1937  0.6555 -0.4134
 6645SOL    HW131394   2.631   1.184   3.548 -1.7195  0.6683  0.8973
 6645SOL    HW231395   2.731   1.079   3.530 -0.4690 -0.6912 -1.6478
 6646SOL     OW31396   3.700   1.230   8.553 -0.6276  0.3530  0.2444
 6646SOL    HW131397   3.708   1.210   8.460 -1.2131  2.2239 -0.2076
 6646SOL    HW231398   3.700   1.141   8.588  0.8174  0.7960  1.3316
 6647SOL     OW31399   0.130   0.832   1.001  0.6406 -0.1157  0.2735
 6647SOL    HW131400   0.114   0.845   1.095 -0.2816 -0.0733  0.1096
 6647SOL    HW231401   0.145   0.920   0.968  0.2432 -0.9441 -2.0693
 6648SOL     OW31402   2.349   1.125  15.694  0.3383 -0.2139  0.0701
 6648SOL    HW131403   2.412   1.092  15.630  1.6293 -0.5993  1.5504
 6648SOL    HW231404   2.343   1.219  15.676 -1.1789 -0.1789  0.7615
 6649SOL     OW31405   0.971   4.534  15.282  0.0156  0.1993  0.3048
 6649SOL    HW131406   0.944   4.580  15.362  2.8070  1.7784  0.3356
 6649SOL    HW231407   1.066   4.522  15.287  0.1468  2.4806  3.7313
 6650SOL     OW31408   0.674   4.161  12.144 -0.0323 -0.3285  0.4650
 6650SOL    HW131409   0.716   4.089  12.096 -1.0941  0.3216 -1.4140
 6650SOL    HW231410   0.618   4.198  12.075  3.1690  3.5682 -0.0471
 6651SOL     OW31411   4.269   3.213  11.422  0.5108  0.0703  0.6657
 6651SOL    HW131412   4.275   3.297  11.376 -1.3510 -1.1387 -1.7887
 6651SOL    HW231413   4.236   3.241  11.507  0.5946 -0.3354  0.8319
 6652SOL     OW31414   3.232   4.200   5.357 -0.1704  0.2374 -0.3315
 6652SOL    HW131415   3.279   4.235   5.281  1.8180 -1.8603 -0.0609
 6652SOL    HW231416   3.165   4.268   5.367 -0.6013 -0.4079  1.1554
 6653SOL     OW31417   0.548   4.512   4.354 -0.0374 -0.0205  0.1930
 6653SOL    HW131418   0.602   4.548   4.424  0.0336 -0.6727  0.4713
 6653SOL    HW231419   0.606   4.454   4.305  0.7916  1.2165 -0.2905
 6654SOL     OW31420   4.091   1.878   3.974 -0.8817 -0.4393 -0.4945
 6654SOL    HW131421   4.101   1.967   3.940 -1.9613  0.3025  1.0703
 6654SOL    HW231422   4.086   1.897   4.068 -1.8649 -2.0721 -0.2052
 6655SOL     OW31423   1.824   0.463  11.074  0.3756 -0.2551 -0.6535
 6655SOL    HW131424   1.780   0.455  10.989  0.2193  0.0086 -0.5960
 6655SOL    HW231425   1.759   0.429  11.136  3.4414  0.0244  2.7489
 6656SOL     OW31426   0.656   3.711  14.927  0.2350  0.1944  0.2197
 6656SOL    HW131427   0.582   3.672  14.974  0.8951 -0.8747  0.3531
 6656SOL    HW231428   0.612   3.751  14.852  1.6326  2.2277  0.4731
 6657SOL     OW31429   2.454   2.648   9.350 -0.0775  0.3202  0.0661
 6657SOL    HW131430   2.421   2.558   9.356 -0.4863  0.4359 -0.4042
 6657SOL    HW231431   2.536   2.624   9.307 -1.4431 -0.4458 -2.1185
 6658SOL     OW31432   0.059   0.115   4.804 -0.0342  0.1842 -0.2921
 6658SOL    HW131433   0.107   0.138   4.724  1.4462 -0.5032  0.3884
 6658SOL    HW231434   0.021   0.032   4.778  0.2178  0.0650 -0.2804
 6659SOL     OW31435   3.510   0.210   2.260  0.3758 -0.1935  0.0206
 6659SOL    HW131436   3.589   0.196   2.208 -1.2196 -2.1826 -1.8650
 6659SOL    HW231437   3.516   0.143   2.329 -1.9013  0.0563  0.4648
 6660SOL     OW31438   2.035   1.030  15.700  0.2843  0.6655  0.6411
 6660SOL    HW131439   2.116   1.017  15.650 -2.0220 -3.2644 -2.0914
 6660SOL    HW231440   2.005   1.116  15.670 -2.1193 -1.3745 -2.7291
 6661SOL     OW31441   4.218   0.232   4.538 -0.1491  0.0593  0.6799
 6661SOL    HW131442   4.238   0.318   4.575 -0.9119  0.3797  0.3469
 6661SOL    HW231443   4.224   0.254   4.445 -0.2536 -0.1963  0.6118
 6662SOL     OW31444   1.301   4.497   9.977 -0.0886 -0.1689  0.3124
 6662SOL    HW131445   1.271   4.538   9.895  0.5630 -0.5547 -0.1114
 6662SOL    HW231446   1.307   4.572  10.036 -0.8482 -0.0725  0.2728
 6663SOL     OW31447   3.760   1.461   2.602  0.0766 -0.2747  0.4765
 6663SOL    HW131448   3.735   1.391   2.663 -0.3322 -0.6032 -0.0710
 6663SOL    HW231449   3.852   1.435   2.589 -0.1876  0.4158 -2.6447
 6664SOL     OW31450   3.459   2.900   8.520 -0.2602 -0.6479 -0.5171
 6664SOL    HW131451   3.537   2.944   8.552  1.4221 -3.8361 -0.2624
 6664SOL    HW231452   3.491   2.818   8.483  1.1011  0.0596 -0.8981
 6665SOL     OW31453   4.251   2.834  12.845  0.8729 -0.1362 -0.1998
 6665SOL    HW131454   4.278   2.857  12.756 -0.8954  2.1850 -0.1185
 6665SOL    HW231455   4.201   2.754  12.827 -2.8522  2.0954  0.2973
 6666SOL     OW31456   2.912   0.711  11.987 -0.0208 -0.5873 -0.3296
 6666SOL    HW131457   2.821   0.682  11.984 -0.4828  0.6260  1.5707
 6666SOL    HW231458   2.920   0.738  12.079 -0.2340  0.2488 -0.5631
 6667SOL     OW31459   4.440   2.579  16.503 -0.5258 -0.4896  0.4512
 6667SOL    HW131460   4.440   2.507  16.567 -1.1562  0.2158  1.2326
 6667SOL    HW231461   4.384   2.528  16.444 -0.5107 -0.2924  0.2684
 6668SOL     OW31462   0.969   4.229   4.047 -0.8078  0.1500  0.1885
 6668SOL    HW131463   0.978   4.305   3.990  2.8660  0.4022  1.1054
 6668SOL    HW231464   0.889   4.253   4.093 -1.3219  1.3318 -1.3285
 6669SOL     OW31465   0.092   3.033   4.742 -1.2393 -0.4326 -0.4708
 6669SOL    HW131466   0.044   3.080   4.810  0.4719 -2.3589  2.0427
 6669SOL    HW231467   0.101   3.103   4.676 -2.5100 -1.1412 -1.3918
 6670SOL     OW31468   2.021   1.392   5.398  0.0394  0.5529  0.2561
 6670SOL    HW131469   1.973   1.309   5.393  1.6485 -0.3530 -0.4326
 6670SOL    HW231470   2.094   1.366   5.455  0.6835  0.5040 -0.5942
 6671SOL     OW31471   1.137   0.130   4.570  0.2679 -0.1669  0.1796
 6671SOL    HW131472   1.076   0.096   4.505 -2.8019  3.3749  1.1946
 6671SOL    HW231473   1.074   0.161   4.636  1.0580 -3.2000  2.3350
 6672SOL     OW31474   4.603   0.650   7.928  0.5257  0.1006 -0.6756
 6672SOL    HW131475   4.683   0.626   7.974 -0.2499  0.6829  0.9545
 6672SOL    HW231476   4.634   0.647   7.837 -1.3274  0.3210 -1.3088
 6673SOL     OW31477   4.035   3.155   6.671 -0.3896  0.0799 -0.3129
 6673SOL    HW131478   4.027   3.188   6.761  1.0781  0.0813 -0.1978
 6673SOL    HW231479   4.003   3.231   6.622  0.5263 -0.4235 -1.6575
 6674SOL     OW31480   0.680   1.132   0.122  0.3570 -0.4106 -0.0786
 6674SOL    HW131481   0.774   1.122   0.139  0.3038  0.7080  0.8377
 6674SOL    HW231482   0.653   1.173   0.204 -0.6283 -1.2425  0.0115
 6675SOL     OW31483   0.015   3.509  13.112 -0.4612  0.0263  0.0060
 6675SOL    HW131484   4.695   3.512  13.027  0.9089 -0.6661 -0.7281
 6675SOL    HW231485   0.030   3.598  13.142 -0.3137 -0.1549  0.4749
 6676SOL     OW31486   2.268   1.100  11.315  0.4379 -0.7790  0.4285
 6676SOL    HW131487   2.263   1.101  11.219 -2.0279 -2.1781  0.5499
 6676SOL    HW231488   2.188   1.150  11.330  0.9484 -0.5598  2.3554
 6677SOL     OW31489   2.514   1.210   1.072  0.4207  0.2052 -0.0407
 6677SOL    HW131490   2.524   1.151   0.997 -1.6030 -0.2464  0.0404
 6677SOL    HW231491   2.438   1.263   1.045 -0.0610 -0.5612 -0.1919
 6678SOL     OW31492   1.360   3.433  11.981 -0.3190 -0.3775 -0.3789
 6678SOL    HW131493   1.312   3.415  11.901 -0.9692  1.1445 -0.3389
 6678SOL    HW231494   1.418   3.505  11.957 -0.2672 -0.5731 -0.8398
 6679SOL     OW31495   1.178   1.891   5.909  0.0269  0.5027 -0.1413
 6679SOL    HW131496   1.190   1.961   5.844 -0.3515 -1.4397 -2.2824
 6679SOL    HW231497   1.255   1.895   5.966 -1.2626  1.2420  1.5513
 6680SOL     OW31498   1.401   1.962  13.989  0.7425 -0.2969  0.0965
 6680SOL    HW131499   1.396   1.883  14.042 -0.0976  1.0815  2.0756
 6680SOL    HW231500   1.337   1.944  13.920 -0.7590  1.1010  1.1305
 6681SOL     OW31501   4.224   0.750   1.758 -0.5502 -0.0586 -0.1233
 6681SOL    HW131502   4.303   0.738   1.704 -0.8388  1.1555 -0.8321
 6681SOL    HW231503   4.168   0.803   1.701 -1.6794 -0.6826  0.4181
 6682SOL     OW31504   3.151   3.524   6.306  0.6660 -0.0369 -0.1794
 6682SOL    HW131505   3.153   3.429   6.296  3.4894 -0.0630  0.6376
 6682SOL    HW231506   3.095   3.520   6.383  0.2321  3.9234 -0.2996
 6683SOL     OW31507   1.195   2.398   6.188  0.4129 -0.4537 -0.1354
 6683SOL    HW131508   1.208   2.423   6.096  0.9907 -1.6118 -0.3741
 6683SOL    HW231509   1.175   2.305   6.183  1.1987 -0.6431  0.1569
 6684SOL     OW31510   0.259   1.785   1.810 -1.0024 -0.1956 -0.2827
 6684SOL    HW131511   0.226   1.867   1.775  0.8557  0.7979  0.3139
 6684SOL    HW231512   0.240   1.796   1.903  0.8288  1.5239 -0.1239
 6685SOL     OW31513   0.083   2.680   2.810 -0.3760 -0.2122  0.3227
 6685SOL    HW131514   0.056   2.621   2.740 -0.6768 -1.5278  1.5447
 6685SOL    HW231515   0.049   2.766   2.784 -1.9507 -0.4308  1.6392
 6686SOL     OW31516   4.076   2.443  10.043  0.3574  0.0808 -0.4244
 6686SOL    HW131517   4.148   2.381  10.053 -0.8023 -1.1453  0.5097
 6686SOL    HW231518   4.128   2.510   9.999  0.6089 -0.0156 -0.2716
 6687SOL     OW31519   4.405   4.714   4.341  0.2364 -0.5515  0.2875
 6687SOL    HW131520   4.340   0.060   4.351 -1.9115 -2.5753  0.6349
 6687SOL    HW231521   4.386   4.685   4.251 -0.3743 -0.5768  0.4238
 6688SOL     OW31522   3.369   4.357   4.024 -0.5950  0.0228 -0.1090
 6688SOL    HW131523   3.357   4.318   4.111  3.3218  0.2577  0.5410
 6688SOL    HW231524   3.341   4.447   4.040 -0.1181  0.1537 -0.0185
 6689SOL     OW31525   1.297   3.493  17.628 -0.1582 -0.4349  0.3471
 6689SOL    HW131526   1.346   3.456   0.005  2.6664  1.6621 -0.4834
 6689SOL    HW231527   1.221   3.530  17.673  0.6276  0.5814  0.8189
 6690SOL     OW31528   3.693   2.235   5.672 -0.2783  0.3639 -0.1920
 6690SOL    HW131529   3.714   2.143   5.653  2.3559  0.9365 -0.0402
 6690SOL    HW231530   3.628   2.255   5.604 -0.2757 -0.7472 -0.5209
 6691SOL     OW31531   2.799   0.513   0.498  0.8121 -0.2086  0.1610
 6691SOL    HW131532   2.817   0.556   0.414  1.5164 -0.7679  0.0260
 6691SOL    HW231533   2.886   0.532   0.533  1.2859 -4.3667  1.2099
 6692SOL     OW31534   4.344   4.242   4.140 -0.0336 -0.7697 -0.0228
 6692SOL    HW131535   4.302   4.189   4.072 -1.7809 -0.4704  0.8239
 6692SOL    HW231536   4.336   4.188   4.218 -2.0388 -1.1189 -0.4665
 6693SOL     OW31537   3.524   1.185  15.235 -0.0719  0.0845  0.4765
 6693SOL    HW131538   3.458   1.251  15.253  1.7154  2.2428 -1.0052
 6693SOL    HW231539   3.474   1.103  15.228  2.1495 -1.3402  1.4828
 6694SOL     OW31540   2.734   0.349  13.212 -0.4960 -0.2693  0.3976
 6694SOL    HW131541   2.707   0.313  13.128  2.8550  0.0471 -0.7990
 6694SOL    HW231542   2.721   0.275  13.271 -2.1390 -0.8576 -0.7102
 6695SOL     OW31543   3.683   4.196   8.786 -0.1518  0.3167 -0.5243
 6695SOL    HW131544   3.658   4.227   8.873 -0.9042  0.1699 -0.6961
 6695SOL    HW231545   3.775   4.218   8.803 -0.6593  0.1375  2.5302
 6696SOL     OW31546   1.259   2.143   5.411  0.1380  0.0251  0.4659
 6696SOL    HW131547   1.237   2.218   5.355 -1.7462 -0.7025  0.2287
 6696SOL    HW231548   1.186   2.140   5.473 -0.1011 -0.3414  0.1623
 6697SOL     OW31549   2.253   3.759   7.170 -0.0271  0.1128 -0.1865
 6697SOL    HW131550   2.167   3.717   7.164 -0.3725  0.7223  0.5305
 6697SOL    HW231551   2.311   3.690   7.136 -2.6778 -2.1018 -0.2709
 6698SOL     OW31552   0.310   0.841   7.660 -0.0152 -0.0517  0.1491
 6698SOL    HW131553   0.397   0.841   7.700 -0.5457 -0.6948  1.2975
 6698SOL    HW231554   0.253   0.885   7.722  0.1863 -0.7996  0.8672
 6699SOL     OW31555   0.547   0.530   0.602  0.0292  0.4108  0.0655
 6699SOL    HW131556   0.524   0.531   0.509 -0.1440 -1.3580  0.0905
 6699SOL    HW231557   0.587   0.443   0.608  1.7803  1.1923 -0.3116
 6700SOL     OW31558   1.833   3.365   4.315 -0.5535  0.4224 -0.9412
 6700SOL    HW131559   1.849   3.279   4.354 -1.1020  0.9719  0.4595
 6700SOL    HW231560   1.846   3.420   4.392 -0.8256 -0.0637 -0.5479
 6701SOL     OW31561   2.972   2.487   4.282 -0.1418 -0.2917  0.0024
 6701SOL    HW131562   2.980   2.437   4.363 -1.3156 -1.5592 -0.6784
 6701SOL    HW231563   2.887   2.531   4.282 -0.0308 -0.0921  2.2797
 6702SOL     OW31564   2.588   4.663   5.295 -0.3323 -0.2506 -0.1663
 6702SOL    HW131565   2.581   4.571   5.270  0.2651 -0.3723  0.1284
 6702SOL    HW231566   2.571   4.695   5.206 -2.8899  1.9373  1.1300
 6703SOL     OW31567   4.450   3.296   2.850 -0.0283 -0.1950  0.2735
 6703SOL    HW131568   4.371   3.327   2.805  1.3584  1.9435 -0.6765
 6703SOL    HW231569   4.430   3.202   2.846 -1.1725  0.0792 -0.4513
 6704SOL     OW31570   1.120   4.024  11.905 -0.2566  0.0488 -0.3284
 6704SOL    HW131571   1.161   4.107  11.883  0.4975 -0.8279 -2.2407
 6704SOL    HW231572   1.075   4.068  11.977 -0.2988  0.0671 -0.3656
 6705SOL     OW31573   3.096   2.890   3.152  0.1618 -0.6663 -0.2560
 6705SOL    HW131574   3.004   2.864   3.152  0.0424 -0.2449  0.2072
 6705SOL    HW231575   3.126   2.870   3.063  1.4956  1.1157 -0.1996
 6706SOL     OW31576   2.196   3.933   2.936  0.5004 -0.2929 -0.1044
 6706SOL    HW131577   2.142   3.968   3.007  1.5346  0.5775  0.2569
 6706SOL    HW231578   2.283   3.938   2.976  0.0201  3.1796  0.4442
 6707SOL     OW31579   2.848   2.492   8.834 -0.4886 -0.2482 -0.3338
 6707SOL    HW131580   2.859   2.587   8.827 -4.2787  0.1010 -1.7040
 6707SOL    HW231581   2.810   2.502   8.922  2.3560 -1.2964  1.0039
 6708SOL     OW31582   3.907   3.182   9.801  0.0711  0.0349  0.3446
 6708SOL    HW131583   3.984   3.125   9.796  1.2835  1.7138 -0.0557
 6708SOL    HW231584   3.869   3.169   9.888  2.5799 -0.2048  1.4271
 6709SOL     OW31585   0.726   2.901   4.973  0.1928 -0.2225 -0.4979
 6709SOL    HW131586   0.649   2.848   4.954 -1.6326  2.2828 -0.0196
 6709SOL    HW231587   0.749   2.930   4.885 -0.0789  0.7160 -0.2560
 6710SOL     OW31588   4.385   2.001   4.998 -0.0456  0.3200 -0.1889
 6710SOL    HW131589   4.295   2.031   4.999 -0.2395 -0.2528 -0.1488
 6710SOL    HW231590   4.411   2.039   4.914  1.0443  1.8535  0.8423
 6711SOL     OW31591   4.017   0.974   5.577 -0.1926  0.0490 -0.0031
 6711SOL    HW131592   4.101   0.998   5.616 -0.5320  2.7611 -0.8959
 6711SOL    HW231593   4.027   1.042   5.510 -0.1610  1.7223  1.6922
 6712SOL     OW31594   3.950   0.169   6.286  0.3234  0.4139 -0.2320
 6712SOL    HW131595   4.023   0.138   6.233 -1.3541  1.4954 -3.1532
 6712SOL    HW231596   3.906   0.225   6.222 -3.9274 -0.1404  2.2025
 6713SOL     OW31597   0.526   1.510  13.328  0.3438 -0.3770 -0.3051
 6713SOL    HW131598   0.483   1.506  13.414 -0.1722 -1.6697 -0.6128
 6713SOL    HW231599   0.494   1.424  13.300 -1.9073 -0.0865  1.3957
 6714SOL     OW31600   2.155   0.204   4.803 -0.7504 -0.3554 -0.4012
 6714SOL    HW131601   2.060   0.187   4.800 -0.8298 -0.4614  3.3155
 6714SOL    HW231602   2.204   0.132   4.764 -2.1505 -0.9225 -1.1199
 6715SOL     OW31603   3.962   0.173   0.167  0.1920  0.2234  0.1871
 6715SOL    HW131604   4.034   0.215   0.215  1.0114  0.2506 -1.0530
 6715SOL    HW231605   3.897   0.177   0.236  1.3936  0.1847  1.3120
 6716SOL     OW31606   4.210   1.187  15.700  0.4778  0.2246  0.1784
 6716SOL    HW131607   4.302   1.175  15.680  0.3662 -0.1056 -0.1212
 6716SOL    HW231608   4.206   1.217  15.791  1.6736  0.1574  0.2423
 6717SOL     OW31609   1.031   1.291  16.897 -0.0985 -0.4928  0.2589
 6717SOL    HW131610   0.949   1.334  16.875  0.8655  0.5665 -1.2638
 6717SOL    HW231611   1.087   1.368  16.904  1.3759 -1.3750 -1.8990
 6718SOL     OW31612   2.925   0.968   5.939  0.4798 -0.5319  0.1222
 6718SOL    HW131613   2.835   0.986   5.966 -0.2639 -0.6285 -2.2824
 6718SOL    HW231614   2.980   1.030   5.987  2.0874 -2.8150  1.2301
 6719SOL     OW31615   0.954   2.713  11.777  0.5967  0.2728  0.0022
 6719SOL    HW131616   0.864   2.705  11.747  0.7682  2.2268 -1.0523
 6719SOL    HW231617   0.966   2.624  11.810 -2.1981  0.0207  0.3016
 6720SOL     OW31618   2.513   0.740   6.741  0.1907 -0.4814 -0.3341
 6720SOL    HW131619   2.558   0.805   6.795  0.1358  0.6988 -1.7146
 6720SOL    HW231620   2.534   0.664   6.795  0.1823 -0.5489 -0.4265
 6721SOL     OW31621   4.275   2.847   6.282  0.0041 -0.3208  0.1876
 6721SOL    HW131622   4.281   2.759   6.319  0.6726 -0.5470 -0.4428
 6721SOL    HW231623   4.216   2.891   6.343 -0.6150  1.0718 -1.3894
 6722SOL     OW31624   0.766   4.692   5.312  0.3801 -0.3259 -0.9133
 6722SOL    HW131625   0.784   0.056   5.277 -2.1279  0.3926 -0.4124
 6722SOL    HW231626   0.675   4.692   5.282  0.5268  1.8596 -1.3889
 6723SOL     OW31627   4.692   3.835  11.606 -0.1907 -0.3056 -0.0658
 6723SOL    HW131628   0.053   3.845  11.562 -0.8652  1.4119 -0.9993
 6723SOL    HW231629   4.633   3.902  11.570  0.7884  0.2796 -0.5879
 6724SOL     OW31630   4.650   2.740   9.459  0.2080  0.0405  0.3366
 6724SOL    HW131631   4.593   2.669   9.430  0.6643  0.2225 -0.9850
 6724SOL    HW231632   4.621   2.743   9.550 -0.5424  1.8566  0.0381
 6725SOL     OW31633   2.613   0.450  13.869  0.3955  0.4232  0.0647
 6725SOL    HW131634   2.535   0.487  13.828 -0.7387 -2.1156 -0.0726
 6725SOL    HW231635   2.675   0.465  13.797  1.9722 -0.2839  1.2792
 6726SOL     OW31636   2.042   0.017  11.710 -0.6058  0.2398 -0.3554
 6726SOL    HW131637   2.050   4.651  11.743 -1.8988 -0.3628 -1.6863
 6726SOL    HW231638   2.134   0.042  11.704 -0.2704 -0.7887  0.4838
 6727SOL     OW31639   2.202   2.070  10.309 -0.0322  0.2784  0.5137
 6727SOL    HW131640   2.188   2.095  10.217  4.0144 -0.6793 -0.3461
 6727SOL    HW231641   2.164   1.983  10.301  0.0593 -0.0367  3.8729
 6728SOL     OW31642   3.951   1.678   2.468  0.6993 -0.1000  0.0414
 6728SOL    HW131643   3.923   1.769   2.457 -0.4715 -0.5485 -0.6831
 6728SOL    HW231644   3.872   1.630   2.493 -0.6538  1.2292 -1.6839
 6729SOL     OW31645   2.537   0.536   2.040  0.1787  0.4675 -0.2320
 6729SOL    HW131646   2.613   0.498   2.085 -0.6707 -0.3368  0.4965
 6729SOL    HW231647   2.467   0.475   2.059 -0.2368  0.3164 -2.1707
 6730SOL     OW31648   1.621   1.850   2.141  0.0497  0.2699  0.4890
 6730SOL    HW131649   1.685   1.808   2.198 -0.1034 -1.6798 -0.7871
 6730SOL    HW231650   1.643   1.826   2.051 -2.0884  1.2907 -0.3076
 6731SOL     OW31651   0.808   3.894   7.247 -0.1199  0.6391  0.1911
 6731SOL    HW131652   0.861   3.925   7.321  2.7371 -3.5816 -0.1221
 6731SOL    HW231653   0.736   3.856   7.297 -0.3109  1.8253  0.8205
 6732SOL     OW31654   2.365   0.194  17.004  0.4054 -0.1956 -0.0283
 6732SOL    HW131655   2.412   0.126  16.956 -2.4381 -1.7218 -0.6605
 6732SOL    HW231656   2.323   0.136  17.067  0.1660 -0.8884 -0.8202
 6733SOL     OW31657   1.744   2.080   7.536  0.5292  0.3799  0.2044
 6733SOL    HW131658   1.759   2.150   7.599  0.2275 -0.6205  1.4095
 6733SOL    HW231659   1.819   2.070   7.478 -0.3830 -0.4128 -0.8334
 6734SOL     OW31660   1.980   4.323  11.247  0.1719 -0.0763  0.2752
 6734SOL    HW131661   1.978   4.413  11.212  0.1558  0.2715  1.1655
 6734SOL    HW231662   1.909   4.282  11.198 -0.6585  0.7501  0.7791
 6735SOL     OW31663   3.171   0.765   7.212  0.1166  0.7375  0.2073
 6735SOL    HW131664   3.261   0.743   7.233  0.4831  0.2230 -1.9588
 6735SOL    HW231665   3.119   0.715   7.275 -1.1540  1.2915 -0.3835
 6736SOL     OW31666   2.136   1.868   6.315 -0.2552 -0.6877 -0.1902
 6736SOL    HW131667   2.137   1.909   6.402 -0.5503  0.4292 -0.7089
 6736SOL    HW231668   2.045   1.878   6.287 -0.5416 -1.7604  0.3640
 6737SOL     OW31669   3.717   1.131   1.718  0.6401 -0.6821  0.0117
 6737SOL    HW131670   3.725   1.047   1.763  2.1361  0.1384  1.3065
 6737SOL    HW231671   3.660   1.175   1.780 -0.9801  1.1065 -2.7556
 6738SOL     OW31672   2.993   0.581  12.722  0.0699  0.2103  0.4047
 6738SOL    HW131673   2.914   0.572  12.669  0.5256  1.5566 -0.5002
 6738SOL    HW231674   2.962   0.634  12.795  0.6612  2.2062 -0.7864
 6739SOL     OW31675   0.402   2.677   7.035 -0.1729  0.0367 -0.2560
 6739SOL    HW131676   0.464   2.649   6.967 -2.1518  0.2818 -2.1742
 6739SOL    HW231677   0.454   2.684   7.115 -1.2620  0.0277  0.4534
 6740SOL     OW31678   1.657   3.612   6.152 -0.3990 -0.4089 -0.1125
 6740SOL    HW131679   1.714   3.561   6.094  0.8224  0.8930 -0.0533
 6740SOL    HW231680   1.663   3.698   6.110 -1.5391  0.8486  2.3214
 6741SOL     OW31681   2.832   3.780   1.000 -0.8995  0.5721 -0.3573
 6741SOL    HW131682   2.903   3.719   0.981 -0.2286  1.0803  0.5153
 6741SOL    HW231683   2.812   3.742   1.086 -1.3229  1.1721 -0.1917
 6742SOL     OW31684   4.345   1.345  10.700  0.2636 -0.4311  0.2585
 6742SOL    HW131685   4.268   1.291  10.715  1.2168 -1.5964  0.9177
 6742SOL    HW231686   4.334   1.420  10.759 -0.1156  0.3457 -0.7864
 6743SOL     OW31687   1.361   0.426   5.018  0.0410  0.4415  0.0022
 6743SOL    HW131688   1.423   0.399   4.950 -0.0742 -0.6629  0.3468
 6743SOL    HW231689   1.361   0.519   4.994 -3.3347  0.9059  1.8670
 6744SOL     OW31690   0.553   0.058  11.107  0.2529  0.7685 -0.2537
 6744SOL    HW131691   0.637   0.077  11.149  1.2357  0.6090 -2.1550
 6744SOL    HW231692   0.546   4.687  11.117  0.4314  0.8728  0.8532
 6745SOL     OW31693   2.752   0.770   2.215 -0.1152  0.1692 -0.2316
 6745SOL    HW131694   2.817   0.776   2.145  1.3490 -0.0048  1.1066
 6745SOL    HW231695   2.803   0.725   2.282  1.4465 -1.2329 -2.3765
 6746SOL     OW31696   0.845   3.498   0.337 -0.4718  0.4124 -0.2225
 6746SOL    HW131697   0.836   3.442   0.259  2.7873  0.1876 -0.4122
 6746SOL    HW231698   0.934   3.475   0.363 -1.0922 -0.5283  1.0392
 6747SOL     OW31699   3.521   0.739   7.840  0.0893 -0.2828  0.1486
 6747SOL    HW131700   3.538   0.662   7.787 -2.1482 -0.2754 -0.5683
 6747SOL    HW231701   3.484   0.797   7.774  2.8372  0.5919 -0.6123
 6748SOL     OW31702   1.395   1.720   7.214 -0.7803 -0.1135  0.0903
 6748SOL    HW131703   1.444   1.791   7.173 -0.4501  0.1237  0.9066
 6748SOL    HW231704   1.388   1.761   7.300 -1.8198  1.2239 -0.6299
 6749SOL     OW31705   3.057   1.545   3.093  0.0879  0.5992 -0.0831
 6749SOL    HW131706   3.109   1.469   3.121 -0.2470 -0.0105 -1.0997
 6749SOL    HW231707   3.051   1.523   3.000  1.1228 -1.6104  0.3673
 6750SOL     OW31708   2.413   1.642   0.469  0.1700  0.7182  0.4244
 6750SOL    HW131709   2.331   1.594   0.479  2.1943 -3.0655 -1.2803
 6750SOL    HW231710   2.413   1.693   0.550  3.8054  0.0761  0.8066
 6751SOL     OW31711   0.892   3.311   7.138 -0.0572  0.3388  0.5140
 6751SOL    HW131712   0.948   3.289   7.064  0.1128  3.0838 -0.1825
 6751SOL    HW231713   0.900   3.406   7.146  1.9661  0.3361 -1.5555
 6752SOL     OW31714   3.919   4.704  16.114 -0.1437 -0.1524  0.3013
 6752SOL    HW131715   3.907   0.027  16.197  1.4575  2.1884 -0.8135
 6752SOL    HW231716   3.864   0.035  16.058 -0.9772  0.3909  1.6381
 6753SOL     OW31717   0.948   2.199   8.071 -0.0374  0.2580  0.0831
 6753SOL    HW131718   0.953   2.269   8.006  0.4679 -1.5779 -1.8917
 6753SOL    HW231719   0.865   2.158   8.049  0.2745 -0.5143  0.3124
 6754SOL     OW31720   1.058   2.683   2.238 -0.3618  0.0340 -0.2028
 6754SOL    HW131721   1.001   2.666   2.163 -0.8216  1.1008 -0.1015
 6754SOL    HW231722   1.088   2.774   2.228  1.5455 -0.7899 -1.9052
 6755SOL     OW31723   2.634   4.237  13.761 -0.5112 -0.4080 -0.3960
 6755SOL    HW131724   2.671   4.210  13.845 -0.0776  0.6924 -0.2372
 6755SOL    HW231725   2.542   4.256  13.777 -0.0533  0.6270  0.8924
 6756SOL     OW31726   2.365   2.659   6.194  0.0394  0.4905  0.1915
 6756SOL    HW131727   2.374   2.754   6.184 -1.7503  0.3943 -2.3084
 6756SOL    HW231728   2.301   2.649   6.265 -0.2166 -2.4630 -0.4607
 6757SOL     OW31729   1.481   1.208   6.225  0.1512 -0.1025  0.0605
 6757SOL    HW131730   1.499   1.140   6.290  2.1029  1.4625  1.1550
 6757SOL    HW231731   1.388   1.188   6.215  0.5702 -2.3334  0.6308
 6758SOL     OW31732   3.114   1.903   2.463  0.0265 -0.2803 -0.1885
 6758SOL    HW131733   3.080   1.893   2.553 -1.0208  4.1705 -0.0955
 6758SOL    HW231734   3.205   1.873   2.466  0.4266  0.8375 -1.0942
 6759SOL     OW31735   3.426   4.650   5.720 -0.0961  0.4263  0.1658
 6759SOL    HW131736   3.370   4.722   5.691  0.8503  1.1443  0.1163
 6759SOL    HW231737   3.504   4.704   5.726  0.3991 -0.3187  0.4482
 6760SOL     OW31738   0.634   4.126   9.028 -0.0189  0.5358 -0.0570
 6760SOL    HW131739   0.564   4.072   9.065 -1.1301  0.8885 -1.6480
 6760SOL    HW231740   0.706   4.062   9.024 -0.2954  0.2275 -0.1192
 6761SOL     OW31741   0.752   4.646  10.866 -0.0222 -0.3509  0.5426
 6761SOL    HW131742   0.665   4.669  10.831  0.6534  0.1477 -0.8192
 6761SOL    HW231743   0.801   4.622  10.787  2.4916  1.1958  1.6504
 6762SOL     OW31744   2.613   0.812   1.239 -0.2163 -0.3785  0.1058
 6762SOL    HW131745   2.573   0.790   1.323 -2.2844 -2.3967 -1.4210
 6762SOL    HW231746   2.638   0.903   1.258  1.0486 -1.0425  1.6280
 6763SOL     OW31747   0.548   3.138  12.622  0.5040 -0.1344 -0.4867
 6763SOL    HW131748   0.540   3.125  12.527 -1.7938  1.8476 -0.5690
 6763SOL    HW231749   0.638   3.108  12.615 -0.0680 -1.4244 -2.5057
 6764SOL     OW31750   0.141   4.407   0.654 -0.0364 -0.5349 -0.5325
 6764SOL    HW131751   0.145   4.407   0.558 -0.3220 -2.3181 -0.5388
 6764SOL    HW231752   0.233   4.420   0.679  0.0350 -1.1779 -0.4660
 6765SOL     OW31753   0.239   3.315   9.496 -0.3742  0.3301  0.5836
 6765SOL    HW131754   0.274   3.398   9.464 -1.7410  0.5709 -0.2691
 6765SOL    HW231755   0.205   3.326   9.585 -3.9490  0.4708 -0.8197
 6766SOL     OW31756   2.503   3.821   9.318 -0.5289  0.0045  0.0489
 6766SOL    HW131757   2.569   3.786   9.378  0.9552  0.2323 -1.4474
 6766SOL    HW231758   2.423   3.790   9.361 -1.3674 -0.1304 -1.5917
 6767SOL     OW31759   1.951   3.987   2.185 -0.2551 -0.0299  0.1079
 6767SOL    HW131760   1.869   3.996   2.235 -0.3454 -0.3123  0.0139
 6767SOL    HW231761   1.926   4.045   2.114 -2.0675  1.7761  2.2001
 6768SOL     OW31762   4.146   3.947  13.449  0.2873  0.0187 -0.3750
 6768SOL    HW131763   4.203   3.908  13.383  0.7015  0.0051 -0.0071
 6768SOL    HW231764   4.137   4.038  13.420 -1.5425  0.7200  2.3482
 6769SOL     OW31765   0.715   0.013  12.913 -0.1555  0.2509  0.4095
 6769SOL    HW131766   0.649   4.670  12.895  2.1331 -2.4026  1.8422
 6769SOL    HW231767   0.774   0.002  12.838 -0.1572 -0.2097  0.4748
 6770SOL     OW31768   1.712   1.426   1.399  0.3935  0.1639 -0.1394
 6770SOL    HW131769   1.674   1.339   1.387  0.3599  0.0039  1.1060
 6770SOL    HW231770   1.696   1.454   1.309  1.7182 -0.7190 -0.6446
 6771SOL     OW31771   1.090   2.947   4.516 -0.6076  0.6197 -0.1040
 6771SOL    HW131772   1.150   3.016   4.487 -0.0745  0.8846  1.6470
 6771SOL    HW231773   1.009   2.997   4.514 -1.3882 -0.6340  0.6677
 6772SOL     OW31774   0.060   2.558   2.349 -0.3552  0.1128 -0.6220
 6772SOL    HW131775   0.031   2.488   2.290  0.4076 -1.1660  0.5002
 6772SOL    HW231776   0.145   2.522   2.375 -0.5194 -0.3312 -0.6917
 6773SOL     OW31777   3.755   3.122   7.102  0.0211 -0.8677  0.2784
 6773SOL    HW131778   3.797   3.094   7.021 -0.8355 -0.0442 -0.4530
 6773SOL    HW231779   3.732   3.214   7.088  0.6649 -0.5194  1.4490
 6774SOL     OW31780   4.390   0.920  16.158 -0.3891  0.8068  0.2926
 6774SOL    HW131781   4.349   0.999  16.194 -0.7851  0.1910  1.1967
 6774SOL    HW231782   4.431   0.961  16.081 -1.8446  0.4192 -0.6910
 6775SOL     OW31783   3.063   2.794  10.617 -0.2495 -0.0190 -0.5244
 6775SOL    HW131784   3.027   2.881  10.599 -0.1171  0.3148  0.8472
 6775SOL    HW231785   3.146   2.798  10.570 -0.4510 -1.4479 -1.0060
 6776SOL     OW31786   1.353   0.670   8.361  0.5091 -0.1291 -0.0568
 6776SOL    HW131787   1.320   0.703   8.278 -1.7847  0.7714  1.1866
 6776SOL    HW231788   1.375   0.754   8.403 -1.0167 -0.8627  2.2498
 6777SOL     OW31789   2.118   3.854  15.070  0.2078  0.7175  0.1152
 6777SOL    HW131790   2.072   3.881  15.150  0.9197 -0.4951  0.9323
 6777SOL    HW231791   2.182   3.792  15.105 -0.9895 -0.0684  0.9036
 6778SOL     OW31792   3.921   1.417   9.620 -0.1915  0.7660 -0.1879
 6778SOL    HW131793   3.921   1.466   9.538 -1.1859  0.4995 -0.3495
 6778SOL    HW231794   3.910   1.496   9.672  1.0552 -0.4066  1.8553
 6779SOL     OW31795   3.382   4.523   1.885 -0.2329  0.1092  0.4168
 6779SOL    HW131796   3.429   4.439   1.881 -1.0664 -0.2636 -1.4388
 6779SOL    HW231797   3.356   4.523   1.977  0.4492  1.9144  0.6027
 6780SOL     OW31798   4.112   3.980   1.879 -0.1427  0.6909  0.1991
 6780SOL    HW131799   4.142   3.902   1.926 -2.8126 -0.1005  0.5921
 6780SOL    HW231800   4.044   3.940   1.824  1.6102  0.3160 -1.6738
 6781SOL     OW31801   0.903   3.223   3.283 -0.0943  0.1585 -0.3229
 6781SOL    HW131802   0.879   3.178   3.202  0.9142 -0.2068 -0.4188
 6781SOL    HW231803   0.816   3.243   3.319  0.1091  0.2755  0.1044
 6782SOL     OW31804   0.811   3.664   9.276  0.0065 -0.0314 -0.4121
 6782SOL    HW131805   0.880   3.626   9.223  1.9471  1.2450  1.1898
 6782SOL    HW231806   0.860   3.709   9.345 -0.6746 -1.4985  1.0244
 6783SOL     OW31807   0.905   0.093  10.469 -0.0454  0.2168 -0.7206
 6783SOL    HW131808   0.929   0.000  10.468 -4.7439 -0.9903 -0.8336
 6783SOL    HW231809   0.887   0.114  10.561 -1.0328  1.5550 -1.2208
 6784SOL     OW31810   3.794   0.304   5.314  0.1669 -0.3710 -0.4290
 6784SOL    HW131811   3.700   0.285   5.313 -0.2159  1.6086 -1.9729
 6784SOL    HW231812   3.808   0.327   5.406 -1.8630 -0.1370 -0.1725
 6785SOL     OW31813   0.450   0.888   7.190 -0.7448  0.1348  0.2226
 6785SOL    HW131814   0.463   0.798   7.222 -1.2118 -0.8629 -2.3903
 6785SOL    HW231815   0.492   0.934   7.263 -0.8607  0.4212  0.1047
 6786SOL     OW31816   4.095   2.598  16.239  0.6637 -0.1242 -0.1750
 6786SOL    HW131817   4.077   2.689  16.215 -2.2872 -0.9065 -0.9053
 6786SOL    HW231818   4.179   2.583  16.196  1.8874  3.8717  0.7273
 6787SOL     OW31819   1.184   4.427   5.775  0.1784  0.0068 -0.4132
 6787SOL    HW131820   1.237   4.473   5.840 -0.8025  1.6952 -0.7945
 6787SOL    HW231821   1.108   4.482   5.755 -1.3646 -1.5711  1.2229
 6788SOL     OW31822   3.402   3.272   4.972  0.5384 -0.1463 -0.1866
 6788SOL    HW131823   3.471   3.259   5.037 -1.7280 -0.5354  2.1126
 6788SOL    HW231824   3.397   3.367   4.963 -1.7113 -0.2738 -0.2105
 6789SOL     OW31825   1.931   2.791   1.863  0.6059 -0.1266 -0.3496
 6789SOL    HW131826   1.918   2.780   1.957 -2.6343 -0.8998 -0.8507
 6789SOL    HW231827   1.988   2.867   1.865 -1.5267  1.4985 -1.2064
 6790SOL     OW31828   0.819   2.440   5.722  0.3344  0.3168  0.3034
 6790SOL    HW131829   0.843   2.464   5.633  0.5224 -1.1612 -0.0499
 6790SOL    HW231830   0.738   2.489   5.732  0.6194  0.5968  1.2735
 6791SOL     OW31831   1.596   3.051  10.996 -0.1951 -0.2802 -0.1301
 6791SOL    HW131832   1.581   2.979  10.935  0.2932 -2.0630  1.8773
 6791SOL    HW231833   1.690   3.071  10.991 -0.4042  1.0086  1.0197
 6792SOL     OW31834   1.242   1.220   3.270  0.4954 -0.7015  0.0769
 6792SOL    HW131835   1.212   1.132   3.249 -0.6329  0.3804 -2.7885
 6792SOL    HW231836   1.185   1.273   3.216 -0.9343 -1.7080  0.6073
 6793SOL     OW31837   0.935   3.404  17.511  0.4258 -0.2971  0.3637
 6793SOL    HW131838   1.024   3.370  17.514 -0.4730 -2.7319 -0.4392
 6793SOL    HW231839   0.929   3.477  17.573  0.0661 -1.1812  1.3612
 6794SOL     OW31840   4.150   0.048   6.116  0.0770 -0.1851 -0.6757
 6794SOL    HW131841   4.182   0.060   6.026  1.6874  2.5893  0.2555
 6794SOL    HW231842   4.112   4.684   6.112 -1.2245  0.3950 -0.7120
 6795SOL     OW31843   2.289   4.472   6.016  0.4231 -0.2507 -0.4543
 6795SOL    HW131844   2.258   4.509   6.099  0.5285 -0.1918 -0.4404
 6795SOL    HW231845   2.383   4.491   6.012  0.4250 -0.5326 -1.6933
 6796SOL     OW31846   0.208   2.038   1.674  0.7116 -0.3571  0.0543
 6796SOL    HW131847   0.221   1.977   1.602 -0.2091  0.5805 -0.9061
 6796SOL    HW231848   0.234   2.119   1.629  1.5224  0.2504  1.6073
 6797SOL     OW31849   2.209   1.591   2.605 -0.6447 -0.3532 -0.3237
 6797SOL    HW131850   2.147   1.638   2.661 -0.4478 -1.0616  0.4887
 6797SOL    HW231851   2.149   1.527   2.567  0.0153 -0.8538 -0.5237
 6798SOL     OW31852   1.994   0.120   2.245 -0.0687  0.2240  0.2172
 6798SOL    HW131853   1.954   0.033   2.253  2.3957 -1.0276 -0.8766
 6798SOL    HW231854   2.056   0.098   2.175 -0.0637 -1.8366  0.8615
 6799SOL     OW31855   0.446   4.450   5.802 -0.1901 -0.3802 -0.0705
 6799SOL    HW131856   0.508   4.384   5.834 -0.2309 -0.5189 -0.2702
 6799SOL    HW231857   0.489   4.468   5.718 -2.2732  0.3236 -0.9958
 6800SOL     OW31858   4.603   2.185   5.665 -0.1108  0.1293  0.0154
 6800SOL    HW131859   4.566   2.100   5.643 -0.1360  0.1708 -0.1024
 6800SOL    HW231860   4.526   2.239   5.684  0.7468  1.6229 -0.7779
 6801SOL     OW31861   0.559   1.158   6.038  0.0457  0.0233  0.2638
 6801SOL    HW131862   0.591   1.242   6.006 -0.3560 -0.4562 -1.3936
 6801SOL    HW231863   0.500   1.196   6.104 -0.1243  0.7147 -0.2866
 6802SOL     OW31864   1.341   0.065  17.598  0.1836 -0.4057 -0.4842
 6802SOL    HW131865   1.278   0.112  17.542 -0.5747 -2.9400 -1.7920
 6802SOL    HW231866   1.397   0.135  17.630 -1.0261  0.6697 -0.6996
 6803SOL     OW31867   0.008   1.266   7.852 -0.0941  0.2920 -0.5066
 6803SOL    HW131868   4.675   1.340   7.831  0.7019  1.6535  2.0956
 6803SOL    HW231869   0.070   1.314   7.907 -1.2483  0.5580  0.5510
 6804SOL     OW31870   1.578   3.317   7.732 -0.7322 -0.6397  0.9656
 6804SOL    HW131871   1.580   3.247   7.798 -2.4348 -0.1062  1.5892
 6804SOL    HW231872   1.536   3.274   7.658 -0.4524  1.2639 -0.2895
 6805SOL     OW31873   2.082   1.866  11.641  0.5245  0.4289  0.0949
 6805SOL    HW131874   2.030   1.934  11.684 -0.0908  1.1790 -1.8284
 6805SOL    HW231875   2.052   1.793  11.695  2.9293 -0.5081  0.1679
 6806SOL     OW31876   4.547   1.323   4.726  0.0668 -0.5994  0.4456
 6806SOL    HW131877   4.575   1.410   4.699  0.4931 -1.5779 -2.3058
 6806SOL    HW231878   4.586   1.320   4.813  1.0329 -1.4207 -0.0067
 6807SOL     OW31879   0.536   3.229   5.581  0.1150 -0.1336  0.2980
 6807SOL    HW131880   0.573   3.143   5.602 -0.1035 -0.7464 -1.8344
 6807SOL    HW231881   0.505   3.225   5.490  2.1478  1.4640 -0.4867
 6808SOL     OW31882   0.546   1.861   7.800 -0.0610 -0.0690 -0.0906
 6808SOL    HW131883   0.498   1.816   7.870 -1.1742  1.9901  0.4429
 6808SOL    HW231884   0.622   1.802   7.798  0.1846  0.1831  1.7495
 6809SOL     OW31885   0.129   1.690   9.729 -0.4273 -0.3794 -0.4652
 6809SOL    HW131886   0.199   1.747   9.696  0.2747 -0.7092  0.4796
 6809SOL    HW231887   0.062   1.755   9.749 -1.8973 -1.2104 -2.7284
 6810SOL     OW31888   3.408   4.470   5.962 -0.9681 -0.1224  0.1617
 6810SOL    HW131889   3.407   4.534   5.891 -0.7716 -1.2391 -0.8504
 6810SOL    HW231890   3.334   4.412   5.945 -0.8301 -0.6670  1.4032
 6811SOL     OW31891   0.995   0.738  10.510 -0.2895 -0.1036 -0.3994
 6811SOL    HW131892   1.062   0.670  10.521  1.2784  2.2121  4.3100
 6811SOL    HW231893   0.944   0.712  10.587 -1.7926  0.4124 -1.2261
 6812SOL     OW31894   4.539   1.827  16.627 -0.1344 -0.0180 -0.2660
 6812SOL    HW131895   4.580   1.773  16.560  0.6769 -0.1680  0.3515
 6812SOL    HW231896   4.579   1.788  16.704  0.7479  0.0600 -0.6775
 6813SOL     OW31897   0.829   1.068  11.302  0.2887  0.0863 -0.6703
 6813SOL    HW131898   0.738   1.058  11.330  0.0199  1.5595 -1.0116
 6813SOL    HW231899   0.846   1.152  11.343 -1.3486 -0.5033  1.1730
 6814SOL     OW31900   1.400   3.714   4.425 -0.0081  0.3237 -0.5681
 6814SOL    HW131901   1.309   3.688   4.442  0.6346 -0.2214  2.0673
 6814SOL    HW231902   1.454   3.657   4.480 -0.8651  1.2058  1.2074
 6815SOL     OW31903   4.581   0.035   6.539 -0.2447  0.2084 -0.1393
 6815SOL    HW131904   4.506   0.028   6.480  0.8087  1.4614 -1.6302
 6815SOL    HW231905   4.651   0.005   6.482 -1.3803  0.6292 -1.7378
 6816SOL     OW31906   3.979   0.002   3.249 -0.2857 -0.0609  0.8082
 6816SOL    HW131907   3.903   0.044   3.288  0.0761 -1.6874  3.2252
 6816SOL    HW231908   3.954   4.704   3.159  0.4073  1.1294  0.3275
 6817SOL     OW31909   0.167   3.233   6.505  0.2876  0.6749  0.5572
 6817SOL    HW131910   0.137   3.323   6.495 -2.5056 -0.6306 -2.7453
 6817SOL    HW231911   0.262   3.230   6.495  0.3119 -0.3258  1.0911
 6818SOL     OW31912   1.088   1.681   4.375 -0.5515 -0.0644  0.3259
 6818SOL    HW131913   1.008   1.701   4.326 -0.8872  0.7965  1.2483
 6818SOL    HW231914   1.095   1.755   4.434  4.0996 -0.0184 -0.3357
 6819SOL     OW31915   3.228   1.603   7.553  0.1498  0.4637  0.2117
 6819SOL    HW131916   3.136   1.630   7.558 -0.6975 -2.5802  0.8580
 6819SOL    HW231917   3.237   1.599   7.458  0.3991  1.1792  0.2038
 6820SOL     OW31918   2.806   3.523  15.836 -0.9912  0.1815 -0.0869
 6820SOL    HW131919   2.794   3.429  15.823 -0.5310  0.1268 -0.1147
 6820SOL    HW231920   2.799   3.541  15.930  1.7434  1.5257 -0.1338
 6821SOL     OW31921   2.537   3.037   9.420 -0.0675  0.0956  0.4420
 6821SOL    HW131922   2.450   3.077   9.414 -0.7196 -0.7928  4.0021
 6821SOL    HW231923   2.543   3.032   9.515  1.5060  0.7960  0.3739
 6822SOL     OW31924   0.163   3.164   4.500  0.0124  0.6157  0.1602
 6822SOL    HW131925   0.137   3.077   4.470  0.6808  0.0058  1.3765
 6822SOL    HW231926   0.233   3.192   4.440  2.1722 -2.8576  1.0751
 6823SOL     OW31927   0.520   2.671   8.469 -0.2929 -0.2418 -0.0616
 6823SOL    HW131928   0.542   2.583   8.500 -2.2060 -0.4891  0.6601
 6823SOL    HW231929   0.531   2.723   8.549  1.5667 -1.2104  0.3082
 6824SOL     OW31930   1.722   3.354  17.317 -0.3538  0.4258  0.7561
 6824SOL    HW131931   1.704   3.351  17.411 -0.6102  0.1527  0.7006
 6824SOL    HW231932   1.816   3.369  17.324 -0.3715 -0.0544  2.0300
 6825SOL     OW31933   1.626   0.689   6.377 -0.1595  0.0742 -0.2003
 6825SOL    HW131934   1.563   0.719   6.442  1.5407  0.6432  1.2068
 6825SOL    HW231935   1.581   0.614   6.340 -0.3065 -1.4316  3.0006
 6826SOL     OW31936   2.313   0.251  15.671  1.0246  0.3557  1.0341
 6826SOL    HW131937   2.330   0.214  15.584 -0.0630 -1.6631  1.6687
 6826SOL    HW231938   2.253   0.323  15.651 -0.0762 -0.5495  1.0006
 6827SOL     OW31939   2.607   0.118   4.713 -0.6451  0.3776 -0.1637
 6827SOL    HW131940   2.649   0.171   4.646 -0.9049 -0.4408 -0.9688
 6827SOL    HW231941   2.637   0.035   4.676 -0.9844  0.6368 -1.0201
 6828SOL     OW31942   2.520   2.733  17.037  0.3725 -1.5021 -0.4123
 6828SOL    HW131943   2.599   2.681  17.047  1.9946  0.7257 -1.5522
 6828SOL    HW231944   2.465   2.672  17.086  1.0242 -3.5479 -2.2393
 6829SOL     OW31945   2.520   2.147   4.640 -0.2500  0.5436 -0.1056
 6829SOL    HW131946   2.553   2.081   4.579  3.2264  1.3525  0.8448
 6829SOL    HW231947   2.456   2.090   4.681  0.4119 -0.1251  0.0057
 6830SOL     OW31948   0.339   1.678   3.001  0.2108  0.3720  0.1531
 6830SOL    HW131949   0.308   1.598   3.044 -0.8242  1.6741  1.8403
 6830SOL    HW231950   0.403   1.638   2.942  2.1198  0.9138  1.8524
 6831SOL     OW31951   1.913   1.651   3.292  0.0233 -0.2743  0.3907
 6831SOL    HW131952   1.937   1.726   3.346  0.3137  0.5436 -0.8589
 6831SOL    HW231953   1.889   1.593   3.364 -1.0002 -0.1859  0.1250
 6832SOL     OW31954   3.016   3.975   5.876 -0.3095  0.1227 -0.2350
 6832SOL    HW131955   3.077   4.008   5.943  1.4646  0.8111 -2.1715
 6832SOL    HW231956   3.071   3.911   5.831  0.6395 -0.3505  1.5710
 6833SOL     OW31957   0.696   3.811   9.886  0.4366 -0.5018 -0.7780
 6833SOL    HW131958   0.676   3.899   9.855  2.6050  0.2981  0.0899
 6833SOL    HW231959   0.689   3.820   9.981  0.3117 -2.2544 -0.6191
 6834SOL     OW31960   3.778   2.084  16.802  0.7202  0.2911 -0.0139
 6834SOL    HW131961   3.727   2.054  16.877 -0.4692  0.9483 -0.5610
 6834SOL    HW231962   3.833   2.152  16.842 -1.2885  0.9902  1.5314
 6835SOL     OW31963   1.808   4.095   4.243 -0.1603 -0.2063 -0.2107
 6835SOL    HW131964   1.768   4.043   4.173  0.9882 -2.1721  0.5731
 6835SOL    HW231965   1.744   4.166   4.243  0.5297  0.4282  2.8905
 6836SOL     OW31966   1.796   1.754  15.507  0.0287 -0.0364 -0.1961
 6836SOL    HW131967   1.719   1.808  15.518 -0.0552  0.1514 -1.6315
 6836SOL    HW231968   1.844   1.806  15.442  0.2264 -1.6118 -1.3276
 6837SOL     OW31969   3.233   1.364   1.747 -0.1138 -0.7295  0.2532
 6837SOL    HW131970   3.249   1.287   1.693 -0.7749  0.2640 -1.3798
 6837SOL    HW231971   3.226   1.427   1.674  0.2189 -0.0849  0.7808
 6838SOL     OW31972   2.397   4.155   4.696 -0.2132  0.4106  0.1980
 6838SOL    HW131973   2.364   4.092   4.760 -0.4464  0.7305  0.3920
 6838SOL    HW231974   2.354   4.137   4.612 -1.5971 -0.0816  0.9972
 6839SOL     OW31975   0.039   3.809   7.921 -0.2545 -0.0237 -0.5360
 6839SOL    HW131976   0.067   3.900   7.934  1.7413 -0.5662 -1.0687
 6839SOL    HW231977   0.087   3.777   7.997  1.3268  1.5240 -0.8691
 6840SOL     OW31978   4.013   2.880   0.377  0.4825  0.0871  0.0821
 6840SOL    HW131979   3.994   2.934   0.300 -0.8427 -0.6949 -0.1314
 6840SOL    HW231980   3.927   2.893   0.417 -0.2627  0.1115 -1.5406
 6841SOL     OW31981   0.130   3.375   5.501  0.1111  0.0235  0.0440
 6841SOL    HW131982   0.178   3.356   5.581  1.0682 -0.2861 -0.5989
 6841SOL    HW231983   0.160   3.305   5.442 -1.2208 -0.3069 -0.2474
 6842SOL     OW31984   1.148   1.541  16.919 -0.6119  0.2669  1.0958
 6842SOL    HW131985   1.128   1.585  17.002  1.1583  3.3142 -0.1070
 6842SOL    HW231986   1.242   1.548  16.908 -0.6089 -1.7269 -0.1967
 6843SOL     OW31987   3.025   0.122   6.145  0.6637  0.0527 -0.1151
 6843SOL    HW131988   2.982   0.137   6.060 -0.8693 -2.2398  0.2713
 6843SOL    HW231989   2.948   0.140   6.200  0.2243 -1.0973 -0.3650
 6844SOL     OW31990   2.954   1.297   9.673  0.4288  0.5892  0.1744
 6844SOL    HW131991   3.003   1.217   9.654 -1.1751  0.0102 -1.4974
 6844SOL    HW231992   2.883   1.288   9.610  1.5847  2.2025 -1.3621
 6845SOL     OW31993   1.300   3.573   7.948 -0.0144  0.6535  0.2473
 6845SOL    HW131994   1.358   3.595   7.876 -1.4694  1.1330 -0.7796
 6845SOL    HW231995   1.322   3.643   8.010 -0.2106  0.5543  0.4289
 6846SOL     OW31996   1.867   1.439   6.818 -0.2515 -0.9296  0.0978
 6846SOL    HW131997   1.934   1.502   6.846  0.0920 -1.4534  0.4631
 6846SOL    HW231998   1.866   1.377   6.891 -0.5532 -0.2023  0.7091
 6847SOL     OW31999   3.947   3.570   7.144  0.3593  0.6697 -0.4741
 6847SOL    HW132000   3.978   3.513   7.215 -0.5782  1.6109  0.7002
 6847SOL    HW232001   3.923   3.649   7.193 -1.4430  0.3939 -0.8990
 6848SOL     OW32002   4.384   3.204  13.081 -0.2292  0.2105 -0.6159
 6848SOL    HW132003   4.472   3.175  13.057 -0.1818 -0.5660  0.4977
 6848SOL    HW232004   4.356   3.129  13.134  0.9394  0.3162  0.1432
 6849SOL     OW32005   0.605   3.942   8.626  0.0472  0.2372 -0.1714
 6849SOL    HW132006   0.657   3.968   8.701 -1.6473  0.0184  1.0832
 6849SOL    HW232007   0.547   4.017   8.613 -0.2207  0.4086  2.1681
 6850SOL     OW32008   3.083   1.011   1.098  0.1815  0.7738 -0.3448
 6850SOL    HW132009   3.034   0.934   1.070 -0.5317  0.8192  0.8224
 6850SOL    HW232010   3.019   1.056   1.153  0.7504 -0.2404  1.1334
 6851SOL     OW32011   1.942   2.473   0.265  0.1511 -0.0473  0.0114
 6851SOL    HW132012   1.904   2.432   0.188  0.1771  1.1628 -0.6535
 6851SOL    HW232013   2.022   2.422   0.277 -0.4322 -0.4834  2.0731
 6852SOL     OW32014   0.148   0.594  13.037  0.0289 -0.3829  0.4325
 6852SOL    HW132015   0.071   0.537  13.036 -0.9417  0.9458 -1.6954
 6852SOL    HW232016   0.138   0.648  12.958  0.1293 -0.2756  0.4938
 6853SOL     OW32017   2.232   4.435  10.377 -0.4536  0.4610  0.3420
 6853SOL    HW132018   2.292   4.476  10.438  1.9085  0.0750 -1.7018
 6853SOL    HW232019   2.145   4.466  10.403 -1.1049 -0.9247 -0.1646
 6854SOL     OW32020   0.024   2.184   5.999  0.1762  0.1684 -0.3466
 6854SOL    HW132021   0.005   2.222   5.914  3.0895  1.6762 -0.3497
 6854SOL    HW232022   0.077   2.105   5.988 -1.9322 -1.4410  1.0880
 6855SOL     OW32023   3.198   2.727  13.604 -0.3287  0.4227  0.1960
 6855SOL    HW132024   3.111   2.744  13.641 -0.1225 -0.4583  1.0749
 6855SOL    HW232025   3.255   2.738  13.679 -1.2622 -0.5793  1.0489
 6856SOL     OW32026   2.657   3.798   6.511 -0.0616  0.1402 -0.2523
 6856SOL    HW132027   2.653   3.892   6.529 -1.5444 -0.4465  2.5603
 6856SOL    HW232028   2.750   3.780   6.497 -0.4034 -1.7253 -0.1723
 6857SOL     OW32029   3.952   0.690   1.891 -0.0743 -0.2520 -0.1772
 6857SOL    HW132030   3.875   0.746   1.893  0.6812  0.7078  2.3863
 6857SOL    HW232031   3.962   0.661   1.982  0.4395  1.5610  0.3449
 6858SOL     OW32032   1.122   1.975   2.127 -0.3994 -0.1360 -0.0071
 6858SOL    HW132033   1.131   1.983   2.032 -2.7285 -3.1950 -0.4580
 6858SOL    HW232034   1.212   1.949   2.148  0.0957  0.7587 -0.9780
 6859SOL     OW32035   0.120   4.144   7.200  0.2513 -0.1082 -0.2532
 6859SOL    HW132036   0.117   4.098   7.284  1.3713 -1.0951 -0.7468
 6859SOL    HW232037   0.148   4.230   7.232 -0.4744  0.0430 -0.0327
 6860SOL     OW32038   4.339   4.701  16.355 -0.1327 -0.0348 -0.3150
 6860SOL    HW132039   4.320   4.722  16.263  0.8827 -0.2732 -0.5784
 6860SOL    HW232040   4.365   0.063  16.389 -0.2718 -0.1558  0.0914
 6861SOL     OW32041   2.322   1.088   4.663  0.2076  0.4923  0.3019
 6861SOL    HW132042   2.284   1.130   4.586 -1.0463  0.2659  0.7950
 6861SOL    HW232043   2.348   1.000   4.638 -0.0295 -0.0833  2.1010
 6862SOL     OW32044   1.809   2.915   4.210  0.3953  0.2968 -0.0384
 6862SOL    HW132045   1.718   2.914   4.238 -0.0341  0.6662 -1.4283
 6862SOL    HW232046   1.812   2.984   4.144  2.1819  1.6319  1.4234
 6863SOL     OW32047   3.418   4.134   3.178 -0.1414  0.0194 -0.2914
 6863SOL    HW132048   3.322   4.125   3.175 -0.4024  3.0922 -1.3495
 6863SOL    HW232049   3.424   4.225   3.149  0.9667 -0.0743 -0.3322
 6864SOL     OW32050   1.878   4.195  11.841  0.2646 -0.3091 -0.2688
 6864SOL    HW132051   1.841   4.281  11.822 -0.4310 -0.4445  0.4681
 6864SOL    HW232052   1.970   4.222  11.834  0.1809 -0.2852 -1.2090
 6865SOL     OW32053   0.878   4.215   9.562 -0.6387  0.2555 -0.0729
 6865SOL    HW132054   0.910   4.132   9.526 -1.5966 -0.2370  0.2202
 6865SOL    HW232055   0.965   4.254   9.575 -0.7500  0.8280 -1.0899
 6866SOL     OW32056   3.259   4.066   6.041  0.5535  0.0361 -0.6127
 6866SOL    HW132057   3.257   4.155   6.006  0.0401  1.1690  2.3154
 6866SOL    HW232058   3.267   4.094   6.132  0.8705  1.7067 -1.1568
 6867SOL     OW32059   3.808   1.488   3.945 -0.0074 -0.9407 -0.2268
 6867SOL    HW132060   3.854   1.437   4.012 -0.6071  1.2263  1.8046
 6867SOL    HW232061   3.807   1.573   3.988  0.0803 -1.1453  0.1804
 6868SOL     OW32062   3.029   0.726   6.819  0.6189  0.2808 -0.1798
 6868SOL    HW132063   3.016   0.790   6.889  1.9046  1.6686 -1.1968
 6868SOL    HW232064   3.067   0.775   6.746  2.5095 -0.2107  0.4887
 6869SOL     OW32065   1.680   0.914  12.872  0.0344 -0.4309  0.4732
 6869SOL    HW132066   1.736   0.844  12.839  0.4321 -0.5122  1.3290
 6869SOL    HW232067   1.605   0.863  12.901  2.1324 -1.7939  3.4092
 6870SOL     OW32068   2.528   1.880   2.037 -0.4925 -0.2660 -0.0642
 6870SOL    HW132069   2.593   1.919   2.096  1.5328 -3.4465 -0.2181
 6870SOL    HW232070   2.510   1.799   2.085  0.6843 -0.4966 -0.0127
 6871SOL     OW32071   2.374   1.621  16.177 -0.3552 -0.2586  0.2720
 6871SOL    HW132072   2.359   1.554  16.244 -0.4791 -0.4943  0.0115
 6871SOL    HW232073   2.288   1.662  16.181 -0.1805  0.1171  0.1767
 6872SOL     OW32074   3.347   2.961   7.464  0.3253 -0.2116  0.3932
 6872SOL    HW132075   3.386   3.011   7.392 -0.3025  0.6796  0.6815
 6872SOL    HW232076   3.258   2.950   7.430  1.7152 -0.9566 -3.0568
 6873SOL     OW32077   1.381   2.045   2.583 -0.6792  0.6987  0.4472
 6873SOL    HW132078   1.333   1.982   2.529 -1.1371 -0.4607  2.2222
 6873SOL    HW232079   1.466   2.033   2.541 -0.2520 -0.4987  1.6688
 6874SOL     OW32080   3.704   1.380   6.294 -0.4040  0.0353 -0.6645
 6874SOL    HW132081   3.754   1.421   6.364 -0.7773 -1.6867  0.5956
 6874SOL    HW232082   3.622   1.387   6.342  0.5705 -1.0818  1.1951
 6875SOL     OW32083   0.168   0.822   2.856  0.5088 -0.2366 -0.0449
 6875SOL    HW132084   0.232   0.864   2.914  1.6557  0.3749 -1.7729
 6875SOL    HW232085   0.148   0.737   2.896  0.1150 -0.8579 -1.5757
 6876SOL     OW32086   0.174   3.639   7.551 -0.0309  0.5404  0.9094
 6876SOL    HW132087   0.150   3.546   7.552 -3.0463  1.2927 -1.4787
 6876SOL    HW232088   0.257   3.643   7.597  0.4527  0.5485  0.0331
 6877SOL     OW32089   3.052   0.402   7.944  0.4150  0.0996  0.0607
 6877SOL    HW132090   3.090   0.376   7.860  0.2220 -1.0949  0.3365
 6877SOL    HW232091   3.107   0.344   7.997  0.9444  0.4578 -0.1032
 6878SOL     OW32092   1.761   3.065   7.071  0.3229  0.0590 -0.0283
 6878SOL    HW132093   1.857   3.063   7.075  0.4168  2.6512 -0.7349
 6878SOL    HW232094   1.750   2.972   7.088 -0.7661  0.0820 -0.6055
 6879SOL     OW32095   2.575   4.442   2.165 -0.4067 -0.3407  0.1332
 6879SOL    HW132096   2.627   4.369   2.133 -1.9942 -0.3758 -2.3784
 6879SOL    HW232097   2.596   4.506   2.097 -3.0064 -0.5275 -0.8617
 6880SOL     OW32098   1.909   2.848   9.457 -0.3022  0.0952  0.6614
 6880SOL    HW132099   1.999   2.858   9.488 -0.1493  2.0744 -0.4468
 6880SOL    HW232100   1.862   2.822   9.536 -0.6560 -0.7089  0.1806
 6881SOL     OW32101   2.921   2.662  11.452  0.2222  0.0838  0.5186
 6881SOL    HW132102   2.898   2.744  11.409 -1.4113 -0.6109  0.0419
 6881SOL    HW232103   2.910   2.694  11.541 -0.5495  2.1064 -0.2991
 6882SOL     OW32104   2.314   4.411  10.962 -0.3571  0.2755  0.1630
 6882SOL    HW132105   2.402   4.400  10.924 -2.0156 -0.9436 -3.3771
 6882SOL    HW232106   2.303   4.495  10.919  2.0518 -0.5430 -2.1043
 6883SOL     OW32107   2.090   3.419   5.936  0.3936 -0.2779  0.3007
 6883SOL    HW132108   2.135   3.503   5.933 -0.4208  0.1260 -0.6348
 6883SOL    HW232109   2.139   3.364   5.874 -0.7494 -1.3528  0.3551
 6884SOL     OW32110   1.883   3.809   5.991 -0.2089  0.9040  0.4201
 6884SOL    HW132111   1.791   3.836   6.003  0.0073  1.9383 -0.2549
 6884SOL    HW232112   1.905   3.792   6.083 -2.2615  0.1651  0.7774
 6885SOL     OW32113   2.438   1.970   4.371  0.3822  0.2892 -1.3610
 6885SOL    HW132114   2.397   1.887   4.395 -0.5902  0.8868 -0.9441
 6885SOL    HW232115   2.373   2.018   4.423  2.9720  1.0119  1.1882
 6886SOL     OW32116   3.433   3.118  14.895 -0.6567 -0.1792 -0.2696
 6886SOL    HW132117   3.382   3.196  14.872 -1.1263 -1.0409 -2.1948
 6886SOL    HW232118   3.508   3.149  14.945 -0.5363  0.1505 -0.6566
 6887SOL     OW32119   2.978   0.604  13.380 -0.2654 -0.0396 -0.2965
 6887SOL    HW132120   3.046   0.581  13.317 -1.0118 -0.2184 -1.0411
 6887SOL    HW232121   3.004   0.556  13.458 -1.3959 -0.8136 -0.3965
 6888SOL     OW32122   3.943   0.702   8.804  0.7464  0.4320 -0.0804
 6888SOL    HW132123   3.924   0.793   8.781 -1.6595 -0.1751 -0.4808
 6888SOL    HW232124   3.878   0.682   8.872  0.8761 -0.9548 -0.3649
 6889SOL     OW32125   3.840   2.415   4.903  0.1630 -0.0699  0.2829
 6889SOL    HW132126   3.814   2.356   4.833 -0.0109 -0.8170  0.9837
 6889SOL    HW232127   3.754   2.445   4.931 -0.6117 -0.3921 -1.7557
 6890SOL     OW32128   2.815   0.946   5.401 -0.5373 -0.1938  0.0479
 6890SOL    HW132129   2.732   0.929   5.446  0.9483 -1.2895  2.3429
 6890SOL    HW232130   2.812   0.882   5.329 -0.7724  1.6597 -1.5846
 6891SOL     OW32131   0.344   2.457   3.565 -0.4437 -0.2713 -0.2548
 6891SOL    HW132132   0.316   2.548   3.559  0.4525  0.0908  1.1197
 6891SOL    HW232133   0.382   2.434   3.480  0.0878 -1.3832  0.2850
 6892SOL     OW32134   1.056   3.674   9.158  0.5140  0.5573  0.1079
 6892SOL    HW132135   1.133   3.640   9.203 -0.4433 -2.5667 -0.6148
 6892SOL    HW232136   1.052   3.769   9.169  1.8769  0.7233 -0.9086
 6893SOL     OW32137   4.046   4.652   9.334 -0.1208  0.0070 -0.1212
 6893SOL    HW132138   4.036   4.700   9.416 -2.5559 -0.1271 -0.3318
 6893SOL    HW232139   4.114   4.712   9.303 -0.8117  0.8765  0.0672
 6894SOL     OW32140   3.868   1.897   9.938 -0.2877 -0.1599 -0.3871
 6894SOL    HW132141   3.941   1.926   9.993  0.3868  0.6401 -1.6974
 6894SOL    HW232142   3.795   1.907   9.999 -0.9221  0.3974 -1.2401
 6895SOL     OW32143   1.159   0.221   2.239  0.0202 -0.5093  0.0853
 6895SOL    HW132144   1.122   0.295   2.192  1.9014  0.4265  0.1036
 6895SOL    HW232145   1.253   0.239   2.238 -0.4240  1.7712  0.6361
 6896SOL     OW32146   0.530   1.903  13.586 -0.4355 -0.2516  0.1663
 6896SOL    HW132147   0.539   1.808  13.593 -2.5629 -0.7621 -3.3158
 6896SOL    HW232148   0.601   1.927  13.645 -1.0260 -0.5242  0.9841
 6897SOL     OW32149   0.872   1.724   1.961  0.4635  0.3379 -0.7919
 6897SOL    HW132150   0.924   1.685   2.031  0.0112 -0.9608 -1.1729
 6897SOL    HW232151   0.939   1.786   1.933  0.7741  0.1814 -0.3899
 6898SOL     OW32152   3.700   0.715   2.227  0.0579  0.1147 -0.0453
 6898SOL    HW132153   3.669   0.775   2.159 -0.4115 -1.2118 -1.0087
 6898SOL    HW232154   3.791   0.693   2.210 -0.5907 -0.2622 -3.0961
 6899SOL     OW32155   0.739   2.039   7.071 -0.5333  0.0212  0.0712
 6899SOL    HW132156   0.788   2.087   7.138  0.4942 -1.6011  0.4725
 6899SOL    HW232157   0.675   1.997   7.129 -0.1040  1.3286  1.4827
 6900SOL     OW32158   2.459   1.840   2.663 -0.9190  0.6425 -0.4763
 6900SOL    HW132159   2.474   1.748   2.641  0.5350  0.9234 -0.6243
 6900SOL    HW232160   2.435   1.834   2.755 -0.0149  1.1600 -0.2057
 6901SOL     OW32161   3.630   3.109   9.206 -0.1278 -0.2527  0.2322
 6901SOL    HW132162   3.677   3.161   9.142  0.9979  1.0756  2.1165
 6901SOL    HW232163   3.695   3.047   9.241 -0.7111  0.7486  3.1016
 6902SOL     OW32164   3.875   1.035  10.976  0.2127  0.5340 -0.0610
 6902SOL    HW132165   3.856   1.117  10.931  0.4697  0.7668  0.2570
 6902SOL    HW232166   3.931   0.989  10.913 -0.0973  0.4284 -0.2597
 6903SOL     OW32167   1.160   0.619   8.948 -0.2758 -0.3807 -0.3237
 6903SOL    HW132168   1.196   0.619   8.859 -0.7489 -0.9376 -0.5192
 6903SOL    HW232169   1.221   0.682   8.984  0.8624 -0.4284 -2.1539
 6904SOL     OW32170   4.483   4.401   8.111  0.1545 -0.1216 -0.2684
 6904SOL    HW132171   4.548   4.330   8.109  0.0456 -0.2553  1.5380
 6904SOL    HW232172   4.535   4.471   8.149  0.0990 -0.6162  0.6983
 6905SOL     OW32173   1.324   1.337   0.559  0.0067  0.3254  0.1870
 6905SOL    HW132174   1.285   1.332   0.472 -2.4099 -2.3482  1.4466
 6905SOL    HW232175   1.395   1.273   0.552 -1.5491 -1.1444 -1.9799
 6906SOL     OW32176   1.881   1.213   3.187 -0.7728 -0.0627 -0.2002
 6906SOL    HW132177   1.855   1.301   3.157 -2.0690 -0.9788 -1.7799
 6906SOL    HW232178   1.832   1.154   3.129  0.3630 -0.5583 -0.6581
 6907SOL     OW32179   1.055   1.525   2.615 -0.1640 -0.0270  0.0787
 6907SOL    HW132180   1.023   1.616   2.612 -0.0195 -0.0286 -1.6396
 6907SOL    HW232181   1.013   1.491   2.536 -0.2067 -0.2347  0.1912
 6908SOL     OW32182   3.926   3.359   6.934 -0.2229 -0.0575  0.2186
 6908SOL    HW132183   3.880   3.363   7.018  1.1239  0.8881  0.9086
 6908SOL    HW232184   3.881   3.428   6.886  0.9577  0.0126 -0.7957
 6909SOL     OW32185   4.260   3.407   9.439  0.1209 -0.0346  0.2502
 6909SOL    HW132186   4.258   3.385   9.532 -2.1242  0.6548  0.3676
 6909SOL    HW232187   4.352   3.385   9.424  0.3473  0.4024  0.9930
 6910SOL     OW32188   1.577   2.130   2.140 -0.2103  0.3780  0.3307
 6910SOL    HW132189   1.586   2.148   2.047  1.5120 -1.9567  0.0242
 6910SOL    HW232190   1.598   2.036   2.143 -0.7778  0.1825 -2.1794
 6911SOL     OW32191   3.652   2.532   9.443  0.0541  0.4298 -0.3759
 6911SOL    HW132192   3.684   2.620   9.463 -1.3978  1.1709 -1.2882
 6911SOL    HW232193   3.638   2.541   9.348 -3.3077 -0.9455 -0.0189
 6912SOL     OW32194   4.391   3.509   6.444  0.1737 -0.5107  0.1314
 6912SOL    HW132195   4.408   3.541   6.356 -0.4367  1.1169  0.6043
 6912SOL    HW232196   4.387   3.587   6.501  2.2688 -0.6208  0.4213
 6913SOL     OW32197   2.109   1.615   7.842  0.0795  0.3293  0.8621
 6913SOL    HW132198   2.168   1.580   7.908  0.0678 -0.0777  0.6577
 6913SOL    HW232199   2.173   1.649   7.780 -0.5188  0.4856  0.3229
 6914SOL     OW32200   0.769   3.993  17.167 -0.2092 -0.4319 -0.0929
 6914SOL    HW132201   0.814   3.937  17.103  1.4844  0.4973  0.2796
 6914SOL    HW232202   0.747   3.928  17.234 -1.6508  1.1153  0.9192
 6915SOL     OW32203   0.729   3.227   6.825  0.2751 -0.1732  0.6000
 6915SOL    HW132204   0.670   3.212   6.899 -0.1613  0.9557  0.4786
 6915SOL    HW232205   0.685   3.306   6.794 -0.4464 -0.9320 -0.2964
 6916SOL     OW32206   0.212   0.992   9.974  0.0464  0.4736  0.1023
 6916SOL    HW132207   0.130   0.951  10.003 -0.3014  0.4017 -0.9869
 6916SOL    HW232208   0.189   0.999   9.881 -1.6529 -2.8368  0.2748
 6917SOL     OW32209   1.811   2.026   7.025 -0.1095 -0.0458  0.4539
 6917SOL    HW132210   1.783   2.021   6.934  3.1735 -0.2290 -0.5603
 6917SOL    HW232211   1.878   2.094   7.024 -3.1675  2.9270 -0.7509
 6918SOL     OW32212   3.829   2.795   6.078 -0.2633  0.1891 -0.5041
 6918SOL    HW132213   3.847   2.878   6.035  0.0393 -0.2148 -1.1639
 6918SOL    HW232214   3.779   2.761   6.004 -1.2923 -0.4780  0.4867
 6919SOL     OW32215   3.800   2.787   1.706 -0.1663 -0.0710  0.4660
 6919SOL    HW132216   3.807   2.814   1.615 -1.1406  0.0349  0.4129
 6919SOL    HW232217   3.704   2.785   1.715 -0.0820  0.8847  1.6596
 6920SOL     OW32218   2.160   3.391   7.019  0.3115 -0.5522 -0.3234
 6920SOL    HW132219   2.213   3.458   6.976 -0.0122 -0.1270 -0.0557
 6920SOL    HW232220   2.105   3.450   7.071  0.1509 -0.2570 -0.8265
 6921SOL     OW32221   2.369   2.806  10.748  0.2824 -0.1965  0.3771
 6921SOL    HW132222   2.380   2.734  10.810 -1.4501  0.8633  1.9337
 6921SOL    HW232223   2.275   2.823  10.743  0.6788  1.2099 -2.6427
 6922SOL     OW32224   0.693   0.614   8.807 -0.1260 -0.7172  0.4357
 6922SOL    HW132225   0.637   0.670   8.861 -1.3407 -0.7606 -0.7721
 6922SOL    HW232226   0.779   0.646   8.834  0.3978 -0.7089 -1.2344
 6923SOL     OW32227   0.724   1.331   7.580  0.5991  0.6201 -0.1268
 6923SOL    HW132228   0.788   1.264   7.554  0.3528  0.8348 -1.2910
 6923SOL    HW232229   0.737   1.398   7.513 -1.0816 -0.0105 -1.0834
 6924SOL     OW32230   2.787   1.279   5.972  0.0493  0.3397 -0.1746
 6924SOL    HW132231   2.808   1.343   6.041  1.7218 -3.0502  2.4591
 6924SOL    HW232232   2.777   1.347   5.905  2.6861  0.3693 -0.5237
 6925SOL     OW32233   3.508   1.547  13.063 -0.4276 -0.1211  0.7837
 6925SOL    HW132234   3.497   1.502  13.147 -3.1975  0.2024  0.5822
 6925SOL    HW232235   3.463   1.629  13.082 -2.2195 -0.5300 -1.6590
 6926SOL     OW32236   2.279   1.070   7.849 -0.1084  0.2229 -0.5064
 6926SOL    HW132237   2.234   1.014   7.785 -2.3300 -0.4594  1.6743
 6926SOL    HW232238   2.305   1.133   7.781 -1.1427  1.0183 -0.1659
 6927SOL     OW32239   1.163   0.625   5.976  0.1521  0.5952  0.2477
 6927SOL    HW132240   1.170   0.653   5.885  0.8288 -2.8480 -0.7488
 6927SOL    HW232241   1.251   0.604   6.007  0.0588  0.6301  0.5367
 6928SOL     OW32242   2.867   3.953   3.662 -0.0637  0.3364 -0.0287
 6928SOL    HW132243   2.846   4.036   3.703  1.7364  0.3656  0.8463
 6928SOL    HW232244   2.789   3.905   3.689  1.4404 -0.7740  2.3288
 6929SOL     OW32245   3.105   3.428   5.839  0.4146 -0.3263 -0.1629
 6929SOL    HW132246   3.171   3.484   5.881 -0.5627  1.6883 -1.3055
 6929SOL    HW232247   3.037   3.446   5.904  1.7930  2.6725  0.4477
 6930SOL     OW32248   3.536   4.091  11.436  0.7981 -0.6457  0.2123
 6930SOL    HW132249   3.578   4.120  11.355  0.7753  0.0605  0.4598
 6930SOL    HW232250   3.581   4.139  11.505  0.6321 -2.2249  1.4260
 6931SOL     OW32251   2.890   3.732  14.797 -0.4760  0.1597  0.1077
 6931SOL    HW132252   2.831   3.746  14.871 -3.9560  0.1637 -2.6984
 6931SOL    HW232253   2.953   3.671  14.837  0.5494  1.2302  0.1089
 6932SOL     OW32254   0.264   0.705   8.283  0.5653 -0.0191 -0.2329
 6932SOL    HW132255   0.208   0.672   8.354  0.2862  0.1505 -0.3750
 6932SOL    HW232256   0.344   0.656   8.303  0.2624 -1.2854 -2.0972
 6933SOL     OW32257   2.147   2.842  12.200  0.4853 -0.8375  0.4070
 6933SOL    HW132258   2.227   2.820  12.249  1.3184  0.3001 -0.4585
 6933SOL    HW232259   2.126   2.933  12.222 -2.4826 -1.1053 -1.3606
 6934SOL     OW32260   3.834   1.220  16.985  0.6216 -0.1130 -0.6232
 6934SOL    HW132261   3.905   1.190  17.041  1.6065  1.8131 -0.8479
 6934SOL    HW232262   3.882   1.232  16.903  1.9066  0.6206  0.2470
 6935SOL     OW32263   1.012   3.192   6.465  0.3694 -1.0108  0.0338
 6935SOL    HW132264   1.047   3.120   6.412  1.5410 -1.7326  1.7693
 6935SOL    HW232265   0.969   3.231   6.389 -0.6367 -0.4016  0.9319
 6936SOL     OW32266   0.445   1.867   4.672  0.1118  0.3365 -0.3843
 6936SOL    HW132267   0.400   1.924   4.735  0.5449  0.7567 -0.4593
 6936SOL    HW232268   0.381   1.796   4.666 -3.3763  3.5292 -1.5282
 6937SOL     OW32269   1.517   0.221   4.132 -0.1730  0.7890  1.2299
 6937SOL    HW132270   1.600   0.177   4.150 -0.4974 -0.0665  0.6158
 6937SOL    HW232271   1.524   0.245   4.040 -2.6807 -3.0569  0.0667
 6938SOL     OW32272   2.637   1.097  14.944 -0.8070  0.2486  0.0519
 6938SOL    HW132273   2.595   1.160  14.886  2.4138  1.0795 -1.3886
 6938SOL    HW232274   2.569   1.030  14.932  0.0413 -0.5994 -0.0321
 6939SOL     OW32275   1.925   1.932  14.584  0.1613 -0.0826  0.8249
 6939SOL    HW132276   1.972   2.004  14.543 -1.2881  0.0104 -0.6482
 6939SOL    HW232277   1.843   1.946  14.537 -1.8468 -2.7755  3.4857
 6940SOL     OW32278   2.869   1.872   2.945 -0.1413  0.3384 -0.0091
 6940SOL    HW132279   2.779   1.885   2.912  0.0781 -2.0679 -1.5710
 6940SOL    HW232280   2.854   1.811   3.017 -3.3191  1.7187  0.4963
 6941SOL     OW32281   1.649   2.018   8.958  0.1173 -0.0281 -0.1768
 6941SOL    HW132282   1.742   2.009   8.981  0.3887  0.4347 -1.0854
 6941SOL    HW232283   1.623   2.077   9.029  2.2479 -0.6512  1.1238
 6942SOL     OW32284   1.146   0.953   6.776  0.3188 -0.1275 -0.6028
 6942SOL    HW132285   1.076   0.981   6.835 -0.0579  0.6434 -1.4074
 6942SOL    HW232286   1.121   1.009   6.702  0.1188  3.5765  2.2966
 6943SOL     OW32287   4.036   1.916   6.027  0.0793 -0.2216  0.2747
 6943SOL    HW132288   4.102   1.847   6.030 -1.7491 -1.9064  1.7478
 6943SOL    HW232289   4.041   1.937   6.120  1.8968 -2.3756  0.6570
 6944SOL     OW32290   0.451   1.478   7.759  0.0935 -0.3158  0.3085
 6944SOL    HW132291   0.383   1.452   7.821  0.7421  0.9148  1.5391
 6944SOL    HW232292   0.524   1.488   7.820 -0.4583 -0.1136  0.9279
 6945SOL     OW32293   4.524   0.229  10.091  0.3024 -0.0050 -0.1356
 6945SOL    HW132294   4.498   0.214  10.000 -3.3988 -1.3658  1.1253
 6945SOL    HW232295   4.617   0.206  10.085  0.2839 -0.0220 -0.3592
 6946SOL     OW32296   1.756   4.453   5.945  0.1341 -0.7087 -0.1914
 6946SOL    HW132297   1.668   4.416   5.948 -0.4628  0.6755 -0.6140
 6946SOL    HW232298   1.801   4.389   5.890  1.1231  0.0794 -0.3037
 6947SOL     OW32299   3.322   4.114   7.428  0.1370 -0.1849 -0.0619
 6947SOL    HW132300   3.227   4.124   7.432 -0.2344 -2.0959 -3.7393
 6947SOL    HW232301   3.318   4.032   7.379 -0.7210  0.9562 -1.9006
 6948SOL     OW32302   0.873   4.604   0.887 -0.1061 -0.1624 -0.3896
 6948SOL    HW132303   0.787   4.571   0.860  0.7272 -2.8553  0.2470
 6948SOL    HW232304   0.921   4.615   0.805 -0.1353  0.7520 -0.2845
 6949SOL     OW32305   3.842   3.571   8.477 -0.2313 -0.0031 -0.2556
 6949SOL    HW132306   3.820   3.630   8.549 -1.2979  0.6048 -1.0648
 6949SOL    HW232307   3.878   3.495   8.521  2.4695  1.8549  0.7322
 6950SOL     OW32308   0.510   1.823   9.557  0.0194  0.6559 -0.3376
 6950SOL    HW132309   0.582   1.878   9.527  1.0245 -0.9475 -0.9095
 6950SOL    HW232310   0.435   1.879   9.575  0.1347  1.0466 -1.1086
 6951SOL     OW32311   0.493   3.932   7.178  0.0276 -0.5624 -0.0226
 6951SOL    HW132312   0.545   3.880   7.117  0.9156  0.3096 -0.0043
 6951SOL    HW232313   0.502   3.886   7.261  0.7993 -0.8411 -0.2612
 6952SOL     OW32314   0.227   0.830   9.278 -0.1565  0.3640  0.0106
 6952SOL    HW132315   0.283   0.907   9.280 -0.6010  0.7521 -3.5311
 6952SOL    HW232316   0.241   0.794   9.191  0.0075 -0.9360  0.5702
 6953SOL     OW32317   3.055   3.292   8.455  0.0864 -0.0978  0.0125
 6953SOL    HW132318   3.100   3.375   8.440 -1.4907  0.5538 -1.0806
 6953SOL    HW232319   3.127   3.230   8.467  1.4010  1.3701 -0.2109
 6954SOL     OW32320   2.314   3.986   6.470  0.1326  0.2571  0.2624
 6954SOL    HW132321   2.350   3.902   6.442 -0.5056  1.0575 -3.0066
 6954SOL    HW232322   2.221   3.966   6.478  0.6888 -1.2455  3.1033
 6955SOL     OW32323   0.194   3.651   4.917  0.3440 -0.3768  0.3135
 6955SOL    HW132324   0.103   3.631   4.893  0.1020  0.7355  0.3328
 6955SOL    HW232325   0.233   3.578   4.869  1.1849  0.5631 -0.4126
 6956SOL     OW32326   3.923   4.103   2.036  0.3522 -0.0671 -0.6851
 6956SOL    HW132327   3.851   4.103   1.973  2.0237 -0.7247 -2.6093
 6956SOL    HW232328   3.997   4.064   1.989 -0.3467 -0.3040 -1.5807
 6957SOL     OW32329   0.895   3.100   3.025  0.3936  0.0019  0.2921
 6957SOL    HW132330   0.801   3.100   3.011  0.2249  0.3915  1.4248
 6957SOL    HW232331   0.928   3.099   2.935 -2.1750  1.6422 -0.6591
 6958SOL     OW32332   0.718   4.676   9.745 -0.5479 -0.5437  0.2398
 6958SOL    HW132333   0.723   0.048   9.744  0.7514 -0.6233 -0.3331
 6958SOL    HW232334   0.765   4.657   9.826 -1.1974 -1.2956  0.4324
 6959SOL     OW32335   0.664   3.409   8.220  0.9626 -0.6963  0.5871
 6959SOL    HW132336   0.723   3.375   8.152  2.2021  0.7370  0.9361
 6959SOL    HW232337   0.703   3.497   8.217 -0.0637 -0.2528  0.2777
 6960SOL     OW32338   0.413   2.327  15.090 -0.4155  0.2206  0.7062
 6960SOL    HW132339   0.506   2.327  15.113 -0.2371 -0.8727 -0.0264
 6960SOL    HW232340   0.379   2.238  15.091 -1.4921  0.6198  0.8806
 6961SOL     OW32341   0.241   3.977   7.031  0.0339  0.3365  0.5602
 6961SOL    HW132342   0.294   3.968   7.110  0.6913  0.3913  0.1287
 6961SOL    HW232343   0.179   4.039   7.067  0.7801  0.7327  1.1554
 6962SOL     OW32344   1.672   3.874   5.090 -0.0622 -0.0065 -0.2179
 6962SOL    HW132345   1.766   3.888   5.085 -0.0957  0.1733 -0.3764
 6962SOL    HW232346   1.640   3.964   5.083 -2.7550 -0.9492 -0.1463
 6963SOL     OW32347   0.425   3.207   5.339 -0.3217  0.8110  0.5340
 6963SOL    HW132348   0.379   3.280   5.299 -1.8408  0.4528  1.5829
 6963SOL    HW232349   0.442   3.160   5.258  1.7792  2.0730  0.2619
 6964SOL     OW32350   3.789   1.414   8.060  0.2142 -0.8873  0.0093
 6964SOL    HW132351   3.881   1.389   8.050  0.9264  2.2737 -1.1532
 6964SOL    HW232352   3.801   1.463   8.142  1.7872 -0.4581 -0.4804
 6965SOL     OW32353   2.659   0.598  10.776 -0.2452  0.0392 -0.6880
 6965SOL    HW132354   2.645   0.677  10.828 -2.6705 -0.9566  0.1547
 6965SOL    HW232355   2.709   0.540  10.834  2.4963 -0.3500 -3.4159
 6966SOL     OW32356   3.680   1.108  16.647  0.3718 -0.5182  0.7004
 6966SOL    HW132357   3.760   1.110  16.699  0.7433  0.0192  0.1074
 6966SOL    HW232358   3.649   1.199  16.642 -0.0761 -0.7567 -0.9267
 6967SOL     OW32359   0.630   0.561   7.615  0.3170 -0.4333  0.4112
 6967SOL    HW132360   0.594   0.642   7.652  2.7758  0.6065  0.5479
 6967SOL    HW232361   0.716   0.603   7.613  1.4247 -2.7576 -0.3430
 6968SOL     OW32362   1.047   3.962   8.610 -0.1771  0.0739 -0.0833
 6968SOL    HW132363   1.099   3.924   8.681  0.0424  1.1231  0.3104
 6968SOL    HW232364   0.964   3.922   8.636  0.1709 -0.5512  0.0689
 6969SOL     OW32365   2.805   3.930   9.476  0.7030  0.4370  0.1700
 6969SOL    HW132366   2.813   4.021   9.505  1.0303  1.0668 -1.9352
 6969SOL    HW232367   2.858   3.928   9.397  0.9935 -4.4411  0.4711
 6970SOL     OW32368   1.414   3.423   2.831 -0.2780 -0.8509  0.0244
 6970SOL    HW132369   1.325   3.411   2.865  0.1440 -1.6947  0.8397
 6970SOL    HW232370   1.450   3.494   2.883 -0.9988  0.8591 -1.7761
 6971SOL     OW32371   0.484   0.437  11.658 -0.1552  0.0637  0.4807
 6971SOL    HW132372   0.536   0.461  11.581  1.3990 -2.3470  0.7891
 6971SOL    HW232373   0.424   0.375  11.618  2.2078 -0.4110 -2.3123
 6972SOL     OW32374   3.436   2.696   7.892 -0.1099 -0.1897  0.1264
 6972SOL    HW132375   3.403   2.606   7.901  0.2197 -0.0569  2.5175
 6972SOL    HW232376   3.510   2.685   7.831  1.0240  3.4273  0.8547
 6973SOL     OW32377   3.874   0.476   2.954 -0.1661  0.1298  0.5564
 6973SOL    HW132378   3.916   0.406   3.004 -1.9129 -0.4187  1.2450
 6973SOL    HW232379   3.876   0.544   3.021 -0.9831  1.2371 -0.5372
 6974SOL     OW32380   1.659   1.032  16.759 -0.3002  0.2149  0.1224
 6974SOL    HW132381   1.732   1.090  16.778  1.1510 -1.3259 -0.7180
 6974SOL    HW232382   1.704   0.948  16.760 -1.3224 -0.3077  1.5956
 6975SOL     OW32383   1.589   2.060   8.560  0.8116 -0.1298 -0.6315
 6975SOL    HW132384   1.669   2.024   8.521 -0.2243 -2.3441 -0.7511
 6975SOL    HW232385   1.517   2.036   8.502  0.1387 -0.6224  0.3975
 6976SOL     OW32386   4.680   0.311   1.737  0.4014 -0.2819  0.7436
 6976SOL    HW132387   0.048   0.295   1.757  0.4912 -0.8164 -0.0940
 6976SOL    HW232388   4.638   0.228   1.762 -2.4110  1.0208  0.4074
 6977SOL     OW32389   1.594   3.595   5.582  0.4216 -0.1757  0.0740
 6977SOL    HW132390   1.557   3.671   5.538  1.1578  0.3120  0.2953
 6977SOL    HW232391   1.680   3.625   5.614 -0.3057 -0.7560  2.5863
 6978SOL     OW32392   4.563   4.519   2.175  0.3917  0.0680 -0.0286
 6978SOL    HW132393   4.472   4.530   2.145  0.4026 -1.2962 -0.5736
 6978SOL    HW232394   4.579   4.598   2.227 -2.3256  0.9172 -0.4641
 6979SOL     OW32395   1.064   0.204   8.939 -0.3661 -0.3865  0.0264
 6979SOL    HW132396   0.974   0.225   8.967 -0.0588  0.3097  0.5005
 6979SOL    HW232397   1.085   0.127   8.991 -0.1781 -0.0312  0.4805
 6980SOL     OW32398   4.540   2.010   1.866  0.0902 -0.1025  0.2736
 6980SOL    HW132399   4.577   2.046   1.947 -0.4690 -0.6405  0.7755
 6980SOL    HW232400   4.593   2.054   1.800 -0.2826  0.4048  0.3116
 6981SOL     OW32401   2.410   4.652   8.685  0.1558  0.6135  0.6633
 6981SOL    HW132402   2.383   4.605   8.764  0.4104  0.6896  0.7980
 6981SOL    HW232403   2.328   4.662   8.637 -0.1964  1.5051  1.4392
 6982SOL     OW32404   0.901   2.273   5.191  0.8624 -0.5581 -0.0964
 6982SOL    HW132405   0.836   2.271   5.120 -1.1269  3.5444  1.6460
 6982SOL    HW232406   0.964   2.213   5.152  1.9044  0.6624 -0.2670
 6983SOL     OW32407   4.210   2.948   1.928  0.1768 -0.0264  0.0465
 6983SOL    HW132408   4.294   2.985   1.956  0.5553 -0.1805 -0.8827
 6983SOL    HW232409   4.228   2.854   1.940  1.1981 -0.2438 -3.2585
 6984SOL     OW32410   0.692   1.376   1.541  0.4120  0.2464  0.4601
 6984SOL    HW132411   0.641   1.298   1.520 -0.9723  0.9287  1.3153
 6984SOL    HW232412   0.718   1.404   1.453 -0.5473  0.2064  0.1612
 6985SOL     OW32413   0.888   4.498   3.515 -0.1164 -0.1149  0.1509
 6985SOL    HW132414   0.807   4.463   3.480 -1.0997  0.1085  2.1692
 6985SOL    HW232415   0.949   4.475   3.445 -2.0442  0.5343 -1.7459
 6986SOL     OW32416   1.137   4.697   4.187  0.5354 -0.6272 -0.1137
 6986SOL    HW132417   1.196   4.706   4.262 -0.5583 -1.0173  0.7980
 6986SOL    HW232418   1.179   0.023   4.117 -0.2665  0.0275 -0.1202
 6987SOL     OW32419   4.047   0.884  11.338  0.1680 -0.0699  0.0448
 6987SOL    HW132420   4.025   0.827  11.412 -1.2774 -1.9606 -1.8305
 6987SOL    HW232421   4.139   0.896  11.360 -0.1475  1.1544  0.7148
 6988SOL     OW32422   2.797   3.027   5.287 -0.2891 -0.1238 -0.4194
 6988SOL    HW132423   2.865   2.960   5.293 -1.4051 -1.3348 -1.1726
 6988SOL    HW232424   2.832   3.103   5.242  0.9434 -0.6220 -0.3064
 6989SOL     OW32425   3.479   1.342   9.240  0.3119  0.1577 -0.1814
 6989SOL    HW132426   3.422   1.343   9.317  1.2871  1.5416  0.5231
 6989SOL    HW232427   3.567   1.329   9.277 -0.0067  0.4204  0.6833
 6990SOL     OW32428   0.278   3.857   4.095  0.1858 -0.4167  0.3625
 6990SOL    HW132429   0.254   3.836   4.185 -0.7618  0.9737  0.4368
 6990SOL    HW232430   0.335   3.931   4.113 -2.3809  1.5532  0.3851
 6991SOL     OW32431   3.053   3.646  12.884  0.7052  0.2763 -0.2854
 6991SOL    HW132432   3.127   3.636  12.823  0.2646 -1.0919 -0.5944
 6991SOL    HW232433   3.010   3.723  12.846  0.8202 -1.0126 -3.0469
 6992SOL     OW32434   3.960   0.515  16.404 -0.6493 -0.4521 -0.3163
 6992SOL    HW132435   3.876   0.471  16.390 -1.1999  0.1910  0.9636
 6992SOL    HW232436   3.953   0.550  16.493 -1.2688  0.3362 -0.6775
 6993SOL     OW32437   2.081   0.026   5.378 -0.0597 -0.5527  0.1957
 6993SOL    HW132438   2.073   0.080   5.299  0.3062  0.6178  0.9679
 6993SOL    HW232439   2.129   0.080   5.440 -1.3632  1.1555 -0.2645
 6994SOL     OW32440   1.177   1.879  11.032  0.2291  0.6957 -0.0944
 6994SOL    HW132441   1.124   1.959  11.028  1.6634  1.7138  1.8546
 6994SOL    HW232442   1.182   1.856  11.125  1.0485 -0.8605 -0.5257
 6995SOL     OW32443   3.954   0.587   8.437  0.4564 -0.0688 -0.3531
 6995SOL    HW132444   3.951   0.492   8.429  2.2646 -0.2952  1.5361
 6995SOL    HW232445   4.032   0.607   8.490 -0.4889  1.8028  0.3213
 6996SOL     OW32446   3.245   2.138   8.756  0.2049 -0.1560 -0.6104
 6996SOL    HW132447   3.220   2.070   8.820  1.0845 -0.3859 -0.5099
 6996SOL    HW232448   3.162   2.185   8.752  0.9789  1.2825  0.3236
 6997SOL     OW32449   1.701   0.189   6.022 -0.1706  0.4192 -0.1049
 6997SOL    HW132450   1.679   0.160   6.110 -1.7878  0.8961 -0.3519
 6997SOL    HW232451   1.786   0.232   6.031  0.5635 -1.2539  0.9663
 6998SOL     OW32452   3.596   0.746   3.920 -0.0137  0.0377 -0.1507
 6998SOL    HW132453   3.585   0.822   3.863 -1.0227  0.0863  0.1051
 6998SOL    HW232454   3.538   0.768   3.993 -2.3711 -2.4107 -1.2973
 6999SOL     OW32455   2.597   1.430   7.342 -0.1530  0.3033  0.5092
 6999SOL    HW132456   2.550   1.502   7.384  0.3450  0.2884  1.0942
 6999SOL    HW232457   2.687   1.461   7.340 -0.2325  0.5082  0.1523
 7000SOL     OW32458   2.342   3.298  16.473  0.0234 -0.6897 -0.6020
 7000SOL    HW132459   2.334   3.380  16.521  1.3478 -0.4372 -0.8012
 7000SOL    HW232460   2.434   3.280  16.491  0.1163  1.1153  0.7811
 7001SOL     OW32461   3.943   4.664  14.364 -1.2742  0.4791  0.0859
 7001SOL    HW132462   3.995   4.617  14.299  1.4606  0.0615  2.6246
 7001SOL    HW232463   3.999   4.668  14.441 -0.7134  1.2815 -0.3675
 7002SOL     OW32464   2.441   1.627   5.404  0.6181 -0.4958 -0.2361
 7002SOL    HW132465   2.460   1.564   5.473 -0.6849 -0.2646  0.3402
 7002SOL    HW232466   2.468   1.573   5.329  0.5164  2.7270 -2.6189
 7003SOL     OW32467   0.251   3.981  12.569  0.3408 -0.1263  0.0933
 7003SOL    HW132468   0.189   4.054  12.582  1.2072  0.2858  1.8583
 7003SOL    HW232469   0.331   4.022  12.602 -0.0934  1.9028 -1.3453
 7004SOL     OW32470   2.242   1.873   9.620 -0.1127 -0.0356 -0.1123
 7004SOL    HW132471   2.220   1.787   9.654  1.0980 -0.5093 -0.5214
 7004SOL    HW232472   2.233   1.926   9.699  0.7523 -0.8906  0.5437
 7005SOL     OW32473   0.737   4.422  17.405 -0.6202 -0.1565 -0.1604
 7005SOL    HW132474   0.801   4.357  17.434  0.8976  0.6300 -1.7412
 7005SOL    HW232475   0.756   4.431  17.311  0.6894  1.6307  0.2687
 7006SOL     OW32476   3.599   0.131   5.756  0.5270 -0.5206 -0.0736
 7006SOL    HW132477   3.690   0.156   5.776  1.3505 -3.1872 -0.4732
 7006SOL    HW232478   3.550   0.190   5.814  3.2567  0.8109  0.8814
 7007SOL     OW32479   2.149   2.167   4.265 -0.4158 -0.2974 -0.3632
 7007SOL    HW132480   2.196   2.130   4.340 -0.9753 -0.1287  0.0680
 7007SOL    HW232481   2.168   2.261   4.266 -1.8711 -0.0134  0.1691
 7008SOL     OW32482   4.496   0.253  13.088  0.6776  0.5826 -0.1915
 7008SOL    HW132483   4.568   0.274  13.147  0.8454  1.7319 -0.7948
 7008SOL    HW232484   4.443   0.333  13.080  2.2775  1.3460 -3.1179
 7009SOL     OW32485   1.032   3.295   0.238  0.0131 -0.2760 -0.1095
 7009SOL    HW132486   1.061   3.253   0.156 -1.1599 -0.0582 -0.6400
 7009SOL    HW232487   1.060   3.386   0.231  0.8622 -0.5830 -0.7396
 7010SOL     OW32488   2.221   4.421   3.285  0.0549 -0.5737  0.6158
 7010SOL    HW132489   2.264   4.378   3.211  2.2394  1.8542  0.4682
 7010SOL    HW232490   2.264   4.506   3.284  0.9893 -1.0279  2.6352
 7011SOL     OW32491   0.415   0.540  13.001  0.2626 -0.6118 -0.5479
 7011SOL    HW132492   0.323   0.557  13.021  0.6540 -0.6131  1.2922
 7011SOL    HW232493   0.444   0.484  13.073 -1.8570 -3.8315 -2.2080
 7012SOL     OW32494   0.511   0.409   5.528 -0.6586  0.1247 -0.0997
 7012SOL    HW132495   0.518   0.470   5.602  0.2473  0.7418 -0.7056
 7012SOL    HW232496   0.569   0.447   5.463 -0.7212 -0.4822 -0.5034
 7013SOL     OW32497   1.014   0.652  12.990  0.2197 -0.0612  0.0835
 7013SOL    HW132498   1.005   0.589  13.061  0.1944 -1.6765 -1.3519
 7013SOL    HW232499   0.977   0.606  12.915  2.3491  0.2181 -1.1583
 7014SOL     OW32500   3.543   4.330   6.807 -0.3402  0.1035 -0.1640
 7014SOL    HW132501   3.459   4.347   6.764  0.3269  0.1734 -1.4570
 7014SOL    HW232502   3.527   4.239   6.832  0.5845 -0.5650 -1.9653
 7015SOL     OW32503   0.439   0.163  12.506 -0.4738  0.0594 -0.0354
 7015SOL    HW132504   0.530   0.156  12.535 -1.3407 -1.2965  2.2864
 7015SOL    HW232505   0.392   0.207  12.576 -0.5716  0.9718 -0.6719
 7016SOL     OW32506   2.793   4.546   7.284 -0.4154  0.3735 -0.2934
 7016SOL    HW132507   2.870   4.491   7.268 -2.1678 -0.9654 -4.0074
 7016SOL    HW232508   2.791   4.555   7.379  0.5473 -1.5108 -0.0945
 7017SOL     OW32509   2.756   3.297  15.432 -0.5324 -0.2775 -0.1724
 7017SOL    HW132510   2.838   3.342  15.416  0.8041 -2.0475  1.6968
 7017SOL    HW232511   2.713   3.370  15.475 -0.3868 -1.7909  2.5461
 7018SOL     OW32512   3.354   4.029   5.546  0.6266  0.5984  0.4068
 7018SOL    HW132513   3.320   4.098   5.490  0.6743  1.3839  1.3427
 7018SOL    HW232514   3.299   4.051   5.622 -1.0706 -1.7616 -0.1307
 7019SOL     OW32515   3.335   2.797  14.925 -0.1366  0.2068 -0.3045
 7019SOL    HW132516   3.360   2.722  14.979  0.9102  1.0675  0.4109
 7019SOL    HW232517   3.373   2.863  14.982  1.5945 -0.4106 -0.7370
 7020SOL     OW32518   0.472   3.604   2.437  0.1160 -0.6744  0.8367
 7020SOL    HW132519   0.532   3.593   2.511  1.1287 -1.9908 -0.1713
 7020SOL    HW232520   0.510   3.556   2.364 -0.8839  1.4726 -1.0986
 7021SOL     OW32521   3.138   3.447   0.123 -0.0080  0.0041  0.6278
 7021SOL    HW132522   3.203   3.387   0.087 -1.0797 -0.9085  0.2019
 7021SOL    HW232523   3.066   3.455   0.061  2.3862  2.0518 -1.9127
 7022SOL     OW32524   2.303   4.401   3.597  0.3506 -0.3904  0.3832
 7022SOL    HW132525   2.259   4.401   3.511 -0.1972  0.3174  0.6561
 7022SOL    HW232526   2.295   4.308   3.616  1.6396 -0.5503  0.1116
 7023SOL     OW32527   4.248   3.261   7.491 -0.0180 -0.2397  0.3824
 7023SOL    HW132528   4.258   3.214   7.408 -1.1982  0.5431 -0.2054
 7023SOL    HW232529   4.339   3.258   7.520 -0.4768  0.9917  1.9091
 7024SOL     OW32530   2.165   0.396   7.038 -0.0522 -0.3509 -0.1995
 7024SOL    HW132531   2.079   0.374   7.074 -0.5822  0.2681 -1.0892
 7024SOL    HW232532   2.142   0.407   6.946  0.5612 -1.5899 -0.4981
 7025SOL     OW32533   1.435   1.481   6.228  0.0879  0.5469 -0.1601
 7025SOL    HW132534   1.502   1.539   6.263  1.8821 -1.3593 -0.3948
 7025SOL    HW232535   1.474   1.394   6.239 -2.3671 -0.2285  2.5955
 7026SOL     OW32536   0.660   4.209   0.982 -0.0903  0.6305 -0.4306
 7026SOL    HW132537   0.734   4.211   1.043  0.3604 -1.8923 -0.8859
 7026SOL    HW232538   0.602   4.154   1.033  1.1045 -0.2768 -0.0498
 7027SOL     OW32539   4.312   2.935   0.402 -0.2806 -0.1294 -0.5811
 7027SOL    HW132540   4.224   2.902   0.386 -0.2851 -0.6048  0.4209
 7027SOL    HW232541   4.354   2.856   0.436 -3.4178 -1.5638 -0.0981
 7028SOL     OW32542   0.373   2.945   9.233 -0.1112 -0.2964  0.6413
 7028SOL    HW132543   0.431   2.871   9.217 -0.5067 -0.5492  0.3855
 7028SOL    HW232544   0.297   2.906   9.275  0.2011 -0.7535  0.7794
 7029SOL     OW32545   0.300   0.301   7.971  0.2077  0.3769 -0.3492
 7029SOL    HW132546   0.363   0.229   7.969 -0.9929 -0.6937  0.7588
 7029SOL    HW232547   0.358   0.373   7.946 -1.4982  1.9592  0.2441
 7030SOL     OW32548   3.994   4.557   8.350 -0.4954 -0.4018 -0.1557
 7030SOL    HW132549   4.057   4.533   8.282  2.3519 -0.0701  2.3851
 7030SOL    HW232550   4.036   4.635   8.386 -0.0119  0.1560 -1.9212
 7031SOL     OW32551   1.099   0.115  15.745  0.5512  0.1292 -0.3392
 7031SOL    HW132552   1.109   0.050  15.675  0.0373  1.2162 -1.4113
 7031SOL    HW232553   1.173   0.174  15.734 -0.6771  1.7602  0.2614
 7032SOL     OW32554   2.354   1.227   4.894  0.5654 -0.7398 -0.2246
 7032SOL    HW132555   2.337   1.171   4.818 -3.9677  0.5093 -0.1472
 7032SOL    HW232556   2.265   1.238   4.929  1.2228  0.8528  0.9578
 7033SOL     OW32557   3.838   3.776   8.943  0.3301  0.6408  0.0248
 7033SOL    HW132558   3.851   3.868   8.964 -0.0547  0.3752  1.4330
 7033SOL    HW232559   3.928   3.751   8.921 -0.9598  0.7355 -5.2654
 7034SOL     OW32560   2.924   3.475  14.112  0.1974  0.2234 -0.6331
 7034SOL    HW132561   2.973   3.501  14.034  1.0006  1.1761  0.1860
 7034SOL    HW232562   2.928   3.556  14.162  0.1587  0.6916 -1.3813
 7035SOL     OW32563   2.548   1.408   5.205  1.0737  0.1808 -0.2493
 7035SOL    HW132564   2.559   1.399   5.111 -1.0528  4.2418 -0.8901
 7035SOL    HW232565   2.549   1.317   5.234 -1.6004  0.1929 -0.0764
 7036SOL     OW32566   2.696   4.230   2.718  0.0350 -0.2625 -0.2074
 7036SOL    HW132567   2.753   4.247   2.643  0.7456  0.6002  0.5328
 7036SOL    HW232568   2.665   4.141   2.699 -4.8523  1.5067 -0.7040
 7037SOL     OW32569   1.556   4.218   4.592 -0.3207 -0.4756 -0.0810
 7037SOL    HW132570   1.479   4.181   4.634  0.8455 -2.0457  0.6479
 7037SOL    HW232571   1.522   4.271   4.520  0.1706  0.9372  0.7239
 7038SOL     OW32572   2.798   0.312  17.384 -0.1268  0.5199 -0.3314
 7038SOL    HW132573   2.869   0.254  17.355 -0.1469  0.7878 -0.9253
 7038SOL    HW232574   2.794   0.378  17.315  0.2734  1.1311  0.2348
 7039SOL     OW32575   4.232   2.729   5.813  0.4790 -0.2039  0.2033
 7039SOL    HW132576   4.217   2.812   5.856  1.1177  0.0415 -0.0406
 7039SOL    HW232577   4.188   2.666   5.869 -0.2960  1.0145  0.9489
 7040SOL     OW32578   3.322   3.637  15.694 -0.9224  0.4184 -0.4360
 7040SOL    HW132579   3.409   3.671  15.715 -0.5728 -0.6751 -0.1521
 7040SOL    HW232580   3.283   3.625  15.781  1.3813  0.6830  0.6161
 7041SOL     OW32581   0.365   1.077   9.313  0.3875  0.4951  0.3298
 7041SOL    HW132582   0.389   1.084   9.406 -1.9826 -1.3786  1.0906
 7041SOL    HW232583   0.360   1.170   9.290  0.6261  0.3047 -0.4966
 7042SOL     OW32584   3.687   3.727  12.820 -0.0536 -0.0098 -0.4360
 7042SOL    HW132585   3.769   3.680  12.807  0.2582  0.0387  1.4125
 7042SOL    HW232586   3.639   3.696  12.743  0.6229  2.2913 -1.7852
 7043SOL     OW32587   1.032   0.422   5.285 -0.4257 -0.1133  0.1820
 7043SOL    HW132588   1.038   0.352   5.351 -0.8185  0.1784  0.5351
 7043SOL    HW232589   1.031   0.382   5.199  0.6918  2.1711 -0.8806
 7044SOL     OW32590   1.782   2.400   6.661 -0.4802 -0.6759 -0.3096
 7044SOL    HW132591   1.785   2.374   6.569 -1.7981 -2.2927  0.1213
 7044SOL    HW232592   1.697   2.445   6.658 -0.3154 -0.3436 -0.0484
 7045SOL     OW32593   4.510   1.451   2.940 -0.2798  0.1332  0.2723
 7045SOL    HW132594   4.495   1.357   2.934  0.0513  0.1989 -1.5732
 7045SOL    HW232595   4.587   1.451   2.884 -0.5768  0.2733 -0.1365
 7046SOL     OW32596   4.680   4.160   0.790  0.1814 -0.1870 -0.4874
 7046SOL    HW132597   0.008   4.224   0.840 -2.6887  0.5390  1.5855
 7046SOL    HW232598   4.690   4.070   0.822 -0.4288  0.7871  2.5293
 7047SOL     OW32599   4.510   3.948   6.477  0.1559  0.4619  0.0468
 7047SOL    HW132600   4.444   4.018   6.469  0.2091  0.4943 -0.0959
 7047SOL    HW232601   4.457   3.873   6.506  0.2150  0.5132  0.2868
 7048SOL     OW32602   3.239   3.109  17.224  0.1194  0.1026  0.2995
 7048SOL    HW132603   3.183   3.036  17.250 -0.4728  0.4820  0.0901
 7048SOL    HW232604   3.216   3.177  17.287  1.6585 -0.8244  1.8404
 7049SOL     OW32605   2.558   0.779  17.055  0.2905  0.1065 -0.4260
 7049SOL    HW132606   2.650   0.807  17.064 -0.3080  1.9038  0.1851
 7049SOL    HW232607   2.585   0.688  17.041 -0.0131 -0.1137  0.4448
 7050SOL     OW32608   2.636   2.409   3.156 -0.0528 -0.0986  0.0736
 7050SOL    HW132609   2.607   2.335   3.102  1.8320 -2.2245  1.9751
 7050SOL    HW232610   2.701   2.448   3.097 -0.1738  1.6329  1.1179
 7051SOL     OW32611   1.288   3.145   4.460  0.2436 -0.0902 -0.2967
 7051SOL    HW132612   1.374   3.185   4.446 -0.4058  1.9673  1.4113
 7051SOL    HW232613   1.253   3.180   4.378 -0.7448  0.9863  0.5660
 7052SOL     OW32614   1.546   1.651  15.332  0.8993 -0.0842 -0.1883
 7052SOL    HW132615   1.618   1.696  15.376  1.7034  0.4392 -2.0721
 7052SOL    HW232616   1.541   1.568  15.380  0.0174 -1.1714 -2.1544
 7053SOL     OW32617   2.221   2.447   0.628 -0.4533 -0.7956  0.2085
 7053SOL    HW132618   2.221   2.408   0.715  1.0588  0.3658  0.7226
 7053SOL    HW232619   2.315   2.457   0.613 -0.7791 -1.4586 -2.2269
 7054SOL     OW32620   3.443   3.475   5.210  1.1267  0.2018  0.1797
 7054SOL    HW132621   3.496   3.397   5.203  0.6185 -0.4674  3.5883
 7054SOL    HW232622   3.445   3.509   5.121 -0.8858  2.9263  1.1685
 7055SOL     OW32623   0.952   2.628  12.912  0.3316 -0.1551  0.1088
 7055SOL    HW132624   1.014   2.564  12.947  0.9159 -0.5132 -1.5495
 7055SOL    HW232625   0.951   2.602  12.820  1.6816  0.8742 -0.2028
 7056SOL     OW32626   3.877   1.650   9.733  0.0363  0.1920  0.3729
 7056SOL    HW132627   3.851   1.713   9.666  2.0418 -1.0480 -1.5645
 7056SOL    HW232628   3.875   1.709   9.809 -0.3997 -0.8329  1.1596
 7057SOL     OW32629   3.043   0.859   4.155 -0.0968 -0.0295  0.2161
 7057SOL    HW132630   3.085   0.774   4.143  0.3633  0.3728 -1.0523
 7057SOL    HW232631   3.040   0.881   4.248  1.0248 -1.3521  0.5633
 7058SOL     OW32632   1.697   3.480   0.153  0.0550  0.3302  0.6831
 7058SOL    HW132633   1.746   3.494   0.071 -1.6140  0.9247 -0.2156
 7058SOL    HW232634   1.775   3.462   0.206 -1.5531  4.4887  4.4273
 7059SOL     OW32635   0.709   4.166  12.458  0.3233  0.5034  0.1806
 7059SOL    HW132636   0.646   4.154  12.529 -0.8240 -0.1846 -0.9541
 7059SOL    HW232637   0.776   4.100  12.476  1.8860  1.4040 -2.3099
 7060SOL     OW32638   4.605   1.272  10.638  0.0908 -0.7836  0.7080
 7060SOL    HW132639   4.521   1.290  10.680 -1.2569 -0.7844 -2.0120
 7060SOL    HW232640   4.584   1.195  10.586 -1.8733  2.1324 -2.8118
 7061SOL     OW32641   0.612   2.871   8.173  0.0710 -0.7146  0.0355
 7061SOL    HW132642   0.668   2.874   8.250  2.3151  0.7055 -1.6575
 7061SOL    HW232643   0.526   2.884   8.212  0.6959  0.0918  1.1187
 7062SOL     OW32644   2.882   1.392   1.561  0.3263 -0.4507  0.9122
 7062SOL    HW132645   2.971   1.372   1.532 -0.2509  0.3593 -1.3552
 7062SOL    HW232646   2.830   1.369   1.485  0.8442 -3.8940  1.5866
 7063SOL     OW32647   2.827   4.334   6.383 -0.0986  0.6066  0.4552
 7063SOL    HW132648   2.893   4.323   6.315  0.2190  2.2124  0.5064
 7063SOL    HW232649   2.870   4.338   6.469 -2.1001 -0.8860  1.5310
 7064SOL     OW32650   0.661   4.627  10.492 -0.0628 -0.2379 -0.1144
 7064SOL    HW132651   0.593   4.566  10.519  0.6346 -0.4129  1.2843
 7064SOL    HW232652   0.731   4.565  10.470  1.6981  2.0939 -1.0908
 7065SOL     OW32653   1.663   0.946   3.598 -0.3193 -0.6882  0.3254
 7065SOL    HW132654   1.758   0.953   3.592 -0.4464 -0.6434 -1.5772
 7065SOL    HW232655   1.669   0.851   3.584  1.5220 -0.4380 -0.5900
 7066SOL     OW32656   1.162   0.515   0.097  0.0065  0.2620 -0.0962
 7066SOL    HW132657   1.203   0.517   0.184  0.2496 -0.5195 -0.1868
 7066SOL    HW232658   1.160   0.419   0.095 -1.0889  0.3064 -1.1123
 7067SOL     OW32659   4.279   3.574  10.925  0.2233 -0.1598  0.2827
 7067SOL    HW132660   4.289   3.578  10.830 -1.7691 -3.5004 -0.0545
 7067SOL    HW232661   4.328   3.651  10.953 -0.1450  0.4590 -0.7696
 7068SOL     OW32662   4.096   0.961   7.093  0.2280 -0.0431  0.1713
 7068SOL    HW132663   4.160   1.029   7.070 -2.8673  2.7053 -0.2584
 7068SOL    HW232664   4.011   0.995   7.067 -0.1352 -1.2013 -0.1589
 7069SOL     OW32665   4.286   3.747   4.235 -0.2324 -0.5960 -0.2600
 7069SOL    HW132666   4.358   3.779   4.181  0.0299  2.7105  2.0974
 7069SOL    HW232667   4.336   3.703   4.303  0.9194  0.1045 -0.6555
 7070SOL     OW32668   3.125   1.219   3.874 -0.0181 -0.0186 -0.2883
 7070SOL    HW132669   3.077   1.164   3.937 -0.3116 -0.7838 -1.1859
 7070SOL    HW232670   3.213   1.218   3.912 -0.1503  2.9918  0.0526
 7071SOL     OW32671   0.967   4.568   5.759 -0.3987  0.2583 -0.4620
 7071SOL    HW132672   0.932   4.550   5.672  0.1063  0.7634 -0.7672
 7071SOL    HW232673   0.896   4.621   5.794 -0.6791 -0.7922  0.5654
 7072SOL     OW32674   0.890   1.784   5.599 -0.2291  0.5821  0.4402
 7072SOL    HW132675   0.979   1.764   5.568 -0.2516  0.2501  0.5898
 7072SOL    HW232676   0.869   1.848   5.532 -3.6894 -0.2017  0.7908
 7073SOL     OW32677   1.998   4.149   8.459  0.2583  0.0607  0.0340
 7073SOL    HW132678   2.014   4.057   8.437 -0.1829 -0.0887  0.3430
 7073SOL    HW232679   2.070   4.190   8.410  0.6964  0.8659  1.3424
 7074SOL     OW32680   4.065   1.324   4.069  0.7756 -0.2609 -0.5562
 7074SOL    HW132681   4.083   1.412   4.037 -3.3799  0.5237 -0.6707
 7074SOL    HW232682   4.068   1.319   4.164 -0.2660  0.6229 -0.4851
 7075SOL     OW32683   1.253   3.537   2.416  0.0926  0.1807 -0.2776
 7075SOL    HW132684   1.297   3.486   2.485 -2.3064  1.4606  2.1790
 7075SOL    HW232685   1.283   3.486   2.341 -0.0716 -0.6177  0.1941
 7076SOL     OW32686   1.359   2.906  10.021 -0.3123 -0.2881  0.2029
 7076SOL    HW132687   1.344   3.001  10.018 -0.4471 -0.3255 -0.5292
 7076SOL    HW232688   1.447   2.912  10.057 -0.7753  0.6677  1.1874
 7077SOL     OW32689   1.104   1.649   6.845 -0.7126  0.6289 -0.4459
 7077SOL    HW132690   1.130   1.662   6.754  0.9629  0.4553  0.0077
 7077SOL    HW232691   1.011   1.672   6.845 -0.9159 -0.1015  2.2356
 7078SOL     OW32692   3.360   0.321   3.966 -0.1560  0.5081 -0.3294
 7078SOL    HW132693   3.296   0.274   3.912  1.5025  1.3231 -2.9739
 7078SOL    HW232694   3.441   0.272   3.957 -0.9578 -0.3844 -2.6438
 7079SOL     OW32695   1.245   0.496   3.532 -0.1671 -0.1043  0.1309
 7079SOL    HW132696   1.323   0.547   3.556 -1.4256  1.6023  0.5597
 7079SOL    HW232697   1.182   0.567   3.540  0.4145  0.4984 -0.5917
 7080SOL     OW32698   0.849   0.818   7.372  0.4673 -0.2324 -0.0024
 7080SOL    HW132699   0.821   0.865   7.294  1.0976  1.8940  1.0497
 7080SOL    HW232700   0.908   0.754   7.332 -0.1607 -0.1411 -1.0634
 7081SOL     OW32701   1.744   2.163   6.799 -0.2518 -0.1588 -0.3410
 7081SOL    HW132702   1.684   2.192   6.868  0.3202  4.0052 -1.5660
 7081SOL    HW232703   1.762   2.245   6.753 -1.9301 -0.4755 -1.5742
 7082SOL     OW32704   0.875   4.369   6.640 -0.0708  0.2315 -0.1683
 7082SOL    HW132705   0.793   4.324   6.659 -1.5030  2.2903 -1.4847
 7082SOL    HW232706   0.860   4.454   6.681 -1.0158 -0.4250  0.8444
 7083SOL     OW32707   0.865   4.011   2.975 -0.3495  0.3117 -0.0419
 7083SOL    HW132708   0.949   3.966   2.970 -1.4582 -1.6290 -1.3345
 7083SOL    HW232709   0.829   3.996   3.063  1.1477 -1.6369  0.2220
 7084SOL     OW32710   4.449   2.715   3.324  0.0175 -0.4439  0.4833
 7084SOL    HW132711   4.376   2.672   3.279  0.7751 -1.1359 -0.0840
 7084SOL    HW232712   4.438   2.686   3.414  1.3447  2.1614  1.4847
 7085SOL     OW32713   1.157   0.261   7.350 -0.2222  0.1535 -0.0109
 7085SOL    HW132714   1.083   0.214   7.389  1.0562 -1.0658  0.9046
 7085SOL    HW232715   1.231   0.210   7.382 -0.2050  0.3357  0.2391
 7086SOL     OW32716   0.533   0.833   1.100  0.1525 -0.5345  0.5181
 7086SOL    HW132717   0.549   0.838   1.005 -0.3390 -0.7992  0.4220
 7086SOL    HW232718   0.471   0.760   1.107  0.6026 -1.1689 -1.7921
 7087SOL     OW32719   4.670   4.490   6.453  0.1187 -0.1698  0.5712
 7087SOL    HW132720   4.586   4.444   6.459 -1.3119  2.6582  2.0873
 7087SOL    HW232721   0.002   4.432   6.504  0.5176  0.0553  0.3875
 7088SOL     OW32722   2.513   3.318   5.166  0.3240 -0.2791 -0.1375
 7088SOL    HW132723   2.447   3.379   5.199 -2.1492 -1.5998 -2.5935
 7088SOL    HW232724   2.468   3.233   5.163 -3.0723  1.5514 -1.0372
 7089SOL     OW32725   2.571   3.399   3.300 -0.1832 -0.2728  0.2629
 7089SOL    HW132726   2.587   3.492   3.319  1.4085 -0.1953 -1.4267
 7089SOL    HW232727   2.622   3.391   3.220 -1.3901  0.4946 -0.5791
 7090SOL     OW32728   3.520   4.313   1.124 -0.3078  0.0806  0.1775
 7090SOL    HW132729   3.509   4.326   1.219 -1.1054  2.0187 -0.1843
 7090SOL    HW232730   3.517   4.404   1.095  0.0321 -0.3795 -1.2728
 7091SOL     OW32731   0.289   3.339   5.735  0.0472  0.1816 -0.6231
 7091SOL    HW132732   0.384   3.344   5.735  0.0458  0.2937 -1.8936
 7091SOL    HW232733   0.275   3.413   5.795 -1.8598 -2.0016  1.6662
 7092SOL     OW32734   1.025   4.351   5.350 -1.0094 -0.2766 -0.2964
 7092SOL    HW132735   0.971   4.417   5.393  1.5604  1.0304  0.8958
 7092SOL    HW232736   1.096   4.396   5.306 -2.7912  1.1090 -1.7382
 7093SOL     OW32737   2.644   2.433   8.225 -0.0854 -0.3176  0.3358
 7093SOL    HW132738   2.727   2.428   8.272  1.7381 -1.1223 -2.9535
 7093SOL    HW232739   2.682   2.478   8.149 -0.2351 -1.9946 -0.7326
 7094SOL     OW32740   4.592   0.436   6.910 -0.6868  0.1997 -0.1897
 7094SOL    HW132741   4.628   0.515   6.870 -0.4661  1.0359  1.6123
 7094SOL    HW232742   4.619   0.358   6.862  2.0373  1.4022 -0.6077
 7095SOL     OW32743   0.560   3.539   9.264 -0.5521 -0.2637  0.3526
 7095SOL    HW132744   0.639   3.591   9.277 -1.0390  0.7333 -0.7255
 7095SOL    HW232745   0.590   3.451   9.240  2.7808  1.4986 -1.8684
 7096SOL     OW32746   3.851   2.213   5.447  0.1339 -0.0843 -0.2003
 7096SOL    HW132747   3.888   2.265   5.519 -0.3542  1.0058 -0.7378
 7096SOL    HW232748   3.812   2.141   5.497  1.4084  0.3363  1.4285
 7097SOL     OW32749   3.884   3.694   3.395 -0.4999  0.2330  0.4088
 7097SOL    HW132750   3.853   3.748   3.322  0.0736  3.1267  2.2937
 7097SOL    HW232751   3.831   3.616   3.379  0.7816 -0.4764 -0.4210
 7098SOL     OW32752   4.419   3.147   8.818 -0.0425  0.2277  0.6414
 7098SOL    HW132753   4.445   3.058   8.796 -0.6155  0.0800  0.5835
 7098SOL    HW232754   4.498   3.194   8.790 -0.7963  1.0945 -0.0323
 7099SOL     OW32755   4.461   4.270   2.041 -0.4442 -0.8209  0.1228
 7099SOL    HW132756   4.511   4.280   2.122 -0.4048 -1.2542  0.1522
 7099SOL    HW232757   4.374   4.307   2.058 -0.7091 -1.6655  0.6441
 7100SOL     OW32758   3.499   0.615  16.326  0.3131 -0.1538 -0.0440
 7100SOL    HW132759   3.485   0.534  16.277 -3.1642 -0.0044  0.7183
 7100SOL    HW232760   3.434   0.624  16.395  0.1005  1.9265 -0.5207
 7101SOL     OW32761   2.401   2.137  14.616  0.0956 -0.2785 -0.0554
 7101SOL    HW132762   2.404   2.215  14.559 -1.0513 -1.3365 -1.5522
 7101SOL    HW232763   2.365   2.069  14.560 -0.4247 -0.9124  1.0537
 7102SOL     OW32764   2.434   0.986   0.376 -0.1914  0.5426 -0.1242
 7102SOL    HW132765   2.462   1.062   0.427 -0.7678  1.2869 -0.9367
 7102SOL    HW232766   2.369   1.035   0.327 -0.0766  1.0124  0.1944
 7103SOL     OW32767   4.570   3.477  10.443 -0.2276  0.9393 -0.4789
 7103SOL    HW132768   4.484   3.506  10.472  0.0037  0.7743  0.3781
 7103SOL    HW232769   4.626   3.509  10.514  0.1938 -1.4236  0.2664
 7104SOL     OW32770   0.926   1.426   8.323 -0.1998 -0.2700  0.0798
 7104SOL    HW132771   0.970   1.362   8.379  0.6957 -0.5181 -0.8907
 7104SOL    HW232772   0.835   1.423   8.350  0.4365  0.8816  2.3566
 7105SOL     OW32773   1.168   1.501   7.911 -0.2004 -0.3790  0.6232
 7105SOL    HW132774   1.098   1.469   7.967 -0.6525 -0.1706  0.1801
 7105SOL    HW232775   1.242   1.492   7.972  0.0550  1.9566  0.6891
 7106SOL     OW32776   2.413   4.484   3.836 -0.3397  0.3985  0.3326
 7106SOL    HW132777   2.398   4.462   3.744 -0.6670  1.5754  0.1138
 7106SOL    HW232778   2.361   4.419   3.884 -0.2181  0.4151  0.4874
 7107SOL     OW32779   2.047   0.696   2.871  0.2856  0.2133 -0.2598
 7107SOL    HW132780   1.966   0.741   2.895 -1.3049 -1.4118 -2.5957
 7107SOL    HW232781   2.012   0.620   2.826 -0.8697  0.8784 -0.4913
 7108SOL     OW32782   0.843   3.074   1.903  0.3922  0.6284 -0.0165
 7108SOL    HW132783   0.910   3.070   1.835  1.0925 -0.5638  0.7548
 7108SOL    HW232784   0.762   3.057   1.854  0.6101  1.2474 -0.5972
 7109SOL     OW32785   2.200   0.866   8.193  0.1887 -0.4825 -0.8092
 7109SOL    HW132786   2.260   0.839   8.123 -0.5744  2.1005 -2.4584
 7109SOL    HW232787   2.120   0.827   8.160  0.3473 -0.3004 -1.4103
 7110SOL     OW32788   4.408   1.446   5.333  0.0745 -0.5480 -0.5661
 7110SOL    HW132789   4.348   1.392   5.281  1.2353  0.0256 -2.4595
 7110SOL    HW232790   4.362   1.528   5.346  1.5847  0.2976 -0.6001
 7111SOL     OW32791   4.629   1.304   5.009  0.5897  0.1867 -0.1857
 7111SOL    HW132792   4.653   1.374   5.070  0.3645  1.5586 -1.6592
 7111SOL    HW232793   4.581   1.246   5.068  1.4275 -0.6128 -0.2999
 7112SOL     OW32794   2.375   2.040   4.890  0.7410 -0.5529  0.3114
 7112SOL    HW132795   2.299   2.093   4.865 -0.1599 -1.9479  0.1019
 7112SOL    HW232796   2.438   2.103   4.926 -0.6146  1.0114 -0.0327
 7113SOL     OW32797   0.361   1.697  10.231  0.1961  0.0147  0.1058
 7113SOL    HW132798   0.371   1.743  10.148 -0.4078 -0.9283 -0.4848
 7113SOL    HW232799   0.408   1.748  10.297  1.3695  2.0646 -2.3359
 7114SOL     OW32800   2.732   1.827  16.374  0.0225 -0.1239 -0.6015
 7114SOL    HW132801   2.720   1.737  16.342  0.2658 -1.3404  2.7974
 7114SOL    HW232802   2.659   1.877  16.336 -0.8224 -0.4621  0.5910
 7115SOL     OW32803   2.299   0.557  12.107  0.0024 -0.0657  0.1980
 7115SOL    HW132804   2.256   0.589  12.028 -0.7652 -0.2401  0.5479
 7115SOL    HW232805   2.359   0.631  12.121  0.8766 -0.5162 -1.2216
 7116SOL     OW32806   0.738   0.044   8.335  0.8455 -0.5809  0.5640
 7116SOL    HW132807   0.824   0.036   8.295  0.6100  0.4859 -0.1432
 7116SOL    HW232808   0.716   4.676   8.322 -0.9952  0.2081 -1.8387
 7117SOL     OW32809   3.821   2.834  17.214  0.0266  0.4998 -0.0469
 7117SOL    HW132810   3.745   2.853  17.159  0.4303  0.2854 -0.6732
 7117SOL    HW232811   3.879   2.811  17.142  0.6512 -1.6065  1.1524
 7118SOL     OW32812   3.089   3.269   8.109  0.0145  0.0737 -0.5510
 7118SOL    HW132813   3.132   3.185   8.093  0.1736  0.6501 -3.1932
 7118SOL    HW232814   3.001   3.237   8.128 -0.1977  1.8537  1.4945
 7119SOL     OW32815   3.902   0.082   4.377  0.2973 -0.0896 -0.4810
 7119SOL    HW132816   3.814   0.117   4.390  1.0246  1.2300  0.8151
 7119SOL    HW232817   3.925   0.037   4.458  0.4443  2.1491  0.7026
 7120SOL     OW32818   3.368   2.200   9.024 -0.1780 -0.6891 -0.0206
 7120SOL    HW132819   3.298   2.239   8.971 -0.6980  0.4067  1.4677
 7120SOL    HW232820   3.440   2.185   8.963 -0.2582 -1.2914  0.0419
 7121SOL     OW32821   1.812   2.160   1.706  0.1176 -0.7878 -0.2626
 7121SOL    HW132822   1.815   2.067   1.727 -0.1686 -0.7690 -0.1416
 7121SOL    HW232823   1.770   2.158   1.620 -0.4766  2.2730 -0.0456
 7122SOL     OW32824   2.931   0.598   2.341 -0.1125  0.4855 -0.0259
 7122SOL    HW132825   2.950   0.567   2.430 -0.1885  0.3631 -0.0532
 7122SOL    HW232826   3.014   0.642   2.321 -0.9660  2.0999 -0.0746
 7123SOL     OW32827   2.120   1.670   1.975 -0.1239 -0.0051  0.4590
 7123SOL    HW132828   2.168   1.735   1.924  0.9899 -1.0891  0.1359
 7123SOL    HW232829   2.140   1.691   2.067 -0.7264  2.3278  0.0525
 7124SOL     OW32830   0.537   2.719   4.108 -0.2219 -0.4399 -0.0780
 7124SOL    HW132831   0.581   2.779   4.048  1.8578 -4.4021 -2.5345
 7124SOL    HW232832   0.617   2.668   4.123  0.1868 -0.0874 -1.0613
 7125SOL     OW32833   4.469   1.414   1.444  0.2517 -0.1446 -0.5780
 7125SOL    HW132834   4.550   1.411   1.496 -0.1991 -0.6802  0.0788
 7125SOL    HW232835   4.464   1.510   1.441 -0.6161 -0.1337  1.2733
 7126SOL     OW32836   3.177   2.253   3.901  0.2857 -0.1800 -0.0065
 7126SOL    HW132837   3.138   2.340   3.905  0.1501 -0.2529  0.2421
 7126SOL    HW232838   3.135   2.202   3.971 -0.8729  0.6879 -0.0709
 7127SOL     OW32839   2.240   1.800   0.838 -0.2220  0.1490 -0.2916
 7127SOL    HW132840   2.229   1.892   0.863 -0.5903 -0.0797  0.3778
 7127SOL    HW232841   2.149   1.771   0.833  0.0101 -0.5894 -0.3116
 7128SOL     OW32842   4.649   3.711  16.057  0.1334 -0.3607 -0.0930
 7128SOL    HW132843   4.603   3.672  16.131 -0.2897  1.5439  0.6264
 7128SOL    HW232844   0.000   3.741  16.108  0.7415 -0.6964 -0.7802
 7129SOL     OW32845   1.226   2.441   1.760 -0.5985 -0.4138 -0.1981
 7129SOL    HW132846   1.321   2.440   1.770 -0.4960  2.0941 -1.0632
 7129SOL    HW232847   1.224   2.465   1.667  0.0249  1.5914  0.3255
 7130SOL     OW32848   1.857   0.549   3.136  0.0802 -0.5674  0.1161
 7130SOL    HW132849   1.861   0.508   3.050 -0.4008  0.2968 -0.3223
 7130SOL    HW232850   1.784   0.497   3.171 -0.2210  0.8908  1.7192
 7131SOL     OW32851   2.959   3.294  15.703 -0.0832 -0.2679 -0.2764
 7131SOL    HW132852   2.954   3.388  15.683  0.1421 -0.8797 -3.2987
 7131SOL    HW232853   3.038   3.278  15.652 -1.1475  0.1934 -2.0825
 7132SOL     OW32854   2.023   0.081   2.705 -0.2563 -0.0498  0.0795
 7132SOL    HW132855   1.951   0.128   2.663 -0.1689  1.7702  1.9440
 7132SOL    HW232856   2.055   0.024   2.635  1.2389 -1.2050  1.7159
 7133SOL     OW32857   4.429   2.051  11.599 -0.1033 -0.2427 -0.3455
 7133SOL    HW132858   4.506   2.046  11.657 -1.3588 -0.1670  1.3456
 7133SOL    HW232859   4.368   2.068  11.672 -0.9503  0.6140 -1.2541
 7134SOL     OW32860   3.599   0.143   3.966  0.3407  0.3184 -0.1712
 7134SOL    HW132861   3.569   0.093   4.042 -0.9375  0.5321 -0.5275
 7134SOL    HW232862   3.685   0.103   3.953  0.4960  0.2293  1.1312
 7135SOL     OW32863   2.710   4.032  13.597 -0.3046 -0.7379  0.7757
 7135SOL    HW132864   2.688   4.123  13.579  0.0070 -0.8338 -0.0796
 7135SOL    HW232865   2.698   4.032  13.692  2.2625 -0.1238  1.1044
 7136SOL     OW32866   1.418   3.532  16.847  0.1368  0.5746 -0.0042
 7136SOL    HW132867   1.470   3.521  16.926  1.3706 -0.6690 -0.9834
 7136SOL    HW232868   1.437   3.445  16.811 -0.7224  0.2054  0.4312
 7137SOL     OW32869   3.816   0.083  13.107 -0.1255  0.7084 -0.6672
 7137SOL    HW132870   3.907   0.100  13.083 -0.1442  0.6039 -0.8054
 7137SOL    HW232871   3.784   0.052  13.023 -3.7630 -1.1948  1.4257
 7138SOL     OW32872   4.516   1.707   7.595 -0.2820 -0.0465 -0.2763
 7138SOL    HW132873   4.550   1.688   7.507  1.7022 -0.0194  0.4919
 7138SOL    HW232874   4.565   1.646   7.651 -1.3057 -0.7750 -0.1698
 7139SOL     OW32875   2.562   2.110   2.557 -0.3041 -0.1380  0.0055
 7139SOL    HW132876   2.516   2.141   2.479 -0.0216  0.1776 -0.0338
 7139SOL    HW232877   2.488   2.075   2.606 -0.0887 -1.9594 -0.9585
 7140SOL     OW32878   4.025   2.182  15.042  0.1088 -0.0877 -0.0484
 7140SOL    HW132879   4.104   2.127  15.036 -0.2247 -0.9749  3.5729
 7140SOL    HW232880   3.969   2.120  15.089  0.3312 -0.6224 -0.4868
 7141SOL     OW32881   0.832   3.805   2.365  0.2656  0.1828  0.0609
 7141SOL    HW132882   0.901   3.765   2.417  0.2107 -2.1771 -1.6701
 7141SOL    HW232883   0.763   3.788   2.430 -1.0748  0.6955 -1.2265
 7142SOL     OW32884   1.216   3.321   0.526 -0.2214 -0.1794  0.4363
 7142SOL    HW132885   1.160   3.380   0.476 -2.2431 -2.0064  0.5687
 7142SOL    HW232886   1.249   3.388   0.586  0.6826  0.6515 -0.9499
 7143SOL     OW32887   2.044   0.850   6.287 -0.0405 -0.3473  0.4406
 7143SOL    HW132888   2.000   0.784   6.341 -2.1806 -1.1468 -2.2885
 7143SOL    HW232889   2.024   0.814   6.201  3.0903  1.3127 -0.9909
 7144SOL     OW32890   4.057   2.996  11.461  0.3570 -0.2639 -0.3286
 7144SOL    HW132891   3.985   3.058  11.451 -1.7713 -2.6298  0.0642
 7144SOL    HW232892   4.063   2.990  11.556 -0.4184 -1.0004 -0.3250
 7145SOL     OW32893   1.806   0.015  11.528 -0.2019 -0.1713  0.3392
 7145SOL    HW132894   1.879   0.052  11.576 -0.7895  1.3720  0.0590
 7145SOL    HW232895   1.837   4.650  11.511  0.9356  0.2318  0.3457
 7146SOL     OW32896   2.779   4.263   3.032 -0.4006  0.6502 -0.0734
 7146SOL    HW132897   2.839   4.195   3.002  2.3769  2.3627  1.5504
 7146SOL    HW232898   2.735   4.298   2.955 -0.4144 -2.1359 -1.3059
 7147SOL     OW32899   3.237   3.903   4.459  0.3807  0.2082 -0.5019
 7147SOL    HW132900   3.293   3.825   4.459 -1.5398 -1.1826 -1.2795
 7147SOL    HW232901   3.155   3.857   4.475  0.0304  1.2539  0.6871
 7148SOL     OW32902   3.146   1.616   5.001  0.3955  0.2104  0.2771
 7148SOL    HW132903   3.102   1.678   5.058  0.0533 -0.8894  1.2028
 7148SOL    HW232904   3.150   1.531   5.045 -0.5329  0.2820  0.4927
 7149SOL     OW32905   2.681   3.521   7.991 -0.7351 -0.6648  0.0123
 7149SOL    HW132906   2.639   3.562   8.066  2.3915 -2.1241  2.5873
 7149SOL    HW232907   2.704   3.432   8.017  0.3898 -0.7040 -1.0998
 7150SOL     OW32908   3.948   1.478   2.215 -0.3624  0.1959 -0.1431
 7150SOL    HW132909   3.952   1.499   2.308  1.8561 -0.9264  0.0140
 7150SOL    HW232910   3.864   1.433   2.201 -0.8640  1.5837 -1.5736
 7151SOL     OW32911   1.358   0.227   8.502 -0.7021 -0.2108 -0.1846
 7151SOL    HW132912   1.392   0.249   8.589  1.4770 -0.0664 -1.0746
 7151SOL    HW232913   1.316   0.308   8.472  0.9620  1.3081  1.5360
 7152SOL     OW32914   0.261   4.206   8.889  0.1964  0.4206 -0.3160
 7152SOL    HW132915   0.249   4.114   8.915 -0.7832  1.4257  2.8263
 7152SOL    HW232916   0.324   4.240   8.953  0.3058  1.7505 -1.1469
 7153SOL     OW32917   4.634   0.329  12.477 -0.0736 -0.4035 -0.1130
 7153SOL    HW132918   4.652   0.238  12.451  0.4179  0.5228 -2.9408
 7153SOL    HW232919   4.553   0.347  12.430 -1.1687 -1.3833  1.3800
 7154SOL     OW32920   0.745   3.144   8.263  0.1407 -0.1358 -0.1341
 7154SOL    HW132921   0.720   3.236   8.272 -1.0481 -0.4101 -0.7085
 7154SOL    HW232922   0.785   3.128   8.349  1.9358 -0.6428 -1.0586
 7155SOL     OW32923   4.587   4.261   3.132  0.1832  0.2773  0.3785
 7155SOL    HW132924   4.616   4.175   3.103 -1.2703 -0.2969  0.6597
 7155SOL    HW232925   4.553   4.241   3.219 -1.0529  2.7970  0.5014
 7156SOL     OW32926   1.811   3.364  10.387 -0.1381 -0.3798 -0.8863
 7156SOL    HW132927   1.785   3.381  10.477  2.9013 -1.8210  0.2694
 7156SOL    HW232928   1.785   3.446  10.346 -0.5106 -0.0832 -0.0289
 7157SOL     OW32929   3.657   0.059   1.108  0.1046  0.3831 -0.1908
 7157SOL    HW132930   3.683   0.109   1.186 -0.4505 -2.6568  1.9088
 7157SOL    HW232931   3.738   0.073   1.059  0.2956 -0.6053 -0.1446
 7158SOL     OW32932   2.004   1.580   5.169 -0.0374 -0.4606 -0.4582
 7158SOL    HW132933   2.002   1.491   5.205 -1.9939 -0.1566  0.2019
 7158SOL    HW232934   2.077   1.615   5.221 -1.2932  0.6722  0.5378
 7159SOL     OW32935   3.643   0.295   4.338  0.3022  0.7091  0.2111
 7159SOL    HW132936   3.563   0.292   4.286 -0.2263 -2.0649  1.1960
 7159SOL    HW232937   3.620   0.220   4.392  2.6044 -0.5541 -0.5675
 7160SOL     OW32938   3.016   1.544   6.355 -0.2285  0.5211  0.1315
 7160SOL    HW132939   3.080   1.571   6.290  2.2174  0.6890  2.6103
 7160SOL    HW232940   2.950   1.496   6.305 -0.3163 -0.6680  1.3799
 7161SOL     OW32941   0.688   3.418   0.553  0.1056  0.1167 -0.2510
 7161SOL    HW132942   0.747   3.444   0.483  1.5002 -0.1502  0.8391
 7161SOL    HW232943   0.747   3.384   0.620  2.6929  0.4522 -2.3488
 7162SOL     OW32944   1.280   3.863   6.192  0.0076  0.1781  0.5887
 7162SOL    HW132945   1.337   3.889   6.264  1.1634  0.1229 -0.3073
 7162SOL    HW232946   1.289   3.768   6.196  0.1013  0.0949 -1.4058
 7163SOL     OW32947   2.528   2.799   4.101 -0.4797  0.1069 -0.0335
 7163SOL    HW132948   2.450   2.746   4.086 -0.4481  0.3912 -1.1718
 7163SOL    HW232949   2.516   2.845   4.185  1.9273  1.0852 -0.2319
 7164SOL     OW32950   4.407   0.885   2.064 -0.1073 -0.7485 -0.3285
 7164SOL    HW132951   4.492   0.918   2.095 -0.2222 -1.0137  0.2630
 7164SOL    HW232952   4.438   0.866   1.975  0.9236  1.6286 -0.4977
 7165SOL     OW32953   3.098   1.274   2.736  0.3906  0.2332 -0.8057
 7165SOL    HW132954   3.098   1.220   2.815 -2.0516  1.2189 -0.1225
 7165SOL    HW232955   3.014   1.321   2.738  0.6233  0.6216  0.3793
 7166SOL     OW32956   3.958   3.904  12.213 -0.5970  0.2674 -0.4221
 7166SOL    HW132957   3.916   3.972  12.265  2.9737  2.2598 -0.1260
 7166SOL    HW232958   4.017   3.861  12.275  1.0248 -0.1324 -2.2109
 7167SOL     OW32959   3.758   0.184  15.327 -0.4119  0.1676  0.7421
 7167SOL    HW132960   3.689   0.124  15.300  0.9881 -0.2820 -1.8227
 7167SOL    HW232961   3.771   0.153  15.417  0.8329  3.2499  1.6157
 7168SOL     OW32962   1.499   3.995  15.553 -0.0127  0.0567 -0.5098
 7168SOL    HW132963   1.408   3.984  15.524 -0.2541  1.6734 -0.4010
 7168SOL    HW232964   1.524   4.082  15.523  2.4377 -0.0324  1.2828
 7169SOL     OW32965   3.652   2.261   8.098 -0.2274  0.1783 -0.1444
 7169SOL    HW132966   3.638   2.240   8.190  3.5015 -0.0021  0.3572
 7169SOL    HW232967   3.678   2.178   8.058  0.3273 -0.4755  1.5683
 7170SOL     OW32968   1.823   2.983   0.403 -0.3347 -0.4628  0.0839
 7170SOL    HW132969   1.763   3.053   0.429 -0.4078 -0.8241  0.8892
 7170SOL    HW232970   1.768   2.908   0.379 -0.9712 -0.1196  0.4887
 7171SOL     OW32971   4.681   1.597   3.783 -0.1482 -0.0043 -0.9807
 7171SOL    HW132972   0.023   1.652   3.742 -0.3761 -0.6834 -2.2623
 7171SOL    HW232973   4.658   1.539   3.710 -0.4361 -0.5321 -0.4711
 7172SOL     OW32974   0.964   0.853  11.661  0.0105  0.6743 -0.1777
 7172SOL    HW132975   0.970   0.817  11.573  1.3702  0.0834  0.1572
 7172SOL    HW232976   0.910   0.929  11.638  0.0542  0.8427  0.2856
 7173SOL     OW32977   3.647   3.471   2.721  0.7817 -0.3155 -0.1997
 7173SOL    HW132978   3.740   3.485   2.740  1.6881 -4.5972 -1.3246
 7173SOL    HW232979   3.639   3.471   2.626  1.5598  3.1703 -0.2581
 7174SOL     OW32980   2.151   2.789   2.918  0.0788 -0.6312 -0.0002
 7174SOL    HW132981   2.173   2.861   2.977 -0.1697 -0.0808 -0.5800
 7174SOL    HW232982   2.151   2.716   2.981  0.2038 -0.4525  0.2052
 7175SOL     OW32983   1.437   1.781  11.094  0.1919 -1.0414 -0.1559
 7175SOL    HW132984   1.401   1.793  11.182  1.1443 -1.9974  0.3723
 7175SOL    HW232985   1.369   1.734  11.047  1.2268 -1.4485 -1.2584
 7176SOL     OW32986   0.526   2.716   1.326  0.6036 -0.0342 -0.0363
 7176SOL    HW132987   0.463   2.760   1.383 -0.1240 -0.9469 -0.1378
 7176SOL    HW232988   0.516   2.624   1.351  1.1181 -0.6181 -2.0182
 7177SOL     OW32989   0.040   0.395   9.756 -0.1317  0.4394  0.2748
 7177SOL    HW132990   0.070   0.358   9.839  1.8108 -0.6810 -0.9237
 7177SOL    HW232991   4.680   0.351   9.743 -0.5048  2.1437 -3.0745
 7178SOL     OW32992   3.145   2.834  13.995 -0.1945  0.8740  0.0843
 7178SOL    HW132993   3.187   2.765  13.944 -1.3899 -0.7618  1.3219
 7178SOL    HW232994   3.207   2.839  14.067 -1.1788 -1.5624  1.1049
 7179SOL     OW32995   1.486   3.431  10.089 -0.1987  0.1837  0.2744
 7179SOL    HW132996   1.468   3.513  10.044 -0.6562 -0.3980 -0.5851
 7179SOL    HW232997   1.561   3.452  10.146  1.7785  1.8584 -2.9713
 7180SOL     OW32998   3.051   3.449   9.080  0.3970 -0.3527  0.0880
 7180SOL    HW132999   3.017   3.506   9.148 -1.9390 -0.1032 -1.2757
 7180SOL    HW233000   3.143   3.473   9.078 -0.0767  1.2871 -1.4364
 7181SOL     OW33001   3.061   2.289   6.960  0.0861  1.0158 -0.4612
 7181SOL    HW133002   3.048   2.376   6.998 -0.7145  0.3261  0.8778
 7181SOL    HW233003   2.980   2.239   6.969  0.2505  1.1703  1.9045
 7182SOL     OW33004   3.536   3.900  12.952 -0.6561 -0.0072  0.4515
 7182SOL    HW133005   3.598   3.844  12.905  1.2471  2.4747 -0.0083
 7182SOL    HW233006   3.466   3.906  12.887  0.9732  1.3907 -1.1715
 7183SOL     OW33007   3.556   0.720   2.443 -0.0514  0.6047 -0.0931
 7183SOL    HW133008   3.508   0.801   2.428 -0.8350 -0.1738 -1.7106
 7183SOL    HW233009   3.603   0.706   2.361 -1.5527 -2.2944 -0.4436
 7184SOL     OW33010   3.686   2.714   5.889 -0.0264 -0.3302 -0.0832
 7184SOL    HW133011   3.619   2.780   5.875  1.3990  0.3871 -3.5710
 7184SOL    HW233012   3.687   2.684   5.798 -0.2910 -0.3313 -0.0851
 7185SOL     OW33013   0.694   3.142   3.497 -0.5166 -0.2613 -0.0739
 7185SOL    HW133014   0.625   3.117   3.559 -1.0157  2.2862  0.4346
 7185SOL    HW233015   0.692   3.238   3.508  1.4577 -0.2556  0.2975
 7186SOL     OW33016   0.989   0.231   3.646 -0.1105 -0.0633  0.3093
 7186SOL    HW133017   1.005   0.156   3.589  2.9468  0.3745  0.5912
 7186SOL    HW233018   1.070   0.218   3.696 -1.2840 -3.2942  1.3627
 7187SOL     OW33019   2.084   1.698   0.566 -0.0010 -0.1687  0.4069
 7187SOL    HW133020   2.081   1.705   0.662 -1.1628 -0.2450  0.3826
 7187SOL    HW233021   2.015   1.632   0.554  2.1320 -2.2182 -0.5397
 7188SOL     OW33022   2.546   0.220  14.012 -0.5434  0.1138  0.1552
 7188SOL    HW133023   2.587   0.299  13.976 -0.0913 -1.3478 -2.4821
 7188SOL    HW233024   2.471   0.210  13.955  0.2959 -1.9090 -0.5854
 7189SOL     OW33025   3.229   3.334  17.390  0.3764 -0.4831  0.5298
 7189SOL    HW133026   3.324   3.328  17.379  0.4717  1.8465  0.0285
 7189SOL    HW233027   3.215   3.410  17.447  0.0269  0.6192 -1.0322
 7190SOL     OW33028   0.759   1.240  10.312 -0.7488 -0.0910 -0.4621
 7190SOL    HW133029   0.699   1.242  10.386 -1.2437  0.9653 -0.8980
 7190SOL    HW233030   0.833   1.280  10.358 -1.4643  2.0442 -1.2160
 7191SOL     OW33031   2.779   0.390   7.968 -0.2080 -0.2891  0.2803
 7191SOL    HW133032   2.780   0.348   7.882 -1.4162 -3.1114  1.6382
 7191SOL    HW233033   2.868   0.363   7.989 -0.6050 -2.8459 -1.3324
 7192SOL     OW33034   0.967   0.202   3.982  0.2128  0.3267  0.0985
 7192SOL    HW133035   1.056   0.168   3.977 -0.0636 -0.3893  0.0227
 7192SOL    HW233036   0.917   0.125   4.010 -0.9283  0.3828 -1.8280
 7193SOL     OW33037   3.982   4.198  14.010  0.0733 -0.5441 -0.0576
 7193SOL    HW133038   3.926   4.230  14.081 -0.1086  1.7156 -1.2388
 7193SOL    HW233039   3.954   4.253  13.937  1.0424 -0.9130 -0.7187
 7194SOL     OW33040   4.279   4.489   3.099 -0.1880 -0.1045  0.4547
 7194SOL    HW133041   4.185   4.478   3.112 -0.3109 -0.3010 -0.5421
 7194SOL    HW233042   4.294   4.406   3.054  1.0368 -0.5655  1.7483
 7195SOL     OW33043   1.076   1.352   7.367  0.5104 -0.1644  0.4684
 7195SOL    HW133044   1.068   1.447   7.359 -1.4540 -0.3367  0.4462
 7195SOL    HW233045   1.171   1.342   7.375  0.5879  0.7909  0.7750
 7196SOL     OW33046   2.469   0.767  12.119 -0.2008  0.4247 -0.4582
 7196SOL    HW133047   2.540   0.815  12.161 -1.5997  0.4181  1.9004
 7196SOL    HW233048   2.420   0.842  12.087  0.5667  0.6532 -1.1021
 7197SOL     OW33049   2.574   0.247   9.055  0.2276 -0.0779  0.2782
 7197SOL    HW133050   2.519   0.170   9.044 -0.4267  0.5944 -1.1733
 7197SOL    HW233051   2.586   0.270   8.963  1.1303  0.4689  0.5247
 7198SOL     OW33052   0.331   3.001   8.607  0.2671  0.5407 -0.4797
 7198SOL    HW133053   0.339   2.911   8.640  0.0313 -0.1958 -2.4124
 7198SOL    HW233054   0.383   3.046   8.673 -0.5140 -0.0405  0.5339
 7199SOL     OW33055   1.485   4.384   3.901 -0.2725  0.1783  0.0082
 7199SOL    HW133056   1.389   4.392   3.900 -0.3651 -0.8462  0.4137
 7199SOL    HW233057   1.478   4.289   3.888 -0.2745  0.4769 -2.1548
 7200SOL     OW33058   0.495   4.658   2.051  0.1864  1.0378  0.2206
 7200SOL    HW133059   0.509   4.587   2.115 -0.7358 -0.7616 -1.5752
 7200SOL    HW233060   0.434   4.706   2.108 -1.4299  0.1435 -0.7467
 7201SOL     OW33061   0.238   3.329  15.332  0.0849  0.1819 -0.0964
 7201SOL    HW133062   0.209   3.256  15.277 -3.1269  0.2029  1.5461
 7201SOL    HW233063   0.331   3.331  15.310  0.1366  1.5572  0.2419
 7202SOL     OW33064   4.025   0.520   2.497  0.2732 -0.3189  0.2932
 7202SOL    HW133065   4.107   0.550   2.457  0.0560 -1.1939 -0.8454
 7202SOL    HW233066   4.003   0.596   2.549  1.0020  0.1413 -0.0757
 7203SOL     OW33067   3.439   1.400   0.900  0.1247 -0.1144  0.0930
 7203SOL    HW133068   3.445   1.488   0.937  1.8773  0.0118 -0.5162
 7203SOL    HW233069   3.375   1.358   0.958 -1.9350  1.8018 -0.7734
 7204SOL     OW33070   1.713   4.031  15.754  0.3146 -0.4572  0.2278
 7204SOL    HW133071   1.661   4.045  15.675 -0.6821 -0.2228  0.9255
 7204SOL    HW233072   1.802   4.055  15.731 -0.2347  0.9228 -0.4427
 7205SOL     OW33073   1.519   4.367   4.361  0.2843 -0.0708 -0.0560
 7205SOL    HW133074   1.543   4.317   4.283 -0.1250 -1.4705  0.6980
 7205SOL    HW233075   1.599   4.417   4.377 -0.7404  0.8470  2.1381
 7206SOL     OW33076   3.106   4.222   2.385 -0.3293  0.2544  0.3519
 7206SOL    HW133077   3.034   4.221   2.321 -1.0376 -0.1119  1.1444
 7206SOL    HW233078   3.093   4.137   2.426 -0.6273  0.2952  0.3481
 7207SOL     OW33079   0.331   3.959   4.575 -0.0917 -0.1793  0.7990
 7207SOL    HW133080   0.332   4.021   4.503  1.1108 -0.5920  0.4545
 7207SOL    HW233081   0.425   3.960   4.596  0.3220  1.5183 -1.2213
 7208SOL     OW33082   4.448   4.025   1.494 -0.2959 -0.5578 -0.0908
 7208SOL    HW133083   4.378   4.039   1.557  0.0244 -1.8189  0.5368
 7208SOL    HW233084   4.477   3.935   1.511  2.6611  0.3937 -0.1831
 7209SOL     OW33085   1.927   1.674   6.558  0.4656  0.1385 -0.5421
 7209SOL    HW133086   1.906   1.727   6.635  0.5564  1.1114 -1.1915
 7209SOL    HW233087   1.984   1.731   6.507 -0.9408  1.7418 -0.3079
 7210SOL     OW33088   0.070   4.326   0.960  0.9444 -0.2992 -0.2226
 7210SOL    HW133089   0.067   4.418   0.935  0.9964 -0.6997 -1.7313
 7210SOL    HW233090   0.053   4.333   1.054 -0.5723  1.3902 -0.6193
 7211SOL     OW33091   4.676   1.096   7.153  0.3311 -0.6876 -0.1040
 7211SOL    HW133092   4.661   1.011   7.110 -2.1717  0.3569 -1.2878
 7211SOL    HW233093   4.698   1.075   7.244 -1.1636 -1.8915 -0.0163
 7212SOL     OW33094   1.681   4.017   3.575  0.3354  0.0557 -0.5105
 7212SOL    HW133095   1.705   3.930   3.606  1.7040  0.9493  0.9556
 7212SOL    HW233096   1.622   3.997   3.502  0.2316  3.0921 -1.2760
 7213SOL     OW33097   1.744   2.296   3.489 -1.1239 -0.1451  0.2221
 7213SOL    HW133098   1.691   2.305   3.410  0.3097  2.5400 -0.4165
 7213SOL    HW233099   1.800   2.373   3.484  0.0050 -0.9227  0.8155
 7214SOL     OW33100   4.564   0.374  14.938 -0.3642 -0.6813  0.1059
 7214SOL    HW133101   4.651   0.336  14.924 -0.5782 -0.9843 -0.3727
 7214SOL    HW233102   4.551   0.363  15.033 -0.1298  0.0646  0.2243
 7215SOL     OW33103   4.559   3.793   7.760  0.7651 -0.0027 -0.0074
 7215SOL    HW133104   4.559   3.699   7.738 -2.1146 -0.1114  0.4873
 7215SOL    HW233105   4.612   3.804   7.840  1.1787  0.0443 -0.2859
 7216SOL     OW33106   4.459   1.083   1.024 -0.3118 -0.3260  0.0285
 7216SOL    HW133107   4.463   1.105   1.117  0.4213  1.4030 -0.4107
 7216SOL    HW233108   4.464   1.173   0.990 -2.5578 -0.0567  0.4222
 7217SOL     OW33109   1.479   2.871  11.242 -0.4306  0.0566 -0.8751
 7217SOL    HW133110   1.479   2.919  11.159  1.0256  0.8060 -0.4313
 7217SOL    HW233111   1.410   2.807  11.224  0.3661 -0.2087 -2.9450
 7218SOL     OW33112   2.662   2.772   1.617 -0.2752  0.1856  0.4214
 7218SOL    HW133113   2.709   2.694   1.589  0.0858 -0.6403  3.2734
 7218SOL    HW233114   2.613   2.782   1.536 -1.5924 -1.2280  1.0355
 7219SOL     OW33115   3.172   1.973   9.761  0.0285  0.5545 -0.0840
 7219SOL    HW133116   3.209   1.963   9.673  1.6045 -0.5396  0.7033
 7219SOL    HW233117   3.129   1.889   9.773  0.5695  0.1337 -1.0912
 7220SOL     OW33118   0.321   1.757   7.945 -0.1377 -0.7242  0.2117
 7220SOL    HW133119   0.362   1.697   8.008 -0.0712  1.2471  2.0460
 7220SOL    HW233120   0.248   1.704   7.913  0.5592 -0.8771 -1.1165
 7221SOL     OW33121   1.421   1.596   1.936 -0.0386  0.0574 -0.3980
 7221SOL    HW133122   1.467   1.516   1.910  1.2505 -0.3130  2.9389
 7221SOL    HW233123   1.386   1.617   1.850 -0.0373  0.4959 -0.2890
 7222SOL     OW33124   2.544   0.072   6.696 -0.4239 -0.4674  0.2443
 7222SOL    HW133125   2.467   0.108   6.739  0.0841 -0.3793  1.0665
 7222SOL    HW233126   2.505   0.062   6.608 -1.7522 -0.9362  0.8823
 7223SOL     OW33127   2.653   1.968  13.157 -0.4687 -0.2090 -0.3266
 7223SOL    HW133128   2.639   2.035  13.224 -0.3199 -0.6219  0.1193
 7223SOL    HW233129   2.564   1.972  13.123 -0.4025  0.9494 -0.3680
 7224SOL     OW33130   1.033   1.463   3.761 -0.2386 -0.9051  0.1588
 7224SOL    HW133131   1.097   1.459   3.831  0.1555 -0.2295 -0.1528
 7224SOL    HW233132   0.952   1.438   3.805  0.0648  0.4699  1.4941
 7225SOL     OW33133   1.435   4.554   6.032 -0.0181  0.5219 -0.1065
 7225SOL    HW133134   1.503   4.602   5.985  1.1356 -1.1646 -0.1961
 7225SOL    HW233135   1.450   4.463   6.006  3.9186  1.4462 -1.1316
 7226SOL     OW33136   1.162   0.164   0.608  0.7641 -0.0513  0.5037
 7226SOL    HW133137   1.086   0.210   0.570 -1.1292 -0.7062  3.4811
 7226SOL    HW233138   1.113   0.085   0.631  2.9890 -0.7133  2.9874
 7227SOL     OW33139   0.900   1.296   1.035  0.3443  0.2186  0.4058
 7227SOL    HW133140   0.827   1.238   1.058  0.4360 -0.1564 -0.2324
 7227SOL    HW233141   0.951   1.248   0.969 -0.9612  1.0199 -1.2046
 7228SOL     OW33142   0.984   0.386   5.825 -0.5809  0.1625 -0.3101
 7228SOL    HW133143   0.892   0.414   5.817 -0.7932  0.1070  1.9660
 7228SOL    HW233144   1.019   0.450   5.887 -1.7117 -1.0553  1.5802
 7229SOL     OW33145   4.190   2.714  13.764  0.6001 -0.0338 -0.7330
 7229SOL    HW133146   4.103   2.675  13.759  0.6014 -0.1810  0.3537
 7229SOL    HW233147   4.235   2.659  13.829 -0.5727  1.5988  1.4610
 7230SOL     OW33148   1.974   0.781   8.056 -0.0340  0.1673  0.0547
 7230SOL    HW133149   1.923   0.815   7.983 -2.3266 -2.4654  0.4583
 7230SOL    HW233150   1.954   0.689   8.041 -1.8564  0.5128  0.4278
 7231SOL     OW33151   4.490   2.192   3.566 -0.8731 -0.1435  0.0745
 7231SOL    HW133152   4.544   2.209   3.643  1.1989 -1.5800 -1.0626
 7231SOL    HW233153   4.508   2.258   3.499  1.6878 -0.4737  0.4392
 7232SOL     OW33154   2.088   3.416   3.674 -0.9775  0.3277 -0.5073
 7232SOL    HW133155   2.013   3.358   3.661 -1.3747  1.0143 -1.1925
 7232SOL    HW233156   2.149   3.384   3.607  1.2007  1.5167  0.9151
 7233SOL     OW33157   2.048   3.125   2.267 -0.3892 -0.5588 -0.1115
 7233SOL    HW133158   1.973   3.172   2.304  0.2452  0.9822 -0.7958
 7233SOL    HW233159   2.108   3.111   2.341 -1.4121 -0.0630  0.8247
 7234SOL     OW33160   0.332   0.483   6.677  0.6983  0.0817  0.2348
 7234SOL    HW133161   0.364   0.563   6.636  0.1570 -1.0881 -2.4967
 7234SOL    HW233162   0.380   0.482   6.759  1.0441 -0.0272  0.0331
 7235SOL     OW33163   0.523   1.452   9.697 -0.1412  0.0884 -0.0174
 7235SOL    HW133164   0.461   1.398   9.746  0.3908 -0.0612  0.4874
 7235SOL    HW233165   0.586   1.462   9.768 -0.8821  0.3940  0.6001
 7236SOL     OW33166   3.548   2.635   4.866  0.3012 -0.4285  0.4161
 7236SOL    HW133167   3.586   2.687   4.937 -0.2628 -0.7076  0.9147
 7236SOL    HW233168   3.562   2.702   4.799 -1.8806 -1.5150 -1.1237
 7237SOL     OW33169   2.611   3.382   1.620 -0.1391  0.2114 -0.1104
 7237SOL    HW133170   2.548   3.428   1.564 -1.0080 -1.1897 -0.2621
 7237SOL    HW233171   2.693   3.416   1.584  1.4344 -2.6031  0.8641
 7238SOL     OW33172   4.621   3.903   8.235 -0.4983 -0.1303 -0.6188
 7238SOL    HW133173   4.612   3.807   8.240  1.8326 -0.3568 -0.7438
 7238SOL    HW233174   4.699   3.916   8.289 -0.2820 -2.3158 -0.3902
 7239SOL     OW33175   3.439   1.612  16.258  0.1643  0.0486  0.7079
 7239SOL    HW133176   3.473   1.623  16.169 -0.1076 -0.1848  0.5722
 7239SOL    HW233177   3.495   1.674  16.304  1.0029 -1.0677  1.1887
 7240SOL     OW33178   0.972   0.088   7.467 -0.6089  0.1086  0.0371
 7240SOL    HW133179   0.888   0.090   7.512 -1.5834 -0.0597 -1.7497
 7240SOL    HW233180   1.005   4.724   7.481 -0.1381  0.3853  0.6514
 7241SOL     OW33181   3.864   3.604   8.188 -0.4107  0.1313 -0.2971
 7241SOL    HW133182   3.888   3.603   8.281  0.6078  0.3767 -0.5620
 7241SOL    HW233183   3.904   3.522   8.161  0.5973  0.5582 -0.0724
 7242SOL     OW33184   3.346   4.318   8.192 -0.0675 -0.2167  0.6638
 7242SOL    HW133185   3.427   4.352   8.154 -1.6884  3.6538  0.6570
 7242SOL    HW233186   3.343   4.226   8.169 -0.2921 -0.3606  1.2787
 7243SOL     OW33187   2.811   0.515  14.050 -0.3601 -0.6461 -0.2827
 7243SOL    HW133188   2.738   0.536  14.109 -0.8760  2.9721 -2.1964
 7243SOL    HW233189   2.759   0.465  13.987 -2.1822  2.5473 -1.3347
 7244SOL     OW33190   2.908   0.191   9.211 -0.4759 -0.2384  0.3449
 7244SOL    HW133191   2.979   0.151   9.260  1.6078  1.9311 -0.9040
 7244SOL    HW233192   2.871   0.251   9.276  0.0628 -0.1394  0.5541
 7245SOL     OW33193   0.853   0.594  13.254 -0.3239 -0.2007 -0.0179
 7245SOL    HW133194   0.841   0.555  13.340  0.6738  2.4051  1.2816
 7245SOL    HW233195   0.893   0.516  13.215  0.3902  0.7279 -1.1630
 7246SOL     OW33196   0.676   1.898   4.785  0.1608 -0.2437  0.1183
 7246SOL    HW133197   0.706   1.948   4.709  2.6738 -0.4174  0.9710
 7246SOL    HW233198   0.604   1.853   4.741  0.4422 -2.8934  2.3772
 7247SOL     OW33199   1.179   4.440   0.177  0.5637 -0.5504 -0.2688
 7247SOL    HW133200   1.249   4.409   0.235  1.7180  3.2731  0.3603
 7247SOL    HW233201   1.175   4.526   0.219  1.1538 -0.8548  0.4138
 7248SOL     OW33202   3.566   1.249  14.577  0.3126 -0.0168  0.2922
 7248SOL    HW133203   3.491   1.292  14.617  0.5678 -1.1631  1.9906
 7248SOL    HW233204   3.638   1.296  14.620  1.9815 -1.0121 -1.3866
 7249SOL     OW33205   1.264   2.517   0.643 -0.1883  0.5474 -0.7080
 7249SOL    HW133206   1.220   2.596   0.610 -3.6612 -0.1876  2.1935
 7249SOL    HW233207   1.353   2.519   0.609 -0.1278  0.0817 -0.5710
 7250SOL     OW33208   4.188   2.794   6.793  0.0809  0.5418 -0.0324
 7250SOL    HW133209   4.164   2.723   6.852 -3.1379  1.7221  0.0518
 7250SOL    HW233210   4.157   2.755   6.711 -3.2373  1.3977  0.8192
 7251SOL     OW33211   1.464   2.425   4.449 -0.3861 -0.1569 -0.5889
 7251SOL    HW133212   1.412   2.349   4.476 -1.9466  1.1403  0.0075
 7251SOL    HW233213   1.463   2.413   4.354 -1.6067 -0.3332 -0.5543
 7252SOL     OW33214   3.146   1.218   6.269  0.2825 -0.8569  0.1446
 7252SOL    HW133215   3.214   1.279   6.296  0.7280 -1.5910  0.6540
 7252SOL    HW233216   3.113   1.189   6.354  0.5769 -1.0210  0.1995
 7253SOL     OW33217   1.661   0.458  12.709 -0.0411  0.3368  0.2806
 7253SOL    HW133218   1.668   0.499  12.795  2.1670  0.6406 -0.0437
 7253SOL    HW233219   1.636   0.537  12.662 -1.0529  0.2594  0.6922
 7254SOL     OW33220   2.547   2.752   9.006 -0.2921  0.0428  0.3263
 7254SOL    HW133221   2.543   2.821   9.073 -0.2629  1.4026 -1.0804
 7254SOL    HW233222   2.454   2.734   9.000 -0.0300 -0.5042 -2.0861
 7255SOL     OW33223   3.593   2.130   9.416  0.4228  0.4307 -0.0481
 7255SOL    HW133224   3.547   2.168   9.491  1.4056  1.5703 -0.0333
 7255SOL    HW233225   3.547   2.047   9.402 -0.6837  1.3909 -2.0982
 7256SOL     OW33226   4.228   3.356   2.687  0.2171  0.3636  0.5632
 7256SOL    HW133227   4.246   3.306   2.607  0.2103 -0.7680  1.2672
 7256SOL    HW233228   4.144   3.316   2.706 -0.7435  2.1908  0.1397
 7257SOL     OW33229   0.563   1.498   4.766  0.8289 -0.3680  0.0721
 7257SOL    HW133230   0.557   1.564   4.835  1.6129 -1.0612  0.8014
 7257SOL    HW233231   0.621   1.439   4.814  3.2001 -0.8270 -3.3027
 7258SOL     OW33232   3.143   1.394  10.025  0.1573 -1.0496 -0.2714
 7258SOL    HW133233   3.083   1.421   9.955  1.8562  2.3663 -0.3837
 7258SOL    HW233234   3.108   1.436  10.103  0.3380 -0.1326 -0.6879
 7259SOL     OW33235   1.766   1.719   2.920  0.2363 -0.4150 -0.0603
 7259SOL    HW133236   1.686   1.741   2.871  0.0306  2.6590  1.6301
 7259SOL    HW233237   1.771   1.793   2.982  0.4040 -0.3668 -0.1326
 7260SOL     OW33238   0.003   3.904   4.950 -0.5392  0.3790 -0.2784
 7260SOL    HW133239   4.719   3.896   5.045  0.2747 -0.6054 -0.2898
 7260SOL    HW233240   0.046   3.989   4.942  1.3115 -0.4741  0.6929
 7261SOL     OW33241   1.725   1.699   4.396  0.5052 -0.2217 -0.5006
 7261SOL    HW133242   1.642   1.694   4.444  1.1282  0.0481  0.6131
 7261SOL    HW233243   1.793   1.711   4.463 -0.1232  0.4748  0.0156
 7262SOL     OW33244   0.210   1.714  11.770  0.4761 -0.8457 -0.1174
 7262SOL    HW133245   0.199   1.632  11.819  2.3769  0.5385  2.6193
 7262SOL    HW233246   0.168   1.782  11.822  0.9506  1.6503 -3.0191
 7263SOL     OW33247   0.704   0.172   3.645 -0.5215  0.2637  0.6633
 7263SOL    HW133248   0.734   0.191   3.556  1.9459  0.9132  1.6248
 7263SOL    HW233249   0.782   0.203   3.691 -0.2169 -0.0857  0.3780
 7264SOL     OW33250   4.152   1.708   3.383 -0.5360  0.4247  0.0353
 7264SOL    HW133251   4.092   1.763   3.433  0.1881  1.3344 -0.0991
 7264SOL    HW233252   4.081   1.658   3.342  1.3876 -2.9932  0.8444
 7265SOL     OW33253   4.441   0.355   1.354 -0.2915 -0.4853  0.0919
 7265SOL    HW133254   4.376   0.425   1.350  1.1088  0.6805 -2.2315
 7265SOL    HW233255   4.480   0.364   1.267 -1.1802  2.0169 -0.0499
 7266SOL     OW33256   3.670   3.344   4.110  0.0743  0.3373  0.1940
 7266SOL    HW133257   3.620   3.296   4.044 -1.1523 -0.5926  1.8188
 7266SOL    HW233258   3.639   3.289   4.182 -2.2410  3.2638  1.4397
 7267SOL     OW33259   3.349   1.029   5.732  0.6448 -0.2127 -0.5273
 7267SOL    HW133260   3.412   1.066   5.793 -1.3357  1.4740  0.4834
 7267SOL    HW233261   3.376   0.937   5.735 -0.4211 -0.5075  0.1520
 7268SOL     OW33262   1.261   0.682   6.835 -0.1963 -0.1193 -0.2906
 7268SOL    HW133263   1.200   0.738   6.787 -0.2618 -0.0525 -0.1266
 7268SOL    HW233264   1.231   0.596   6.804 -0.0359 -0.3381  0.1566
 7269SOL     OW33265   1.115   1.971  17.011 -0.0253 -0.0337  0.2833
 7269SOL    HW133266   1.133   1.884  17.048  0.2480 -0.0132  0.2000
 7269SOL    HW233267   1.029   1.990  17.047 -0.4959 -0.7618 -0.4630
 7270SOL     OW33268   2.307   1.245  16.500 -0.5120  0.5894  0.3328
 7270SOL    HW133269   2.372   1.191  16.456 -1.4426  1.0258 -1.5660
 7270SOL    HW233270   2.305   1.199  16.584  1.1260  1.6039  0.9191
 7271SOL     OW33271   2.534   2.129   5.144 -1.0149 -0.2639  0.2192
 7271SOL    HW133272   2.466   2.188   5.112 -0.7233 -1.1760 -2.1037
 7271SOL    HW233273   2.520   2.158   5.234 -2.0991  2.5018 -0.8557
 7272SOL     OW33274   0.153   2.510   4.423 -0.1454  0.4645 -0.1317
 7272SOL    HW133275   0.089   2.554   4.368 -2.4386 -2.6048  0.1141
 7272SOL    HW233276   0.200   2.583   4.463 -1.4032  0.2816  1.6761
 7273SOL     OW33277   0.815   1.718   7.774 -0.5434  0.1768 -0.7771
 7273SOL    HW133278   0.808   1.633   7.818 -2.6790 -0.5380 -2.4889
 7273SOL    HW233279   0.909   1.730   7.759  0.0170 -2.0889  0.9073
 7274SOL     OW33280   4.493   0.649   4.155  0.6006 -0.8329 -0.1991
 7274SOL    HW133281   4.544   0.729   4.145 -0.6615 -0.0305 -0.2423
 7274SOL    HW233282   4.407   0.686   4.173  0.2026 -1.5191 -0.6579
 7275SOL     OW33283   4.101   3.817   6.533 -0.3060  0.1437  0.2028
 7275SOL    HW133284   4.030   3.766   6.493 -0.1437  0.0214  0.0724
 7275SOL    HW233285   4.057   3.838   6.615  1.4645  0.4458  1.0646
 7276SOL     OW33286   4.506   2.907   8.749  0.1750  0.2752  0.3855
 7276SOL    HW133287   4.554   2.912   8.832 -0.8903 -0.0947  1.0250
 7276SOL    HW233288   4.471   2.819   8.755  0.5425  0.1036  0.0048
 7277SOL     OW33289   2.590   2.406   7.543  0.1912  0.3390 -0.4580
 7277SOL    HW133290   2.520   2.359   7.589 -0.5742  2.2865  0.3564
 7277SOL    HW233291   2.628   2.336   7.489  1.2653  1.2210 -0.8354
 7278SOL     OW33292   4.546   3.079  17.372  0.2687 -0.3904  0.2148
 7278SOL    HW133293   4.505   3.155  17.331  0.3435  0.3542  1.5361
 7278SOL    HW233294   4.624   3.118  17.411  0.2430  0.2108 -0.3349
 7279SOL     OW33295   3.799   0.359   8.300  0.0779 -0.0396 -0.2078
 7279SOL    HW133296   3.748   0.438   8.284  1.4486  1.6021  3.6357
 7279SOL    HW233297   3.812   0.329   8.210 -0.4701  1.3085 -0.7355
 7280SOL     OW33298   4.639   1.194  14.815  0.2184  0.8762  0.2545
 7280SOL    HW133299   4.715   1.148  14.849 -0.5044  0.2820  1.0669
 7280SOL    HW233300   4.633   1.264  14.880 -1.6744  0.3000  0.6936
 7281SOL     OW33301   1.175   2.129  15.056 -0.0429  0.4876 -0.0650
 7281SOL    HW133302   1.257   2.079  15.051 -1.1567 -1.2708 -1.0806
 7281SOL    HW233303   1.217   2.212  15.033  2.0732 -0.5311  0.0739
 7282SOL     OW33304   1.508   1.840  16.427 -0.8404  0.1221 -0.2129
 7282SOL    HW133305   1.493   1.849  16.333  1.2636  1.1282 -0.4601
 7282SOL    HW233306   1.463   1.759  16.448 -4.2915  2.3733  1.1233
 7283SOL     OW33307   4.720   1.671   6.087 -0.1052  0.0636 -0.5370
 7283SOL    HW133308   4.687   1.649   5.999 -0.9403  0.2515 -0.2672
 7283SOL    HW233309   0.085   1.659   6.053 -0.5422 -0.9946 -1.3387
 7284SOL     OW33310   3.019   3.698  10.508  1.0610  0.9093  0.4199
 7284SOL    HW133311   3.047   3.664  10.422 -0.3915  1.2821 -0.1911
 7284SOL    HW233312   3.013   3.616  10.557 -1.4948 -0.2014 -1.7775
 7285SOL     OW33313   2.039   4.600  17.118  0.1715  0.0172  0.1723
 7285SOL    HW133314   2.031   4.505  17.125 -1.1539  0.2746  2.1942
 7285SOL    HW233315   1.950   4.618  17.087  0.0790 -0.0666  0.3906
 7286SOL     OW33316   2.324   0.017  12.314 -0.0646 -0.2075  0.6353
 7286SOL    HW133317   2.247   4.691  12.287  0.3125 -0.8449  0.7334
 7286SOL    HW233318   2.355   0.046  12.228 -0.0507  1.5586  1.2357
 7287SOL     OW33319   4.295   2.946   7.429 -0.1473  0.1837 -0.1770
 7287SOL    HW133320   4.344   3.010   7.377  0.5714  0.2353  0.5577
 7287SOL    HW233321   4.239   2.923   7.356 -0.6714  0.3041  0.1872
 7288SOL     OW33322   3.216   2.539   7.727  0.1873 -0.2561 -0.1960
 7288SOL    HW133323   3.168   2.622   7.724 -0.4478 -0.5869  0.9566
 7288SOL    HW233324   3.306   2.567   7.713 -0.1159  0.4723 -0.6642
 7289SOL     OW33325   2.122   0.617  15.201  0.0018  0.1024  0.7342
 7289SOL    HW133326   2.075   0.538  15.227  0.3868 -0.0774  0.8795
 7289SOL    HW233327   2.088   0.627  15.112 -1.3523 -0.6114  1.1742
 7290SOL     OW33328   0.965   3.838  16.327 -0.2031  0.6217  0.4550
 7290SOL    HW133329   0.889   3.811  16.378  0.6591  0.4008  1.6418
 7290SOL    HW233330   1.024   3.762  16.332 -1.1320 -0.2626 -1.9882
 7291SOL     OW33331   2.103   4.002   7.064  0.0251 -0.2138 -0.1796
 7291SOL    HW133332   2.170   3.935   7.076  0.7183  0.7715  1.4763
 7291SOL    HW233333   2.111   4.046   7.150  1.6550  1.2075 -1.0476
 7292SOL     OW33334   2.062   1.213   4.255  0.3816  0.0164 -0.0734
 7292SOL    HW133335   1.980   1.169   4.231 -0.0289  0.1956  0.9980
 7292SOL    HW233336   2.034   1.299   4.285  1.1571  0.2168  0.0767
 7293SOL     OW33337   3.357   2.732   3.057 -0.1979  0.5320 -0.3765
 7293SOL    HW133338   3.433   2.751   3.112  1.3586 -1.9785 -1.6354
 7293SOL    HW233339   3.307   2.668   3.107  0.2986 -0.9830 -1.8353
 7294SOL     OW33340   1.997   1.473  16.388  0.1993 -0.0536 -0.2716
 7294SOL    HW133341   2.000   1.424  16.306  1.3925 -3.2169  1.6527
 7294SOL    HW233342   1.919   1.527  16.374 -0.0766 -0.1861  0.7634
 7295SOL     OW33343   0.274   1.713  10.838 -0.4163  0.4487 -0.1735
 7295SOL    HW133344   0.240   1.651  10.903  2.0846 -0.3972  0.3135
 7295SOL    HW233345   0.292   1.652  10.767  1.9436  1.5786 -0.5422
 7296SOL     OW33346   3.546   2.020   1.204 -0.3076 -0.0361  0.0573
 7296SOL    HW133347   3.472   2.068   1.165  0.0353  0.6721  0.2689
 7296SOL    HW233348   3.592   1.994   1.124  1.1173  1.4745  0.3875
 7297SOL     OW33349   1.262   3.497  12.298  0.2972  0.4358 -0.3384
 7297SOL    HW133350   1.332   3.562  12.290  0.2221  0.7929  1.9552
 7297SOL    HW233351   1.205   3.524  12.226  0.5824  2.3957  0.1725
 7298SOL     OW33352   1.650   3.505   2.600 -0.1799  0.4064 -0.4026
 7298SOL    HW133353   1.686   3.586   2.636 -0.7243  0.8322 -0.8286
 7298SOL    HW233354   1.556   3.523   2.606  0.0655  2.2460 -2.0998
 7299SOL     OW33355   3.241   4.413   7.661 -0.1755  0.0839 -0.0600
 7299SOL    HW133356   3.205   4.468   7.731  0.6137 -0.2030  0.5618
 7299SOL    HW233357   3.272   4.337   7.709  2.5808  1.0228 -0.3703
 7300SOL     OW33358   0.801   0.752   1.856  0.1373 -0.3120  0.0111
 7300SOL    HW133359   0.778   0.818   1.790 -4.0148 -0.0897  1.6237
 7300SOL    HW233360   0.892   0.746   1.830  0.5729 -0.1053  1.4912
 7301SOL     OW33361   2.801   2.262   9.433  0.4862  0.3057 -0.0664
 7301SOL    HW133362   2.845   2.178   9.445 -1.6828 -0.7779  0.2054
 7301SOL    HW233363   2.711   2.236   9.450  0.7844  0.0069  1.0581
 7302SOL     OW33364   3.354   0.730   6.441  0.6585  0.1020  0.0210
 7302SOL    HW133365   3.323   0.816   6.469 -1.0130 -0.4149 -0.2690
 7302SOL    HW233366   3.296   0.671   6.489 -2.2394  2.3355 -0.7775
 7303SOL     OW33367   0.823   3.775   6.633  0.2503 -0.4600  0.5514
 7303SOL    HW133368   0.908   3.805   6.599 -0.4544  1.8634  0.8772
 7303SOL    HW233369   0.776   3.732   6.562 -1.4258 -1.1214  2.0812
 7304SOL     OW33370   3.623   3.653   7.394  1.0433 -0.0905 -0.0949
 7304SOL    HW133371   3.578   3.675   7.312  0.8088  0.6745  0.2454
 7304SOL    HW233372   3.645   3.561   7.379 -1.3539 -0.5073 -1.0600
 7305SOL     OW33373   1.957   3.688   1.519 -0.6123  0.1788  0.5377
 7305SOL    HW133374   2.021   3.758   1.525 -0.4159  0.0082  0.4296
 7305SOL    HW233375   1.994   3.630   1.586  1.6513  3.1669  1.8616
 7306SOL     OW33376   1.383   3.397  13.768 -0.1900 -0.0899  0.6253
 7306SOL    HW133377   1.384   3.326  13.831  1.2336 -0.3918  0.2663
 7306SOL    HW233378   1.413   3.466  13.827  0.8739 -0.8600  0.9727
 7307SOL     OW33379   0.591   2.425   2.554 -0.0263  0.2541  0.1200
 7307SOL    HW133380   0.535   2.389   2.485 -0.0768 -0.7875  0.6938
 7307SOL    HW233381   0.639   2.494   2.509  0.8072 -1.2760 -1.3440
 7308SOL     OW33382   4.679   2.741   3.963 -0.2345  0.7932  0.2381
 7308SOL    HW133383   4.638   2.800   3.899 -1.4670 -0.7279 -0.4043
 7308SOL    HW233384   4.641   2.781   4.041  0.4209 -1.3256  1.6663
 7309SOL     OW33385   0.747   0.681   3.264 -0.1945 -0.3878  0.2376
 7309SOL    HW133386   0.835   0.714   3.284  0.0295  0.1567 -1.6516
 7309SOL    HW233387   0.779   0.592   3.253 -0.8251 -0.6205  0.2939
 7310SOL     OW33388   0.489   2.567   3.841 -0.3685  0.0260 -0.2692
 7310SOL    HW133389   0.522   2.609   3.921  0.1693  1.2011 -1.1087
 7310SOL    HW233390   0.491   2.633   3.772 -0.0211  0.5907  0.2785
 7311SOL     OW33391   0.806   1.658   4.343  0.1673 -0.7317  0.1557
 7311SOL    HW133392   0.834   1.609   4.420 -0.8340 -2.0135 -0.3050
 7311SOL    HW233393   0.711   1.650   4.348  0.1838 -0.3850  1.0049
 7312SOL     OW33394   4.448   0.701   1.603 -0.9346 -0.1270 -0.3104
 7312SOL    HW133395   4.513   0.632   1.594 -1.7211 -1.1587  1.8141
 7312SOL    HW233396   4.453   0.746   1.519 -0.1396 -0.9954 -0.7283
 7313SOL     OW33397   2.543   2.096   5.573 -0.0204  0.1498 -0.2185
 7313SOL    HW133398   2.611   2.067   5.634 -0.2101 -0.9738 -0.5461
 7313SOL    HW233399   2.495   2.151   5.635 -0.6147  0.4800 -0.9663
 7314SOL     OW33400   2.480   0.713   5.309 -0.2524  0.0479 -0.2684
 7314SOL    HW133401   2.534   0.754   5.241 -0.1338 -1.0581 -0.8451
 7314SOL    HW233402   2.397   0.759   5.297  1.5610  2.7132 -2.5167
 7315SOL     OW33403   0.324   0.563  13.895 -0.4080 -0.3062 -0.1708
 7315SOL    HW133404   0.325   0.630  13.964  0.2317  2.9972 -3.4208
 7315SOL    HW233405   0.338   0.487  13.952  0.4740 -1.1375 -1.5150
 7316SOL     OW33406   3.236   4.239   0.689 -0.2216  0.2629  0.4071
 7316SOL    HW133407   3.219   4.330   0.665 -2.3595 -0.6934 -1.7329
 7316SOL    HW233408   3.312   4.252   0.745  0.9179  0.5476 -1.2044
 7317SOL     OW33409   0.352   4.243   7.816 -0.0944  0.0691 -0.5907
 7317SOL    HW133410   0.365   4.324   7.866 -0.2437 -0.2342 -0.0578
 7317SOL    HW233411   0.432   4.200   7.844  0.6917  1.2535 -1.0077
 7318SOL     OW33412   1.757   3.557  14.624 -0.3406 -0.1112 -0.5339
 7318SOL    HW133413   1.666   3.557  14.596 -0.1712  0.1625 -1.0992
 7318SOL    HW233414   1.782   3.649  14.620 -0.5493 -0.0769 -1.0420
 7319SOL     OW33415   0.838   4.520   9.510 -0.0390 -0.0936  0.2144
 7319SOL    HW133416   0.884   4.448   9.552 -0.1657 -0.1150  0.3193
 7319SOL    HW233417   0.833   4.588   9.578  1.5923  0.7873 -0.5678
 7320SOL     OW33418   3.553   3.386   6.905  0.0656 -0.1818 -0.1853
 7320SOL    HW133419   3.610   3.407   6.979 -0.1521 -0.5040  0.0735
 7320SOL    HW233420   3.482   3.345   6.953  0.8857 -2.5182 -0.9370
 7321SOL     OW33421   1.981   3.916   1.114  0.0838  0.1542 -0.3642
 7321SOL    HW133422   2.028   3.976   1.173 -2.8883  0.2327  1.8990
 7321SOL    HW233423   1.971   3.845   1.177 -0.9477 -1.4594 -2.3650
 7322SOL     OW33424   0.141   2.349   5.696 -0.3684  0.2437  0.1957
 7322SOL    HW133425   0.052   2.372   5.724 -0.8257  1.3431 -2.1812
 7322SOL    HW233426   0.183   2.435   5.703 -1.3562  0.6224  1.6486
 7323SOL     OW33427   0.168   2.727   8.544  0.2840  0.7333  0.6153
 7323SOL    HW133428   0.072   2.725   8.545  0.2860  0.4163  0.2745
 7323SOL    HW233429   0.195   2.754   8.631 -0.3125 -0.1966  1.0974
 7324SOL     OW33430   1.980   0.404   2.514  0.1440  0.0011 -0.9026
 7324SOL    HW133431   2.049   0.463   2.543 -0.0747 -1.4990  2.7038
 7324SOL    HW233432   1.907   0.466   2.505  0.3872  0.4985  0.6815
 7325SOL     OW33433   1.613   4.680   5.868  0.9008 -0.3603  0.5323
 7325SOL    HW133434   1.637   0.031   5.923  0.3116 -0.0040  0.3073
 7325SOL    HW233435   1.675   4.608   5.881  0.6452 -0.5252  0.8501
 7326SOL     OW33436   1.117   3.897   7.167  0.2260  0.3108 -0.0480
 7326SOL    HW133437   1.187   3.944   7.121  1.4829 -3.2889 -1.7474
 7326SOL    HW233438   1.152   3.808   7.161  1.7652  0.9599 -0.7971
 7327SOL     OW33439   2.714   3.449  13.422 -0.2735  0.6761  0.2416
 7327SOL    HW133440   2.690   3.542  13.417  0.1984  0.7096 -1.4298
 7327SOL    HW233441   2.730   3.431  13.515 -0.2573  3.3977  0.7780
 7328SOL     OW33442   1.190   2.950   8.476 -0.4175 -0.1496  0.1264
 7328SOL    HW133443   1.116   2.953   8.415  0.1060 -0.5977 -0.5274
 7328SOL    HW233444   1.183   2.865   8.519  0.2214 -0.9420 -1.3218
 7329SOL     OW33445   3.283   1.067   8.190  0.2755  0.6153  0.3823
 7329SOL    HW133446   3.325   1.127   8.128 -2.8913  2.5256  0.0633
 7329SOL    HW233447   3.298   0.987   8.140  1.4403  0.1569  1.4674
 7330SOL     OW33448   3.911   0.954   6.765  0.2261  0.0099  0.0953
 7330SOL    HW133449   3.985   0.894   6.772  0.3379  0.2318  0.8779
 7330SOL    HW233450   3.898   0.959   6.860 -1.4822 -0.6267 -0.1163
 7331SOL     OW33451   0.865   3.914   5.842 -0.2286 -0.2097  0.4425
 7331SOL    HW133452   0.895   3.971   5.913  1.0474  0.5764 -0.7309
 7331SOL    HW233453   0.772   3.934   5.854 -0.2276 -0.1299  0.3213
 7332SOL     OW33454   3.019   0.874   6.529 -0.1460  0.5788  0.3796
 7332SOL    HW133455   2.941   0.880   6.585 -0.8210  3.7548 -0.8793
 7332SOL    HW233456   3.013   0.785   6.495 -0.1951  0.8129 -0.2221
 7333SOL     OW33457   1.529   1.101   1.191  0.6416  0.5965  0.0193
 7333SOL    HW133458   1.453   1.154   1.165 -0.9256 -1.3620  0.6286
 7333SOL    HW233459   1.481   1.022   1.215  1.6980  0.0082  0.1777
 7334SOL     OW33460   3.172   0.032  15.016 -0.3465 -0.0904 -0.2954
 7334SOL    HW133461   3.176   4.684  14.953 -0.5360  0.1296 -0.5655
 7334SOL    HW233462   3.222   0.101  14.971  0.5338 -0.3084  0.3404
 7335SOL     OW33463   0.236   1.630  17.116 -0.1426  0.2243 -0.1775
 7335SOL    HW133464   0.147   1.625  17.150  0.8797 -0.8625  2.3327
 7335SOL    HW233465   0.228   1.697  17.049  1.1383 -0.0404 -0.5974
 7336SOL     OW33466   0.176   1.272   7.632  0.0763 -0.8888 -0.0650
 7336SOL    HW133467   0.141   1.282   7.721  0.4007 -3.9572  0.4105
 7336SOL    HW233468   0.184   1.363   7.604  0.1662 -0.8554  0.0688
 7337SOL     OW33469   1.303   0.321   4.694 -0.6275 -0.0444  0.4489
 7337SOL    HW133470   1.343   0.272   4.766  0.6104  0.6467  0.2322
 7337SOL    HW233471   1.244   0.254   4.661 -1.4980  1.2812 -0.6785
 7338SOL     OW33472   0.100   1.406  10.773  0.1165 -0.4681 -0.1156
 7338SOL    HW133473   0.053   1.402  10.856  1.0084  3.3722  0.5661
 7338SOL    HW233474   0.054   1.342  10.719 -0.7703  0.8979 -0.9653
 7339SOL     OW33475   2.512   3.392   7.484  0.1604  0.5301  0.4043
 7339SOL    HW133476   2.564   3.328   7.533 -0.9389 -0.9199 -0.3467
 7339SOL    HW233477   2.565   3.472   7.488  0.1219  0.5700  0.0969
 7340SOL     OW33478   2.968   1.148   3.656  0.0830  0.5165 -0.3332
 7340SOL    HW133479   2.910   1.220   3.630 -0.5055 -0.4430 -1.6980
 7340SOL    HW233480   3.023   1.194   3.720  1.7777 -2.7517  0.5348
 7341SOL     OW33481   3.955   3.155   7.492  0.1736 -0.2984 -0.6023
 7341SOL    HW133482   4.048   3.176   7.482 -0.2586  2.3014  0.8127
 7341SOL    HW233483   3.938   3.174   7.584 -3.3091  0.2531 -1.3504
 7342SOL     OW33484   2.317   3.435   8.407  0.0028  0.3144  0.6446
 7342SOL    HW133485   2.274   3.519   8.423 -2.3188 -0.8877  0.7684
 7342SOL    HW233486   2.312   3.396   8.494 -1.1215  0.6717  0.7442
 7343SOL     OW33487   3.927   0.354   5.652 -0.6190  0.5209  0.4282
 7343SOL    HW133488   3.860   0.414   5.620 -0.3482  0.2151 -0.7319
 7343SOL    HW233489   3.991   0.406   5.699  2.8631 -2.0643 -1.4552
 7344SOL     OW33490   1.931   0.361   0.890  0.4640  0.8343  0.1702
 7344SOL    HW133491   1.851   0.311   0.872 -0.7696  3.2252 -0.9624
 7344SOL    HW233492   1.943   0.328   0.979  0.6923  0.4736  0.0068
 7345SOL     OW33493   4.352   0.142   2.174 -0.1962 -0.6253  0.2861
 7345SOL    HW133494   4.292   0.159   2.101  0.9605 -0.2998 -0.5895
 7345SOL    HW233495   4.381   0.233   2.178 -1.9111  0.0542 -2.3940
 7346SOL     OW33496   2.382   4.320   1.654  0.3045 -0.3227  0.2498
 7346SOL    HW133497   2.434   4.284   1.582  1.4093 -1.6542  1.7242
 7346SOL    HW233498   2.362   4.411   1.632  0.2244 -0.5480 -0.6165
 7347SOL     OW33499   1.107   1.084   1.764 -0.5908  0.0845 -0.4369
 7347SOL    HW133500   1.187   1.109   1.718  1.2551 -2.9349  1.1029
 7347SOL    HW233501   1.082   1.008   1.712  1.0955  0.2551 -1.5014
 7348SOL     OW33502   3.836   3.208   2.813 -0.1002  0.3387 -0.3882
 7348SOL    HW133503   3.757   3.164   2.845  1.2833 -1.3575  0.7087
 7348SOL    HW233504   3.827   3.172   2.725 -0.3416 -0.3111 -0.0988
 7349SOL     OW33505   1.951   2.057   5.668  0.4561 -0.5251 -0.6652
 7349SOL    HW133506   1.930   1.989   5.604 -0.0018 -0.8511 -0.1684
 7349SOL    HW233507   1.904   2.021   5.744 -0.1820  0.0445 -0.7917
 7350SOL     OW33508   3.873   1.795   7.836  0.4404  0.0887  0.1378
 7350SOL    HW133509   3.912   1.751   7.910 -1.4252  0.3361  1.2766
 7350SOL    HW233510   3.904   1.886   7.846 -0.3830  0.4476 -0.5401
 7351SOL     OW33511   1.385   1.316   1.010  0.2973 -0.2133  0.4987
 7351SOL    HW133512   1.442   1.277   0.944 -0.3353 -4.2923  2.3549
 7351SOL    HW233513   1.298   1.287   0.982  0.3842  0.6674 -0.6746
 7352SOL     OW33514   0.657   0.263   2.791 -0.6585 -0.9266  0.0070
 7352SOL    HW133515   0.616   0.176   2.793 -1.9381 -0.3131  0.1347
 7352SOL    HW233516   0.699   0.272   2.705 -0.0217  1.0594  0.5266
 7353SOL     OW33517   0.808   3.220   5.188 -0.2539 -0.5561 -0.5685
 7353SOL    HW133518   0.801   3.315   5.200 -0.8433 -0.9716  2.3155
 7353SOL    HW233519   0.902   3.208   5.200 -0.3752 -0.9256  0.0003
 7354SOL     OW33520   2.885   4.368   7.894  0.1671 -0.0666 -0.2444
 7354SOL    HW133521   2.902   4.396   7.984 -0.7607  2.1164 -0.7355
 7354SOL    HW233522   2.895   4.453   7.849 -1.8275 -1.2695 -2.9704
 7355SOL     OW33523   1.240   4.060  14.353 -0.1912 -0.0725  0.2183
 7355SOL    HW133524   1.144   4.058  14.348 -0.0956 -2.0156 -0.7338
 7355SOL    HW233525   1.272   4.149  14.371 -0.5939 -0.2012  1.6059
 7356SOL     OW33526   3.863   0.450   4.347 -0.0632 -0.2352 -0.0280
 7356SOL    HW133527   3.924   0.418   4.281  0.1634  1.6158 -0.6964
 7356SOL    HW233528   3.784   0.396   4.341  0.5750 -0.8948 -2.2308
 7357SOL     OW33529   0.412   2.593  16.357 -0.0947 -0.3265  0.0951
 7357SOL    HW133530   0.437   2.624  16.270  0.1085  1.5023  0.7936
 7357SOL    HW233531   0.367   2.666  16.400  2.1009  1.5933 -0.8658
 7358SOL     OW33532   4.430   4.185   7.762  0.2478  0.0549 -0.1998
 7358SOL    HW133533   4.346   4.161   7.722  0.5222 -0.9717 -0.1454
 7358SOL    HW233534   4.483   4.110   7.737  0.0143  0.2381 -1.2664
 7359SOL     OW33535   4.519   0.363   1.077  0.2306  0.3134 -0.3735
 7359SOL    HW133536   4.515   0.354   0.982  0.0957 -0.6945 -0.2763
 7359SOL    HW233537   4.614   0.361   1.084  0.2660 -1.1124 -1.3035
 7360SOL     OW33538   1.848   3.665   1.878  0.2572 -0.3128  0.3505
 7360SOL    HW133539   1.916   3.619   1.929  0.6077  0.8794  0.9539
 7360SOL    HW233540   1.767   3.625   1.910 -0.7946  1.7678  0.2843
 7361SOL     OW33541   0.252   3.550   5.909  0.4941  0.2862  0.2503
 7361SOL    HW133542   0.216   3.611   5.844 -2.3937 -0.8799  0.7254
 7361SOL    HW233543   0.283   3.607   5.979 -0.0349  1.0121 -0.0988
 7362SOL     OW33544   1.702   2.399   1.453 -0.3519  0.1416  0.3098
 7362SOL    HW133545   1.748   2.477   1.423 -0.3895 -0.0668 -0.2875
 7362SOL    HW233546   1.775   2.339   1.469 -1.3355 -0.1115  3.7194
 7363SOL     OW33547   4.533   3.627   5.787 -0.5540  0.4952  0.1218
 7363SOL    HW133548   4.463   3.688   5.807 -1.4058 -2.2883  5.7097
 7363SOL    HW233549   4.570   3.631   5.875  1.5581  1.0538 -0.7952
 7364SOL     OW33550   1.718   0.262   2.298 -0.4500  0.3399 -0.9986
 7364SOL    HW133551   1.737   0.334   2.237  1.5208  2.4295  2.1070
 7364SOL    HW233552   1.759   0.191   2.249  2.3509  1.0857  0.2852
 7365SOL     OW33553   0.262   1.365   7.944 -0.1387  0.6334 -0.7034
 7365SOL    HW133554   0.287   1.293   8.002 -0.2506  2.7022  1.9159
 7365SOL    HW233555   0.262   1.444   7.998  0.8282  1.4728 -1.9277
 7366SOL     OW33556   3.573   1.278   1.901  0.0872  0.5763 -0.3420
 7366SOL    HW133557   3.578   1.367   1.865  0.1154  0.0801 -1.5781
 7366SOL    HW233558   3.485   1.278   1.939  0.3488 -0.0669  0.2608
 7367SOL     OW33559   0.771   1.026   4.845  0.2282  0.7681  0.4338
 7367SOL    HW133560   0.808   0.950   4.889  0.6108  0.5156 -0.3076
 7367SOL    HW233561   0.798   1.104   4.895 -1.3111 -0.4836  3.1681
 7368SOL     OW33562   2.154   2.956   9.166  0.6151 -0.0908  0.1746
 7368SOL    HW133563   2.198   2.909   9.095  0.1655 -0.6949  0.3043
 7368SOL    HW233564   2.169   2.908   9.247 -0.2428 -0.0378  0.3631
 7369SOL     OW33565   0.491   2.989   1.509 -0.5380 -0.6723 -0.1857
 7369SOL    HW133566   0.455   3.062   1.459 -0.6720  0.2605  1.2824
 7369SOL    HW233567   0.514   3.035   1.589 -2.9488  0.8652 -0.3911
 7370SOL     OW33568   3.156   2.693  14.685 -0.4490 -0.2141  0.2932
 7370SOL    HW133569   3.215   2.709  14.758  0.4206 -0.8560 -0.2661
 7370SOL    HW233570   3.215   2.635  14.637 -0.6249  1.7950 -2.3317
 7371SOL     OW33571   2.129   4.700   7.788 -0.0741  0.4828  0.5010
 7371SOL    HW133572   2.112   4.618   7.742 -1.8960 -0.0033  2.0000
 7371SOL    HW233573   2.044   0.020   7.781  1.3287  2.8376 -1.3359
 7372SOL     OW33574   3.499   4.585   8.442  0.0208 -0.0737  0.1252
 7372SOL    HW133575   3.519   4.589   8.535  2.6730  0.2361 -0.4694
 7372SOL    HW233576   3.405   4.571   8.435  0.1476 -1.1499  0.6757
 7373SOL     OW33577   1.598   1.731  14.851 -0.4904  0.1877 -0.5619
 7373SOL    HW133578   1.662   1.741  14.780 -0.4154  0.1314 -0.5008
 7373SOL    HW233579   1.521   1.772  14.810 -1.4780 -2.0281 -0.9140
 7374SOL     OW33580   0.735   3.159   7.382  0.4879 -0.0434 -0.1975
 7374SOL    HW133581   0.778   3.139   7.465  0.2431 -0.4252 -0.1615
 7374SOL    HW233582   0.647   3.128   7.405  0.2842 -0.1043 -1.0585
 7375SOL     OW33583   2.266   0.739   7.048  0.2066  0.5239  0.0303
 7375SOL    HW133584   2.351   0.774   7.075 -0.3379  1.4679  0.4951
 7375SOL    HW233585   2.274   0.648   7.078  0.4483  0.7713  0.7043
 7376SOL     OW33586   1.265   4.595   4.782  0.0073  0.3298  0.3630
 7376SOL    HW133587   1.213   4.676   4.789  1.0243  1.0413 -0.3422
 7376SOL    HW233588   1.233   4.557   4.700  0.2716  1.4209 -0.2427
 7377SOL     OW33589   4.297   1.513   9.063  0.9887  0.4102  0.5607
 7377SOL    HW133590   4.227   1.507   9.127  0.0510  1.9605 -0.3243
 7377SOL    HW233591   4.275   1.443   9.001 -1.6835  1.8506 -0.1280
 7378SOL     OW33592   4.045   0.847   7.984 -0.3506  0.2475 -0.5765
 7378SOL    HW133593   3.949   0.849   7.985 -0.3337  1.4713 -0.4889
 7378SOL    HW233594   4.055   0.766   8.034  0.3479  0.4478 -0.4019
 7379SOL     OW33595   4.257   4.598   4.905 -0.4236  0.2498  0.0360
 7379SOL    HW133596   4.295   4.655   4.972 -1.0450  0.0247  0.5794
 7379SOL    HW233597   4.280   4.648   4.826  0.2719 -1.8113 -1.0662
 7380SOL     OW33598   4.582   4.157   5.009  0.1164 -0.3080  0.2267
 7380SOL    HW133599   4.515   4.091   4.994  0.4619 -1.1683  2.4874
 7380SOL    HW233600   4.616   4.135   5.095  0.3499 -1.6205 -0.2022
 7381SOL     OW33601   2.900   0.393  12.910 -0.2465  0.0915 -0.5748
 7381SOL    HW133602   2.977   0.337  12.896 -0.6280 -1.0387  1.7254
 7381SOL    HW233603   2.891   0.421  12.819  1.1392 -0.7337 -0.9730
 7382SOL     OW33604   3.521   0.501   6.594  0.1888 -0.1834 -0.4550
 7382SOL    HW133605   3.515   0.569   6.526  0.0834 -1.0237 -1.2797
 7382SOL    HW233606   3.432   0.491   6.627  0.1086 -0.4308 -0.7428
 7383SOL     OW33607   0.091   4.171   4.249 -0.1828 -0.2817  0.0129
 7383SOL    HW133608   0.183   4.190   4.264  0.6760 -3.5295 -1.2644
 7383SOL    HW233609   0.061   4.257   4.278 -0.7082 -1.4138  2.8902
 7384SOL     OW33610   2.993   3.841   0.526 -0.1301 -0.1183 -0.5638
 7384SOL    HW133611   2.935   3.790   0.469 -0.9280  2.2939 -1.9386
 7384SOL    HW233612   2.946   3.833   0.609  0.5781 -2.0703 -0.3383
 7385SOL     OW33613   4.050   3.599   5.786  0.6877 -0.3918 -0.0092
 7385SOL    HW133614   4.089   3.617   5.872  1.0567 -0.9855 -0.0540
 7385SOL    HW233615   4.119   3.580   5.722 -0.3967  2.1552 -1.9164
 7386SOL     OW33616   3.466   4.601   1.095  0.4869  0.2853  0.2075
 7386SOL    HW133617   3.430   4.603   1.006 -0.8853  0.7836  0.7661
 7386SOL    HW233618   3.491   4.693   1.096  0.0668  0.3844  1.5048
 7387SOL     OW33619   1.214   1.913   4.471 -0.1657 -0.1139 -0.6464
 7387SOL    HW133620   1.249   1.981   4.529 -2.4389  0.3486  0.1726
 7387SOL    HW233621   1.138   1.963   4.443 -1.2316 -1.8680 -0.8744
 7388SOL     OW33622   0.971   4.281  14.235 -0.5138 -0.3289 -0.0274
 7388SOL    HW133623   0.895   4.319  14.278 -0.5847 -0.6410  0.1171
 7388SOL    HW233624   1.041   4.289  14.299 -0.5995  0.9962 -0.0914
 7389SOL     OW33625   1.581   4.701   2.284  0.3125 -0.0568 -0.3868
 7389SOL    HW133626   1.607   4.714   2.193  1.8496  1.8929  0.3376
 7389SOL    HW233627   1.656   4.656   2.322  0.6109  1.4732  0.8605
 7390SOL     OW33628   2.347   4.163  14.238  0.1571 -0.8149 -0.2620
 7390SOL    HW133629   2.440   4.166  14.260  0.8404 -0.0749 -3.2327
 7390SOL    HW233630   2.319   4.089  14.292 -1.6005  1.5317  1.9872
 7391SOL     OW33631   2.432   0.764   1.441 -0.2747  0.1969 -0.4912
 7391SOL    HW133632   2.417   0.670   1.452  1.2357 -0.1799 -1.6199
 7391SOL    HW233633   2.373   0.804   1.504 -2.7582 -1.3773 -1.8281
 7392SOL     OW33634   1.742   3.841   1.572 -0.4965  0.3775  0.2564
 7392SOL    HW133635   1.785   3.920   1.540 -0.5597  0.3664  0.1439
 7392SOL    HW233636   1.794   3.772   1.531 -1.0294  0.4326 -0.5385
 7393SOL     OW33637   4.587   0.639  13.200 -0.2907 -0.4633 -0.3995
 7393SOL    HW133638   4.625   0.568  13.149 -0.7821 -0.6845 -0.4572
 7393SOL    HW233639   4.612   0.712  13.142  2.9529 -2.3263 -1.3504
 7394SOL     OW33640   3.476   4.280   0.808 -0.0800 -0.1349  0.4985
 7394SOL    HW133641   3.554   4.310   0.763  0.6901 -2.1286  0.5125
 7394SOL    HW233642   3.499   4.275   0.901 -0.5612 -2.4097  0.5138
 7395SOL     OW33643   1.148   0.498   9.579 -0.2763 -0.1017 -0.1795
 7395SOL    HW133644   1.127   0.582   9.620  2.2037  0.7627 -0.6987
 7395SOL    HW233645   1.137   0.437   9.652  2.4408 -2.2808 -1.5898
 7396SOL     OW33646   2.356   0.397  17.438 -0.3052 -0.3691  0.1942
 7396SOL    HW133647   2.411   0.350  17.376 -0.4195 -1.3770  0.8576
 7396SOL    HW233648   2.271   0.368  17.405 -0.5519  1.0733 -0.4418
 7397SOL     OW33649   3.767   1.870   6.711 -0.0344  0.0090 -0.4295
 7397SOL    HW133650   3.856   1.904   6.702 -0.8031  2.3830  1.1170
 7397SOL    HW233651   3.784   1.778   6.733  0.3057  0.1969  0.0821
 7398SOL     OW33652   0.139   1.696   6.765  0.8404  0.5643 -0.0792
 7398SOL    HW133653   0.143   1.657   6.853  2.5196 -2.2349 -1.3851
 7398SOL    HW233654   0.134   1.620   6.706  2.3713 -1.3012  2.1593
 7399SOL     OW33655   1.919   3.047  16.496  0.5507  0.3419 -0.3166
 7399SOL    HW133656   1.948   3.075  16.409  0.2869  1.0043 -0.1961
 7399SOL    HW233657   1.958   3.108  16.558 -1.0403 -0.2899  1.3188
 7400SOL     OW33658   0.104   2.087   1.930 -0.4170 -0.3154 -0.1508
 7400SOL    HW133659   0.103   2.183   1.928  1.1177 -0.2833  1.1739
 7400SOL    HW233660   0.134   2.059   1.844 -0.5268 -0.2476 -0.2108
 7401SOL     OW33661   1.879   0.437  17.532  0.3968 -0.2000  0.3057
 7401SOL    HW133662   1.840   0.440  17.620 -0.5656  0.1768 -0.1348
 7401SOL    HW233663   1.927   0.520  17.535  0.7817 -0.3583 -1.7082
 7402SOL     OW33664   3.752   1.973  10.150  0.1513  0.1887  0.5366
 7402SOL    HW133665   3.774   1.940  10.237 -1.5456 -0.4883  0.7078
 7402SOL    HW233666   3.663   2.004  10.168 -0.0675 -0.7098  0.9698
 7403SOL     OW33667   3.304   1.699   8.440  0.6214 -0.0607 -0.1659
 7403SOL    HW133668   3.305   1.617   8.488  1.0116 -0.2070 -0.4296
 7403SOL    HW233669   3.291   1.673   8.349  0.4301 -0.7747  0.0719
 7404SOL     OW33670   2.155   2.914   0.729  0.3087 -0.2799 -0.3631
 7404SOL    HW133671   2.083   2.882   0.785 -0.4765  1.6058 -0.3028
 7404SOL    HW233672   2.108   2.916   0.645 -0.5738 -1.3825  0.0945
 7405SOL     OW33673   4.492   4.197  16.485 -0.6319 -0.0491  0.0804
 7405SOL    HW133674   4.433   4.122  16.484 -0.4764 -0.1696 -0.2234
 7405SOL    HW233675   4.490   4.216  16.391 -1.5141  2.5377  0.6375
 7406SOL     OW33676   3.193   0.093  12.591 -0.1434 -0.2939 -0.3686
 7406SOL    HW133677   3.247   0.117  12.515 -0.2923  1.7287  0.1641
 7406SOL    HW233678   3.222   0.002  12.603 -2.3235 -0.6944  1.8060
 7407SOL     OW33679   2.201   1.860   6.038 -0.0514  0.1731  0.1190
 7407SOL    HW133680   2.179   1.953   6.030  0.7836  0.5430  2.4128
 7407SOL    HW233681   2.209   1.854   6.133  0.3736  0.3054  0.0900
 7408SOL     OW33682   2.706   0.114  11.817 -0.1566 -0.1003 -0.0903
 7408SOL    HW133683   2.660   0.095  11.735  0.3229 -0.0600 -0.3688
 7408SOL    HW233684   2.762   0.177  11.773 -0.3143 -0.0143 -0.1680
 7409SOL     OW33685   2.150   0.432   6.249  0.3841 -0.6543  0.1703
 7409SOL    HW133686   2.169   0.493   6.320 -0.5257  1.0404 -1.0559
 7409SOL    HW233687   2.198   0.468   6.175 -1.3722 -0.4874 -0.8847
 7410SOL     OW33688   2.039   4.156  14.930 -0.5306 -0.5038 -0.1645
 7410SOL    HW133689   2.109   4.093  14.950 -0.9751 -0.6406  0.9256
 7410SOL    HW233690   2.075   4.239  14.962 -0.2942 -0.3312 -0.8689
 7411SOL     OW33691   1.450   0.469   6.293  0.2702 -0.5282  0.2828
 7411SOL    HW133692   1.446   0.493   6.200  0.2180  0.9368  0.6550
 7411SOL    HW233693   1.357   0.451   6.303  0.3667 -0.8254  0.6405
 7412SOL     OW33694   2.243   3.705   3.598  0.0826 -0.2743 -0.1821
 7412SOL    HW133695   2.273   3.623   3.560  0.5906  0.1996 -0.8048
 7412SOL    HW233696   2.331   3.743   3.596 -0.2748  0.6514  1.7062
 7413SOL     OW33697   2.962   1.918   5.998  0.1617 -0.4240  0.1211
 7413SOL    HW133698   2.936   1.947   5.910 -1.7880 -3.9005 -0.4527
 7413SOL    HW233699   2.967   1.822   5.993 -0.7491 -0.5618  1.8653
 7414SOL     OW33700   1.616   2.034   2.459 -0.0215  0.2503  0.1967
 7414SOL    HW133701   1.684   2.075   2.407  1.5613  0.4547  2.4221
 7414SOL    HW233702   1.644   1.945   2.435  2.0748  1.2591 -1.1276
 7415SOL     OW33703   4.583   0.034   5.482  0.4186 -0.3468 -0.5657
 7415SOL    HW133704   4.622   0.098   5.421  1.1647 -0.2250  0.0321
 7415SOL    HW233705   4.582   4.680   5.427  2.3337  1.3669 -3.0817
 7416SOL     OW33706   0.988   2.439   2.357  0.0426  0.2546  0.0535
 7416SOL    HW133707   1.014   2.420   2.447  1.2280 -0.7823 -0.4948
 7416SOL    HW233708   0.975   2.533   2.351  1.6627  0.3879 -1.5307
 7417SOL     OW33709   2.582   1.577  11.527 -0.1467 -0.0623 -0.1345
 7417SOL    HW133710   2.624   1.521  11.592 -0.5951  3.9063  3.6215
 7417SOL    HW233711   2.550   1.524  11.454 -1.7917  0.4042  0.2485
 7418SOL     OW33712   3.168   0.336  12.702  0.8130  0.0638  0.2759
 7418SOL    HW133713   3.163   0.242  12.684  0.6837  0.2998 -0.9068
 7418SOL    HW233714   3.185   0.366  12.613  0.1262 -2.0079 -0.5635
 7419SOL     OW33715   1.589   2.776   5.717 -0.2551  0.4385  0.3171
 7419SOL    HW133716   1.641   2.817   5.786  0.8953  0.1850 -0.3983
 7419SOL    HW233717   1.586   2.846   5.651  0.0710 -1.1074 -1.3520
 7420SOL     OW33718   2.741   2.971  12.088 -0.4457 -0.2646  0.0184
 7420SOL    HW133719   2.673   3.036  12.104 -0.4380 -1.0606  3.2165
 7420SOL    HW233720   2.814   3.007  12.138 -0.3181 -0.4006 -0.0700
 7421SOL     OW33721   1.827   3.046   3.691  0.2090  0.7211 -0.1977
 7421SOL    HW133722   1.765   2.980   3.662  2.2169 -1.2615 -0.0200
 7421SOL    HW233723   1.797   3.057   3.782 -0.0726  0.2188 -0.2329
 7422SOL     OW33724   4.485   1.194   1.285  0.3737  0.2748 -0.1844
 7422SOL    HW133725   4.413   1.135   1.308  2.1125 -1.1520  1.6439
 7422SOL    HW233726   4.443   1.273   1.318  2.0436  0.8245  0.6194
 7423SOL     OW33727   0.943   1.798   9.479 -0.3062  0.2693  0.1950
 7423SOL    HW133728   1.017   1.847   9.515 -1.3576  1.5416  0.5854
 7423SOL    HW233729   0.933   1.730   9.545  0.0725 -0.6661 -0.7039
 7424SOL     OW33730   0.929   2.181  17.282  0.2040  0.3631 -0.0129
 7424SOL    HW133731   0.887   2.140  17.206  1.6032  0.8792 -1.0669
 7424SOL    HW233732   0.882   2.264  17.286 -0.7754 -0.1512 -0.7747
 7425SOL     OW33733   1.866   1.811   3.876 -0.8748  0.2733  0.4012
 7425SOL    HW133734   1.780   1.850   3.860 -1.7948 -1.2395  1.6324
 7425SOL    HW233735   1.863   1.766   3.961  1.6932 -0.6533 -0.0022
 7426SOL     OW33736   1.525   4.589   1.013  0.1108  0.4461 -0.4225
 7426SOL    HW133737   1.467   4.638   1.073 -1.6706 -0.8907 -1.0543
 7426SOL    HW233738   1.607   4.592   1.063 -0.0051  1.7343 -0.2984
 7427SOL     OW33739   4.668   2.037   6.646 -0.3670  0.4305 -0.0891
 7427SOL    HW133740   4.660   2.091   6.724 -1.2310 -0.3436  0.3608
 7427SOL    HW233741   4.676   2.108   6.583  1.2561 -1.4277 -2.0167
 7428SOL     OW33742   3.755   0.950   2.491 -0.1417 -0.0053  0.1556
 7428SOL    HW133743   3.726   1.040   2.474 -1.2161  0.0212  2.1553
 7428SOL    HW233744   3.678   0.899   2.466 -0.2420  1.0290 -1.6846
 7429SOL     OW33745   3.612   3.202   6.707 -0.1496  0.0801  0.1014
 7429SOL    HW133746   3.701   3.184   6.737  0.1687 -2.0313 -2.0860
 7429SOL    HW233747   3.565   3.253   6.772 -0.7554  2.5851 -2.3343
 7430SOL     OW33748   0.075   3.997   8.406 -0.4243  0.1670 -0.0188
 7430SOL    HW133749   0.123   3.984   8.488  1.8098 -0.6603 -1.4593
 7430SOL    HW233750   0.026   4.077   8.425 -1.5813 -0.3723 -0.7617
 7431SOL     OW33751   4.446   4.163   2.343 -0.4895 -0.1912 -0.1876
 7431SOL    HW133752   4.448   4.071   2.367 -0.8565  0.0931  0.9436
 7431SOL    HW233753   4.367   4.167   2.290 -0.2288  2.7344 -0.4012
 7432SOL     OW33754   2.309   0.591   5.520 -0.1761  0.0375 -0.0759
 7432SOL    HW133755   2.347   0.506   5.539 -0.1288 -0.1651 -1.0913
 7432SOL    HW233756   2.380   0.635   5.473  1.2660 -0.0173  2.0387
 7433SOL     OW33757   1.014   0.020   8.513 -0.5844 -0.4016  0.5523
 7433SOL    HW133758   0.919   0.029   8.505 -0.3993  0.9547 -0.0946
 7433SOL    HW233759   1.034   0.096   8.459 -1.7094  0.2684  1.0753
 7434SOL     OW33760   4.667   2.142   1.647 -0.5293  0.0234 -0.3236
 7434SOL    HW133761   0.036   2.123   1.636 -0.2629  0.7111  0.7200
 7434SOL    HW233762   4.659   2.226   1.604  1.5638  0.5342  0.3026
 7435SOL     OW33763   3.128   3.837  10.087  0.4360  1.0897 -0.0199
 7435SOL    HW133764   3.090   3.753  10.062  3.9014 -0.5022  0.0941
 7435SOL    HW233765   3.219   3.822  10.060  0.6427  3.4879 -0.6200
 7436SOL     OW33766   0.983   0.702   1.259  0.0821  0.1299  0.4074
 7436SOL    HW133767   0.894   0.694   1.292 -0.3430  1.7608 -0.3352
 7436SOL    HW233768   1.007   0.610   1.255 -4.6445 -1.0200 -0.5011
 7437SOL     OW33769   0.707   0.512   7.091  0.0176 -0.0592  0.0702
 7437SOL    HW133770   0.661   0.436   7.057 -0.2755 -0.2164  0.8070
 7437SOL    HW233771   0.717   0.489   7.184 -0.2217  1.9985  0.5969
 7438SOL     OW33772   1.905   3.307  15.020 -0.2720  0.1459 -0.5581
 7438SOL    HW133773   1.923   3.363  15.095 -0.4093 -0.3438 -0.1548
 7438SOL    HW233774   1.865   3.380  14.974 -3.0660 -0.6572  0.6117
 7439SOL     OW33775   1.249   0.970   5.801 -0.4436 -0.6536 -0.1829
 7439SOL    HW133776   1.239   0.877   5.781  0.7456 -0.9576  0.6941
 7439SOL    HW233777   1.232   0.975   5.895  0.1005  1.6573 -0.2200
 7440SOL     OW33778   4.174   4.315   4.351 -1.0351  0.0180 -0.2250
 7440SOL    HW133779   4.187   4.231   4.306 -3.1178 -0.9188  0.8980
 7440SOL    HW233780   4.258   4.323   4.395  0.3778 -0.8212 -2.7430
 7441SOL     OW33781   2.296   1.791   4.506 -0.6601 -0.2102 -0.0307
 7441SOL    HW133782   2.288   1.779   4.600 -2.0063 -1.2050 -0.2721
 7441SOL    HW233783   2.206   1.787   4.474 -0.7281  1.3514 -0.0144
 7442SOL     OW33784   2.639   4.379   5.644  0.0556  0.3187  0.2426
 7442SOL    HW133785   2.588   4.298   5.637  0.5900 -0.2264  2.5905
 7442SOL    HW233786   2.722   4.346   5.610 -0.9722 -0.0390 -1.9240
 7443SOL     OW33787   4.533   0.128   3.843  0.4549 -0.0439 -0.0886
 7443SOL    HW133788   4.530   0.083   3.928  2.6598  0.3011  0.1705
 7443SOL    HW233789   4.441   0.110   3.824  0.2307  0.8475  0.1396
 7444SOL     OW33790   1.455   3.840   1.931 -0.1694  0.2247  0.1916
 7444SOL    HW133791   1.385   3.902   1.912 -1.2315 -1.0576 -0.0794
 7444SOL    HW233792   1.518   3.876   1.870 -0.0186 -0.5481 -0.1045
 7445SOL     OW33793   3.258   2.521   3.192  0.1287  0.7787 -0.7096
 7445SOL    HW133794   3.193   2.474   3.244  1.3688  0.7573  0.8684
 7445SOL    HW233795   3.289   2.452   3.134 -1.7995  1.9318 -3.0843
 7446SOL     OW33796   2.308   1.059   5.475  0.7627 -0.4098 -0.0706
 7446SOL    HW133797   2.372   1.003   5.520 -1.3754 -2.0384  0.9178
 7446SOL    HW233798   2.289   1.132   5.535 -1.9149 -2.2942  1.3821
 7447SOL     OW33799   1.900   3.071   5.031 -0.1247 -0.3745  0.2033
 7447SOL    HW133800   1.979   3.121   5.050  0.2699 -0.4825 -1.1779
 7447SOL    HW233801   1.843   3.119   5.091 -3.0149 -0.8078 -2.1630
 7448SOL     OW33802   2.106   1.680  11.347  0.2855 -0.3333 -0.0112
 7448SOL    HW133803   2.096   1.589  11.376 -2.2488  0.0888  0.4259
 7448SOL    HW233804   2.038   1.682  11.279 -1.0309 -0.2604  1.3046
 7449SOL     OW33805   2.068   0.030   7.022  0.0862  0.2541 -0.3226
 7449SOL    HW133806   2.131   0.011   6.953  0.7482  0.9438  0.0967
 7449SOL    HW233807   2.052   4.661   7.043  2.7389 -0.1224  0.0021
 7450SOL     OW33808   3.298   3.036   9.563  0.2198 -0.4232 -0.3267
 7450SOL    HW133809   3.341   3.115   9.530  0.5305  0.1066  1.3659
 7450SOL    HW233810   3.250   3.075   9.635  1.2209  1.6453 -0.7707
 7451SOL     OW33811   3.339   3.361   1.756 -0.5657  0.0788 -0.3392
 7451SOL    HW133812   3.286   3.418   1.701  0.2785  0.9490 -0.2562
 7451SOL    HW233813   3.328   3.411   1.837 -0.1230  1.1820 -0.9599
 7452SOL     OW33814   1.824   3.151   4.033  0.2219  0.4508  0.4975
 7452SOL    HW133815   1.916   3.129   4.018 -0.6321  0.8425 -5.3589
 7452SOL    HW233816   1.838   3.237   4.073 -0.0122  0.6307  0.1937
 7453SOL     OW33817   0.994   0.662   6.220 -0.1583  0.9716 -0.4525
 7453SOL    HW133818   1.063   0.614   6.176 -1.8677 -1.5138 -0.4095
 7453SOL    HW233819   1.036   0.698   6.298 -0.0939 -0.4949  0.1872
 7454SOL     OW33820   3.575   2.435   9.160  0.4803  0.0454 -0.0073
 7454SOL    HW133821   3.594   2.529   9.156  0.1909  0.0863 -0.3837
 7454SOL    HW233822   3.481   2.422   9.156  0.2096  1.2594  2.3053
 7455SOL     OW33823   4.155   0.705   5.007 -0.2678  0.3712 -0.2768
 7455SOL    HW133824   4.159   0.732   4.915  2.2229 -0.9059 -0.5351
 7455SOL    HW233825   4.190   0.616   5.010  1.0418  0.9117  0.1251
 7456SOL     OW33826   4.250   3.912   7.102 -0.1611  0.1805  0.5715
 7456SOL    HW133827   4.175   3.952   7.145 -1.0234 -1.4607  0.5813
 7456SOL    HW233828   4.253   3.829   7.150 -1.7988  0.8817  1.8647
 7457SOL     OW33829   3.325   1.876   4.108  0.2238  0.0251  0.3637
 7457SOL    HW133830   3.274   1.795   4.118 -0.1619 -0.0884 -2.4914
 7457SOL    HW233831   3.288   1.919   4.032  1.4739 -0.5244 -0.5491
 7458SOL     OW33832   2.798   1.581   4.134 -0.4425 -0.0600  0.3046
 7458SOL    HW133833   2.833   1.664   4.166  0.3338 -0.0250 -0.6476
 7458SOL    HW233834   2.880   1.534   4.117 -1.0290 -0.7966 -0.4687
 7459SOL     OW33835   3.380   2.267   3.102  0.2920 -0.1347 -0.1933
 7459SOL    HW133836   3.345   2.187   3.139  1.4220 -1.0844 -1.1784
 7459SOL    HW233837   3.450   2.225   3.053  0.1679 -0.6650  0.0944
 7460SOL     OW33838   1.675   2.322   8.680  0.2143 -0.7187 -0.1475
 7460SOL    HW133839   1.598   2.379   8.685 -0.3004 -1.6805  3.0095
 7460SOL    HW233840   1.627   2.240   8.669 -2.6932  0.6929  1.9591
 7461SOL     OW33841   0.988   1.803   2.589  0.1870 -0.2451 -0.3250
 7461SOL    HW133842   0.988   1.896   2.614  1.2546 -0.3954  0.2551
 7461SOL    HW233843   0.985   1.817   2.495 -1.6589 -1.1462 -0.3831
 7462SOL     OW33844   1.654   3.761   6.784  0.8716 -0.1282 -0.9204
 7462SOL    HW133845   1.616   3.688   6.834  0.7305  1.6895  1.5497
 7462SOL    HW233846   1.577   3.807   6.751 -1.4100 -3.2019  0.0691
 7463SOL     OW33847   3.671   1.743   0.550  0.1150  0.3065 -0.1758
 7463SOL    HW133848   3.662   1.802   0.625 -4.1199 -2.7693  1.7712
 7463SOL    HW233849   3.701   1.805   0.484  2.2476 -0.1121  0.4024
 7464SOL     OW33850   1.118   0.775   7.686  0.5938  0.8946 -0.4255
 7464SOL    HW133851   1.207   0.777   7.722  0.7690  0.6335 -0.8511
 7464SOL    HW233852   1.103   0.681   7.678  0.1357  0.8997  0.4314
 7465SOL     OW33853   2.499   1.070  13.160 -0.1694  0.5067 -0.1692
 7465SOL    HW133854   2.435   1.141  13.149 -0.3933  0.5706  1.4816
 7465SOL    HW233855   2.463   1.007  13.099  0.0858  0.6901 -0.5084
 7466SOL     OW33856   1.481   2.969   1.808  0.1115 -0.1864 -0.4896
 7466SOL    HW133857   1.393   2.988   1.839  1.1796 -0.5127  2.7586
 7466SOL    HW233858   1.509   2.903   1.872  0.4932  0.4231 -0.0263
 7467SOL     OW33859   0.491   0.101   3.085 -0.1173  0.0601 -0.2263
 7467SOL    HW133860   0.490   0.193   3.113  0.1871 -0.1178  0.3657
 7467SOL    HW233861   0.413   0.072   3.132  1.3387 -3.2089  0.1718
 7468SOL     OW33862   3.259   3.341   7.448  0.1860 -0.4472 -0.4081
 7468SOL    HW133863   3.232   3.287   7.374 -0.0186 -0.7360 -0.1227
 7468SOL    HW233864   3.353   3.324   7.454  0.6809  3.1576  2.3727
 7469SOL     OW33865   2.025   4.161   6.031  0.2218  0.7087 -0.2486
 7469SOL    HW133866   2.034   4.253   6.056  0.9506  0.2631  1.1021
 7469SOL    HW233867   1.956   4.167   5.965  1.9446  3.5639 -1.7698
 7470SOL     OW33868   1.589   3.135   7.923  0.0968  0.4743  0.6353
 7470SOL    HW133869   1.645   3.170   7.992  0.4724  0.1978  0.4706
 7470SOL    HW233870   1.555   3.054   7.962  1.7193 -0.4161  0.1946
 7471SOL     OW33871   2.840   4.295   7.519 -0.4079  0.0045 -0.6182
 7471SOL    HW133872   2.931   4.268   7.513 -0.8267 -1.0974 -1.9125
 7471SOL    HW233873   2.798   4.217   7.554 -0.2535 -1.5447 -3.8647
 7472SOL     OW33874   4.231   3.605   6.009  0.2455  0.8133 -0.2802
 7472SOL    HW133875   4.272   3.687   5.981  0.9267  0.9137  0.9946
 7472SOL    HW233876   4.261   3.591   6.099 -0.3942 -0.7070 -0.3165
 7473SOL     OW33877   1.104   3.329   3.747  0.1515 -0.1151  0.0230
 7473SOL    HW133878   1.174   3.264   3.746 -1.8279 -2.3037  1.9890
 7473SOL    HW233879   1.030   3.275   3.718  0.2685  0.6112 -1.6464
 7474SOL     OW33880   3.437   3.716   2.010 -0.1868  0.3050 -0.1280
 7474SOL    HW133881   3.378   3.653   1.968 -0.1010  1.4394 -1.9390
 7474SOL    HW233882   3.433   3.777   1.937 -0.2591  0.5381  0.0727
 7475SOL     OW33883   3.165   0.705   2.263 -0.1323 -0.7900 -0.6489
 7475SOL    HW133884   3.249   0.691   2.220  0.5539 -3.0042  1.4183
 7475SOL    HW233885   3.133   0.787   2.225 -1.9691 -0.5970  1.2898
 7476SOL     OW33886   0.249   0.753   6.337  0.4180  1.0219  0.3122
 7476SOL    HW133887   0.242   0.707   6.254  0.7415 -0.3615  1.0395
 7476SOL    HW233888   0.168   0.722   6.378  1.1725 -0.8016  0.4144
 7477SOL     OW33889   0.507   4.030   8.037  0.0845  0.1419  0.5024
 7477SOL    HW133890   0.523   3.950   8.087 -1.5676 -1.1043 -0.9595
 7477SOL    HW233891   0.418   4.052   8.063  0.5530  2.6558 -0.0348
 7478SOL     OW33892   2.353   0.192   1.621  0.4907 -0.0954 -0.0247
 7478SOL    HW133893   2.344   0.266   1.680  0.7780 -1.4626  1.7288
 7478SOL    HW233894   2.412   0.232   1.556 -0.3716  0.5720 -0.3973
 7479SOL     OW33895   0.497   1.708   6.508 -0.1933 -0.6252  0.1546
 7479SOL    HW133896   0.505   1.804   6.512 -3.0945 -0.3497 -1.1443
 7479SOL    HW233897   0.521   1.682   6.597  1.4930 -2.0651 -0.7288
 7480SOL     OW33898   2.912   2.055   8.558  0.0313 -0.1482 -0.0087
 7480SOL    HW133899   2.871   2.025   8.639 -1.0137  1.7195  0.1650
 7480SOL    HW233900   2.999   2.015   8.564 -0.4468 -0.8735  2.1259
 7481SOL     OW33901   3.334   1.615   8.186 -0.5244 -0.0207  0.2071
 7481SOL    HW133902   3.350   1.667   8.107  0.0989  0.1998  0.4831
 7481SOL    HW233903   3.364   1.529   8.158  1.9191  0.8082  0.2791
 7482SOL     OW33904   4.665   4.020   3.065 -0.3082 -0.3873  0.5859
 7482SOL    HW133905   4.622   3.945   3.024 -0.2931 -1.1130  1.9106
 7482SOL    HW233906   0.014   3.984   3.115 -0.8495 -0.1110  1.5845
 7483SOL     OW33907   1.590   4.152   5.079 -0.0551 -0.2639 -0.1481
 7483SOL    HW133908   1.548   4.156   4.993  0.3492 -0.1570 -0.3449
 7483SOL    HW233909   1.510   4.151   5.130 -0.3460  1.0930 -0.5754
 7484SOL     OW33910   4.555   2.413   2.186  0.0736 -0.0480  0.2431
 7484SOL    HW133911   4.555   2.339   2.247 -1.8168 -1.6921 -1.7221
 7484SOL    HW233912   4.526   2.372   2.105  0.4418  0.1987 -0.0093
 7485SOL     OW33913   3.174   4.332   4.825 -0.4736  0.6733  0.6996
 7485SOL    HW133914   3.244   4.386   4.789  0.7570 -1.5536 -0.2934
 7485SOL    HW233915   3.177   4.256   4.766  1.3277 -0.0801  1.7463
 7486SOL     OW33916   1.530   2.883   8.452 -0.0285 -0.7286  0.2134
 7486SOL    HW133917   1.585   2.945   8.406  0.0992  0.4337  1.9364
 7486SOL    HW233918   1.497   2.934   8.526  0.1820 -0.2931  0.0013
 7487SOL     OW33919   2.011   4.176   6.517 -0.1875  0.0333  0.2491
 7487SOL    HW133920   1.973   4.256   6.554  1.0575  0.6096  0.2497
 7487SOL    HW233921   2.095   4.204   6.481  0.4029 -2.3387 -0.1793
 7488SOL     OW33922   1.700   2.889  12.380  0.3822 -0.1291  0.1143
 7488SOL    HW133923   1.644   2.832  12.329 -0.6656 -1.2626  2.5343
 7488SOL    HW233924   1.644   2.967  12.384  1.1052  0.3510  0.9977
 7489SOL     OW33925   2.233   1.710   7.374  0.2714 -0.4785  0.4065
 7489SOL    HW133926   2.218   1.742   7.285  0.7206  0.7939  0.7951
 7489SOL    HW233927   2.155   1.656   7.388 -0.5820  0.0341 -2.2898
 7490SOL     OW33928   2.519   1.609   3.635  0.2741 -0.1351  0.1769
 7490SOL    HW133929   2.547   1.579   3.722 -2.1146 -0.4186  0.8500
 7490SOL    HW233930   2.488   1.523   3.607  1.3513  0.6612 -3.4441
 7491SOL     OW33931   4.357   3.094  13.679 -0.2625  0.0834  0.1916
 7491SOL    HW133932   4.391   3.017  13.724  1.1042  0.1950 -0.6719
 7491SOL    HW233933   4.282   3.049  13.638 -0.0184 -0.1661  0.0167
 7492SOL     OW33934   3.350   4.395  10.042 -0.4904  0.0970 -0.7414
 7492SOL    HW133935   3.255   4.382  10.050 -0.3766 -0.8358 -1.0003
 7492SOL    HW233936   3.376   4.303  10.034 -0.1134  0.2061 -0.7515
 7493SOL     OW33937   3.185   4.558   4.105 -0.0616 -0.0204  0.3548
 7493SOL    HW133938   3.149   4.477   4.143  0.5092  0.2050  1.3865
 7493SOL    HW233939   3.117   4.621   4.131 -0.8168 -1.3970  1.7075
 7494SOL     OW33940   0.122   3.097   1.987 -0.2337  0.5289  0.2281
 7494SOL    HW133941   0.069   3.171   1.957 -2.6177 -1.7091 -1.0333
 7494SOL    HW233942   0.085   3.016   1.953 -1.4470  0.2607  2.1678
 7495SOL     OW33943   0.794   0.828   3.618  0.0048  0.6060  0.0166
 7495SOL    HW133944   0.768   0.873   3.538 -0.3666  1.8753  0.8551
 7495SOL    HW233945   0.808   0.897   3.682  0.9734  0.6778 -0.2694
 7496SOL     OW33946   0.237   1.243   6.046  0.1834 -0.2718  0.0741
 7496SOL    HW133947   0.302   1.212   6.109  1.7855  3.0512  0.0570
 7496SOL    HW233948   0.288   1.311   6.002 -0.4095  1.1528  1.6143
 7497SOL     OW33949   3.670   4.353   4.234  0.2366  0.0494 -0.3159
 7497SOL    HW133950   3.623   4.410   4.294 -1.4215  0.7421 -2.2638
 7497SOL    HW233951   3.649   4.412   4.161 -1.1464 -0.0376  0.0092
 7498SOL     OW33952   0.903   2.180   7.271  0.3069  0.3996  0.0666
 7498SOL    HW133953   0.865   2.204   7.355 -0.4182 -0.6691  0.0502
 7498SOL    HW233954   0.935   2.094   7.299 -0.9763 -0.3717 -0.7863
 7499SOL     OW33955   2.423   2.999   6.457 -0.9763  0.9163 -0.1029
 7499SOL    HW133956   2.352   3.062   6.460 -1.1191  0.7199  0.5719
 7499SOL    HW233957   2.404   2.960   6.371  0.0864 -0.5925  0.3316
 7500SOL     OW33958   3.086   3.544  13.891 -0.0979 -0.4463 -0.5449
 7500SOL    HW133959   3.076   3.634  13.921  1.5523 -0.4493  0.0262
 7500SOL    HW233960   3.180   3.545  13.875  0.0591  0.9778  0.4992
 7501SOL     OW33961   1.822   4.466   6.403 -0.0674  0.5635 -0.0282
 7501SOL    HW133962   1.851   4.557   6.399 -1.0658  0.9860  2.3409
 7501SOL    HW233963   1.860   4.432   6.483 -0.6965  2.7872  1.2316
 7502SOL     OW33964   0.744   1.259  12.191 -0.1918  0.2037  1.0275
 7502SOL    HW133965   0.738   1.168  12.218 -1.0919  0.3406  1.2897
 7502SOL    HW233966   0.832   1.260  12.152  0.3715  0.9987  2.3220
 7503SOL     OW33967   3.446   0.574   5.188  0.3221  0.0067 -0.2948
 7503SOL    HW133968   3.477   0.624   5.113  1.0312 -1.2980 -0.8722
 7503SOL    HW233969   3.478   0.485   5.170 -2.1542 -1.0866  0.6601
 7504SOL     OW33970   2.170   0.197   3.832  0.1925  0.3225 -0.3461
 7504SOL    HW133971   2.194   0.124   3.775 -0.5857  0.8025 -1.3011
 7504SOL    HW233972   2.192   0.272   3.777 -2.5819  1.6472  0.3218
 7505SOL     OW33973   2.317   0.179  12.031  0.8991 -0.1223 -0.1985
 7505SOL    HW133974   2.342   0.117  11.962  2.1459 -1.2650  1.2706
 7505SOL    HW233975   2.241   0.222  11.991  2.4392  0.4893 -2.4736
 7506SOL     OW33976   3.092   0.007   5.449  0.1135 -0.1145 -0.0264
 7506SOL    HW133977   3.089   4.643   5.413 -1.6632  0.3610 -1.0390
 7506SOL    HW233978   3.073   4.712   5.541  2.3927 -0.3622  0.4132
 7507SOL     OW33979   1.431   1.582   2.813 -0.2840 -0.2228 -0.0516
 7507SOL    HW133980   1.348   1.630   2.812  0.6602  1.4140 -2.1045
 7507SOL    HW233981   1.446   1.594   2.907  0.0859 -1.0781 -0.0048
 7508SOL     OW33982   2.710   1.239   3.131 -0.1917 -0.5904 -0.7759
 7508SOL    HW133983   2.621   1.264   3.106 -0.6564 -2.8770 -1.3736
 7508SOL    HW233984   2.766   1.277   3.063  1.4269 -0.2681  0.7540
 7509SOL     OW33985   2.687   1.067   1.258 -0.8023  0.4701  0.0963
 7509SOL    HW133986   2.774   1.094   1.229 -0.4373  1.1015  1.8032
 7509SOL    HW233987   2.632   1.109   1.192  0.1368  1.7120  0.0931
 7510SOL     OW33988   4.152   1.929  11.127  0.0611 -0.2356  0.3354
 7510SOL    HW133989   4.166   1.942  11.220  1.0757  0.2526  0.1178
 7510SOL    HW233990   4.096   2.004  11.104  2.7922  2.5741  2.9130
 7511SOL     OW33991   2.836   2.625  16.586  0.0965  0.7140  0.0797
 7511SOL    HW133992   2.904   2.660  16.645 -2.4131  3.2443  1.5080
 7511SOL    HW233993   2.770   2.691  16.607 -0.5742 -0.4774  1.6799
 7512SOL     OW33994   3.875   3.454   8.785 -0.1438 -0.1445 -0.3676
 7512SOL    HW133995   3.794   3.506   8.785 -0.4091 -0.5556 -0.2325
 7512SOL    HW233996   3.940   3.522   8.803 -0.7420 -0.1170  1.7779
 7513SOL     OW33997   0.766   4.378   9.202 -0.1492 -0.7083 -0.0881
 7513SOL    HW133998   0.854   4.343   9.189  0.2709  0.8137 -1.3608
 7513SOL    HW233999   0.730   4.339   9.281 -0.4608 -2.4547 -1.1029
 7514SOL     OW34000   0.186   1.070   8.842 -0.0749 -0.2425  0.7203
 7514SOL    HW134001   0.217   1.157   8.869  1.7435 -0.0656 -1.9153
 7514SOL    HW234002   0.260   1.035   8.793 -0.4400  0.7781 -0.5548
 7515SOL     OW34003   4.620   2.754   8.153  0.0466 -0.4897 -0.3623
 7515SOL    HW134004   4.582   2.793   8.232  1.0147  0.9799 -0.6176
 7515SOL    HW234005   4.670   2.827   8.117 -1.1256 -0.3307 -1.6698
 7516SOL     OW34006   3.497   2.467  16.312 -0.0218  0.5553  0.0450
 7516SOL    HW134007   3.410   2.494  16.281 -0.2936 -1.6797 -1.1727
 7516SOL    HW234008   3.495   2.377  16.281 -2.5264  0.9296 -0.9366
 7517SOL     OW34009   2.374   1.740  11.553  0.6800 -0.2186  0.5128
 7517SOL    HW134010   2.438   1.682  11.511  1.0762  0.1183  0.6415
 7517SOL    HW234011   2.428   1.762  11.629 -1.1799  1.5290  1.3174
 7518SOL     OW34012   2.127   1.202  16.192 -0.2302  0.2379  0.1603
 7518SOL    HW134013   2.066   1.261  16.147 -2.7607 -1.5403  1.2161
 7518SOL    HW234014   2.201   1.210  16.132  1.2047 -1.7833  1.6749
 7519SOL     OW34015   4.078   2.353   8.757  0.1179 -0.4434 -0.0833
 7519SOL    HW134016   4.072   2.259   8.772  0.8716 -0.5223 -0.2484
 7519SOL    HW234017   4.075   2.395   8.844  2.1537  0.6531 -0.5342
 7520SOL     OW34018   3.553   2.737   8.117  0.4777 -0.0821 -0.2547
 7520SOL    HW134019   3.481   2.703   8.063 -0.0844  1.8550 -0.6967
 7520SOL    HW234020   3.633   2.738   8.066 -0.0473 -0.3648 -1.0880
 7521SOL     OW34021   1.888   0.169   4.819 -0.1780 -0.0424  0.3600
 7521SOL    HW134022   1.820   0.108   4.848  2.1291 -2.9796 -0.3696
 7521SOL    HW234023   1.852   0.249   4.858 -1.4369 -0.0349 -0.8303
 7522SOL     OW34024   0.522   0.873  16.121 -0.4281 -0.7211  0.2557
 7522SOL    HW134025   0.611   0.906  16.112 -0.9903  1.4283  2.6545
 7522SOL    HW234026   0.481   0.925  16.190 -0.8261 -1.6167  0.6958
 7523SOL     OW34027   4.487   3.044   2.003  0.3824  0.5445 -0.5823
 7523SOL    HW134028   4.498   3.135   2.031  0.3202 -0.1587  1.7287
 7523SOL    HW234029   4.483   3.000   2.088  1.3939 -0.0750 -0.8588
 7524SOL     OW34030   4.609   1.419  10.931 -0.0857 -0.2515 -0.0069
 7524SOL    HW134031   4.525   1.441  10.891 -0.9660  0.3782  2.1995
 7524SOL    HW234032   4.577   1.388  11.016 -0.3982  1.4345  0.4888
 7525SOL     OW34033   2.863   0.936   3.413  0.6242  0.0116  0.0303
 7525SOL    HW134034   2.810   0.871   3.367 -0.2577  1.0145 -0.3700
 7525SOL    HW234035   2.881   0.877   3.486 -3.2692 -0.9137  0.2696
 7526SOL     OW34036   3.776   3.125   3.154  0.2349  0.4213  0.1863
 7526SOL    HW134037   3.793   3.060   3.223  0.6906 -0.3226 -0.6355
 7526SOL    HW234038   3.863   3.153   3.125 -0.3907  0.3701 -1.6834
 7527SOL     OW34039   0.011   1.824   5.169 -0.4913 -0.0536 -0.0465
 7527SOL    HW134040   0.098   1.863   5.161 -0.6444  0.4580  0.7837
 7527SOL    HW234041   4.704   1.863   5.250 -1.8688 -0.1894 -0.5028
 7528SOL     OW34042   0.809   2.048   1.430  0.6854  0.3084 -0.3286
 7528SOL    HW134043   0.878   2.091   1.481 -0.9615  1.1787  1.1672
 7528SOL    HW234044   0.733   2.102   1.452  1.3944  0.9547  0.5344
 7529SOL     OW34045   1.915   3.830   2.911  0.4340 -0.0351 -0.1038
 7529SOL    HW134046   1.951   3.890   2.976 -2.4694  0.8789  0.6658
 7529SOL    HW234047   1.992   3.820   2.854 -0.1055 -1.7801 -0.5511
 7530SOL     OW34048   2.832   1.968   5.203  0.1533 -0.1375  0.1798
 7530SOL    HW134049   2.747   2.012   5.202  0.9226  1.3641  0.3592
 7530SOL    HW234050   2.888   2.045   5.211 -1.9031  1.3168  0.7014
 7531SOL     OW34051   1.075   3.264   2.593  0.3410  0.0259  0.5529
 7531SOL    HW134052   1.040   3.343   2.552  1.4666  0.2905  0.1080
 7531SOL    HW234053   1.170   3.275   2.589  0.2255  0.9969  0.3662
 7532SOL     OW34054   0.238   0.166  17.367  0.3646 -0.1009  0.1414
 7532SOL    HW134055   0.319   0.136  17.326  0.0235  0.5936 -1.0256
 7532SOL    HW234056   0.270   0.207  17.447  2.4461 -0.7886 -0.3452
 7533SOL     OW34057   0.781   3.772   1.247 -0.2914  0.0534 -0.0338
 7533SOL    HW134058   0.709   3.782   1.308 -0.5504 -1.1595 -0.1461
 7533SOL    HW234059   0.740   3.793   1.163 -1.4237 -0.6442  0.3508
 7534SOL     OW34060   0.006   0.636   2.285  0.1840 -0.3243  0.0921
 7534SOL    HW134061   0.001   0.682   2.369  2.4050  0.7066 -0.3539
 7534SOL    HW234062   0.077   0.686   2.245  2.2497 -1.7899  1.9174
 7535SOL     OW34063   0.561   0.908  14.081  0.2270  0.4809 -0.0748
 7535SOL    HW134064   0.474   0.885  14.115  0.0887  0.4333 -0.4683
 7535SOL    HW234065   0.614   0.838  14.119 -0.6091  1.0778  2.2351
 7536SOL     OW34066   4.233   3.660   8.040  0.2767 -0.0345  0.3892
 7536SOL    HW134067   4.259   3.686   7.952 -1.6500  0.4615 -0.0334
 7536SOL    HW234068   4.197   3.747   8.060 -1.5959 -0.5043 -0.9151
 7537SOL     OW34069   0.332   2.497   1.625  0.6052  0.4059  0.0521
 7537SOL    HW134070   0.367   2.514   1.537 -2.5127  0.8457 -1.1151
 7537SOL    HW234071   0.313   2.587   1.652  1.2115  0.5832 -0.1257
 7538SOL     OW34072   1.319   0.265   1.728 -0.2163 -0.1606  0.1040
 7538SOL    HW134073   1.363   0.187   1.695  0.6640  0.3818  0.0034
 7538SOL    HW234074   1.349   0.312   1.651  1.3091 -2.1915 -0.5449
 7539SOL     OW34075   0.574   1.166   2.657  0.1388 -0.3906 -0.2314
 7539SOL    HW134076   0.524   1.103   2.605  1.2730 -2.6367  1.3696
 7539SOL    HW234077   0.655   1.116   2.669  0.6519  0.7012  0.8470
 7540SOL     OW34078   0.930   1.148   7.643  0.3038 -0.1724  0.2767
 7540SOL    HW134079   1.014   1.184   7.670 -1.1599  3.0821  0.5949
 7540SOL    HW234080   0.901   1.103   7.723 -2.4352 -1.5645 -1.4664
 7541SOL     OW34081   2.160   2.215   4.778 -0.6271  0.4055  0.0858
 7541SOL    HW134082   2.157   2.308   4.803 -0.7745  0.1710  0.9672
 7541SOL    HW234083   2.070   2.187   4.762 -1.4443  3.3496 -0.4268
 7542SOL     OW34084   1.902   1.263   4.801 -0.0177  0.0311 -0.2775
 7542SOL    HW134085   1.961   1.197   4.764  2.0355  1.5227  0.3569
 7542SOL    HW234086   1.907   1.237   4.893  1.3813 -0.7704 -0.5618
 7543SOL     OW34087   1.473   2.076   7.495  0.0353 -0.0456 -0.0312
 7543SOL    HW134088   1.560   2.106   7.523  0.6264  0.8337 -2.8138
 7543SOL    HW234089   1.429   2.107   7.574  1.7489 -0.7156  1.2072
 7544SOL     OW34090   1.111   1.923   5.282  0.1603  0.4553 -0.1293
 7544SOL    HW134091   1.105   1.957   5.372 -1.3747 -0.6196  0.1798
 7544SOL    HW234092   1.174   1.855   5.305 -0.3728 -0.7425 -2.2152
 7545SOL     OW34093   1.210   1.300   6.684 -0.1692  0.7876  0.5957
 7545SOL    HW134094   1.148   1.237   6.646  2.1657  0.1830 -2.1409
 7545SOL    HW234095   1.151   1.330   6.754  0.2081 -0.0218  1.2658
 7546SOL     OW34096   3.073   3.671   0.910 -0.4288 -0.1093 -0.4727
 7546SOL    HW134097   3.155   3.628   0.934  0.1815  1.4497  0.2709
 7546SOL    HW234098   3.043   3.606   0.847 -0.8328 -1.5913  1.2431
 7547SOL     OW34099   4.430   0.163  12.336 -0.0478  0.0557  0.0178
 7547SOL    HW134100   4.420   0.256  12.357  1.6566  0.6592 -1.8496
 7547SOL    HW234101   4.353   0.150  12.280  0.7732 -1.0478 -0.8538
 7548SOL     OW34102   4.361   0.928   3.020  0.2112 -0.1990  0.1532
 7548SOL    HW134103   4.395   0.893   2.938  0.7351 -1.3112  0.8440
 7548SOL    HW234104   4.412   1.009   3.017 -0.0006 -0.0636  0.2010
 7549SOL     OW34105   0.982   0.976  10.071  0.4723 -0.5033  0.7094
 7549SOL    HW134106   0.919   0.945  10.136  0.8297 -0.0664  1.2626
 7549SOL    HW234107   1.016   1.053  10.117  0.3168 -0.1380  0.2210
 7550SOL     OW34108   4.250   0.199   7.602 -0.6265 -0.2467 -0.9103
 7550SOL    HW134109   4.279   0.189   7.692 -1.8076 -0.7357 -0.5738
 7550SOL    HW234110   4.275   0.109   7.584 -0.2683 -1.0481  3.6344
 7551SOL     OW34111   1.906   3.113   4.403 -0.6058 -0.0537  0.2052
 7551SOL    HW134112   1.939   3.069   4.481 -2.4049 -1.5409  0.1342
 7551SOL    HW234113   1.851   3.042   4.371 -1.2348  0.5139  0.0225
 7552SOL     OW34114   2.683   4.158   2.377 -0.0472  0.0078 -0.1779
 7552SOL    HW134115   2.731   4.075   2.383 -0.4441 -0.1588  0.6252
 7552SOL    HW234116   2.688   4.172   2.282 -2.5643 -0.8299 -0.4335
 7553SOL     OW34117   1.950   1.570   5.738 -0.2495  0.0650 -0.7054
 7553SOL    HW134118   2.001   1.589   5.817  0.1299  2.3943 -1.5092
 7553SOL    HW234119   1.958   1.476   5.754 -1.7860 -0.3122 -2.1324
 7554SOL     OW34120   4.108   4.172   2.752  0.1668  0.9026  0.3734
 7554SOL    HW134121   4.103   4.077   2.768 -1.6325  1.3025  2.0740
 7554SOL    HW234122   4.203   4.185   2.755 -0.0056  2.6321 -1.7210
 7555SOL     OW34123   3.217   1.235   0.998  0.3913 -0.1861 -0.2017
 7555SOL    HW134124   3.194   1.286   1.075  0.1706  0.5641 -0.7721
 7555SOL    HW234125   3.195   1.145   1.025 -1.1675 -0.0276 -0.9635
 7556SOL     OW34126   3.960   4.492  13.901  0.0947  0.4950  0.1674
 7556SOL    HW134127   4.030   4.470  13.841 -0.3264 -0.0756 -0.1209
 7556SOL    HW234128   3.883   4.504  13.846 -0.7033  1.7525  1.5393
 7557SOL     OW34129   1.939   1.755  16.573  0.1844 -0.4027  0.6690
 7557SOL    HW134130   2.009   1.694  16.596  0.5415 -0.5120 -0.6747
 7557SOL    HW234131   1.920   1.796  16.657  2.6398  1.8976  0.1320
 7558SOL     OW34132   0.886   3.391   9.915 -0.1183  0.0263  0.2734
 7558SOL    HW134133   0.812   3.449   9.929 -0.6685 -0.5867 -0.0682
 7558SOL    HW234134   0.911   3.418   9.826  0.0113  0.7066  0.5217
 7559SOL     OW34135   2.766   1.658   3.099  0.1696 -0.1068  0.3780
 7559SOL    HW134136   2.853   1.618   3.103 -0.4167 -1.2450  1.7721
 7559SOL    HW234137   2.718   1.610   3.031 -0.7403 -0.2458  1.1166
 7560SOL     OW34138   2.989   4.071   6.318 -0.4411  0.2306  0.1753
 7560SOL    HW134139   3.024   4.002   6.262  1.2990 -0.7492  2.4528
 7560SOL    HW234140   2.896   4.072   6.298 -0.4026 -0.6745 -0.0212
 7561SOL     OW34141   1.713   1.480   4.700  0.1965 -0.2256 -0.2004
 7561SOL    HW134142   1.739   1.484   4.792  2.0073  1.3088 -0.7853
 7561SOL    HW234143   1.795   1.458   4.656  0.2908 -1.1615  0.4529
 7562SOL     OW34144   3.935   3.137   9.272  0.1188  0.0392  0.1007
 7562SOL    HW134145   3.895   3.129   9.359 -0.8942  2.4164 -0.1530
 7562SOL    HW234146   3.936   3.232   9.260  0.6354  0.0051 -0.1010
 7563SOL     OW34147   3.676   1.304   2.159 -0.0071 -0.2381  0.4202
 7563SOL    HW134148   3.682   1.290   2.065 -0.5662 -2.5382  0.7421
 7563SOL    HW234149   3.627   1.387   2.158  0.5363  0.0662 -1.1804
 7564SOL     OW34150   2.728   1.323  13.778 -0.1689  0.8887  0.1893
 7564SOL    HW134151   2.639   1.348  13.801 -0.6039  0.6267 -1.1905
 7564SOL    HW234152   2.762   1.368  13.855  0.2532  0.6249  0.1564
 7565SOL     OW34153   2.609   2.038   8.018  0.2577 -0.0323 -0.0252
 7565SOL    HW134154   2.560   2.042   8.100 -1.6353 -2.1678 -1.0775
 7565SOL    HW234155   2.627   1.944   8.014 -1.5428 -0.3066 -1.3052
 7566SOL     OW34156   2.477   2.461  10.330 -0.0622  0.4270  0.4486
 7566SOL    HW134157   2.509   2.548  10.350 -0.9106  0.3519  2.0702
 7566SOL    HW234158   2.487   2.434  10.421  1.4695  0.6648  0.3483
 7567SOL     OW34159   2.265   1.060   3.201 -0.8215 -0.2445  0.2639
 7567SOL    HW134160   2.219   1.061   3.117 -0.5380 -0.3086  0.1057
 7567SOL    HW234161   2.208   1.114   3.256 -1.2817 -1.4370  0.9603
 7568SOL     OW34162   1.610   0.382   8.334  0.2914  0.1267  0.1081
 7568SOL    HW134163   1.695   0.423   8.350  1.7683 -2.9030 -0.0451
 7568SOL    HW234164   1.595   0.339   8.418 -0.8581 -0.4380 -0.3882
 7569SOL     OW34165   1.520   3.228  13.948  0.4112  0.2550 -0.6189
 7569SOL    HW134166   1.615   3.237  13.940  0.5140  0.5669  0.8904
 7569SOL    HW234167   1.509   3.146  13.995 -1.5134 -0.2986 -2.0530
 7570SOL     OW34168   3.237   1.013   7.528 -0.3265 -0.5763  0.6578
 7570SOL    HW134169   3.174   1.085   7.520  1.3540  0.8592  0.3785
 7570SOL    HW234170   3.280   1.010   7.442  1.9281 -1.8619  1.8363
 7571SOL     OW34171   3.168   3.183   3.822 -0.2056 -0.5960  0.1512
 7571SOL    HW134172   3.088   3.187   3.874 -0.9583  0.4217 -1.0807
 7571SOL    HW234173   3.206   3.096   3.834  1.9296  0.3235  0.0515
 7572SOL     OW34174   2.596   1.035  14.284  0.0320 -0.0038 -0.2891
 7572SOL    HW134175   2.639   0.974  14.345  0.0639  1.1012  0.7947
 7572SOL    HW234176   2.505   1.011  14.300 -0.5140  1.1507 -1.6974
 7573SOL     OW34177   1.768   4.572  15.644  0.3943 -0.7928 -0.0522
 7573SOL    HW134178   1.703   4.503  15.659 -1.0695  0.5425 -0.1755
 7573SOL    HW234179   1.836   4.515  15.608 -0.9446 -1.0404 -2.2036
 7574SOL     OW34180   2.940   3.726   3.055 -0.2850  0.0604 -0.1651
 7574SOL    HW134181   2.866   3.684   3.011  1.4006 -2.0818 -0.9494
 7574SOL    HW234182   2.908   3.735   3.145  0.0274 -0.5002  0.0007
 7575SOL     OW34183   2.289   3.488   5.248 -0.0867 -0.2406  0.2123
 7575SOL    HW134184   2.233   3.565   5.241 -0.4034 -0.5649 -0.9228
 7575SOL    HW234185   2.286   3.480   5.343 -0.1747 -0.7673  0.1679
 7576SOL     OW34186   0.936   2.417   2.834  0.0783  0.1822 -0.3266
 7576SOL    HW134187   0.900   2.505   2.819 -2.2116 -0.5662  0.7551
 7576SOL    HW234188   0.892   2.370   2.763  0.3984  0.7039 -0.8754
 7577SOL     OW34189   4.412   4.571   2.641  0.0037 -0.2505  0.2865
 7577SOL    HW134190   4.497   4.574   2.686  0.1897 -2.4029  0.0951
 7577SOL    HW234191   4.441   4.522   2.564 -0.0461  0.1610  0.0065
 7578SOL     OW34192   0.629   2.213   9.734 -0.0671  0.0935  0.2802
 7578SOL    HW134193   0.683   2.143   9.698 -2.3396 -1.1923 -0.6520
 7578SOL    HW234194   0.657   2.197   9.824  0.4938 -0.8166 -0.0577
 7579SOL     OW34195   3.621   4.200  17.121 -0.0386 -0.0254 -0.2462
 7579SOL    HW134196   3.694   4.230  17.175  1.1305  1.2632 -2.5419
 7579SOL    HW234197   3.559   4.270  17.140 -0.6120 -0.4272 -0.6390
 7580SOL     OW34198   2.240   4.664   6.844  0.2658 -0.0635  0.1606
 7580SOL    HW134199   2.236   4.612   6.764 -1.4816  0.9140 -0.3963
 7580SOL    HW234200   2.252   0.028   6.809  3.0559 -0.5154 -0.0570
 7581SOL     OW34201   3.260   3.380   9.309  0.7160  0.3027 -0.4981
 7581SOL    HW134202   3.330   3.375   9.374  0.2239 -0.3305 -0.0128
 7581SOL    HW234203   3.295   3.448   9.252 -1.9960  1.3982 -0.8454
 7582SOL     OW34204   0.222   0.900   2.485 -0.0331  0.3277  0.0926
 7582SOL    HW134205   0.172   0.964   2.434 -0.6235 -0.2520 -0.0618
 7582SOL    HW234206   0.149   0.845   2.514 -0.6858 -0.5024 -3.1457
 7583SOL     OW34207   2.527   4.027   5.386  0.3076 -0.5651 -0.3944
 7583SOL    HW134208   2.613   4.070   5.392 -0.7744  1.5484 -0.2460
 7583SOL    HW234209   2.489   4.066   5.308  0.1799  0.8057  0.3665
 7584SOL     OW34210   3.154   1.390   0.544  0.2980 -0.1894  0.1004
 7584SOL    HW134211   3.116   1.326   0.605  0.9842 -1.0813 -0.4151
 7584SOL    HW234212   3.246   1.368   0.558  0.3824  0.4176  0.5175
 7585SOL     OW34213   4.120   4.062   5.171  0.0378 -0.2360 -0.2616
 7585SOL    HW134214   4.052   4.023   5.226 -1.0591  0.0236 -1.4349
 7585SOL    HW234215   4.122   4.150   5.208  0.1254 -0.2278 -0.2881
 7586SOL     OW34216   4.297   0.896  15.766  0.0397  0.2291 -0.0671
 7586SOL    HW134217   4.286   0.811  15.723  0.7226 -0.6012  1.3753
 7586SOL    HW234218   4.227   0.910  15.830 -1.5735  0.0571 -1.8179
 7587SOL     OW34219   1.003   0.272   8.378  0.5334 -0.4402 -0.0140
 7587SOL    HW134220   1.013   0.320   8.296  2.3901  0.3825  0.6755
 7587SOL    HW234221   1.092   0.296   8.405  0.9646  0.0434 -1.8655
 7588SOL     OW34222   1.296   0.729  17.163 -0.0819  0.6235 -0.1370
 7588SOL    HW134223   1.349   0.731  17.243  0.8979 -0.1721 -0.7753
 7588SOL    HW234224   1.215   0.745  17.211 -0.1639  1.1737 -0.4496
 7589SOL     OW34225   3.331   1.806   6.077  0.0518  0.9346 -0.2131
 7589SOL    HW134226   3.310   1.723   6.119 -1.4503  2.8555  2.8368
 7589SOL    HW234227   3.366   1.856   6.151  0.9041 -1.9223  1.2982
 7590SOL     OW34228   2.210   0.894   5.812  0.2558 -0.1459  0.5123
 7590SOL    HW134229   2.222   0.979   5.855 -0.9715 -0.5961  1.7431
 7590SOL    HW234230   2.304   0.882   5.795  0.2672  0.6509  0.0343
 7591SOL     OW34231   4.691   0.089   6.994  0.0843  0.5603 -0.0162
 7591SOL    HW134232   4.679   0.164   7.052 -2.7879 -0.1795  0.3366
 7591SOL    HW234233   4.657   0.115   6.909 -0.3827 -0.3109 -0.1044
 7592SOL     OW34234   2.125   1.970   3.165  0.2881 -0.7076 -0.1758
 7592SOL    HW134235   2.162   2.041   3.114 -1.9727 -0.7234 -1.8731
 7592SOL    HW234236   2.171   1.979   3.248 -2.0783 -0.2313  1.0968
 7593SOL     OW34237   3.526   4.669   3.047 -0.2836  0.1293  0.3394
 7593SOL    HW134238   3.544   0.013   2.982 -0.0416 -0.7478 -0.4898
 7593SOL    HW234239   3.552   4.719   3.125 -1.0962 -1.3672  1.5509
 7594SOL     OW34240   0.423   3.879   9.102  0.7161  0.0147 -0.4247
 7594SOL    HW134241   0.367   3.810   9.138  0.3541  1.3479  1.5846
 7594SOL    HW234242   0.505   3.839   9.071  1.7869  0.5486  1.6687
 7595SOL     OW34243   1.485   2.473   7.787  0.1675  0.1374  0.1891
 7595SOL    HW134244   1.395   2.444   7.806 -0.4179  0.6006 -1.8921
 7595SOL    HW234245   1.515   2.476   7.878 -2.5587  0.8836  1.0719
 7596SOL     OW34246   3.079   1.513   3.451  0.5059 -0.6128  0.3639
 7596SOL    HW134247   3.156   1.476   3.495 -0.2641  0.0827  2.2536
 7596SOL    HW234248   3.109   1.518   3.360 -2.2002 -1.9683 -0.6028
 7597SOL     OW34249   2.338   0.212   6.820 -0.1077  0.2360 -0.0484
 7597SOL    HW134250   2.372   0.288   6.772 -1.2477  2.1855  2.2209
 7597SOL    HW234251   2.301   0.265   6.891  1.6739 -0.2485  1.2328
 7598SOL     OW34252   2.697   0.847   6.917 -0.6399  0.5284 -0.0514
 7598SOL    HW134253   2.700   0.811   7.005 -0.9639 -2.2248 -1.1749
 7598SOL    HW234254   2.790   0.834   6.898 -1.0387 -2.8883  0.3863
 7599SOL     OW34255   3.840   1.975   9.051 -0.2440  0.1199 -0.3109
 7599SOL    HW134256   3.779   2.047   9.067 -1.2385 -0.9591  0.8171
 7599SOL    HW234257   3.917   2.018   9.015  0.5171 -0.7118  0.3263
 7600SOL     OW34258   3.815   3.070  14.701  0.2643 -0.2330 -0.1346
 7600SOL    HW134259   3.782   3.058  14.790 -2.1203  0.3641 -0.9383
 7600SOL    HW234260   3.790   2.983  14.670  0.0913 -0.7143  1.3424
 7601SOL     OW34261   4.642   3.114   6.342 -0.1060  0.1106  0.8462
 7601SOL    HW134262   4.691   3.053   6.287 -0.9847  1.4636 -1.4315
 7601SOL    HW234263   4.707   3.150   6.402  0.5646  1.4549 -0.6482
 7602SOL     OW34264   4.040   3.631   4.375  0.2391 -0.5939 -0.0461
 7602SOL    HW134265   4.132   3.652   4.358 -1.0513  2.9315 -2.5085
 7602SOL    HW234266   4.013   3.703   4.431  0.4773 -0.3026 -0.3079
 7603SOL     OW34267   3.048   2.874   7.409 -0.4346 -0.2706  0.7151
 7603SOL    HW134268   2.998   2.806   7.364 -1.4354  0.1407  1.1905
 7603SOL    HW234269   3.018   2.950   7.359 -0.2808 -1.8166 -1.7539
 7604SOL     OW34270   0.632   2.935   7.574 -0.1559  0.0777 -0.4722
 7604SOL    HW134271   0.549   2.971   7.540 -0.0870  1.1068  0.4483
 7604SOL    HW234272   0.685   3.015   7.577  1.3032 -0.8807 -1.0878
 7605SOL     OW34273   2.321   1.082   6.679 -0.1115  0.0063  0.0588
 7605SOL    HW134274   2.299   1.081   6.772  0.7602 -1.6060  0.2499
 7605SOL    HW234275   2.417   1.078   6.680 -0.1177  0.2740  1.8491
 7606SOL     OW34276   4.700   4.188   6.331 -0.5893 -0.7767  0.1709
 7606SOL    HW134277   4.683   4.099   6.361 -1.5395 -0.7861 -0.4134
 7606SOL    HW234278   0.037   4.222   6.397  1.2446 -1.4335 -1.1855
 7607SOL     OW34279   1.908   3.409  11.393 -0.0300  0.3919 -0.2803
 7607SOL    HW134280   1.905   3.314  11.380  1.2524  0.2880  0.1178
 7607SOL    HW234281   1.870   3.437  11.310 -0.5955  2.7820  0.8072
 7608SOL     OW34282   3.271   3.301   3.023  0.2645 -0.1812 -0.0471
 7608SOL    HW134283   3.330   3.287   2.949 -0.0363  1.5824 -0.6139
 7608SOL    HW234284   3.291   3.223   3.075 -1.6143 -0.0404  0.8626
 7609SOL     OW34285   1.962   2.013  17.050 -0.1963 -0.1922 -0.0424
 7609SOL    HW134286   1.929   1.995  16.962 -1.1548 -2.8018  0.8382
 7609SOL    HW234287   2.043   1.964  17.035  0.0159  0.8626 -2.3694
 7610SOL     OW34288   4.318   2.181   6.564 -0.0492  0.2759  0.5570
 7610SOL    HW134289   4.351   2.197   6.652  0.4900  2.8862 -0.1139
 7610SOL    HW234290   4.230   2.212   6.584  0.1328  2.0152 -1.2815
 7611SOL     OW34291   2.560   4.395   7.570 -0.3457  0.2788 -0.3210
 7611SOL    HW134292   2.655   4.379   7.564 -0.3170  0.8538 -1.3694
 7611SOL    HW234293   2.523   4.327   7.515  0.2244  0.3298 -0.7663
 7612SOL     OW34294   0.218   1.024   5.844  0.0535 -0.0275  0.2596
 7612SOL    HW134295   0.277   1.011   5.918 -0.5941  0.9447  0.9373
 7612SOL    HW234296   0.236   1.114   5.815 -1.9804  0.3470  0.1461
 7613SOL     OW34297   0.270   3.779   7.339 -0.1182 -0.0731 -0.3881
 7613SOL    HW134298   0.183   3.814   7.322 -0.2079 -0.0043  0.2057
 7613SOL    HW234299   0.239   3.713   7.402 -1.8084 -1.5029 -2.7349
 7614SOL     OW34300   1.775   2.425   9.811 -0.2920  0.8013 -0.2499
 7614SOL    HW134301   1.748   2.507   9.769 -1.9753  1.1166  1.4583
 7614SOL    HW234302   1.712   2.398   9.877 -0.4204  2.9170  0.4888
 7615SOL     OW34303   1.030   1.051   2.554 -0.0767  0.2404  0.5606
 7615SOL    HW134304   1.014   1.137   2.593 -0.6523  0.5281 -0.3070
 7615SOL    HW234305   1.124   1.064   2.540 -0.3858  0.4916 -1.2335
 7616SOL     OW34306   2.231   1.962   3.425 -0.7635  0.5072 -0.4184
 7616SOL    HW134307   2.266   1.905   3.494 -2.1331 -0.6850 -0.7065
 7616SOL    HW234308   2.289   2.037   3.413  1.3586 -1.1416 -0.5305
 7617SOL     OW34309   1.731   0.463   4.970  0.3608 -0.2741  0.6284
 7617SOL    HW134310   1.655   0.498   4.923  0.9076 -2.0853 -1.5987
 7617SOL    HW234311   1.679   0.390   5.004  1.0447 -0.4361  1.3169
 7618SOL     OW34312   1.523   0.188   2.713 -0.2044  0.1537 -0.2716
 7618SOL    HW134313   1.542   0.099   2.741  0.9377  0.4432 -0.1408
 7618SOL    HW234314   1.607   0.229   2.733 -1.2233  1.7694  0.7790
 7619SOL     OW34315   3.943   2.976   7.284  0.2286 -0.2922  0.2722
 7619SOL    HW134316   3.957   3.014   7.371  0.9907 -0.5278  0.2554
 7619SOL    HW234317   3.877   3.034   7.246  0.1868 -0.4475  0.1117
 7620SOL     OW34318   2.949   3.159   9.517  0.1243  0.0405  0.4146
 7620SOL    HW134319   3.031   3.181   9.562 -0.0278 -2.3465  1.8277
 7620SOL    HW234320   2.986   3.172   9.430  1.0526 -0.7195  0.6919
 7621SOL     OW34321   0.977   0.577   4.897 -0.3292 -0.6316 -0.9055
 7621SOL    HW134322   1.027   0.648   4.937  0.9211 -2.2653  0.4326
 7621SOL    HW234323   0.972   0.610   4.807  2.8888 -0.3076 -0.9682
 7622SOL     OW34324   4.694   4.546   6.996 -0.0653 -0.4153  0.0043
 7622SOL    HW134325   4.686   4.639   7.014  2.2386 -0.5576  1.7794
 7622SOL    HW234326   4.665   4.542   6.905  1.3357 -2.1625 -0.3752
 7623SOL     OW34327   2.321   2.762   5.465  0.2947  0.1238  0.1692
 7623SOL    HW134328   2.347   2.671   5.451 -0.4112  0.4156 -3.1722
 7623SOL    HW234329   2.234   2.763   5.426  0.3452 -0.0005  0.0506
 7624SOL     OW34330   0.904   0.533   1.502  0.0103  0.4570 -0.0307
 7624SOL    HW134331   0.926   0.444   1.473  1.7332  1.0461 -0.5276
 7624SOL    HW234332   0.847   0.516   1.576  1.4274 -0.2400  0.9078
 7625SOL     OW34333   3.665   1.904   6.199 -0.5791 -0.1391  0.0940
 7625SOL    HW134334   3.630   1.993   6.188  0.0433  0.1450  0.4543
 7625SOL    HW234335   3.650   1.906   6.293 -0.4238 -1.0090  0.1404
 7626SOL     OW34336   1.820   1.139   0.957 -0.2477 -0.0126  0.4855
 7626SOL    HW134337   1.786   1.090   0.882 -1.2040  1.0319  0.2277
 7626SOL    HW234338   1.820   1.068   1.021  1.6464 -0.4822 -0.0386
 7627SOL     OW34339   2.846   2.629   1.483 -0.3835 -0.3363 -0.0481
 7627SOL    HW134340   2.928   2.667   1.450  0.2845  0.3739  2.4909
 7627SOL    HW234341   2.859   2.555   1.424  0.5886 -1.4104  1.5360
 7628SOL     OW34342   1.251   3.126   3.825 -0.3179  0.2020  0.5778
 7628SOL    HW134343   1.308   3.149   3.899  2.5485 -3.8753 -0.2966
 7628SOL    HW234344   1.314   3.072   3.777 -0.4774  1.0543 -0.5866
 7629SOL     OW34345   2.005   4.071  13.794 -0.8816 -0.5323  0.1109
 7629SOL    HW134346   2.034   4.053  13.884 -0.4897  0.2712  0.1434
 7629SOL    HW234347   1.914   4.043  13.803 -0.4472 -1.1721  2.7690
 7630SOL     OW34348   1.157   3.659  13.135 -0.4151  0.0825  0.5430
 7630SOL    HW134349   1.234   3.611  13.104 -0.4893 -0.1871  0.7704
 7630SOL    HW234350   1.104   3.661  13.056 -0.0836  1.0071  0.3490
 7631SOL     OW34351   1.388   1.951  15.726 -0.1447 -0.2571  0.1528
 7631SOL    HW134352   1.422   1.866  15.695  0.0909 -0.2040  0.2614
 7631SOL    HW234353   1.310   1.916  15.769 -0.4270  1.9053  1.3610
 7632SOL     OW34354   1.836   0.506   2.816 -0.0233  0.1541  0.3975
 7632SOL    HW134355   1.877   0.420   2.801  1.7479  0.6293  2.5058
 7632SOL    HW234356   1.818   0.534   2.726 -1.0672 -1.0759  0.2232
 7633SOL     OW34357   2.768   0.585   0.224 -0.3697 -0.0115 -0.3229
 7633SOL    HW134358   2.686   0.616   0.263 -0.6361 -0.8693 -0.1892
 7633SOL    HW234359   2.740   0.503   0.183  0.5174 -0.6770  0.3782
 7634SOL     OW34360   0.302   0.463  10.239 -0.0109 -0.6558 -0.2117
 7634SOL    HW134361   0.384   0.502  10.270 -1.5517  3.2447 -0.9580
 7634SOL    HW234362   0.323   0.382  10.194 -0.1689  0.5327 -2.4170
 7635SOL     OW34363   0.464   0.802  16.733 -0.5086  0.7403 -0.4301
 7635SOL    HW134364   0.523   0.790  16.659  0.1489  2.1442 -0.1523
 7635SOL    HW234365   0.500   0.869  16.791 -0.0142 -0.4828  0.6649
 7636SOL     OW34366   4.441   2.260  10.622  0.1215 -0.1136  0.0240
 7636SOL    HW134367   4.454   2.166  10.632 -0.1338 -0.1693 -0.1635
 7636SOL    HW234368   4.514   2.276  10.562 -0.2942 -0.0360 -0.4659
 7637SOL     OW34369   1.384   0.344   0.923 -0.2392 -0.1457 -0.1452
 7637SOL    HW134370   1.322   0.313   0.989 -2.1318  1.5029 -1.1615
 7637SOL    HW234371   1.458   0.377   0.973 -0.3133  2.8331 -2.0033
 7638SOL     OW34372   3.369   2.217  10.372  0.0568 -0.5983 -0.2437
 7638SOL    HW134373   3.458   2.187  10.356  0.5648 -0.5781  2.6293
 7638SOL    HW234374   3.350   2.168  10.451 -0.1632  0.3578  0.2988
 7639SOL     OW34375   4.581   3.337  14.794  0.2678  0.4060 -0.4061
 7639SOL    HW134376   4.519   3.266  14.777  1.3111 -0.1912 -1.6818
 7639SOL    HW234377   4.541   3.405  14.740  0.3738  0.3176 -0.5936
 7640SOL     OW34378   1.926   1.244   2.041  0.0484 -0.4758  0.0674
 7640SOL    HW134379   1.961   1.158   2.018 -0.0917 -0.1221 -1.4201
 7640SOL    HW234380   1.962   1.301   1.973 -1.2155 -1.4216 -1.3878
 7641SOL     OW34381   3.649   2.807   0.009  0.2739  0.3118  0.2033
 7641SOL    HW134382   3.665   2.814  17.612  3.4896 -1.1928  0.6454
 7641SOL    HW234383   3.718   2.749   0.040 -2.1834 -1.0016  3.1870
 7642SOL     OW34384   3.347   1.001   3.278  0.3144 -0.1282  0.2862
 7642SOL    HW134385   3.317   1.030   3.364  2.3081  3.6022 -0.3039
 7642SOL    HW234386   3.417   1.059   3.247  1.2738 -0.3090  2.1718
 7643SOL     OW34387   2.908   0.683  13.713 -0.2228 -0.2875 -0.3798
 7643SOL    HW134388   2.880   0.592  13.705 -1.3136  0.0260 -0.1536
 7643SOL    HW234389   2.838   0.722  13.660 -0.0849 -0.7981 -0.9425
 7644SOL     OW34390   4.022   1.258  13.427  0.0163 -0.0495 -0.8174
 7644SOL    HW134391   4.102   1.274  13.377  0.3755 -1.1912 -0.6091
 7644SOL    HW234392   3.972   1.339  13.414  0.4788  0.4428  0.4575
 7645SOL     OW34393   2.619   1.160   2.762 -0.2668  0.4256  0.2434
 7645SOL    HW134394   2.670   1.092   2.719  1.0811  0.5617  1.6056
 7645SOL    HW234395   2.625   1.128   2.852  3.8724  1.1813  0.2530
 7646SOL     OW34396   2.234   2.337   3.035  0.2074 -0.2700 -0.1777
 7646SOL    HW134397   2.172   2.276   2.994 -0.0666  0.6765 -1.1542
 7646SOL    HW234398   2.265   2.382   2.956  2.5494  0.2801  1.0290
 7647SOL     OW34399   4.618   2.484   2.999 -0.0120 -0.0531 -0.1883
 7647SOL    HW134400   4.652   2.511   3.084 -2.9850  0.6493  0.7654
 7647SOL    HW234401   4.687   2.523   2.945  0.8632  1.2352  1.9017
 7648SOL     OW34402   1.547   0.036   8.427  0.2065  0.0347  0.0359
 7648SOL    HW134403   1.489   0.101   8.467 -0.3426  0.1837 -0.9707
 7648SOL    HW234404   1.526   0.049   8.334 -0.5695  1.0920  0.3550
 7649SOL     OW34405   3.125   4.556   7.410 -0.1101  0.3827  0.1623
 7649SOL    HW134406   3.182   4.538   7.484 -0.4873  0.4023  0.4576
 7649SOL    HW234407   3.189   4.575   7.342 -0.5325  2.9909  0.4732
 7650SOL     OW34408   0.758   0.384   0.335 -0.3426  0.2714 -0.3861
 7650SOL    HW134409   0.735   0.477   0.330  1.5583  0.8067  0.9446
 7650SOL    HW234410   0.694   0.351   0.398  0.2803  0.3794  0.3034
 7651SOL     OW34411   1.090   2.128   6.179  1.0473 -0.3460 -0.1543
 7651SOL    HW134412   1.018   2.072   6.149  0.3623  1.0830 -1.1493
 7651SOL    HW234413   1.099   2.092   6.267 -0.3147 -2.8504 -1.0239
 7652SOL     OW34414   1.049   1.196   0.846 -0.4114  0.0260  0.3596
 7652SOL    HW134415   0.981   1.201   0.780  0.3941  3.2000 -0.2446
 7652SOL    HW234416   1.056   1.101   0.838 -1.0407 -0.0035  0.1791
 7653SOL     OW34417   3.361   1.683   9.856 -0.3295  0.0631 -0.2396
 7653SOL    HW134418   3.270   1.711   9.848 -0.6560 -1.1406 -0.6698
 7653SOL    HW234419   3.398   1.760   9.812  0.0381 -0.0336 -0.1037
 7654SOL     OW34420   0.108   3.368   3.396  0.0283  0.2944 -0.1872
 7654SOL    HW134421   0.076   3.319   3.472 -1.1827 -3.3317 -2.9717
 7654SOL    HW234422   0.064   3.327   3.321 -2.1237  1.6866  0.3032
 7655SOL     OW34423   1.533   0.093  13.602  0.3919  0.0757 -0.1911
 7655SOL    HW134424   1.497   0.009  13.630 -0.0544  0.1930 -0.4105
 7655SOL    HW234425   1.479   0.117  13.527 -3.0940  2.6308  3.1162
 7656SOL     OW34426   3.987   2.691   2.100  0.0977 -0.0428 -0.2362
 7656SOL    HW134427   3.961   2.607   2.137 -0.8008 -1.0249 -3.1212
 7656SOL    HW234428   4.051   2.716   2.167  0.3882  0.6021 -0.7481
 7657SOL     OW34429   2.453   0.041   5.522 -0.1935 -0.1979 -0.2210
 7657SOL    HW134430   2.524   4.721   5.568 -1.8913 -2.0528  0.6287
 7657SOL    HW234431   2.486   0.039   5.432 -3.3937 -2.0111 -1.3602
 7658SOL     OW34432   2.831   1.666   8.007 -0.6946  0.1728  0.1317
 7658SOL    HW134433   2.758   1.609   8.030 -1.9632  1.7688  0.0502
 7658SOL    HW234434   2.866   1.673   8.095 -0.3804  0.2508 -0.0003
 7659SOL     OW34435   2.696   3.669   6.748 -0.1007  0.1121  1.0273
 7659SOL    HW134436   2.704   3.727   6.673 -1.6248 -0.6790  0.2451
 7659SOL    HW234437   2.777   3.692   6.793  0.8801  2.3383 -1.9393
 7660SOL     OW34438   2.922   4.554  11.548  0.4000  0.3780 -0.0085
 7660SOL    HW134439   2.999   4.498  11.556  0.3777  0.3850  0.2275
 7660SOL    HW234440   2.887   4.552  11.637 -1.5884 -1.0703 -0.8164
 7661SOL     OW34441   0.101   4.619   0.968 -0.1482  0.0808 -0.7651
 7661SOL    HW134442   0.030   4.644   0.909 -0.8631 -1.3967 -0.5190
 7661SOL    HW234443   0.185   4.625   0.922  0.2865 -2.3602 -0.2763
 7662SOL     OW34444   2.048   3.528   2.024 -0.0155 -0.2083  0.2213
 7662SOL    HW134445   2.116   3.592   2.043  0.4845 -0.1786 -1.6387
 7662SOL    HW234446   2.094   3.453   1.988  1.4700  1.2978 -1.0168
 7663SOL     OW34447   0.424   4.115   6.124  0.0670  0.6008 -0.2252
 7663SOL    HW134448   0.482   4.114   6.199 -0.4919  3.7966  0.2751
 7663SOL    HW234449   0.358   4.173   6.163  1.3118  1.1973  0.9748
 7664SOL     OW34450   4.481   0.213  11.624  0.2237  0.1192  1.1386
 7664SOL    HW134451   4.495   0.298  11.664 -0.4647  0.8183 -0.0968
 7664SOL    HW234452   4.528   0.222  11.541 -0.2770 -0.5837  0.7797
 7665SOL     OW34453   2.494   0.971   8.551 -0.8328 -0.1035 -0.1932
 7665SOL    HW134454   2.523   0.880   8.545 -0.7692 -0.2661  2.6067
 7665SOL    HW234455   2.487   0.978   8.646 -0.8817 -1.3852 -0.1032
 7666SOL     OW34456   4.584   2.313   7.926  0.0965  0.0601  0.3312
 7666SOL    HW134457   4.642   2.239   7.942 -2.3848 -2.2691 -1.4811
 7666SOL    HW234458   4.543   2.317   8.013 -0.9609  2.2315 -0.2579
 7667SOL     OW34459   1.242   4.628  11.149  0.2391 -0.2128 -0.4053
 7667SOL    HW134460   1.222   4.683  11.225 -1.8991  0.0443 -1.1446
 7667SOL    HW234461   1.165   4.655  11.098 -0.0693  1.2469  0.8261
 7668SOL     OW34462   4.652   4.614   4.747  0.0935  0.1838 -0.7662
 7668SOL    HW134463   4.684   4.528   4.717  0.7911  0.5176 -0.9750
 7668SOL    HW234464   4.647   4.659   4.662 -2.7077  0.3902 -0.4836
 7669SOL     OW34465   1.154   2.950   4.155 -0.3286 -0.4278  0.4717
 7669SOL    HW134466   1.210   2.876   4.182  0.6164 -0.8164 -2.5339
 7669SOL    HW234467   1.137   2.933   4.063  0.3155 -1.0997  0.4747
 7670SOL     OW34468   2.842   3.244   2.541 -0.1150 -0.0391  0.0098
 7670SOL    HW134469   2.847   3.180   2.612  1.2507 -0.5250 -0.5271
 7670SOL    HW234470   2.889   3.202   2.469  2.0112 -2.2277  2.6644
 7671SOL     OW34471   1.965   3.268   6.585 -0.1940 -0.0365  0.2328
 7671SOL    HW134472   1.882   3.240   6.624 -1.1006  1.1894 -0.8403
 7671SOL    HW234473   1.969   3.362   6.598  0.8964 -0.2327  1.3052
 7672SOL     OW34474   1.344   1.774   3.379  0.1017  0.2991 -0.2317
 7672SOL    HW134475   1.427   1.730   3.398  0.5175  0.9320 -0.5926
 7672SOL    HW234476   1.272   1.716   3.403  0.1839  0.1594 -0.3169
 7673SOL     OW34477   1.703   2.076   3.045 -0.1949  0.2354  0.0769
 7673SOL    HW134478   1.785   2.027   3.052  0.2390  0.7658 -1.2704
 7673SOL    HW234479   1.649   2.022   3.103 -0.4324  0.3690 -0.0216
 7674SOL     OW34480   2.939   1.756   4.271  0.7580 -0.0310  0.2951
 7674SOL    HW134481   2.883   1.810   4.327  1.6628  1.6182 -0.3970
 7674SOL    HW234482   3.026   1.777   4.303  1.1009 -2.6440  1.0676
 7675SOL     OW34483   4.221   4.036   9.041  0.2993  0.6067 -0.2398
 7675SOL    HW134484   4.209   3.942   9.055  0.1506  0.9531  2.0789
 7675SOL    HW234485   4.294   4.038   9.104 -0.9148 -0.0581  1.2012
 7676SOL     OW34486   2.015   2.253   2.031  0.3779 -0.2685 -0.2402
 7676SOL    HW134487   2.010   2.225   2.122 -0.7054 -1.0463 -0.5474
 7676SOL    HW234488   2.110   2.252   2.022  0.0913  1.0194 -3.4127
 7677SOL     OW34489   3.330   3.877   3.022 -0.2434  0.5767 -0.4076
 7677SOL    HW134490   3.278   3.911   3.095  0.5329  1.6406 -0.3326
 7677SOL    HW234491   3.296   3.913   2.940  2.4648  1.1767 -1.2792
 7678SOL     OW34492   2.408   2.387   3.653  1.0190  0.0737  0.2718
 7678SOL    HW134493   2.442   2.302   3.679 -0.5336 -0.7187 -0.2395
 7678SOL    HW234494   2.442   2.394   3.564  3.2408 -0.5030  1.0749
 7679SOL     OW34495   2.864   2.376   7.600 -0.0544  0.2425  0.0518
 7679SOL    HW134496   2.916   2.436   7.654 -0.8808 -0.4982  1.6721
 7679SOL    HW234497   2.778   2.397   7.635 -0.0194  0.0477  0.2553
 7680SOL     OW34498   1.487   3.816   6.583  0.6652  0.0845  0.2533
 7680SOL    HW134499   1.415   3.753   6.574  0.2482  0.4467  1.0997
 7680SOL    HW234500   1.554   3.764   6.538  0.6237  1.0460 -0.9142
 7681SOL     OW34501   3.117   0.385  11.994  0.5177  0.5082  0.1690
 7681SOL    HW134502   3.090   0.422  12.078  0.4429  1.3109 -0.2110
 7681SOL    HW234503   3.053   0.315  11.980  1.8498  0.0128 -3.4971
 7682SOL     OW34504   3.126   0.142   2.027  0.1200  0.2360  0.1028
 7682SOL    HW134505   3.096   0.057   2.059 -0.7815  0.9673  1.1936
 7682SOL    HW234506   3.212   0.112   1.998 -0.0109  0.4153 -0.4753
 7683SOL     OW34507   3.493   4.600   9.565 -0.2203 -0.1091 -0.1787
 7683SOL    HW134508   3.501   4.508   9.591  0.3736  0.0085  0.0579
 7683SOL    HW234509   3.490   4.587   9.470 -2.4958  1.2715 -0.3081
 7684SOL     OW34510   3.656   4.289  16.300  0.2870 -0.7379  0.0247
 7684SOL    HW134511   3.676   4.304  16.393  0.3534 -1.0422  0.0605
 7684SOL    HW234512   3.730   4.337  16.263 -1.3261  1.5467 -0.2145
 7685SOL     OW34513   3.394   1.425   9.954 -0.1216 -0.5162  0.2846
 7685SOL    HW134514   3.400   1.502   9.897 -1.4552 -1.1403 -0.7006
 7685SOL    HW234515   3.301   1.414   9.972 -0.7561  0.2664 -2.4196
 7686SOL     OW34516   1.993   0.651   7.545 -0.1737 -0.0623  0.0947
 7686SOL    HW134517   1.958   0.740   7.548 -1.1623 -0.3642 -2.5045
 7686SOL    HW234518   2.000   0.639   7.640 -0.3832 -1.9931 -0.1372
 7687SOL     OW34519   4.245   1.192  17.012 -0.2347  0.3828 -0.3097
 7687SOL    HW134520   4.154   1.185  17.040 -0.0855  0.0231  0.0842
 7687SOL    HW234521   4.266   1.284  17.030 -3.6201  0.6831  2.1222
 7688SOL     OW34522   4.548   2.927   5.744 -0.3038  0.0594  0.2629
 7688SOL    HW134523   4.495   2.945   5.821 -1.7528  1.3635 -1.0291
 7688SOL    HW234524   4.581   3.016   5.730  1.0071 -0.3012  1.1419
 7689SOL     OW34525   1.249   1.603   2.406  0.2261 -0.4504  0.5155
 7689SOL    HW134526   1.312   1.644   2.465  0.1904  0.7247 -0.2443
 7689SOL    HW234527   1.190   1.677   2.390  0.5106 -0.8241 -2.2874
 7690SOL     OW34528   2.992   3.878   2.111  0.0972  0.0950 -0.2405
 7690SOL    HW134529   3.078   3.857   2.149  0.4885  0.1760 -1.0860
 7690SOL    HW234530   2.972   3.786   2.095 -0.6540  0.0332  1.0417
 7691SOL     OW34531   4.698   2.691   5.475 -0.8265 -0.1336  0.1714
 7691SOL    HW134532   4.702   2.601   5.441  1.4557 -0.5294  1.5478
 7691SOL    HW234533   4.646   2.673   5.553 -1.0412 -2.9140 -0.5880
 7692SOL     OW34534   3.365   4.272   8.759  0.2590  0.1355 -0.0310
 7692SOL    HW134535   3.434   4.310   8.812 -0.4866  0.1480  0.9398
 7692SOL    HW234536   3.307   4.240   8.828 -0.2577 -1.6339 -1.2828
 7693SOL     OW34537   4.362   0.182  14.695  0.1567 -0.5325  0.2264
 7693SOL    HW134538   4.389   0.272  14.713  0.5307 -0.7693  0.8376
 7693SOL    HW234539   4.430   0.135  14.743 -1.3799 -0.4788  2.4396
 7694SOL     OW34540   1.654   2.145  11.675  0.0910  0.0716 -0.1158
 7694SOL    HW134541   1.597   2.176  11.745 -2.7881 -1.8492 -1.6201
 7694SOL    HW234542   1.587   2.094  11.629 -1.7391  1.6876  0.7400
 7695SOL     OW34543   3.601   1.559   4.236  0.0668 -0.3342 -0.0006
 7695SOL    HW134544   3.607   1.473   4.193  1.2933 -0.1813 -0.1537
 7695SOL    HW234545   3.682   1.601   4.205 -0.0087 -0.8284 -0.8718
 7696SOL     OW34546   4.274   1.436   5.729  0.1593  0.0926  0.1974
 7696SOL    HW134547   4.355   1.392   5.755  0.1584 -0.2069 -0.3142
 7696SOL    HW234548   4.240   1.422   5.817  0.6798 -3.1977 -0.1216
 7697SOL     OW34549   1.388   3.493  12.925  0.1963 -0.7440  0.0504
 7697SOL    HW134550   1.443   3.420  12.956  1.2352 -0.4127 -1.0253
 7697SOL    HW234551   1.454   3.547  12.882  0.7536 -2.0207 -0.7058
 7698SOL     OW34552   0.320   0.776   3.355  0.2453 -0.4021 -0.1638
 7698SOL    HW134553   0.334   0.707   3.291 -1.9073 -2.1535  1.2543
 7698SOL    HW234554   0.307   0.723   3.434  0.4350  0.7755  0.6636
 7699SOL     OW34555   1.140   2.131   9.826  0.1095  0.6408  0.8722
 7699SOL    HW134556   1.096   2.109   9.909 -1.8039  1.3028  0.0132
 7699SOL    HW234557   1.060   2.168   9.790 -0.9201 -3.0381 -0.6495
 7700SOL     OW34558   0.322   4.631   4.867  0.1736  0.2329 -0.5471
 7700SOL    HW134559   0.319   4.699   4.799  1.8773  2.0174  1.1875
 7700SOL    HW234560   0.394   4.664   4.921 -1.1063  2.0827  0.0308
 7701SOL     OW34561   2.398   3.276   3.713 -0.3582 -0.2990  0.1102
 7701SOL    HW134562   2.362   3.328   3.641 -1.9479  0.9078  1.7625
 7701SOL    HW234563   2.470   3.232   3.668 -1.0428 -0.0021 -1.2503
 7702SOL     OW34564   1.427   0.706   8.820 -0.5630  0.8245  0.2135
 7702SOL    HW134565   1.420   0.701   8.916  0.0044  2.4591  0.3360
 7702SOL    HW234566   1.511   0.751   8.813 -1.1198  1.8434  0.1354
 7703SOL     OW34567   4.533   3.840   7.469 -0.1485  0.0242  0.2275
 7703SOL    HW134568   4.468   3.771   7.471 -0.6097  0.4187 -0.7933
 7703SOL    HW234569   4.587   3.801   7.537 -2.2753 -0.7636  1.4602
 7704SOL     OW34570   2.226   1.950   2.574  0.1922  0.0263  0.5630
 7704SOL    HW134571   2.253   1.956   2.482  2.0990  0.9407  1.2016
 7704SOL    HW234572   2.307   1.925   2.618  0.6181  1.4397  0.5843
 7705SOL     OW34573   3.918   0.758   4.345  0.5600  0.6320 -0.5820
 7705SOL    HW134574   3.835   0.805   4.354 -0.0177 -1.1171  2.9751
 7705SOL    HW234575   3.892   0.666   4.353 -2.3101  1.3403 -1.4652
 7706SOL     OW34576   1.496   3.701   3.782 -0.0278 -0.4542 -0.1034
 7706SOL    HW134577   1.562   3.726   3.717 -0.2880  0.2788 -0.0767
 7706SOL    HW234578   1.450   3.624   3.748 -0.9106 -0.8880  2.1059
 7707SOL     OW34579   4.638   2.890   8.981 -0.1620 -0.0008 -0.0550
 7707SOL    HW134580   4.671   2.814   9.029 -0.2348  0.3724  0.5753
 7707SOL    HW234581   4.622   2.947   9.056  1.9353 -1.6704  1.6927
 7708SOL     OW34582   4.418   2.626   8.758 -0.4491  0.0436  0.6023
 7708SOL    HW134583   4.372   2.626   8.841  0.6817  1.1262  1.2266
 7708SOL    HW234584   4.400   2.538   8.726 -1.6062 -0.3993  2.4710
 7709SOL     OW34585   2.013   0.723   1.613  0.7403  0.6125  0.0768
 7709SOL    HW134586   2.068   0.648   1.592  0.5556 -0.0220  1.8568
 7709SOL    HW234587   2.068   0.801   1.619 -0.4196  1.4109  0.3897
 7710SOL     OW34588   0.191   3.355   6.202  0.0050  0.1094 -0.2270
 7710SOL    HW134589   0.127   3.349   6.132 -0.3730 -1.7073  0.2705
 7710SOL    HW234590   0.246   3.422   6.163 -0.5551 -0.1426 -1.4279
 7711SOL     OW34591   0.804   4.307   9.986 -0.0626  0.0652 -0.4563
 7711SOL    HW134592   0.891   4.265   9.987 -0.8445 -1.4857  1.5432
 7711SOL    HW234593   0.794   4.314  10.080 -0.0989 -0.8977 -0.3854
 7712SOL     OW34594   1.710   0.080   0.566  0.1120 -0.8288 -0.1655
 7712SOL    HW134595   1.681   4.713   0.573  2.0430 -1.3930  0.5288
 7712SOL    HW234596   1.805   0.074   0.556  0.0281 -2.1483 -0.1727
 7713SOL     OW34597   2.693   3.574  15.403  0.3301 -0.1579  0.0706
 7713SOL    HW134598   2.781   3.590  15.370 -0.0245  1.7647  0.0308
 7713SOL    HW234599   2.652   3.534  15.326 -1.8580  1.1338  0.5757
 7714SOL     OW34600   3.767   4.075   9.196 -0.0072  0.2597 -0.6231
 7714SOL    HW134601   3.834   4.100   9.133 -0.7147  2.1956 -0.6107
 7714SOL    HW234602   3.819   4.024   9.258 -1.7098 -1.1056 -0.3456
 7715SOL     OW34603   3.914   4.405   3.950 -0.3984  0.0873  0.6410
 7715SOL    HW134604   3.937   4.425   4.040  3.2978  0.4876 -0.4084
 7715SOL    HW234605   3.885   4.489   3.913  0.8776  0.5089  0.6273
 7716SOL     OW34606   1.088   0.183   5.420 -0.0728 -0.5587 -0.5957
 7716SOL    HW134607   1.011   0.160   5.473 -0.6178  3.1169  0.2296
 7716SOL    HW234608   1.152   0.224   5.478  0.5070 -0.5915 -1.2182
 7717SOL     OW34609   1.968   3.316   6.167  0.2821  0.2912 -0.5743
 7717SOL    HW134610   2.012   3.350   6.089 -1.7358  0.6602 -1.5446
 7717SOL    HW234611   1.962   3.397   6.216  2.2159 -1.8333  3.1682
 7718SOL     OW34612   0.034   0.643   6.212 -0.4871  0.8889 -0.1493
 7718SOL    HW134613   0.010   0.734   6.192 -3.6569  0.0854  0.0427
 7718SOL    HW234614   4.715   0.605   6.135  0.3252  0.3125 -0.3150
 7719SOL     OW34615   1.968   3.670  13.319 -0.2262  0.2308  0.2108
 7719SOL    HW134616   1.961   3.753  13.272 -1.8714  0.8977  1.6266
 7719SOL    HW234617   2.019   3.705  13.393 -0.2289  0.8108 -0.0583
 7720SOL     OW34618   0.131   4.466   4.607 -0.1648  0.0367 -0.3457
 7720SOL    HW134619   0.204   4.515   4.568  1.3193 -0.2390  2.0917
 7720SOL    HW234620   0.170   4.388   4.647  1.7480  0.3947 -1.4932
 7721SOL     OW34621   3.277   0.145   5.764 -0.0842 -0.7261 -0.9658
 7721SOL    HW134622   3.186   0.139   5.796  0.2342 -3.4386 -0.5534
 7721SOL    HW234623   3.302   0.186   5.847  1.1413  0.7227 -2.0593
 7722SOL     OW34624   1.924   4.074   1.501  0.1684 -0.9933 -0.5535
 7722SOL    HW134625   1.926   4.125   1.582  1.3695 -1.4583 -0.2874
 7722SOL    HW234626   2.016   4.082   1.475  0.7764  1.5106  2.3354
 7723SOL     OW34627   2.350   2.153   2.801 -0.3012  0.2093  0.0283
 7723SOL    HW134628   2.257   2.155   2.779  0.0870  3.4502 -1.2424
 7723SOL    HW234629   2.347   2.068   2.846  1.7302 -0.5072 -1.1740
 7724SOL     OW34630   0.051   1.920   1.015  0.0682  0.3232  0.0574
 7724SOL    HW134631   0.051   1.903   0.921 -0.4586  2.3181 -0.2984
 7724SOL    HW234632   0.013   2.007   1.023 -0.0149  0.2113  0.8962
 7725SOL     OW34633   2.960   0.576   2.615  0.4165  0.2896 -0.1356
 7725SOL    HW134634   3.002   0.513   2.673  0.4946  0.5763  0.1205
 7725SOL    HW234635   2.936   0.637   2.685 -1.6614 -1.1573  0.3966
 7726SOL     OW34636   0.277   0.237  11.804  0.5184  0.1228 -0.2717
 7726SOL    HW134637   0.335   0.235  11.880  0.6589  1.4901 -0.3384
 7726SOL    HW234638   0.251   0.145  11.805  1.8105 -0.1738  3.5709
 7727SOL     OW34639   1.093   1.207   8.960 -0.8978  0.1718 -0.0486
 7727SOL    HW134640   1.059   1.270   9.024  0.7728 -0.8709  1.8938
 7727SOL    HW234641   1.045   1.226   8.880 -0.8129  0.0497 -0.1279
 7728SOL     OW34642   3.431   2.183   3.902 -0.1776  0.2788 -0.0553
 7728SOL    HW134643   3.448   2.230   3.984 -1.1778  0.2497  0.1788
 7728SOL    HW234644   3.336   2.199   3.899 -0.1171  0.6213 -0.1027
 7729SOL     OW34645   0.093   0.543   1.156  0.0644 -0.2376 -0.2136
 7729SOL    HW134646   0.114   0.574   1.244  0.6992 -2.7962  0.5193
 7729SOL    HW234647   0.094   0.449   1.172 -0.4728  0.0972  1.7209
 7730SOL     OW34648   4.270   2.524   4.002 -0.0406 -0.1653  0.0330
 7730SOL    HW134649   4.340   2.540   4.065 -0.8404  0.7676  0.6966
 7730SOL    HW234650   4.304   2.449   3.953  0.3145  0.4171 -0.6055
 7731SOL     OW34651   3.859   0.118   8.450 -0.0707 -0.2351  0.1587
 7731SOL    HW134652   3.936   0.161   8.487 -2.0102  2.0872  1.5692
 7731SOL    HW234653   3.835   0.182   8.383 -1.2777 -0.5176  0.3057
 7732SOL     OW34654   4.145   2.856  11.153  0.0544 -0.2459  0.8436
 7732SOL    HW134655   4.133   2.806  11.072 -0.2394  0.3574  0.5167
 7732SOL    HW234656   4.052   2.847  11.175  0.1152 -2.2515  0.2791
 7733SOL     OW34657   2.966   0.879   1.362 -0.1353 -1.0027  0.1972
 7733SOL    HW134658   2.942   0.937   1.434 -1.2346 -0.6641 -0.4547
 7733SOL    HW234659   2.924   0.796   1.386 -1.3721 -0.5524 -0.4378
 7734SOL     OW34660   0.345   2.546  13.025  0.0649  0.0176  0.5466
 7734SOL    HW134661   0.271   2.490  13.001  1.6855 -1.2439 -1.6066
 7734SOL    HW234662   0.357   2.503  13.109 -2.1391 -0.4888  0.6083
 7735SOL     OW34663   3.420   4.640   6.196  0.3588  0.0011 -0.1515
 7735SOL    HW134664   3.512   4.625   6.219  0.1653  0.8004  1.1014
 7735SOL    HW234665   3.429   4.621   6.102 -1.2703 -0.1521 -0.2704
 7736SOL     OW34666   2.192   3.223   7.335 -0.4988 -0.2162 -0.2838
 7736SOL    HW134667   2.201   3.177   7.418 -2.4607  1.3676  0.8004
 7736SOL    HW234668   2.205   3.313   7.362 -1.1224 -0.6952  1.6265
 7737SOL     OW34669   4.019   3.742  11.512  0.2554 -0.5257  0.5424
 7737SOL    HW134670   4.096   3.795  11.494  0.2947 -1.1341 -1.1279
 7737SOL    HW234671   3.952   3.810  11.515  1.1016  0.2770  1.5052
 7738SOL     OW34672   1.502   0.068   2.009  0.2681  0.4008  0.2757
 7738SOL    HW134673   1.519   4.702   1.983 -1.3094  0.0804  0.3651
 7738SOL    HW234674   1.420   0.055   2.056 -0.1390 -0.9685 -0.8480
 7739SOL     OW34675   3.366   3.557   4.943 -0.7515 -0.0429  0.0903
 7739SOL    HW134676   3.278   3.569   4.979 -0.1644 -0.8035  1.7340
 7739SOL    HW234677   3.352   3.555   4.848  1.5748  0.9691 -0.2692
 7740SOL     OW34678   1.867   0.114   3.176 -0.4408  0.0174  0.7071
 7740SOL    HW134679   1.831   0.108   3.088  0.7934 -4.7444  0.5332
 7740SOL    HW234680   1.956   0.078   3.174 -1.3283 -2.1959  0.9209
 7741SOL     OW34681   4.104   0.591   5.716 -0.2829  0.5268  0.2296
 7741SOL    HW134682   4.187   0.545   5.701 -0.7095 -0.4764  0.9718
 7741SOL    HW234683   4.118   0.615   5.808  1.0563 -0.8592  0.3810
 7742SOL     OW34684   1.684   2.659  11.491 -0.3583  0.4447 -0.0688
 7742SOL    HW134685   1.646   2.594  11.432 -0.9495 -0.8467  1.7523
 7742SOL    HW234686   1.764   2.683  11.444 -1.3396  0.5146 -1.7133
 7743SOL     OW34687   0.213   2.945   7.252  0.6395 -0.0384  0.3906
 7743SOL    HW134688   0.264   2.968   7.174  1.3744  0.0796  0.9067
 7743SOL    HW234689   0.148   2.893   7.205  1.4808 -0.9884  0.2642
 7744SOL     OW34690   3.252   1.865   9.516 -0.9049  0.3316 -0.0866
 7744SOL    HW134691   3.346   1.847   9.514 -0.9303  0.2769 -1.2133
 7744SOL    HW234692   3.233   1.834   9.427 -0.5945  0.6871 -0.2802
 7745SOL     OW34693   2.185   4.546  11.189  0.3038  0.6989  0.4518
 7745SOL    HW134694   2.224   4.631  11.210  0.0066  0.8350  0.4462
 7745SOL    HW234695   2.239   4.514  11.116  2.7584  0.1977  2.4830
 7746SOL     OW34696   4.653   4.425   5.097  0.7151 -0.0767 -0.1741
 7746SOL    HW134697   4.685   4.484   5.029 -2.2208  1.3520 -0.3165
 7746SOL    HW234698   4.626   4.345   5.052  2.9905 -1.1917  0.4456
 7747SOL     OW34699   0.566   1.518   6.262 -0.0244 -0.0674 -0.0711
 7747SOL    HW134700   0.661   1.504   6.259  0.1271  1.0116 -0.3015
 7747SOL    HW234701   0.572   1.599   6.311  0.5619 -0.8954  1.2065
 7748SOL     OW34702   1.856   4.608   2.241  0.0674  0.3611 -0.0650
 7748SOL    HW134703   1.806   4.536   2.282  0.8216  0.8024  1.6292
 7748SOL    HW234704   1.936   4.561   2.218 -1.1204 -0.5533 -2.3455
 7749SOL     OW34705   4.543   2.392   1.146  0.3175  0.1725  0.1980
 7749SOL    HW134706   4.453   2.370   1.168  0.8361 -1.4640  0.6497
 7749SOL    HW234707   4.534   2.484   1.121  0.0990 -0.9871 -4.1024
 7750SOL     OW34708   0.592   3.266  12.961  0.3622  0.5158 -0.1504
 7750SOL    HW134709   0.614   3.226  13.045  1.0218  1.8440  0.3143
 7750SOL    HW234710   0.662   3.331  12.947 -0.5375  1.6356  0.6160
 7751SOL     OW34711   1.784   3.229  16.911  0.1557 -0.3531  0.1827
 7751SOL    HW134712   1.779   3.169  16.836  0.3026  0.4633 -0.4897
 7751SOL    HW234713   1.851   3.294  16.888 -0.9557 -0.4593 -3.4138
 7752SOL     OW34714   3.473   3.018   4.116  0.0082  0.1099  0.2402
 7752SOL    HW134715   3.545   3.031   4.054 -0.1612 -0.4436 -0.0744
 7752SOL    HW234716   3.518   2.957   4.174 -0.6406 -0.9435 -0.3688
 7753SOL     OW34717   3.233   2.791   2.205 -0.1252 -0.3028  0.1191
 7753SOL    HW134718   3.210   2.753   2.120 -1.8218 -1.4690  1.1340
 7753SOL    HW234719   3.197   2.719   2.256  0.1824  0.1072  0.9104
 7754SOL     OW34720   1.485   4.022   3.234 -0.1714  0.1427 -0.4592
 7754SOL    HW134721   1.404   4.041   3.187 -1.2292  0.9985  1.7051
 7754SOL    HW234722   1.517   4.113   3.228 -0.0360  0.3355  2.8360
 7755SOL     OW34723   1.398   3.855  17.456  0.0783 -0.1487 -0.5258
 7755SOL    HW134724   1.351   3.780  17.420 -1.4292 -0.3575  1.9005
 7755SOL    HW234725   1.436   3.898  17.379  1.3545  0.3429  0.3957
 7756SOL     OW34726   3.564   3.932   9.356 -0.0934  0.3753  0.3267
 7756SOL    HW134727   3.620   3.994   9.309  1.2852 -1.6434 -0.6666
 7756SOL    HW234728   3.477   3.963   9.331  0.4261  0.7250 -1.0403
 7757SOL     OW34729   2.010   4.099   3.939 -0.7018  0.0268 -0.0776
 7757SOL    HW134730   1.919   4.099   3.968 -1.2406  0.5690 -1.8374
 7757SOL    HW234731   1.996   4.089   3.845  2.1757  1.5138 -0.6613
 7758SOL     OW34732   4.298   1.463  15.241 -0.0083 -0.6990  0.1720
 7758SOL    HW134733   4.206   1.438  15.256  0.1357 -1.7682 -0.7571
 7758SOL    HW234734   4.323   1.403  15.171 -2.7006  0.3822 -1.7237
 7759SOL     OW34735   4.111   2.974  17.167  0.1980  0.1274  0.6158
 7759SOL    HW134736   4.134   2.898  17.114  0.2719  1.3167 -1.0767
 7759SOL    HW234737   4.022   2.942  17.178  0.1049  0.6745  1.4800
 7760SOL     OW34738   1.795   4.174   5.859  0.1676  0.4395 -0.1469
 7760SOL    HW134739   1.724   4.204   5.802  0.3725  0.4085 -0.4232
 7760SOL    HW234740   1.837   4.116   5.795 -0.5442  0.7199 -0.8740
 7761SOL     OW34741   3.754   2.613   3.117 -0.0336 -0.0095 -0.2660
 7761SOL    HW134742   3.692   2.551   3.155  0.0416  0.1716  0.1531
 7761SOL    HW234743   3.826   2.561   3.082  0.1737  1.1530 -1.5709
 7762SOL     OW34744   1.232   1.127   6.144  0.0594 -0.0622 -0.1987
 7762SOL    HW134745   1.163   1.174   6.097 -0.8764 -1.1785  0.0588
 7762SOL    HW234746   1.205   1.035   6.137 -1.3134  0.1543  2.4340
 7763SOL     OW34747   4.161   3.130  13.428  0.0010 -0.7103 -0.4645
 7763SOL    HW134748   4.110   3.145  13.348  1.3473 -0.3648 -1.2531
 7763SOL    HW234749   4.121   3.062  13.482  4.4333  0.3590  4.0670
 7764SOL     OW34750   3.145   3.720   7.962 -0.4487  0.3358  0.2420
 7764SOL    HW134751   3.051   3.717   7.946 -0.0687  2.5815 -2.4219
 7764SOL    HW234752   3.173   3.678   7.881 -0.1316  2.7126 -0.8567
 7765SOL     OW34753   3.448   0.123   3.734 -0.5000 -0.8414 -0.0186
 7765SOL    HW134754   3.509   0.128   3.807  0.0039  0.5331 -0.5472
 7765SOL    HW234755   3.360   0.122   3.772 -0.9427  1.0062 -0.9772
 7766SOL     OW34756   2.293   1.068   8.332  0.1034 -0.4194  0.1389
 7766SOL    HW134757   2.351   1.029   8.398 -2.0206 -1.0875  1.6043
 7766SOL    HW234758   2.266   0.989   8.284 -1.6132  0.0756  0.2865
 7767SOL     OW34759   3.441   1.827   7.234 -0.4001 -0.1026 -0.0157
 7767SOL    HW134760   3.484   1.807   7.151 -1.8810 -0.2484 -0.7545
 7767SOL    HW234761   3.502   1.890   7.272 -0.6157  0.2154 -0.1999
 7768SOL     OW34762   0.098   0.014   3.839 -0.1087 -0.1885 -0.1698
 7768SOL    HW134763   0.010   0.052   3.839 -0.3034 -0.6327 -0.3080
 7768SOL    HW234764   0.123   0.038   3.928  0.0177 -1.7014  0.2046
 7769SOL     OW34765   3.036   4.139  13.654  0.3271  0.3088  1.1050
 7769SOL    HW134766   3.007   4.125  13.564 -0.1846  1.0055  1.1606
 7769SOL    HW234767   3.123   4.100  13.653  0.3693  0.4451 -0.0828
 7770SOL     OW34768   2.967   4.010   3.393  0.3781  0.5661 -0.3469
 7770SOL    HW134769   3.025   3.944   3.431  2.3349  1.8224 -1.0770
 7770SOL    HW234770   2.891   3.977   3.440  0.3298  0.8652 -0.2104
 7771SOL     OW34771   4.454   2.044   7.365  0.3117  0.2274  0.1457
 7771SOL    HW134772   4.498   2.043   7.450 -0.6350  0.8803  0.6411
 7771SOL    HW234773   4.508   2.111   7.323  0.3693  0.1760  0.1375
 7772SOL     OW34774   1.304   2.699   5.753  0.3318  0.4391 -0.2231
 7772SOL    HW134775   1.257   2.777   5.724 -0.5309 -0.2431 -0.6786
 7772SOL    HW234776   1.388   2.738   5.775  0.3024 -0.1419  0.9554
 7773SOL     OW34777   0.098   4.470   7.524 -0.3982  0.2658 -0.1847
 7773SOL    HW134778   0.131   4.545   7.474  2.7101 -1.4831 -0.7758
 7773SOL    HW234779   0.028   4.435   7.469  0.6348 -0.6478 -0.9360
 7774SOL     OW34780   2.401   3.734   6.371  0.9004 -0.1755 -0.2594
 7774SOL    HW134781   2.387   3.658   6.315  0.2865 -0.0152 -0.3154
 7774SOL    HW234782   2.460   3.694   6.434  1.4456  0.2739 -0.4825
 7775SOL     OW34783   1.300   0.796   4.478  0.2710  0.0482  0.2065
 7775SOL    HW134784   1.327   0.709   4.450  1.2369  0.4515 -0.0988
 7775SOL    HW234785   1.277   0.776   4.569 -1.8223  0.8273 -0.1509
 7776SOL     OW34786   3.193   1.165  14.963  0.0120 -0.0778 -0.0271
 7776SOL    HW134787   3.183   1.104  15.037  1.5166 -0.4911 -0.1535
 7776SOL    HW234788   3.123   1.226  14.981  0.2510  0.3625 -0.5896
 7777SOL     OW34789   4.144   1.170   2.487 -0.5112  0.3421  0.1131
 7777SOL    HW134790   4.170   1.249   2.440  0.5664 -0.6944 -1.0439
 7777SOL    HW234791   4.134   1.108   2.414  0.2161  0.3294  0.0245
 7778SOL     OW34792   2.562   3.313   6.965  0.0035  0.1785  0.4095
 7778SOL    HW134793   2.485   3.257   6.956  2.6825 -3.1063 -1.7486
 7778SOL    HW234794   2.535   3.383   7.025  0.0128 -1.1694  1.9774
 7779SOL     OW34795   2.242   2.581   7.506  0.3634  0.0769  0.2725
 7779SOL    HW134796   2.177   2.565   7.438 -1.4898  3.7185  1.1876
 7779SOL    HW234797   2.190   2.548   7.580 -0.2025  3.1482  1.2558
 7780SOL     OW34798   3.498   1.626   0.103  0.0877 -0.0067  0.4191
 7780SOL    HW134799   3.471   1.594   0.017 -1.2352  0.7339  0.5591
 7780SOL    HW234800   3.580   1.579   0.113  0.0390 -0.1335  0.2267
 7781SOL     OW34801   4.305   1.323   6.001  0.0817  0.3414 -0.4041
 7781SOL    HW134802   4.338   1.238   5.972  0.3213  0.6933 -1.1700
 7781SOL    HW234803   4.387   1.361   6.031  0.2476  0.7773 -1.4186
 7782SOL     OW34804   0.184   1.201   9.529 -0.1297 -0.0601  0.2470
 7782SOL    HW134805   0.152   1.203   9.439 -1.2975 -0.3468  0.6573
 7782SOL    HW234806   0.140   1.282   9.555  1.4310  0.5869  0.8589
 7783SOL     OW34807   4.515   4.164   5.872 -0.0272  0.9969  0.2913
 7783SOL    HW134808   4.579   4.189   5.805  0.3456 -0.5298  0.0689
 7783SOL    HW234809   4.449   4.232   5.859 -0.1680  1.1279  1.6927
 7784SOL     OW34810   1.446   3.016   7.658  0.3736 -0.1610  0.0438
 7784SOL    HW134811   1.398   3.079   7.605  0.7708 -0.5062 -0.7208
 7784SOL    HW234812   1.396   3.015   7.740 -0.3836  3.3403 -0.4143
 7785SOL     OW34813   4.544   2.748   7.347  0.4212 -0.2321 -0.1201
 7785SOL    HW134814   4.527   2.807   7.273  1.5404  1.9040  1.3248
 7785SOL    HW234815   4.457   2.712   7.362  1.0553 -1.1962  1.2488
 7786SOL     OW34816   1.770   0.069   1.406 -0.3592 -0.3834 -0.1082
 7786SOL    HW134817   1.859   0.083   1.435  0.3842 -0.1747 -2.4798
 7786SOL    HW234818   1.791   0.054   1.313 -1.1713 -0.4189 -0.2893
 7787SOL     OW34819   1.893   2.822   4.520  0.6810 -0.5486  0.2787
 7787SOL    HW134820   1.948   2.864   4.586 -1.1163  2.6872 -0.3121
 7787SOL    HW234821   1.802   2.839   4.544  0.5214  1.0369 -1.4825
 7788SOL     OW34822   1.489   0.585   3.597  0.2701  0.1996 -0.1344
 7788SOL    HW134823   1.550   0.518   3.628  0.3901  0.1468 -0.4864
 7788SOL    HW234824   1.550   0.630   3.540  0.6286 -0.0045  0.0880
 7789SOL     OW34825   2.740   2.474   6.744  0.0291  0.1541 -0.1901
 7789SOL    HW134826   2.649   2.503   6.734 -0.1629 -0.3310  0.1284
 7789SOL    HW234827   2.729   2.406   6.811  0.9499  1.5047  1.3214
 7790SOL     OW34828   2.746   4.199   7.137  0.8144  0.1309 -0.6212
 7790SOL    HW134829   2.814   4.254   7.174  0.2657  0.3552  0.0534
 7790SOL    HW234830   2.704   4.263   7.079 -1.5267 -0.0377  0.8944
 7791SOL     OW34831   2.961   2.689   0.579 -0.3287 -0.1979 -0.0620
 7791SOL    HW134832   3.015   2.686   0.500 -0.0742  1.7750  0.0454
 7791SOL    HW234833   2.988   2.771   0.620 -2.8780  0.0023  1.2212
 7792SOL     OW34834   4.286   3.620   8.294 -0.2528  0.6092  0.6134
 7792SOL    HW134835   4.261   3.610   8.203  2.2512  1.8722 -0.2169
 7792SOL    HW234836   4.382   3.621   8.295 -0.2870  2.7916  2.8210
 7793SOL     OW34837   0.390   2.693   5.243  0.0222 -0.4682 -0.0552
 7793SOL    HW134838   0.412   2.615   5.193 -2.0624 -1.1960  0.1913
 7793SOL    HW234839   0.473   2.741   5.235  1.6069 -2.9309  1.5774
 7794SOL     OW34840   0.017   2.880   6.825 -0.3363 -0.1869  1.2131
 7794SOL    HW134841   0.035   2.879   6.919  0.7382  0.2937  1.0175
 7794SOL    HW234842   4.652   2.847   6.820  0.0985 -1.2451  0.5339
 7795SOL     OW34843   4.315   4.651   8.045 -0.0433  0.4001 -0.1701
 7795SOL    HW134844   4.379   4.640   7.975  0.4541 -1.6177  0.6188
 7795SOL    HW234845   4.377   4.698   8.101 -0.1785  0.3388  0.0297
 7796SOL     OW34846   2.942   0.743  15.681 -0.0104 -0.1678  0.7679
 7796SOL    HW134847   2.996   0.745  15.760 -1.1278  0.7611  1.5114
 7796SOL    HW234848   2.935   0.649  15.664 -1.3080 -0.1400  1.1195
 7797SOL     OW34849   3.258   0.968   6.535  0.4694  0.0690  0.1001
 7797SOL    HW134850   3.256   1.027   6.611  0.7529 -0.6366  0.6564
 7797SOL    HW234851   3.171   0.931   6.530  0.9631 -0.9342 -0.9658
 7798SOL     OW34852   1.004   2.169   1.600  0.2489  0.0114 -0.0232
 7798SOL    HW134853   1.010   2.144   1.692 -1.9376  0.7474  0.3222
 7798SOL    HW234854   0.930   2.230   1.596 -0.0414 -0.3685 -0.3383
 7799SOL     OW34855   0.492   4.698   6.654  0.2571  0.2630 -0.2016
 7799SOL    HW134856   0.585   4.690   6.676 -0.1123 -2.1573  0.4384
 7799SOL    HW234857   0.467   0.062   6.684  1.4030  0.5875 -0.1847
 7800SOL     OW34858   2.865   3.076  13.726 -0.3698  0.8837 -0.3812
 7800SOL    HW134859   2.775   3.109  13.727 -0.8340 -0.4120 -0.0412
 7800SOL    HW234860   2.927   3.147  13.747 -0.4844  1.6215 -2.5550
 7801SOL     OW34861   1.806   4.105  11.102  0.1222  0.4987  0.1631
 7801SOL    HW134862   1.724   4.117  11.052 -0.4175  0.7300  1.1062
 7801SOL    HW234863   1.773   4.066  11.182  0.4379  0.1509  0.1224
 7802SOL     OW34864   1.312   1.076   7.045  0.3385 -0.3122 -0.1220
 7802SOL    HW134865   1.353   1.007   6.994 -0.0089 -0.4471 -0.2176
 7802SOL    HW234866   1.228   1.032   7.057  1.1628 -2.6545 -2.9652
 7803SOL     OW34867   4.614   2.633   2.599 -0.0121  0.1062  0.2437
 7803SOL    HW134868   4.650   2.621   2.511 -0.2209  0.2275  0.1404
 7803SOL    HW234869   4.645   2.723   2.613  1.0314 -0.2621  0.2509
 7804SOL     OW34870   1.429   3.328  10.871  0.2640  0.0861  0.1955
 7804SOL    HW134871   1.383   3.411  10.870 -1.2300 -0.7433 -0.0461
 7804SOL    HW234872   1.492   3.336  10.799  2.6353  3.8308  2.6977
 7805SOL     OW34873   2.608   0.562   6.927  0.6394 -0.4777  0.5091
 7805SOL    HW134874   2.546   0.511   6.980 -1.3984 -0.4321 -1.8370
 7805SOL    HW234875   2.668   0.594   6.994  0.2951 -2.0906  1.5885
 7806SOL     OW34876   4.326   4.153   5.510 -0.4245 -0.1803 -0.3996
 7806SOL    HW134877   4.311   4.241   5.473  1.6012  0.4694  0.3421
 7806SOL    HW234878   4.338   4.175   5.602  1.0106  1.1172 -0.8977
 7807SOL     OW34879   1.234   0.821  11.019  0.1801  0.2643  0.2956
 7807SOL    HW134880   1.276   0.758  11.077  0.3045  0.4843  0.4429
 7807SOL    HW234881   1.199   0.886  11.080 -1.3574 -1.0061  0.7830
 7808SOL     OW34882   0.983   0.326   4.280  0.0915  0.5253  0.0795
 7808SOL    HW134883   1.077   0.307   4.282 -0.6366 -3.0743 -0.9872
 7808SOL    HW234884   0.964   0.302   4.189  2.9051 -1.2521 -0.0226
 7809SOL     OW34885   4.069   3.450   7.358 -0.0419  0.4338 -0.2509
 7809SOL    HW134886   4.022   3.472   7.438  1.7648 -1.5265  1.3628
 7809SOL    HW234887   4.142   3.403   7.398 -0.6971  0.3830  0.8851
 7810SOL     OW34888   3.642   4.129  12.614  0.0363  0.0899 -0.1981
 7810SOL    HW134889   3.609   4.151  12.702 -0.1411  1.3072 -0.5657
 7810SOL    HW234890   3.715   4.190  12.601 -0.0350  0.3896  0.8019
 7811SOL     OW34891   1.933   0.008   6.298  0.3951  0.1066 -0.5663
 7811SOL    HW134892   1.965   0.073   6.360  1.4386 -0.3543 -0.6165
 7811SOL    HW234893   1.959   0.040   6.211 -0.7276 -0.7815 -1.2356
 7812SOL     OW34894   4.309   0.419  12.061 -0.4892  0.4681  0.2897
 7812SOL    HW134895   4.295   0.466  12.142  1.4847  0.1863  0.7992
 7812SOL    HW234896   4.402   0.395  12.064 -0.5331  0.7112  3.1538
 7813SOL     OW34897   0.293   1.988  10.468  0.0407  0.0667 -0.3046
 7813SOL    HW134898   0.231   1.916  10.455  1.2461 -1.0879  0.4156
 7813SOL    HW234899   0.241   2.063  10.438 -0.3302  0.0085  0.1912
 7814SOL     OW34900   0.380   4.188  16.184  0.0912 -0.3282  0.4682
 7814SOL    HW134901   0.342   4.100  16.177  0.7047 -0.6609  1.3686
 7814SOL    HW234902   0.355   4.208  16.275  0.3304  0.8979  0.2584
 7815SOL     OW34903   4.524   3.627   9.237 -0.0005 -0.9079  1.0505
 7815SOL    HW134904   4.468   3.691   9.281 -0.9536 -1.3200  0.4358
 7815SOL    HW234905   4.612   3.655   9.261  0.1755 -0.9003  0.4179
 7816SOL     OW34906   4.421   1.337   0.982 -0.3083 -0.2267 -0.0752
 7816SOL    HW134907   4.330   1.325   1.012 -0.8364  1.0383 -1.1592
 7816SOL    HW234908   4.401   1.386   0.902 -3.1171  0.1327  0.8353
 7817SOL     OW34909   3.341   1.305   5.314  0.1596  0.2954  0.0667
 7817SOL    HW134910   3.321   1.399   5.312  1.5679  0.5706 -1.7546
 7817SOL    HW234911   3.432   1.295   5.341 -0.5187 -0.7253  1.9142
 7818SOL     OW34912   1.286   3.637   1.802 -0.1347 -0.2889  0.3734
 7818SOL    HW134913   1.242   3.653   1.719 -0.8994 -0.9151  0.6606
 7818SOL    HW234914   1.301   3.713   1.858  5.2383 -0.7082 -0.4600
 7819SOL     OW34915   3.704   0.409   7.022 -0.1535  0.0894 -0.1153
 7819SOL    HW134916   3.611   0.435   7.019  0.5205  2.6450  0.7745
 7819SOL    HW234917   3.720   0.415   7.116  0.9444 -0.3836 -0.2779
 7820SOL     OW34918   2.981   3.647  13.276  0.1384  0.5353 -0.2907
 7820SOL    HW134919   2.960   3.709  13.345 -1.9324 -0.8742  0.3593
 7820SOL    HW234920   3.075   3.634  13.271  0.1356  0.8920 -1.3106
 7821SOL     OW34921   2.211   3.970   6.106  0.2707  0.5086 -0.5183
 7821SOL    HW134922   2.126   4.011   6.092 -0.4783 -0.6384  0.7334
 7821SOL    HW234923   2.219   3.990   6.199  0.7169  1.3251 -0.7341
 7822SOL     OW34924   2.946   1.382   7.277 -0.2892  0.8327 -0.3885
 7822SOL    HW134925   2.903   1.302   7.247 -0.7184  1.6723 -2.0267
 7822SOL    HW234926   3.008   1.402   7.206  0.9329 -1.1248  0.1200
 7823SOL     OW34927   4.651   1.923   5.414 -0.5684  0.0229  0.6649
 7823SOL    HW134928   4.697   2.004   5.439 -0.5622  0.2145  0.0415
 7823SOL    HW234929   4.567   1.947   5.454 -1.1370 -0.5218 -0.2090
 7824SOL     OW34930   3.908   1.312  13.805  0.2896  0.0739  0.4024
 7824SOL    HW134931   3.975   1.378  13.787 -1.4056  1.7666  0.3728
 7824SOL    HW234932   3.952   1.229  13.784  3.2168  2.2318 -1.8720
 7825SOL     OW34933   2.363   1.863  10.036 -0.3326 -0.2265  0.3938
 7825SOL    HW134934   2.422   1.882  10.109 -0.4763 -2.1835  1.0076
 7825SOL    HW234935   2.335   1.777  10.068 -0.9435 -0.2311 -0.1450
 7826SOL     OW34936   3.460   0.827  12.305 -0.1074  0.0428 -0.1466
 7826SOL    HW134937   3.418   0.874  12.233 -2.4479 -2.0487 -0.1409
 7826SOL    HW234938   3.516   0.772  12.250  0.1478  0.6794 -0.5246
 7827SOL     OW34939   1.376   0.227  14.758  0.2086 -0.5436  0.0226
 7827SOL    HW134940   1.308   0.201  14.821 -0.1957  2.3515  0.7914
 7827SOL    HW234941   1.370   0.169  14.683 -1.3645 -0.3827  0.0229
 7828SOL     OW34942   2.953   2.038   9.440  0.5011 -0.0238 -0.1028
 7828SOL    HW134943   2.913   1.960   9.478  3.3057 -1.7571 -0.6982
 7828SOL    HW234944   2.982   2.013   9.352 -0.0523 -3.7874  0.7801
 7829SOL     OW34945   2.560   3.509  17.594 -0.2126 -0.3604 -0.4008
 7829SOL    HW134946   2.473   3.468  17.595  0.4339 -1.7258 -0.3473
 7829SOL    HW234947   2.614   3.440  17.631 -0.6515  0.3627  1.6010
 7830SOL     OW34948   2.747   1.066   6.156 -0.4635  0.2543 -0.0023
 7830SOL    HW134949   2.736   1.135   6.221 -2.4678 -1.3596  1.3326
 7830SOL    HW234950   2.767   1.123   6.081  0.7166 -0.0339  0.0848
 7831SOL     OW34951   2.841   1.329   5.091 -0.9774  0.3936 -0.6746
 7831SOL    HW134952   2.777   1.282   5.039 -0.9959 -2.3827  1.8631
 7831SOL    HW234953   2.922   1.302   5.048 -0.3039 -1.8692  1.9814
 7832SOL     OW34954   4.109   3.244   2.223 -0.1895  0.2369  0.5622
 7832SOL    HW134955   4.041   3.194   2.178  0.3154  1.9859 -2.1864
 7832SOL    HW234956   4.182   3.239   2.161 -1.5738  1.8370 -1.1885
 7833SOL     OW34957   3.018   1.827   7.159 -0.0392 -0.4098 -0.3129
 7833SOL    HW134958   2.935   1.789   7.190 -0.6916 -0.7944 -2.4905
 7833SOL    HW234959   2.992   1.843   7.068  0.7702  2.2128 -0.0804
 7834SOL     OW34960   0.557   4.357   2.670 -0.4024 -0.1660  0.1562
 7834SOL    HW134961   0.490   4.338   2.737  0.3677 -1.1458  0.6423
 7834SOL    HW234962   0.626   4.296   2.696 -0.1325 -0.3007 -0.9155
 7835SOL     OW34963   3.688   2.525  16.725  0.1309  0.1255  0.3052
 7835SOL    HW134964   3.628   2.567  16.663  0.9370 -0.8808 -1.1541
 7835SOL    HW234965   3.648   2.439  16.730 -1.6864  1.0804  1.9579
 7836SOL     OW34966   1.794   0.174   5.325 -0.5565  0.7488  0.3372
 7836SOL    HW134967   1.862   0.194   5.390  1.3652 -1.3868 -1.0078
 7836SOL    HW234968   1.766   0.085   5.342  0.1043 -0.0234 -2.6514
 7837SOL     OW34969   3.851   2.696   2.412 -0.5053  0.1648  0.0170
 7837SOL    HW134970   3.945   2.713   2.399 -0.2210  0.0926  2.0314
 7837SOL    HW234971   3.808   2.781   2.401  1.4040  1.4417  2.3816
 7838SOL     OW34972   3.278   1.530   2.382  0.6544  0.4172 -0.3956
 7838SOL    HW134973   3.298   1.615   2.343  0.5879  1.2578  1.4423
 7838SOL    HW234974   3.368   1.497   2.390  0.2006 -0.5268  0.6977
 7839SOL     OW34975   2.491   3.779   3.534  0.0232  0.5317  0.7519
 7839SOL    HW134976   2.507   3.870   3.509  1.7204 -0.0216 -0.1788
 7839SOL    HW234977   2.529   3.734   3.458 -1.7069  0.7498 -0.2625
 7840SOL     OW34978   0.388   1.638   1.035 -0.0926  0.0767 -0.2302
 7840SOL    HW134979   0.433   1.722   1.024  0.1074 -0.0133 -0.1091
 7840SOL    HW234980   0.449   1.589   1.090  0.3095 -0.9204 -1.5654
 7841SOL     OW34981   1.537   3.242   4.490 -0.3648 -0.0812 -0.3477
 7841SOL    HW134982   1.615   3.234   4.544  0.0796  2.8455 -0.5665
 7841SOL    HW234983   1.561   3.324   4.446  0.6846  0.4923  1.2995
 7842SOL     OW34984   1.674   1.632  10.957  0.2692  0.0387  0.2728
 7842SOL    HW134985   1.735   1.642  10.884 -0.4387 -0.0512 -0.3198
 7842SOL    HW234986   1.608   1.700  10.946  0.9131  0.4978 -0.7020
 7843SOL     OW34987   2.688   4.230  13.339  0.2039  0.2924  0.6059
 7843SOL    HW134988   2.656   4.203  13.253 -0.3869 -1.0915  1.2676
 7843SOL    HW234989   2.603   4.238  13.382  0.0797 -0.0853  0.4284
 7844SOL     OW34990   1.180   3.947  11.066  0.6998  0.1132 -0.1494
 7844SOL    HW134991   1.118   4.019  11.053  0.7208 -0.0207 -0.9910
 7844SOL    HW234992   1.154   3.893  10.990  0.1837  0.1805 -0.0238
 7845SOL     OW34993   2.944   0.280   8.953 -0.6357  0.2544 -0.5140
 7845SOL    HW134994   2.857   0.258   8.918 -0.2676 -1.5414 -0.2749
 7845SOL    HW234995   2.926   0.248   9.041  0.3757  0.0126 -0.4046
 7846SOL     OW34996   3.748   0.329  15.062 -0.6337 -0.2861  0.1915
 7846SOL    HW134997   3.682   0.397  15.057 -0.5884 -0.1959  0.8321
 7846SOL    HW234998   3.718   0.282  15.140 -1.2219  1.6160  1.0859
 7847SOL     OW34999   1.920   1.866   1.744  0.0402 -0.4778  0.0928
 7847SOL    HW135000   1.916   1.859   1.649  0.1446  1.1533 -0.0404
 7847SOL    HW235001   2.014   1.870   1.762  0.2126 -1.0128 -0.7321
 7848SOL     OW35002   0.178   2.417   9.123  0.0804  0.0511  1.2492
 7848SOL    HW135003   0.226   2.412   9.205  0.1911  1.5207  1.2814
 7848SOL    HW235004   0.245   2.438   9.057 -2.6088  4.7269 -0.0018
 7849SOL     OW35005   0.272   4.605   2.900  0.0084 -0.0876 -0.3673
 7849SOL    HW135006   0.274   4.572   2.810 -1.9288  1.0227 -0.8268
 7849SOL    HW235007   0.333   4.544   2.942  0.5003 -0.2925 -1.3740
 7850SOL     OW35008   0.133   4.505  13.654 -0.2908 -0.2825 -0.9669
 7850SOL    HW135009   0.093   4.420  13.671  0.9033 -0.3603  1.4969
 7850SOL    HW235010   0.118   4.549  13.738 -1.5258 -4.7041  1.0902
 7851SOL     OW35011   0.324   1.119   2.035  0.1360  0.1150 -0.0084
 7851SOL    HW135012   0.373   1.055   2.088  0.3550 -0.1868 -0.5808
 7851SOL    HW235013   0.369   1.101   1.953 -2.9788 -2.7782 -1.0830
 7852SOL     OW35014   2.710   2.604   7.723  0.2362 -0.2439 -0.4446
 7852SOL    HW135015   2.637   2.552   7.690 -2.3954  2.5353  0.9541
 7852SOL    HW235016   2.689   2.680   7.669 -1.2995  1.2688  2.2409
 7853SOL     OW35017   2.764   3.753  13.074  0.1587  0.4408  0.0633
 7853SOL    HW135018   2.694   3.697  13.109  0.5977 -0.5883 -0.6867
 7853SOL    HW235019   2.842   3.710  13.108  0.3156  0.7541  0.1001
 7854SOL     OW35020   0.911   1.408   2.422  0.4297 -0.2964 -0.0139
 7854SOL    HW135021   0.892   1.319   2.392 -0.2971 -0.3344  0.5675
 7854SOL    HW235022   0.829   1.412   2.470  0.7916 -1.6467  0.6981
 7855SOL     OW35023   2.074   0.104   1.361  0.5216 -0.0734 -0.1781
 7855SOL    HW135024   2.113   0.027   1.403  3.4213  0.9526 -0.9803
 7855SOL    HW235025   2.030   0.061   1.288  1.5479  1.3881 -1.6598
 7856SOL     OW35026   3.264   0.865  13.940 -0.2068 -0.1577 -0.5583
 7856SOL    HW135027   3.194   0.890  13.880 -0.1462 -0.1631 -0.6317
 7856SOL    HW235028   3.222   0.785  13.972  2.9970 -1.1734  1.1203
 7857SOL     OW35029   0.833   0.743   6.010 -0.1519 -0.5711  0.6637
 7857SOL    HW135030   0.788   0.827   6.012 -0.1660 -0.5539 -0.3436
 7857SOL    HW235031   0.882   0.744   6.092  0.6173  2.4402  0.1510
 7858SOL     OW35032   4.286   1.378   6.381 -0.0733  0.1456  0.5651
 7858SOL    HW135033   4.202   1.333   6.375 -0.2998  0.9144 -1.8569
 7858SOL    HW235034   4.275   1.429   6.462 -0.8275 -1.4076  1.4478
 7859SOL     OW35035   1.401   2.126   7.785  0.0691 -0.3953 -0.1509
 7859SOL    HW135036   1.473   2.114   7.846 -0.1249 -3.4396 -0.5356
 7859SOL    HW235037   1.339   2.175   7.840 -0.1504 -0.2856 -0.4933
 7860SOL     OW35038   0.854   1.627   1.507 -0.2247 -0.9293  0.1619
 7860SOL    HW135039   0.835   1.602   1.416  1.1626 -1.6172  0.0571
 7860SOL    HW235040   0.781   1.591   1.558 -0.6871  0.2971  0.3725
 7861SOL     OW35041   2.753   3.947  12.898  0.2256  0.2229  0.2561
 7861SOL    HW135042   2.773   3.884  12.968 -1.2385 -0.8860 -0.3309
 7861SOL    HW235043   2.833   3.930  12.848 -0.5242 -1.3077 -0.4066
 7862SOL     OW35044   4.425   2.855  13.729  0.0458 -0.3069 -0.2305
 7862SOL    HW135045   4.497   2.808  13.688  0.9310 -0.0456  1.0153
 7862SOL    HW235046   4.351   2.795  13.721 -0.7304  0.6310 -0.1003
 7863SOL     OW35047   2.033   2.644   0.635 -0.0634 -0.3878 -0.2291
 7863SOL    HW135048   1.999   2.665   0.548  0.4180 -0.0016 -0.3219
 7863SOL    HW235049   2.109   2.590   0.612 -0.8432 -1.0271 -1.3149
 7864SOL     OW35050   1.188   4.028   2.209  1.0240 -0.7591  0.0959
 7864SOL    HW135051   1.243   4.098   2.244 -0.4889 -1.1436  3.2530
 7864SOL    HW235052   1.130   4.009   2.283  1.5474 -0.9764  0.4514
 7865SOL     OW35053   2.172   2.898   6.126  0.5248 -0.8280  0.0710
 7865SOL    HW135054   2.259   2.936   6.142  0.0786  0.3831 -0.3582
 7865SOL    HW235055   2.156   2.886   6.220  1.8208  0.8283  0.5186
 7866SOL     OW35056   0.109   1.572  13.699 -0.4936 -0.2522 -1.0874
 7866SOL    HW135057   0.136   1.652  13.655  2.2840  0.4665  1.9570
 7866SOL    HW235058   0.137   1.597  13.787  0.5344  1.0347 -1.7785
 7867SOL     OW35059   2.588   2.940   2.475 -0.1493  0.5974  0.0730
 7867SOL    HW135060   2.499   2.933   2.441 -0.5394 -0.0817  1.2201
 7867SOL    HW235061   2.628   2.991   2.405  1.6100  0.8717  1.2796
 7868SOL     OW35062   2.250   1.213  13.147  0.2730  0.1555  0.8468
 7868SOL    HW135063   2.225   1.147  13.212  0.0051  0.9494  1.5450
 7868SOL    HW235064   2.222   1.177  13.063  0.3537  1.1020  0.4081
 7869SOL     OW35065   1.668   0.323  12.193  0.0216  0.5716  0.2739
 7869SOL    HW135066   1.718   0.281  12.122 -1.3663 -0.5893 -0.0031
 7869SOL    HW235067   1.578   0.319  12.160  0.8715 -2.5432 -1.7194
 7870SOL     OW35068   4.474   2.381   7.704 -0.4517  0.4023  0.3881
 7870SOL    HW135069   4.401   2.320   7.714 -0.1695  0.1224  0.7313
 7870SOL    HW235070   4.515   2.372   7.790 -0.5234 -0.4639  0.3269
 7871SOL     OW35071   0.817   3.999   0.160 -0.1733 -0.0940 -0.1225
 7871SOL    HW135072   0.793   3.935   0.228 -1.2096  1.8251  1.3055
 7871SOL    HW235073   0.912   4.000   0.169  0.0182 -2.0546 -1.7080
 7872SOL     OW35074   1.759   0.745  14.081 -0.2377  0.3598 -0.0323
 7872SOL    HW135075   1.726   0.693  14.007  1.9051  0.7412 -1.2638
 7872SOL    HW235076   1.762   0.682  14.152 -1.7755  1.7663  1.2888
 7873SOL     OW35077   4.635   1.727   2.925  0.4370 -0.1413 -0.2852
 7873SOL    HW135078   4.599   1.793   2.866  2.6955 -0.1627 -1.6926
 7873SOL    HW235079   4.551   1.683   2.938  1.1874 -1.6003 -0.3947
 7874SOL     OW35080   0.451   3.319   7.310  0.2459 -0.1844 -0.1370
 7874SOL    HW135081   0.453   3.375   7.388  0.7273  0.8368 -0.8785
 7874SOL    HW235082   0.533   3.328   7.262 -0.8069  1.6949 -1.5676
 7875SOL     OW35083   0.048   1.790   4.115  0.1021 -0.7438  0.2643
 7875SOL    HW135084   4.693   1.838   4.092 -0.6964 -2.1280  0.1037
 7875SOL    HW235085   0.055   1.807   4.209  1.8455  2.2089 -0.3930
 7876SOL     OW35086   4.569   1.114   1.667  0.1624  0.4539 -0.1325
 7876SOL    HW135087   4.480   1.115   1.702  0.4232 -1.8016  0.6298
 7876SOL    HW235088   4.587   1.208   1.666  2.2643  0.0686  0.6430
 7877SOL     OW35089   3.256   1.034   7.245 -0.3122 -0.6948 -0.1328
 7877SOL    HW135090   3.204   0.963   7.209 -0.5500 -0.6491  0.1207
 7877SOL    HW235091   3.315   1.046   7.171 -1.9356  0.3455 -1.2610
 7878SOL     OW35092   0.590   3.313   8.659 -0.4280  0.0262 -0.5071
 7878SOL    HW135093   0.535   3.390   8.643  0.0275  0.1709 -1.4067
 7878SOL    HW235094   0.589   3.272   8.572  0.8465  2.3402 -1.6098
 7879SOL     OW35095   1.440   4.651   0.131  0.1707 -0.2954 -0.2006
 7879SOL    HW135096   1.395   4.673   0.050 -0.3186 -1.2103 -0.1761
 7879SOL    HW235097   1.532   4.656   0.108 -0.0135  2.6254 -0.1983
 7880SOL     OW35098   2.202   1.141   1.425 -0.3361  0.6069  0.1522
 7880SOL    HW135099   2.218   1.220   1.476 -2.3572  0.3447  1.1751
 7880SOL    HW235100   2.125   1.171   1.377  1.0274  1.7422 -1.3384
 7881SOL     OW35101   3.377   3.307  17.695 -0.3087  0.4580  0.4619
 7881SOL    HW135102   3.389   3.321  17.602 -1.0651 -2.3151 -0.0419
 7881SOL    HW235103   3.388   3.213   0.013  2.9748  1.0044  1.4529
 7882SOL     OW35104   2.985   0.582   6.552  0.2885  0.2442  0.4774
 7882SOL    HW135105   2.919   0.572   6.483  0.3025  1.0091  0.3536
 7882SOL    HW235106   2.927   0.594   6.627  1.0700  1.0152  0.9511
 7883SOL     OW35107   1.363   1.792   6.850 -0.0530 -0.4838  0.2733
 7883SOL    HW135108   1.439   1.738   6.868 -1.4559 -2.0810  1.4238
 7883SOL    HW235109   1.290   1.730   6.848 -1.0136  0.6704 -1.5413
 7884SOL     OW35110   4.289   1.565   7.843  0.0453 -0.0559 -0.1307
 7884SOL    HW135111   4.194   1.554   7.851  0.0078 -0.6436 -1.3369
 7884SOL    HW235112   4.307   1.631   7.910  1.0480 -0.5750  0.1036
 7885SOL     OW35113   1.436   0.576   7.593 -0.0412  0.4148  0.5071
 7885SOL    HW135114   1.531   0.584   7.607  0.1635 -0.4285 -0.4125
 7885SOL    HW235115   1.408   0.552   7.681 -0.1405  1.1616  0.6810
 7886SOL     OW35116   0.838   3.861   8.793 -0.3638  0.2183 -0.0629
 7886SOL    HW135117   0.892   3.786   8.819  1.6089  1.2834 -0.9971
 7886SOL    HW235118   0.831   3.907   8.876  0.4977  2.1523 -1.0500
 7887SOL     OW35119   0.045   0.409  10.249  0.2581 -0.1670  0.4982
 7887SOL    HW135120   0.132   0.433  10.281  1.8377 -2.4671 -2.0105
 7887SOL    HW235121   4.719   0.490  10.252 -0.1195 -0.2479 -3.4482
 7888SOL     OW35122   2.368   0.818   8.002  0.4495 -0.0499  0.0312
 7888SOL    HW135123   2.378   0.913   7.995  1.2964 -0.1867 -0.4946
 7888SOL    HW235124   2.395   0.804   7.912 -1.1270 -0.3953 -0.3864
 7889SOL     OW35125   2.176   3.319   8.144  0.0683  0.1166  0.2564
 7889SOL    HW135126   2.184   3.322   8.239  1.7200  2.6879  0.0366
 7889SOL    HW235127   2.132   3.235   8.131 -0.6146  0.5110  0.0287
 7890SOL     OW35128   1.870   2.277   4.621 -0.0078  0.2510 -0.2081
 7890SOL    HW135129   1.883   2.370   4.640  2.3833  0.1917 -1.5104
 7890SOL    HW235130   1.815   2.279   4.543 -0.1941  1.1664 -0.0566
 7891SOL     OW35131   2.265   0.088   2.919 -0.3031  0.6267 -0.6991
 7891SOL    HW135132   2.351   0.053   2.898 -0.2364 -1.1362  2.5310
 7891SOL    HW235133   2.244   0.134   2.837 -0.7951  0.3502 -0.7299
 7892SOL     OW35134   1.151   1.598   3.174  0.5236  0.3162  0.2112
 7892SOL    HW135135   1.102   1.609   3.256  0.4886  0.5076  0.1648
 7892SOL    HW235136   1.107   1.518   3.142  1.0743  0.0804  0.0486
 7893SOL     OW35137   3.426   0.997   7.730  0.2457  0.1381  0.4039
 7893SOL    HW135138   3.505   1.041   7.699  0.5178 -0.2040  0.6149
 7893SOL    HW235139   3.373   0.988   7.651  1.8489  1.3279 -0.8065
 7894SOL     OW35140   1.883   1.748   6.801  0.1862 -0.1537 -0.2080
 7894SOL    HW135141   1.958   1.805   6.819  1.1629 -1.1504 -1.0732
 7894SOL    HW235142   1.835   1.746   6.884  0.8211 -0.3811  0.1548
 7895SOL     OW35143   2.809   4.194   3.890  0.2368  0.6361 -0.0006
 7895SOL    HW135144   2.821   4.287   3.907  0.2656  0.8979 -1.4742
 7895SOL    HW235145   2.716   4.191   3.912 -0.2773  3.2057 -1.9206
 7896SOL     OW35146   3.674   1.183   8.269  0.5723  0.0942  0.0822
 7896SOL    HW135147   3.762   1.196   8.232 -0.7961  2.2594 -2.3844
 7896SOL    HW235148   3.651   1.095   8.239  1.7839 -0.9244  2.1149
 7897SOL     OW35149   2.573   4.585  15.703  0.6879 -0.4924  0.4222
 7897SOL    HW135150   2.616   4.658  15.658 -1.5466  1.0397  0.7900
 7897SOL    HW235151   2.525   4.538  15.635  0.1066  2.6845 -1.3916
 7898SOL     OW35152   2.399   0.384   3.166 -0.3420  0.2162  0.4972
 7898SOL    HW135153   2.443   0.411   3.246 -0.4107  3.3926 -0.5654
 7898SOL    HW235154   2.323   0.441   3.159 -1.5640 -1.4825 -0.2835
 7899SOL     OW35155   4.374   2.295   3.894  0.1355  0.2359 -0.3427
 7899SOL    HW135156   4.401   2.212   3.853 -2.0417 -0.2211 -0.8572
 7899SOL    HW235157   4.359   2.255   3.979  0.0819  2.4789  0.6789
 7900SOL     OW35158   4.294   0.491  15.004 -0.7895  0.1619 -0.2179
 7900SOL    HW135159   4.370   0.484  14.945 -2.1035 -2.3114 -1.6224
 7900SOL    HW235160   4.336   0.450  15.080 -2.7696  0.1897  0.8836
 7901SOL     OW35161   0.254   4.525  17.259 -0.0971 -0.1902  0.3097
 7901SOL    HW135162   0.252   4.445  17.312  2.8423  0.7427  1.8555
 7901SOL    HW235163   0.206   4.501  17.180 -0.2233 -1.1882  0.6866
 7902SOL     OW35164   3.730   4.672  11.764  0.2075 -0.3241 -0.5972
 7902SOL    HW135165   3.666   4.628  11.708  1.3725 -1.1735 -1.2506
 7902SOL    HW235166   3.673   0.005  11.815  0.6965 -1.9592  1.7908
 7903SOL     OW35167   0.583   0.057   7.050  0.2520 -0.0938  0.2174
 7903SOL    HW135168   0.583   0.023   7.140  1.1265  0.5394  0.4618
 7903SOL    HW235169   0.497   0.029   7.019  0.0819  2.2497 -1.4980
 7904SOL     OW35170   0.616   2.305   4.076 -0.0218 -0.2519  0.4003
 7904SOL    HW135171   0.604   2.214   4.049 -0.0976 -0.3080  0.6237
 7904SOL    HW235172   0.526   2.337   4.087  1.2542  2.6499  2.2873
 7905SOL     OW35173   0.991   2.422   7.929  1.1564  0.5338 -0.2902
 7905SOL    HW135174   0.974   2.473   7.850 -4.0760 -0.5437  0.1096
 7905SOL    HW235175   1.034   2.483   7.989  0.7802  0.1917  0.3272
 7906SOL     OW35176   2.269   2.597  14.607 -0.6608  0.0490 -0.0379
 7906SOL    HW135177   2.297   2.519  14.559 -0.7467 -0.6410  1.0389
 7906SOL    HW235178   2.339   2.609  14.672  1.9763  2.6553 -3.3534
 7907SOL     OW35179   0.242   0.285   7.481 -0.2669  0.2271  0.0627
 7907SOL    HW135180   0.226   0.209   7.536  2.1132 -0.7735 -0.6533
 7907SOL    HW235181   0.156   0.288   7.440 -0.1849  1.2567 -0.0476
 7908SOL     OW35182   2.631   2.125  13.372 -0.2751 -0.6219 -0.5054
 7908SOL    HW135183   2.699   2.128  13.439  0.6638 -1.4295 -1.4273
 7908SOL    HW235184   2.570   2.188  13.411  0.9564  0.6628 -0.6950
 7909SOL     OW35185   3.982   3.393   9.426 -0.0012  0.0322  0.0715
 7909SOL    HW135186   3.972   3.419   9.518  1.6771 -0.4176  0.3771
 7909SOL    HW235187   4.078   3.396   9.427 -0.0847  2.1420  0.8336
 7910SOL     OW35188   4.005   2.978   1.724  0.7063  0.0582  0.8045
 7910SOL    HW135189   4.062   2.975   1.801  1.4596 -0.5028  0.2338
 7910SOL    HW235190   3.936   2.921   1.756  2.0528 -1.2693  1.3251
 7911SOL     OW35191   1.338   3.267   2.602  0.5887  0.1779 -0.2991
 7911SOL    HW135192   1.368   3.324   2.673 -0.5813 -0.7566  0.9529
 7911SOL    HW235193   1.423   3.244   2.564 -0.1665  0.0972 -1.9363
 7912SOL     OW35194   3.322   4.717   7.229 -0.0200  0.4449 -0.0008
 7912SOL    HW135195   3.411   4.684   7.219 -0.1514  0.2401 -0.4906
 7912SOL    HW235196   3.329   0.085   7.252 -0.2420  0.3631  0.4085
 7913SOL     OW35197   2.099   3.258   4.819  0.6364 -0.0811  0.2715
 7913SOL    HW135198   2.133   3.264   4.909  0.9339 -0.9223  0.2143
 7913SOL    HW235199   2.024   3.315   4.839 -0.3280 -2.0396  2.3145
 7914SOL     OW35200   3.467   1.818   9.345 -0.0055  0.1821 -0.0571
 7914SOL    HW135201   3.546   1.782   9.305  1.3175  2.9940  0.0284
 7914SOL    HW235202   3.412   1.817   9.267 -1.3979 -0.5239  0.9195
 7915SOL     OW35203   0.895   2.557   3.575 -0.1684 -0.1083  0.2721
 7915SOL    HW135204   0.947   2.479   3.558  1.8579  1.0461  1.2021
 7915SOL    HW235205   0.816   2.530   3.528  1.0447  2.5470 -3.2702
 7916SOL     OW35206   2.667   1.553   8.511  0.1282  0.7735 -0.2807
 7916SOL    HW135207   2.720   1.473   8.522 -0.3208  0.3647 -1.1188
 7916SOL    HW235208   2.600   1.522   8.450  0.4650 -0.6499  0.0685
 7917SOL     OW35209   0.538   0.545   9.744  0.0699  1.0454 -0.4840
 7917SOL    HW135210   0.516   0.633   9.774  0.4108  0.9704 -0.0188
 7917SOL    HW235211   0.505   0.496   9.820  0.8023  2.2877  0.6379
 7918SOL     OW35212   3.674   4.696  12.861 -0.4930 -0.0669  0.3025
 7918SOL    HW135213   3.675   0.062  12.827  0.4387  0.0394  0.6094
 7918SOL    HW235214   3.580   4.678  12.869 -0.3009 -0.2585  1.9913
 7919SOL     OW35215   0.209   0.579   2.000 -0.0526  0.0007  0.1906
 7919SOL    HW135216   0.210   0.652   2.062  0.9076 -0.2651  0.4938
 7919SOL    HW235217   0.256   0.612   1.923 -1.4581 -1.4504 -1.2861
 7920SOL     OW35218   2.356   0.222  10.784 -0.3124  0.1683 -0.4656
 7920SOL    HW135219   2.278   0.218  10.729 -0.4410  3.0696 -0.4874
 7920SOL    HW235220   2.430   0.234  10.724  0.6094  2.6770  1.1815
 7921SOL     OW35221   4.574   3.742   2.646  0.2902 -0.5808  0.4033
 7921SOL    HW135222   4.587   3.657   2.687  0.3641 -1.3295 -1.1365
 7921SOL    HW235223   4.607   3.725   2.557 -1.5136 -1.2708 -0.1211
 7922SOL     OW35224   4.342   3.558  14.899 -0.1560  0.6534 -0.0908
 7922SOL    HW135225   4.391   3.537  14.820  0.8794 -0.9633  0.9949
 7922SOL    HW235226   4.395   3.527  14.972 -3.4336  1.4319  2.6319
 7923SOL     OW35227   0.099   2.860   9.878  0.4024  0.4593 -0.2817
 7923SOL    HW135228   0.173   2.909   9.913 -1.5823  0.8616  3.3394
 7923SOL    HW235229   0.049   2.838   9.956  0.6943 -3.1204 -1.0653
 7924SOL     OW35230   3.576   0.885  16.385 -0.4193 -0.2122  0.2935
 7924SOL    HW135231   3.604   0.903  16.475  0.8922  1.0605 -0.3676
 7924SOL    HW235232   3.550   0.793  16.388  0.4748 -0.4568  0.3579
 7925SOL     OW35233   3.517   1.571   5.965  0.1923 -1.0248 -0.2991
 7925SOL    HW135234   3.605   1.556   6.000 -0.1276 -1.7512  0.1984
 7925SOL    HW235235   3.483   1.481   5.964 -0.0608 -0.9060 -1.9193
 7926SOL     OW35236   3.611   1.747   7.664  0.3047 -0.0227  0.4737
 7926SOL    HW135237   3.621   1.842   7.667  1.5067 -0.1852  1.9036
 7926SOL    HW235238   3.626   1.713   7.752  0.4665  3.4358  1.8070
 7927SOL     OW35239   4.532   3.211   2.307  0.5514 -0.1543 -0.6107
 7927SOL    HW135240   4.527   3.227   2.213  5.4510  1.9665 -0.4695
 7927SOL    HW235241   4.600   3.275   2.330  0.3387  0.0671 -0.5908
 7928SOL     OW35242   1.228   4.278  11.879 -0.1517 -0.0235 -0.4113
 7928SOL    HW135243   1.284   4.301  11.953 -0.3425  2.4013 -1.0168
 7928SOL    HW235244   1.246   4.342  11.810 -0.2683 -1.1605 -1.4915
 7929SOL     OW35245   0.100   4.651  13.335 -0.1159 -0.0108  0.1617
 7929SOL    HW135246   0.120   4.646  13.429 -0.4743 -1.2606  0.1710
 7929SOL    HW235247   0.015   4.694  13.332 -0.9106 -1.5909  0.0242
 7930SOL     OW35248   2.566   0.815  14.583  0.7481 -0.0528  0.2932
 7930SOL    HW135249   2.618   0.795  14.504 -0.0048  2.6010 -0.8491
 7930SOL    HW235250   2.632   0.821  14.652  1.6605 -2.0754 -0.3739
 7931SOL     OW35251   1.260   1.361   2.516 -0.3335 -0.1963  0.1637
 7931SOL    HW135252   1.246   1.429   2.451 -2.5819  0.0793  0.9301
 7931SOL    HW235253   1.182   1.370   2.571  0.9646 -1.6268  2.2539
 7932SOL     OW35254   3.733   3.639  11.800 -0.0742  0.2981  0.1311
 7932SOL    HW135255   3.738   3.678  11.887 -1.0353 -0.4793  0.5261
 7932SOL    HW235256   3.819   3.666  11.766  0.0852 -2.2928 -1.5200
 7933SOL     OW35257   0.427   0.378  15.429  0.3128  0.1165  0.3440
 7933SOL    HW135258   0.376   0.303  15.400 -1.1575  0.7689  1.2148
 7933SOL    HW235259   0.360   0.447  15.422 -0.6073 -0.8384 -0.1711
 7934SOL     OW35260   0.641   3.402   4.824  0.1631  0.2979  0.0424
 7934SOL    HW135261   0.736   3.396   4.811  0.3272  1.6267  0.5923
 7934SOL    HW235262   0.636   3.497   4.808 -3.3488 -0.1329 -1.3847
 7935SOL     OW35263   0.329   1.158   8.141 -0.0189  0.3844 -0.0792
 7935SOL    HW135264   0.412   1.127   8.174  0.5311  1.7481 -0.1667
 7935SOL    HW235265   0.263   1.106   8.188 -0.6769  1.3294  0.0543
 7936SOL     OW35266   3.355   0.849   8.045 -0.0841  0.0162  0.6629
 7936SOL    HW135267   3.292   0.782   8.019  2.0650 -1.5922 -0.3899
 7936SOL    HW235268   3.395   0.849   7.958 -0.2018  1.6856  0.6038
 7937SOL     OW35269   0.318   2.946   6.975  0.3504 -0.3985  1.3300
 7937SOL    HW135270   0.379   2.876   6.997  0.5522 -0.8033 -0.5206
 7937SOL    HW235271   0.300   2.922   6.884  0.3668  0.8080  1.0058
 7938SOL     OW35272   1.656   4.000   7.456 -0.1502 -0.5633  0.1290
 7938SOL    HW135273   1.676   4.058   7.529 -1.4705  1.0095 -0.7582
 7938SOL    HW235274   1.580   3.952   7.490 -1.6878  0.3597 -1.9580
 7939SOL     OW35275   2.690   4.543   3.602  0.3041  0.0221 -0.5882
 7939SOL    HW135276   2.656   4.623   3.564 -0.7563  0.0583  0.4534
 7939SOL    HW235277   2.780   4.569   3.624  0.3582  1.1199 -2.0695
 7940SOL     OW35278   1.475   0.969   1.707 -0.2649 -0.6709 -0.6619
 7940SOL    HW135279   1.550   0.938   1.656 -1.0769 -0.8787 -1.7097
 7940SOL    HW235280   1.407   0.907   1.684  0.6669 -1.7182 -0.5916
 7941SOL     OW35281   1.996   3.269   5.677  0.2406 -0.3928  0.1335
 7941SOL    HW135282   1.903   3.279   5.696  0.6781  2.0059  0.9471
 7941SOL    HW235283   2.029   3.216   5.750 -2.4598 -3.3436 -0.7564
 7942SOL     OW35284   3.291   2.012   5.324  0.2780  0.2220  0.2845
 7942SOL    HW135285   3.369   2.060   5.296 -0.8914  2.7372  1.3264
 7942SOL    HW235286   3.312   1.923   5.297 -1.3036 -0.4037  1.1046
 7943SOL     OW35287   1.247   0.843   7.459  0.2964  0.1683  0.1133
 7943SOL    HW135288   1.206   0.811   7.539  1.1094 -0.4595  0.2757
 7943SOL    HW235289   1.195   0.921   7.440 -0.8063 -0.1837  1.6951
 7944SOL     OW35290   2.900   0.208   3.076 -0.1541 -0.2735  0.1365
 7944SOL    HW135291   2.853   0.184   2.997 -1.2509  0.3364  0.6184
 7944SOL    HW235292   2.864   0.295   3.093 -1.3561 -0.6724 -0.3579
 7945SOL     OW35293   0.053   3.059  11.938  0.4948 -0.0765  0.5348
 7945SOL    HW135294   0.050   2.964  11.937 -1.1468  0.0003 -0.7638
 7945SOL    HW235295   4.688   3.088  11.921 -0.3579 -3.3261 -0.4584
 7946SOL     OW35296   0.013   2.850   5.140 -0.2020 -0.0009  0.2349
 7946SOL    HW135297   0.097   2.893   5.158  1.4095 -1.1799 -4.5561
 7946SOL    HW235298   0.032   2.798   5.062  0.7905  0.5222  0.1298
 7947SOL     OW35299   2.176   0.287   4.133  0.7928  0.5176 -0.1947
 7947SOL    HW135300   2.223   0.370   4.129  2.3032 -0.3275  0.4081
 7947SOL    HW235301   2.180   0.257   4.042  0.9441 -2.4100  0.7657
 7948SOL     OW35302   0.052   2.313   4.638 -0.1377  0.0355 -0.0381
 7948SOL    HW135303   0.085   2.330   4.549  5.3479  0.3256  2.0568
 7948SOL    HW235304   0.018   2.223   4.631  0.9083 -0.1973 -2.2829
 7949SOL     OW35305   1.004   0.437   6.938  0.2320 -0.7345 -0.3546
 7949SOL    HW135306   0.958   0.369   6.988  1.3577 -0.2954  1.2778
 7949SOL    HW235307   1.080   0.462   6.991 -1.5569  1.5904  1.1246
 7950SOL     OW35308   2.400   3.027   8.376 -0.5256  0.2652  0.2371
 7950SOL    HW135309   2.370   2.948   8.420 -1.3599  0.0052 -0.8087
 7950SOL    HW235310   2.470   3.054   8.437 -0.6801  0.8303  0.1617
 7951SOL     OW35311   4.160   1.217  11.742  0.6031  0.0023  0.1389
 7951SOL    HW135312   4.160   1.237  11.649  0.1271 -0.5209  0.0307
 7951SOL    HW235313   4.255   1.209  11.753  0.8006  3.1884  0.7202
 7952SOL     OW35314   4.456   1.667   4.027  0.4644 -0.4252 -1.0648
 7952SOL    HW135315   4.532   1.679   3.970 -1.3383  0.5416 -3.2410
 7952SOL    HW235316   4.395   1.626   3.965 -1.0998  0.7522 -0.3063
 7953SOL     OW35317   1.456   0.577   0.718 -0.2345 -0.5832 -0.8206
 7953SOL    HW135318   1.435   0.604   0.807 -0.2333  0.8636 -1.2692
 7953SOL    HW235319   1.367   0.567   0.685 -1.0113  0.4214  0.9796
 7954SOL     OW35320   4.273   1.346  12.738 -0.0351  0.1502  0.2835
 7954SOL    HW135321   4.315   1.278  12.791 -0.1332  1.4144  1.9928
 7954SOL    HW235322   4.343   1.410  12.732 -0.4088  0.4400 -0.8904
 7955SOL     OW35323   1.105   3.091  13.077 -0.4073  0.1132  0.1279
 7955SOL    HW135324   1.100   3.155  13.007 -1.3066  2.2865  2.1887
 7955SOL    HW235325   1.180   3.044  13.041 -0.8111 -0.1453 -0.3824
 7956SOL     OW35326   3.047   4.474   3.050  0.2793  0.4866 -0.9634
 7956SOL    HW135327   3.139   4.464   3.025  1.0573  1.8704  1.3188
 7956SOL    HW235328   3.015   4.471   2.960 -1.5116  0.8154 -0.3354
 7957SOL     OW35329   3.879   2.338  13.381  0.5833  0.1980 -0.0710
 7957SOL    HW135330   3.834   2.254  13.374  0.6410  0.2730 -1.3142
 7957SOL    HW235331   3.814   2.377  13.440 -0.4392  0.0984 -1.1232
 7958SOL     OW35332   0.614   0.401   4.492  0.2076 -0.3675 -0.1144
 7958SOL    HW135333   0.629   0.479   4.438 -1.9356  0.8661  1.0828
 7958SOL    HW235334   0.545   0.439   4.546  1.7734  1.9858  0.2542
 7959SOL     OW35335   2.842   3.362   5.486 -0.4058 -0.2257  0.5069
 7959SOL    HW135336   2.798   3.435   5.530 -0.7905  0.5436 -1.1366
 7959SOL    HW235337   2.769   3.300   5.495 -0.3976 -0.3799 -0.5234
 7960SOL     OW35338   2.173   3.749  16.523  0.3291 -0.1542 -0.5506
 7960SOL    HW135339   2.108   3.820  16.527 -0.1632 -0.6096 -0.4073
 7960SOL    HW235340   2.195   3.740  16.430  0.1417 -0.2518 -0.5875
 7961SOL     OW35341   4.118   0.146  17.646 -0.3885 -0.0761  0.5323
 7961SOL    HW135342   4.054   0.140   0.019 -0.9129 -0.0076  0.0647
 7961SOL    HW235343   4.162   0.224  17.679 -1.8541  0.3740  1.3905
 7962SOL     OW35344   3.508   3.653   4.014  0.0455 -0.2873 -0.0914
 7962SOL    HW135345   3.561   3.724   3.976  0.9178 -0.3522  0.9987
 7962SOL    HW235346   3.421   3.671   3.979  0.8983  0.7146 -1.6946
 7963SOL     OW35347   4.527   3.599  17.197  0.2787  0.4629  0.1286
 7963SOL    HW135348   4.525   3.590  17.292 -0.9988 -0.0631  0.0421
 7963SOL    HW235349   4.617   3.629  17.185  0.0811  1.0764  0.1796
 7964SOL     OW35350   0.464   1.863   4.375  0.0603  0.4341 -0.4954
 7964SOL    HW135351   0.455   1.842   4.468 -1.6739 -1.7582 -1.1702
 7964SOL    HW235352   0.405   1.938   4.380 -0.6970 -0.2223  0.4481
 7965SOL     OW35353   0.524   4.537   0.118 -0.2404 -0.2069  0.2599
 7965SOL    HW135354   0.553   4.538   0.026  4.1215  0.6706  1.6328
 7965SOL    HW235355   0.431   4.517   0.105 -0.0756 -1.3720  0.9526
 7966SOL     OW35356   0.450   1.753   3.231 -0.2031 -0.1533  0.7960
 7966SOL    HW135357   0.409   1.690   3.291  2.2109 -1.0983  1.4633
 7966SOL    HW235358   0.408   1.733   3.148 -1.2041 -1.4022  1.6034
 7967SOL     OW35359   3.757   3.279   9.050  0.2786 -0.0697 -0.3884
 7967SOL    HW135360   3.765   3.374   9.038 -0.3575  0.0388  0.0223
 7967SOL    HW235361   3.852   3.273   9.044  0.1242 -1.5969 -1.0516
 7968SOL     OW35362   1.252   3.814   6.744 -0.1253  0.3640 -0.3131
 7968SOL    HW135363   1.336   3.774   6.767  0.7963  2.4593 -0.0913
 7968SOL    HW235364   1.287   3.888   6.695  1.6369 -0.3437 -0.1234
 7969SOL     OW35365   0.553   1.032   4.659 -0.4808 -0.4292  0.2704
 7969SOL    HW135366   0.572   1.126   4.662  0.4231 -0.5571 -1.7497
 7969SOL    HW235367   0.629   1.008   4.712 -1.2631  2.3570  2.6327
 7970SOL     OW35368   0.670   0.108  12.653  0.5837 -0.3141  0.1385
 7970SOL    HW135369   0.625   0.025  12.668  3.8221 -2.2822 -1.1697
 7970SOL    HW235370   0.660   0.148  12.740  0.5647 -0.4232  0.1855
 7971SOL     OW35371   1.954   3.672   3.701 -0.0748 -0.2535  0.1653
 7971SOL    HW135372   1.983   3.581   3.715 -1.2100 -0.5766  0.4228
 7971SOL    HW235373   2.025   3.708   3.647 -0.4904 -0.4642 -0.5287
 7972SOL     OW35374   1.701   4.145   7.123 -0.1274 -0.2650 -0.2775
 7972SOL    HW135375   1.733   4.106   7.042 -0.3227  0.7853 -0.8695
 7972SOL    HW235376   1.782   4.171   7.167  0.4363  0.2653 -1.6238
 7973SOL     OW35377   0.399   2.894   8.368 -0.0654 -0.0919 -0.3769
 7973SOL    HW135378   0.416   2.804   8.397  0.5918  0.4849  1.0723
 7973SOL    HW235379   0.382   2.938   8.452  0.8662  1.6716 -1.1312
 7974SOL     OW35380   4.535   3.726   3.329 -0.2337  0.1420 -0.0783
 7974SOL    HW135381   4.611   3.761   3.376  0.0914 -1.2414  0.4369
 7974SOL    HW235382   4.467   3.741   3.394  0.6935  0.6969  0.7579
 7975SOL     OW35383   1.751   3.124   5.365 -0.0607 -0.3303 -0.2516
 7975SOL    HW135384   1.754   3.219   5.380 -1.1674 -0.3828  0.2886
 7975SOL    HW235385   1.843   3.102   5.354  0.5862  0.9204  2.4663
 7976SOL     OW35386   0.768   1.949   6.529  0.4344 -0.3666  0.0888
 7976SOL    HW135387   0.712   1.980   6.600  0.8943 -0.0117  0.2941
 7976SOL    HW235388   0.706   1.956   6.456  0.3974  0.1413  0.1703
 7977SOL     OW35389   1.459   0.639  11.190 -0.6937 -0.6649  0.4337
 7977SOL    HW135390   1.490   0.576  11.255 -1.0626  0.4641  1.6986
 7977SOL    HW235391   1.526   0.705  11.204  0.0506 -1.0904 -1.0317
 7978SOL     OW35392   4.132   4.592  17.238 -0.4922 -0.2206  0.4485
 7978SOL    HW135393   4.190   4.667  17.242 -1.8308  0.8625 -0.5042
 7978SOL    HW235394   4.046   4.629  17.258  0.3004  0.7413  2.0967
 7979SOL     OW35395   3.039   0.495   7.505  0.4043  0.8630 -0.1938
 7979SOL    HW135396   3.086   0.441   7.568 -0.2085  0.4081 -0.1274
 7979SOL    HW235397   3.049   0.584   7.541 -0.8262  0.8289  0.2388
 7980SOL     OW35398   4.113   0.257   2.702  0.1559  0.2419  0.3128
 7980SOL    HW135399   4.093   0.333   2.648 -0.3830 -0.4132 -0.4014
 7980SOL    HW235400   4.178   0.211   2.649  0.3576 -1.1667  1.7748
 7981SOL     OW35401   2.018   2.950  11.837 -0.1194  0.2034 -0.3604
 7981SOL    HW135402   2.015   3.009  11.913  1.7732 -1.1510  0.7632
 7981SOL    HW235403   2.111   2.949  11.818 -0.0809  1.2323 -0.2706
 7982SOL     OW35404   3.392   2.226   8.543  0.2955  0.1716  0.2475
 7982SOL    HW135405   3.344   2.164   8.597 -2.1942  2.6013  0.8161
 7982SOL    HW235406   3.397   2.295   8.610  0.9064  1.4634 -1.1314
 7983SOL     OW35407   0.345   4.296   6.422  0.3952 -0.0350  0.1466
 7983SOL    HW135408   0.293   4.306   6.342 -0.1132  0.6962  0.5781
 7983SOL    HW235409   0.305   4.362   6.478 -0.3861 -1.0538  0.8047
 7984SOL     OW35410   2.804   1.623   7.319 -0.3911  0.0043  0.0173
 7984SOL    HW135411   2.852   1.656   7.394  2.0809  0.7754 -1.9010
 7984SOL    HW235412   2.865   1.551   7.300 -1.3189 -1.2591  1.7875
 7985SOL     OW35413   2.203   0.159   6.201 -0.2005  0.1984 -0.1850
 7985SOL    HW135414   2.189   0.251   6.181 -0.4140  0.0522 -0.7191
 7985SOL    HW235415   2.206   0.127   6.110 -0.2281 -1.3198  0.3431
 7986SOL     OW35416   4.446   0.761  10.054  0.1058  0.1586 -0.6355
 7986SOL    HW135417   4.482   0.732   9.971  1.1925 -1.4261  0.3785
 7986SOL    HW235418   4.461   0.679  10.101 -0.6763  1.1008  1.2759
 7987SOL     OW35419   3.938   0.024   1.014  0.2460 -0.6007 -0.3850
 7987SOL    HW135420   3.967   0.115   1.008 -1.7772  0.1555  1.5036
 7987SOL    HW235421   3.985   4.698   0.947 -1.0978 -1.5328 -0.6320
 7988SOL     OW35422   3.714   3.365   7.408  0.2408 -0.4536  0.0634
 7988SOL    HW135423   3.796   3.321   7.430  0.2932 -0.8360 -0.9112
 7988SOL    HW235424   3.650   3.341   7.475  0.7141 -2.9786 -0.4074
 7989SOL     OW35425   1.802   0.960   6.586 -0.2906 -0.1156 -0.2972
 7989SOL    HW135426   1.856   1.030   6.548 -1.6119 -0.0753 -2.0686
 7989SOL    HW235427   1.848   0.880   6.561 -3.3096 -2.7939  2.7472
 7990SOL     OW35428   2.142   4.475  11.494  0.5082  0.4010  0.1185
 7990SOL    HW135429   2.176   4.388  11.513 -1.0756 -0.1672  0.3269
 7990SOL    HW235430   2.161   4.490  11.401  0.8219 -0.4272  0.0468
 7991SOL     OW35431   0.251   0.122   4.588 -0.0043  0.1876  0.1921
 7991SOL    HW135432   0.248   0.041   4.536 -0.1037  0.9063 -0.9100
 7991SOL    HW235433   0.252   0.187   4.519 -1.7439  0.4497  0.4244
 7992SOL     OW35434   3.106   3.716   2.542 -0.0885  0.4123 -0.0536
 7992SOL    HW135435   3.159   3.639   2.519 -1.0771 -0.4182  0.4458
 7992SOL    HW235436   3.144   3.784   2.486  3.1858 -0.6259  0.9232
 7993SOL     OW35437   2.690   3.153  10.661  0.0329 -0.0496  0.5641
 7993SOL    HW135438   2.714   3.224  10.601 -1.6930 -0.0702 -0.1539
 7993SOL    HW235439   2.742   3.182  10.736  1.0925 -0.6282  0.0513
 7994SOL     OW35440   2.041   3.706  12.693  0.0714  0.0398  0.4021
 7994SOL    HW135441   2.068   3.694  12.602 -0.1562  1.1640  0.1904
 7994SOL    HW235442   2.086   3.640  12.746  1.1486  1.7109  1.5458
 7995SOL     OW35443   3.836   4.298  13.695  0.3470 -0.0462  0.6014
 7995SOL    HW135444   3.796   4.367  13.748  2.2598  2.1862 -0.9126
 7995SOL    HW235445   3.771   4.274  13.629  1.2432 -0.5075 -0.1102
 7996SOL     OW35446   1.425   0.319   5.275 -0.7468  0.2355  0.0340
 7996SOL    HW135447   1.376   0.358   5.349  0.2909 -1.2952  1.5278
 7996SOL    HW235448   1.401   0.374   5.200  1.8175  0.3730 -0.6547
 7997SOL     OW35449   1.395   3.879   1.620 -0.4037 -0.7102 -0.0926
 7997SOL    HW135450   1.471   3.935   1.604  0.5016 -1.3011  2.0821
 7997SOL    HW235451   1.417   3.800   1.572  2.0551  0.4758 -0.9090
 7998SOL     OW35452   3.103   3.128   4.273  0.1436  0.3287  0.1400
 7998SOL    HW135453   3.030   3.076   4.242  1.0357 -0.4469 -0.6560
 7998SOL    HW235454   3.057   3.169   4.346  0.5567  0.0453  0.5583
 7999SOL     OW35455   0.978   1.951   7.387 -0.3370  0.1847  0.4026
 7999SOL    HW135456   0.904   1.911   7.432 -0.0275 -0.9894 -0.1555
 7999SOL    HW235457   1.039   1.897   7.436 -0.6798 -0.6895 -0.1401
 8000SOL     OW35458   2.989   1.512  15.965  0.6214  0.2385 -0.1537
 8000SOL    HW135459   3.038   1.570  15.906  1.1608 -1.0358 -0.9607
 8000SOL    HW235460   3.007   1.559  16.046 -0.9759 -0.3626  0.5408
 8001SOL     OW35461   3.226   1.079   6.781  0.2544 -0.1937  0.3897
 8001SOL    HW135462   3.176   1.159   6.800  2.9275  1.4380  0.6217
 8001SOL    HW235463   3.273   1.057   6.861 -0.4710 -0.8676  0.6226
 8002SOL     OW35464   2.381   4.724   4.698  0.1862  0.2169  0.1947
 8002SOL    HW135465   2.364   4.682   4.783 -0.2397 -1.3015 -0.6446
 8002SOL    HW235466   2.465   0.041   4.718  0.2938  0.8287 -1.5736
 8003SOL     OW35467   1.645   1.431  15.767 -0.7720  0.2619  0.7553
 8003SOL    HW135468   1.674   1.447  15.857 -1.2381  2.4989  0.5029
 8003SOL    HW235469   1.616   1.339  15.773  3.7430 -1.3546 -2.4265
 8004SOL     OW35470   1.283   3.903  13.184  0.7818  0.0481 -0.0254
 8004SOL    HW135471   1.353   3.864  13.131  2.4388  1.4553  1.1042
 8004SOL    HW235472   1.221   3.831  13.177  1.0271 -0.4234  2.3468
 8005SOL     OW35473   2.907   4.450   5.917  0.5006  0.1676 -0.1451
 8005SOL    HW135474   2.854   4.372   5.899  0.8304 -0.0884 -0.0127
 8005SOL    HW235475   2.875   4.476   6.003  0.6165  1.9064 -0.6278
 8006SOL     OW35476   3.537   4.565   4.359  0.4183 -0.8193  0.1580
 8006SOL    HW135477   3.481   4.633   4.396 -0.4504 -1.0251 -0.7862
 8006SOL    HW235478   3.570   4.516   4.434 -0.7753 -1.8336  0.0052
 8007SOL     OW35479   1.544   0.707  17.436  0.2597 -1.2895  0.1245
 8007SOL    HW135480   1.495   0.628  17.462 -2.2455  0.3958  0.4768
 8007SOL    HW235481   1.547   0.751  17.521 -1.9342 -3.2970  1.2387
 8008SOL     OW35482   2.195   2.208  12.195  0.0729 -0.8364  0.5338
 8008SOL    HW135483   2.101   2.216  12.212  0.6213 -0.1977  3.2365
 8008SOL    HW235484   2.190   2.138  12.130 -1.6385 -0.5925  0.3887
 8009SOL     OW35485   0.811   1.378   1.293  0.0649  0.8146  0.3100
 8009SOL    HW135486   0.879   1.331   1.341  1.4346  0.2681 -2.1952
 8009SOL    HW235487   0.852   1.386   1.207 -1.2263 -3.0110 -0.6244
 8010SOL     OW35488   0.451   0.659   6.884 -0.2444 -0.1065  0.3536
 8010SOL    HW135489   0.433   0.652   6.978 -0.8982 -0.9635  0.1720
 8010SOL    HW235490   0.386   0.726   6.860  0.1081 -0.6910 -2.2447
 8011SOL     OW35491   2.530   3.394  13.870  0.1518 -0.4836  0.1330
 8011SOL    HW135492   2.487   3.392  13.956  0.2034  2.1981  0.2165
 8011SOL    HW235493   2.611   3.438  13.894 -0.0370 -0.5494  0.8985
 8012SOL     OW35494   1.194   0.763  11.803  0.0256 -0.4815 -0.1393
 8012SOL    HW135495   1.116   0.787  11.753  0.9930  1.3197 -0.7925
 8012SOL    HW235496   1.237   0.848  11.790  2.0631 -1.1114  2.3882
 8013SOL     OW35497   2.527   0.892   2.329  0.7561  0.0650  0.2443
 8013SOL    HW135498   2.494   0.807   2.358  2.7480  0.0149  2.2939
 8013SOL    HW235499   2.612   0.873   2.291  0.3464 -0.6560 -0.3157
 8014SOL     OW35500   2.527   0.396   1.747  0.1374  0.0429  0.1595
 8014SOL    HW135501   2.502   0.373   1.836  0.4692  2.7899  0.9631
 8014SOL    HW235502   2.618   0.378   1.769  0.2478 -1.6818 -1.6654
 8015SOL     OW35503   1.687   3.747   2.715 -0.0159 -0.5290  0.5667
 8015SOL    HW135504   1.732   3.820   2.758 -0.4566 -0.2462  0.5437
 8015SOL    HW235505   1.595   3.769   2.724 -0.0787 -0.2538 -0.7747
 8016SOL     OW35506   0.952   0.379   1.242  0.0372  1.0706 -0.0075
 8016SOL    HW135507   0.951   0.302   1.299 -0.6870  1.6840  0.8008
 8016SOL    HW235508   0.859   0.395   1.227  0.0539 -0.0016 -1.2573
 8017SOL     OW35509   3.079   3.766   6.677  0.2887 -0.2175 -0.2680
 8017SOL    HW135510   3.029   3.777   6.758 -0.8731 -1.1719 -0.8443
 8017SOL    HW235511   3.110   3.676   6.692  1.1074  0.4562  1.9839
 8018SOL     OW35512   4.157   2.782   8.665  0.2091  0.3761  0.1671
 8018SOL    HW135513   4.127   2.866   8.630 -1.0895  0.7337  2.1382
 8018SOL    HW235514   4.194   2.808   8.750 -0.3195 -2.1105  1.1603
 8019SOL     OW35515   4.589   2.426   7.444  0.0628 -0.7209 -0.3916
 8019SOL    HW135516   4.559   2.437   7.534  1.3535  1.4887 -0.2191
 8019SOL    HW235517   4.648   2.502   7.438  0.4470 -0.9616  0.3360
 8020SOL     OW35518   0.205   3.071   7.954  0.5543 -0.2222  0.1704
 8020SOL    HW135519   0.228   3.114   7.872  0.4508 -4.2841 -1.9940
 8020SOL    HW235520   0.171   2.988   7.921  0.9410 -0.4980  0.4775
 8021SOL     OW35521   3.831   4.217   1.126 -0.7605  0.2474 -0.5719
 8021SOL    HW135522   3.856   4.261   1.045  1.0168  1.0794  0.4276
 8021SOL    HW235523   3.776   4.289   1.156  0.1705  1.4680 -1.7639
 8022SOL     OW35524   1.062   4.624  17.390  0.0496  0.2555 -0.7257
 8022SOL    HW135525   1.041   4.541  17.348  1.8153  1.7154 -4.4977
 8022SOL    HW235526   1.134   4.585  17.439  0.8697 -0.0082 -2.1426
 8023SOL     OW35527   3.851   2.945   6.875 -0.1733 -0.0801 -0.4698
 8023SOL    HW135528   3.806   2.927   6.793  2.4784 -1.8582 -1.5563
 8023SOL    HW235529   3.826   2.874   6.933 -0.8691 -0.8476 -1.7108
 8024SOL     OW35530   2.667   2.361  13.598  0.1432 -0.0494 -0.0458
 8024SOL    HW135531   2.612   2.349  13.521  0.1089  2.3135 -0.4030
 8024SOL    HW235532   2.639   2.448  13.627  1.2551  0.1597  0.3611
 8025SOL     OW35533   0.467   0.240   9.507  0.3484 -0.5446  0.3599
 8025SOL    HW135534   0.438   0.165   9.455 -0.3487 -0.1121  0.1204
 8025SOL    HW235535   0.526   0.286   9.448 -0.4996 -0.5672 -0.4946
 8026SOL     OW35536   3.299   4.557   3.831 -0.1225 -0.1843  0.0842
 8026SOL    HW135537   3.253   4.493   3.777 -2.0383  0.4821  0.9049
 8026SOL    HW235538   3.235   4.561   3.902  0.6999 -0.3351  0.8286
 8027SOL     OW35539   4.062   1.862   8.411  0.1085  0.0818  0.8483
 8027SOL    HW135540   4.024   1.939   8.370 -1.9904 -1.0864  0.6173
 8027SOL    HW235541   4.156   1.881   8.403  0.1702 -1.3346 -1.9746
 8028SOL     OW35542   3.046   2.846   5.134 -0.0454 -0.6711 -0.0346
 8028SOL    HW135543   3.068   2.828   5.225  0.2907  1.1468  0.2465
 8028SOL    HW235544   3.081   2.935   5.129 -0.4727 -0.5260 -0.5315
 8029SOL     OW35545   3.956   0.728  13.469 -0.1249  0.3219 -0.0137
 8029SOL    HW135546   3.988   0.787  13.400 -2.1978  1.1317 -0.2737
 8029SOL    HW235547   3.981   0.766  13.553  0.3850  0.5753 -0.2782
 8030SOL     OW35548   0.633   3.196   7.106 -0.2606  0.3010  0.1276
 8030SOL    HW135549   0.549   3.243   7.109  0.7199  2.1355 -1.0288
 8030SOL    HW235550   0.699   3.265   7.101  0.8396 -0.6844  1.1431
 8031SOL     OW35551   0.289   1.933   9.692  0.6527  0.1569  0.4427
 8031SOL    HW135552   0.275   2.023   9.720 -2.4221 -0.4587  0.8118
 8031SOL    HW235553   0.221   1.930   9.626  0.7702  1.7813  0.2599
 8032SOL     OW35554   1.384   4.334   6.568  0.0603 -0.1302 -0.1219
 8032SOL    HW135555   1.472   4.341   6.531 -0.1790 -1.1379 -0.8625
 8032SOL    HW235556   1.347   4.420   6.589 -0.9860 -0.7027  0.3240
 8033SOL     OW35557   4.037   2.787   4.684  0.2167 -0.2326 -0.2825
 8033SOL    HW135558   4.088   2.720   4.730  0.2786  0.8602  1.2124
 8033SOL    HW235559   4.099   2.813   4.616  0.6762 -2.0515 -0.5628
 8034SOL     OW35560   2.894   0.500   5.520 -0.0105 -0.0976  0.1085
 8034SOL    HW135561   2.864   0.451   5.443  1.4023 -0.7653 -0.0328
 8034SOL    HW235562   2.833   0.573   5.525 -0.5855 -0.5933  0.3907
 8035SOL     OW35563   0.121   1.942   9.498 -0.0123 -0.0398 -0.2268
 8035SOL    HW135564   0.116   2.018   9.440 -0.7520  0.2978  0.2792
 8035SOL    HW235565   0.035   1.945   9.540 -0.2525  2.0972 -0.8806
 8036SOL     OW35566   3.627   1.109  17.115  0.4117 -0.4633 -0.2288
 8036SOL    HW135567   3.707   1.152  17.087  0.0585  1.1824  1.3212
 8036SOL    HW235568   3.627   1.016  17.091  2.7107 -0.2001 -1.1843
 8037SOL     OW35569   0.045   0.035   8.408  0.1082 -0.0892 -0.4728
 8037SOL    HW135570   0.101   0.111   8.391 -0.4657 -0.2923 -3.3488
 8037SOL    HW235571   0.094   4.687   8.448  0.8691  1.2473  1.0024
 8038SOL     OW35572   2.771   4.411   2.485 -0.3078  0.2456 -0.6499
 8038SOL    HW135573   2.747   4.323   2.456  0.8661 -0.0851 -0.6042
 8038SOL    HW235574   2.688   4.459   2.490 -1.5257 -1.8190 -1.2266
 8039SOL     OW35575   0.017   3.163   9.435  0.2677  0.2370  0.2149
 8039SOL    HW135576   0.025   3.138   9.527 -3.1348  1.1491  0.7520
 8039SOL    HW235577   0.098   3.213   9.426  1.1725 -1.3739 -0.7170
 8040SOL     OW35578   4.298   2.246   2.711  0.7004  0.1761  0.0877
 8040SOL    HW135579   4.375   2.303   2.711  1.1374 -0.3979  1.5833
 8040SOL    HW235580   4.287   2.240   2.806 -1.3264  0.3877 -0.1415
 8041SOL     OW35581   1.419   2.196  13.671 -0.8020 -0.2017  0.1253
 8041SOL    HW135582   1.488   2.146  13.627  0.1736  0.8874  0.4286
 8041SOL    HW235583   1.466   2.271  13.707 -0.2967 -0.9543  1.0410
 8042SOL     OW35584   1.677   3.409   1.631  0.7025  0.4236  0.8992
 8042SOL    HW135585   1.768   3.412   1.661  0.4821 -3.2113  1.9092
 8042SOL    HW235586   1.633   3.439   1.710 -3.3163 -0.3954 -1.0275
 8043SOL     OW35587   3.414   1.519   9.034 -0.1591  0.4939  0.3541
 8043SOL    HW135588   3.503   1.540   9.008 -1.0916  2.7002 -1.0692
 8043SOL    HW235589   3.431   1.495   9.125  1.8559  0.1792 -0.1267
 8044SOL     OW35590   2.550   4.180   3.943 -0.2954 -0.6241  0.2737
 8044SOL    HW135591   2.473   4.131   3.913 -0.1039 -2.0539  2.0900
 8044SOL    HW235592   2.533   4.179   4.038 -0.1918 -0.2475  0.2955
 8045SOL     OW35593   0.972   1.796   8.036  0.5193  0.2074 -0.0316
 8045SOL    HW135594   1.024   1.766   8.111 -0.0088 -2.1721 -0.6360
 8045SOL    HW235595   0.883   1.797   8.072  0.7037 -2.4687  0.5087
 8046SOL     OW35596   2.494   2.484   8.654  0.2677 -0.4066  0.1468
 8046SOL    HW135597   2.460   2.444   8.734 -1.3104  2.1813  0.7786
 8046SOL    HW235598   2.534   2.410   8.609 -1.8321 -0.9071 -0.8991
 8047SOL     OW35599   4.321   0.043   7.325  0.0405  0.0659 -0.0301
 8047SOL    HW135600   4.279   4.719   7.396 -0.9035 -1.5414 -1.7012
 8047SOL    HW235601   4.293   4.723   7.245  2.6294 -1.5478 -0.0684
 8048SOL     OW35602   0.669   1.847   1.308  0.8324 -0.5317 -0.0343
 8048SOL    HW135603   0.698   1.882   1.224 -0.4589  0.3415 -0.1187
 8048SOL    HW235604   0.734   1.892   1.361 -0.6023  4.0245 -2.1489
 8049SOL     OW35605   4.134   0.774   4.752 -0.1825  0.6539 -0.2668
 8049SOL    HW135606   4.117   0.760   4.658 -0.6902 -0.5810  0.0013
 8049SOL    HW235607   4.107   0.865   4.763  1.7756  1.2582 -0.4525
 8050SOL     OW35608   1.860   2.381   7.418  0.2682  0.3808 -0.9844
 8050SOL    HW135609   1.787   2.346   7.367 -0.8227  1.5573 -0.2452
 8050SOL    HW235610   1.812   2.405   7.498 -0.0226 -2.1139 -0.4024
 8051SOL     OW35611   0.275   2.976   0.871 -0.4882  0.3482  0.6043
 8051SOL    HW135612   0.326   2.931   0.805 -0.3688  0.0814  0.8801
 8051SOL    HW235613   0.255   3.065   0.839  0.1320  0.4087  0.3934
 8052SOL     OW35614   0.741   4.642   9.285 -0.1431 -0.3912  0.3093
 8052SOL    HW135615   0.746   4.555   9.244 -0.6645  0.2414 -1.0904
 8052SOL    HW235616   0.778   4.610   9.367  0.8601  0.2244  0.0903
 8053SOL     OW35617   3.438   1.211   7.320  0.7028  0.0030 -0.1669
 8053SOL    HW135618   3.360   1.174   7.279 -0.1090  1.2231  0.2699
 8053SOL    HW235619   3.393   1.248   7.397  0.7030  1.6265 -0.9522
 8054SOL     OW35620   2.514   4.268  16.679  0.1039 -0.5831  0.2265
 8054SOL    HW135621   2.534   4.338  16.740  0.3549  0.0283 -0.5560
 8054SOL    HW235622   2.510   4.316  16.596  1.6513  0.6245  0.8631
 8055SOL     OW35623   4.691   0.811  10.653  0.4109 -0.4460  0.5896
 8055SOL    HW135624   4.640   0.862  10.590  1.0836 -1.4757 -0.8077
 8055SOL    HW235625   0.012   0.883  10.696 -3.4177  2.0926  0.3261
 8056SOL     OW35626   0.371   2.216   7.732  0.0548  0.6423 -0.2471
 8056SOL    HW135627   0.372   2.123   7.756 -0.3016  0.6858 -0.0706
 8056SOL    HW235628   0.311   2.207   7.659  0.0244 -0.0601 -0.1441
 8057SOL     OW35629   1.284   4.179   6.343 -0.5553 -0.0719  0.3001
 8057SOL    HW135630   1.264   4.215   6.257  1.2176  0.3044  0.0481
 8057SOL    HW235631   1.311   4.257   6.390 -2.7764  1.9053 -1.7370
 8058SOL     OW35632   0.349   2.036   7.028  0.4795 -0.1578  0.2448
 8058SOL    HW135633   0.354   1.996   6.942  1.7275  0.5428  0.0050
 8058SOL    HW235634   0.404   2.113   7.017 -2.0857  1.6088 -0.1798
 8059SOL     OW35635   1.870   3.378   4.899  0.4757 -0.1970 -0.1081
 8059SOL    HW135636   1.817   3.332   4.964  2.3279 -1.1193  0.7320
 8059SOL    HW235637   1.823   3.461   4.902 -0.4158 -0.7330  0.5398
 8060SOL     OW35638   4.126   2.553   6.586 -0.4254 -0.0196  0.6912
 8060SOL    HW135639   4.125   2.472   6.638 -0.0563 -0.2823  0.2970
 8060SOL    HW235640   4.217   2.564   6.558 -0.7487  1.7416  0.3255
 8061SOL     OW35641   4.717   2.199   1.110 -0.1633  0.1708 -0.1497
 8061SOL    HW135642   4.645   2.261   1.115 -0.3706 -0.0776 -0.0424
 8061SOL    HW235643   0.057   2.262   1.142 -0.4051  0.8020 -0.9222
 8062SOL     OW35644   1.715   0.664  11.328 -0.5149 -0.4669 -0.7536
 8062SOL    HW135645   1.700   0.624  11.413 -0.1434  0.7569 -0.1224
 8062SOL    HW235646   1.752   0.752  11.336  0.6678 -0.9353 -1.0377
 8063SOL     OW35647   0.081   0.816   8.508 -0.2579  0.5003  0.2005
 8063SOL    HW135648   0.058   0.723   8.511 -1.0326  0.7013  0.5786
 8063SOL    HW235649   4.723   0.860   8.486 -0.9325 -0.7248  0.2196
 8064SOL     OW35650   3.672   3.655  12.337  0.0795  0.1091  0.2336
 8064SOL    HW135651   3.754   3.701  12.356 -0.8701  1.7832  0.1781
 8064SOL    HW235652   3.610   3.727  12.345 -1.7047 -1.5367  1.3130
 8065SOL     OW35653   0.954   1.583   5.815  0.3040 -0.7201  0.5005
 8065SOL    HW135654   0.917   1.633   5.742 -1.8134  0.3805  2.3236
 8065SOL    HW235655   1.007   1.652   5.855  0.7123  0.3771 -1.8993
 8066SOL     OW35656   1.614   3.804   3.313  0.3135 -0.1756 -0.0061
 8066SOL    HW135657   1.688   3.796   3.252  1.1196  1.3928  0.7662
 8066SOL    HW235658   1.579   3.887   3.280 -1.6810 -0.3107  1.8090
 8067SOL     OW35659   2.546   0.728   1.871 -0.3346 -0.1581  0.3271
 8067SOL    HW135660   2.493   0.677   1.810 -0.5469  0.1358  0.2645
 8067SOL    HW235661   2.557   0.663   1.940 -1.7634 -0.1786  0.5364
 8068SOL     OW35662   1.751   4.080  15.257 -0.1936 -0.7872 -0.3302
 8068SOL    HW135663   1.766   4.052  15.167 -2.5553 -1.7698 -0.4416
 8068SOL    HW235664   1.834   4.041  15.284 -0.2537 -2.3315 -2.3586
 8069SOL     OW35665   2.517   0.626  13.672 -0.3973 -0.5403  0.5497
 8069SOL    HW135666   2.580   0.698  13.660  0.9720 -1.7824  0.2667
 8069SOL    HW235667   2.431   0.668  13.662 -1.0377 -2.5031 -2.2204
 8070SOL     OW35668   4.467   3.510   6.986 -0.9347  0.2668 -0.1440
 8070SOL    HW135669   4.528   3.571   6.946 -1.9654  1.2999 -0.1378
 8070SOL    HW235670   4.502   3.512   7.075 -1.0518 -0.6575 -0.0711
 8071SOL     OW35671   2.312   0.298   8.701  0.0499  0.1058  0.3238
 8071SOL    HW135672   2.287   0.379   8.745  0.8499 -0.6785  2.2022
 8071SOL    HW235673   2.253   0.234   8.739 -1.8060  0.1175 -2.5319
 8072SOL     OW35674   2.216   2.410   6.098 -0.2299 -0.1758 -0.4705
 8072SOL    HW135675   2.284   2.478   6.092  0.4448 -0.8095  0.0060
 8072SOL    HW235676   2.140   2.455   6.062 -1.3620 -0.0382  2.0926
 8073SOL     OW35677   3.530   3.729   9.128 -0.1614 -0.2512 -0.1582
 8073SOL    HW135678   3.557   3.746   9.218 -2.2217  1.0673  0.2035
 8073SOL    HW235679   3.479   3.806   9.101 -1.8861 -0.7543  1.7081
 8074SOL     OW35680   4.398   2.447   9.218 -0.5531  0.3043  0.0110
 8074SOL    HW135681   4.435   2.380   9.276 -0.9588 -0.2167 -0.3405
 8074SOL    HW235682   4.380   2.516   9.282  1.5231  2.0161 -1.2687
 8075SOL     OW35683   2.073   3.085   4.060 -0.0154  0.1637 -0.3346
 8075SOL    HW135684   2.103   3.094   4.150  1.5303  0.8125 -0.9115
 8075SOL    HW235685   2.150   3.113   4.009 -1.4044  2.5078 -1.1290
 8076SOL     OW35686   0.582   1.640   5.019 -0.0814  0.8887  0.0248
 8076SOL    HW135687   0.610   1.730   5.033 -0.6070  0.7670  1.9304
 8076SOL    HW235688   0.657   1.596   5.060 -0.7426  0.8480  1.1784
 8077SOL     OW35689   0.548   1.875   5.304 -0.0817 -0.1011  0.0544
 8077SOL    HW135690   0.455   1.891   5.323  0.1462  0.0216  1.0230
 8077SOL    HW235691   0.553   1.873   5.208 -3.0905  0.5667 -0.1248
 8078SOL     OW35692   3.138   2.902   3.840 -0.0708 -0.4696 -0.3849
 8078SOL    HW135693   3.186   2.887   3.921 -2.1282 -1.4715  0.6404
 8078SOL    HW235694   3.047   2.897   3.870  0.3998 -0.5918  1.0133
 8079SOL     OW35695   1.409   2.068   8.214 -0.8982 -0.4164  0.2901
 8079SOL    HW135696   1.358   1.996   8.252 -0.4727 -0.3345  1.0190
 8079SOL    HW235697   1.341   2.096   8.152 -1.8027 -3.4379 -0.0777
 8080SOL     OW35698   3.242   2.828   8.657 -0.7384  0.5299 -0.1400
 8080SOL    HW135699   3.314   2.845   8.595 -1.5937  2.5660 -0.5616
 8080SOL    HW235700   3.281   2.819   8.744  1.5006  0.8987 -1.0942
 8081SOL     OW35701   3.228   0.508  11.576 -0.1271 -0.1416 -0.0871
 8081SOL    HW135702   3.259   0.565  11.646 -1.5304  2.3061 -1.4580
 8081SOL    HW235703   3.141   0.481  11.606  0.5323 -1.6592  0.4502
 8082SOL     OW35704   1.406   0.159   0.715  0.2861  0.2615  0.3137
 8082SOL    HW135705   1.384   0.221   0.784  2.2056 -0.2331  1.3770
 8082SOL    HW235706   1.332   0.165   0.654 -0.0972  1.4585  0.9136
 8083SOL     OW35707   2.963   4.561   5.648 -0.3967  0.3613  0.0588
 8083SOL    HW135708   2.954   4.549   5.743 -0.8686 -0.6072 -0.1127
 8083SOL    HW235709   2.883   4.612   5.638 -1.3603 -1.5322 -1.7406
 8084SOL     OW35710   3.248   2.828   4.827  0.0452 -0.5601  0.1264
 8084SOL    HW135711   3.182   2.848   4.893  1.5157 -0.2010  1.4853
 8084SOL    HW235712   3.217   2.880   4.752  1.3755  0.5996  0.3863
 8085SOL     OW35713   3.812   3.397   4.525  0.0090 -0.5456  0.5842
 8085SOL    HW135714   3.722   3.422   4.549  0.3492  1.9226 -0.6590
 8085SOL    HW235715   3.829   3.459   4.454 -0.6731  1.4525  2.1554
 8086SOL     OW35716   2.578   1.015  10.963  0.6420 -0.3265  0.1625
 8086SOL    HW135717   2.598   0.924  10.980 -0.0029 -0.4230  0.4120
 8086SOL    HW235718   2.506   0.997  10.902  0.7171 -1.6352  0.4728
 8087SOL     OW35719   2.751   1.264  15.124 -0.2616 -0.3710 -0.3284
 8087SOL    HW135720   2.735   1.204  15.051 -1.4610 -0.5046  0.0444
 8087SOL    HW235721   2.736   1.201  15.195 -1.6995 -0.7197 -0.9425
 8088SOL     OW35722   0.282   2.842  15.988 -0.1241 -0.0101  0.0577
 8088SOL    HW135723   0.221   2.909  15.957  0.9029 -0.5663 -3.1673
 8088SOL    HW235724   0.274   2.862  16.081  2.1517 -0.3694  0.3413
 8089SOL     OW35725   1.059   2.358   5.459 -0.5307  0.0366  0.4611
 8089SOL    HW135726   1.007   2.379   5.381 -0.3913 -0.4501  0.2341
 8089SOL    HW235727   1.096   2.439   5.494  1.5062 -0.4057 -0.6360
 8090SOL     OW35728   1.668   2.777   0.301  0.3402 -0.0322  0.7440
 8090SOL    HW135729   1.590   2.830   0.286  1.0933  0.4822 -1.2682
 8090SOL    HW235730   1.663   2.726   0.220  0.5018  2.5197 -0.8568
 8091SOL     OW35731   3.858   1.042  12.285 -0.2144  0.5540 -0.5095
 8091SOL    HW135732   3.850   1.021  12.193 -1.7148  0.1925 -0.2937
 8091SOL    HW235733   3.772   1.078  12.308  0.0746  0.4907  0.6708
 8092SOL     OW35734   2.906   2.473   6.533  0.1821  0.1000 -0.6346
 8092SOL    HW135735   2.970   2.402   6.538  0.0029  0.1444  2.4126
 8092SOL    HW235736   2.877   2.468   6.624  0.7647  0.0029 -0.4517
 8093SOL     OW35737   2.687   0.509  14.602 -0.2124 -0.6192 -0.0458
 8093SOL    HW135738   2.732   0.524  14.685 -0.5721 -0.8160  0.1837
 8093SOL    HW235739   2.715   0.580  14.544  1.0498 -0.8643  0.2721
 8094SOL     OW35740   4.250   0.915  11.497 -0.6438  0.2023 -0.3405
 8094SOL    HW135741   4.336   0.958  11.500 -0.5297 -0.1625  1.3907
 8094SOL    HW235742   4.248   0.869  11.581 -1.5951  1.6026  0.4013
 8095SOL     OW35743   2.015   1.492  11.965  0.5236  0.1761  0.6155
 8095SOL    HW135744   2.068   1.429  11.915 -2.2044 -2.5574  1.2114
 8095SOL    HW235745   2.000   1.440  12.044 -3.2943 -1.6719 -1.3465
 8096SOL     OW35746   0.040   1.170   9.295 -0.0112 -0.4267  0.6039
 8096SOL    HW135747   0.068   1.121   9.218 -1.8330 -1.9507  0.9268
 8096SOL    HW235748   4.686   1.117   9.308 -0.6616  0.7643  1.5786
 8097SOL     OW35749   3.215   4.278   2.630 -0.6092 -0.5028 -0.1050
 8097SOL    HW135750   3.225   4.373   2.624 -1.3279 -0.3393  1.4141
 8097SOL    HW235751   3.185   4.266   2.540  0.2079 -0.0577 -0.4427
 8098SOL     OW35752   2.471   1.746   0.717 -0.1078 -0.3610  0.5180
 8098SOL    HW135753   2.392   1.783   0.756 -0.2503 -0.8775  0.7066
 8098SOL    HW235754   2.526   1.726   0.793 -0.0285  3.3421  1.4280
 8099SOL     OW35755   2.479   3.588   1.508  0.3851  0.1478  0.0399
 8099SOL    HW135756   2.457   3.625   1.594  2.1568  0.4383  0.3729
 8099SOL    HW235757   2.397   3.588   1.459  0.0307  0.8835  0.6330
 8100SOL     OW35758   1.904   3.683   0.319  0.3983  0.6006  0.0215
 8100SOL    HW135759   1.927   3.594   0.291 -2.0883 -0.3967  1.1230
 8100SOL    HW235760   1.855   3.724   0.248 -1.0012 -1.1174  0.0007
 8101SOL     OW35761   0.782   2.019   1.765 -0.3255  0.5047  0.2623
 8101SOL    HW135762   0.781   2.070   1.846  1.7079  1.3452 -0.2345
 8101SOL    HW235763   0.870   1.981   1.758  0.7211  2.8770  0.5621
 8102SOL     OW35764   0.232   1.053   0.566  0.4312  0.0768 -0.3558
 8102SOL    HW135765   0.317   1.040   0.524  1.3553  2.1531  0.8967
 8102SOL    HW235766   0.245   1.139   0.606 -1.7285  1.6546 -3.0693
 8103SOL     OW35767   0.180   0.877   1.289  0.1323 -0.6450 -0.9681
 8103SOL    HW135768   0.170   0.787   1.322 -1.3619  0.1176  0.6902
 8103SOL    HW235769   0.116   0.922   1.345 -0.8928 -2.0584 -0.9949
 8104SOL     OW35770   4.015   0.271   6.887  0.6741  0.1219  0.4606
 8104SOL    HW135771   4.107   0.249   6.900  1.4519  0.9894 -3.4314
 8104SOL    HW235772   3.972   0.198   6.932 -0.8205  0.2851 -0.7008
 8105SOL     OW35773   2.652   0.627   3.666 -0.7459 -0.1955  0.1735
 8105SOL    HW135774   2.583   0.608   3.730 -2.9471  1.0628 -1.8457
 8105SOL    HW235775   2.652   0.722   3.671 -1.1335 -0.1746 -0.2462
 8106SOL     OW35776   3.477   1.657  10.699  0.2868  0.1223  0.4579
 8106SOL    HW135777   3.427   1.587  10.741 -1.6592  2.1766  1.5066
 8106SOL    HW235778   3.539   1.602  10.650 -1.2564 -0.1190 -1.2257
 8107SOL     OW35779   2.919   1.863   6.924 -0.3083 -0.2335  0.1275
 8107SOL    HW135780   2.915   1.778   6.880 -2.0888  0.4182 -0.9547
 8107SOL    HW235781   2.916   1.917   6.845  0.1008 -0.2527  0.1000
 8108SOL     OW35782   2.851   0.449   6.767  0.3236  0.2016 -0.1791
 8108SOL    HW135783   2.901   0.503   6.829  0.3212 -1.4979  1.3125
 8108SOL    HW235784   2.851   0.368   6.819  2.2891  0.2851 -0.0394
 8109SOL     OW35785   4.441   4.402   4.734 -0.3466 -0.2382  0.1174
 8109SOL    HW135786   4.430   4.488   4.775  1.5166  0.1976 -0.2772
 8109SOL    HW235787   4.446   4.432   4.644  2.6255  1.0075  0.6907
 8110SOL     OW35788   2.621   0.744  11.008  0.3462  0.5890  0.1253
 8110SOL    HW135789   2.533   0.770  11.035 -0.6730 -1.6167 -1.0477
 8110SOL    HW235790   2.630   0.658  11.049 -3.2153  0.0734 -0.1853
 8111SOL     OW35791   1.092   0.103   1.893 -0.5406  0.1817 -0.0384
 8111SOL    HW135792   1.181   0.090   1.923 -0.3484  0.7424 -0.3782
 8111SOL    HW235793   1.067   0.010   1.894  1.0984 -0.3043 -4.0515
 8112SOL     OW35794   1.664   1.200  12.766 -0.2326  0.4135  0.0694
 8112SOL    HW135795   1.640   1.219  12.675  1.1830 -1.5841 -0.7174
 8112SOL    HW235796   1.680   1.106  12.768  3.4822  1.0424  0.2811
 8113SOL     OW35797   1.268   0.599   6.505  0.3286 -0.3644  0.2993
 8113SOL    HW135798   1.233   0.543   6.435  0.8744 -0.2186 -0.0868
 8113SOL    HW235799   1.228   0.551   6.578  1.0140  2.7210  2.7160
 8114SOL     OW35800   4.661   1.395   1.664  0.3150  0.0427  0.2204
 8114SOL    HW135801   0.016   1.447   1.679  1.4456 -1.4765 -0.4837
 8114SOL    HW235802   4.595   1.464   1.657 -0.3763 -0.5707  0.7022
 8115SOL     OW35803   2.583   3.313   0.712 -0.3814  0.7144  0.1651
 8115SOL    HW135804   2.488   3.324   0.706 -0.2172  1.9462 -0.1105
 8115SOL    HW235805   2.581   3.235   0.768 -0.9053  0.3411 -0.3715
 8116SOL     OW35806   0.549   4.713  14.555  0.2044  0.5661  0.4504
 8116SOL    HW135807   0.552   0.059  14.620  2.6944  1.5807 -0.7496
 8116SOL    HW235808   0.636   4.675  14.563  0.4655  1.0255 -0.2259
 8117SOL     OW35809   1.241   0.746  17.694  0.0773 -0.1420 -0.0642
 8117SOL    HW135810   1.286   0.684  17.636  0.7391 -1.3583  1.7552
 8117SOL    HW235811   1.203   0.681   0.056  3.1954  0.1138  2.1783
 8118SOL     OW35812   4.361   3.980   8.370 -0.1904  0.6091 -0.5114
 8118SOL    HW135813   4.452   3.951   8.361 -1.6655 -3.8685 -1.0101
 8118SOL    HW235814   4.360   4.062   8.322  0.1745  0.9163  0.0147
 8119SOL     OW35815   3.236   3.325   8.876 -0.6794  0.4302 -0.1762
 8119SOL    HW135816   3.288   3.330   8.796 -0.8285 -2.2996 -0.4404
 8119SOL    HW235817   3.293   3.345   8.951  0.2064  2.0333 -1.2761
 8120SOL     OW35818   3.288   3.079   6.883 -0.8892  0.1916  0.7563
 8120SOL    HW135819   3.258   3.090   6.793  0.5019  0.6894  0.3585
 8120SOL    HW235820   3.231   3.028   6.941 -0.2948 -0.4824  0.7467
 8121SOL     OW35821   3.027   2.533   7.113 -0.2877  0.4327  0.0418
 8121SOL    HW135822   3.016   2.517   7.207  1.5097  0.6899  0.2840
 8121SOL    HW235823   2.951   2.591   7.103 -0.2887  0.0211 -2.2457
 8122SOL     OW35824   3.575   1.504   0.437 -0.4956  0.0357  0.1220
 8122SOL    HW135825   3.643   1.496   0.371 -1.5193 -1.5574 -0.7430
 8122SOL    HW235826   3.604   1.584   0.480  0.4240 -0.7994  1.0604
 8123SOL     OW35827   1.435   1.368   7.571  0.3793 -0.2266 -0.0182
 8123SOL    HW135828   1.411   1.361   7.478  0.1081 -0.9808  0.1145
 8123SOL    HW235829   1.437   1.463   7.584 -1.0539 -0.1966 -0.0788
 8124SOL     OW35830   3.335   0.076   3.275  0.4796 -0.4035 -0.6558
 8124SOL    HW135831   3.291   0.042   3.197 -0.0474 -3.1039  0.8349
 8124SOL    HW235832   3.427   0.097   3.259  0.7851 -0.5458  0.9174
 8125SOL     OW35833   0.372   0.318  10.468  0.1194  0.2032  0.3250
 8125SOL    HW135834   0.306   0.369  10.421  0.1525 -0.7950 -0.7930
 8125SOL    HW235835   0.408   0.254  10.407 -1.5058 -1.5151  1.1698
 8126SOL     OW35836   3.472   0.319   2.693 -0.1102  0.4112 -0.4270
 8126SOL    HW135837   3.497   0.255   2.759 -0.9253  3.1344  2.4990
 8126SOL    HW235838   3.378   0.331   2.709 -0.3057 -0.4525 -0.9092
 8127SOL     OW35839   2.659   1.794   8.349 -0.3617  0.1117  0.2207
 8127SOL    HW135840   2.665   1.763   8.439 -0.7877 -0.6863 -0.0283
 8127SOL    HW235841   2.754   1.803   8.344 -0.6308  2.5021 -0.6263
 8128SOL     OW35842   3.369   1.130   2.729  0.3193  0.3552  0.4367
 8128SOL    HW135843   3.363   1.075   2.807 -0.5156 -2.3573 -1.5547
 8128SOL    HW235844   3.279   1.151   2.705  1.0051 -0.3850 -2.8378
 8129SOL     OW35845   2.180   0.357   1.250  0.1790  0.5048  0.0669
 8129SOL    HW135846   2.143   0.280   1.293  0.0196 -0.6913 -2.2141
 8129SOL    HW235847   2.257   0.319   1.208  1.2342  1.8254  0.7906
 8130SOL     OW35848   0.234   2.169   8.163  0.1652  1.1883 -0.7542
 8130SOL    HW135849   0.329   2.177   8.158 -0.0835  3.4062 -1.9652
 8130SOL    HW235850   0.218   2.194   8.254 -0.3353 -0.8143 -0.2805
 8131SOL     OW35851   1.934   0.365   5.979  0.4512  0.4560 -0.3951
 8131SOL    HW135852   1.934   0.432   5.911 -2.4343 -0.1923 -1.0121
 8131SOL    HW235853   2.007   0.400   6.031 -0.1135  1.5481 -0.3428
 8132SOL     OW35854   3.964   0.061   4.018 -0.6712 -0.5359  0.1184
 8132SOL    HW135855   3.945   0.011   3.939 -0.0009 -1.8182  0.7692
 8132SOL    HW235856   3.976   4.709   4.076  1.0045  0.9837  1.7624
 8133SOL     OW35857   1.198   2.922   0.341  0.3323  0.4831  0.0991
 8133SOL    HW135858   1.287   2.907   0.309 -0.2835 -3.2585  0.1602
 8133SOL    HW235859   1.150   2.910   0.259 -1.3440  0.0376  1.1508
 8134SOL     OW35860   0.249   0.770   8.724  0.2096 -1.0612 -0.0304
 8134SOL    HW135861   0.165   0.762   8.680 -0.6518  2.9082  0.8365
 8134SOL    HW235862   0.299   0.812   8.654  0.4453 -2.7109 -0.8530
 8135SOL     OW35863   1.105   1.701   1.314  0.4363  0.3226  0.0700
 8135SOL    HW135864   1.085   1.619   1.269  0.2447  0.1197  0.5294
 8135SOL    HW235865   1.110   1.759   1.238 -2.0992  0.1858 -0.2045
 8136SOL     OW35866   2.778   2.919   6.949 -0.1830 -0.2612 -0.3078
 8136SOL    HW135867   2.728   2.981   7.002 -0.2010 -0.3773 -0.1889
 8136SOL    HW235868   2.731   2.939   6.868  0.7800  1.0153 -0.5564
 8137SOL     OW35869   1.275   2.671   4.234  0.2592 -0.0407  0.3434
 8137SOL    HW135870   1.244   2.582   4.218  0.5769  0.1323 -1.2579
 8137SOL    HW235871   1.259   2.683   4.328  0.1985 -0.4088  0.3826
 8138SOL     OW35872   4.409   3.689  13.329  0.0029  0.4286 -0.1882
 8138SOL    HW135873   4.436   3.599  13.309  2.7501  1.8095 -2.7614
 8138SOL    HW235874   4.346   3.673  13.398 -0.9008 -0.6067 -1.2537
 8139SOL     OW35875   4.547   1.598   7.004  0.2100 -1.2653  0.4170
 8139SOL    HW135876   4.489   1.674   7.001  0.1932 -1.4416 -3.0213
 8139SOL    HW235877   4.500   1.539   7.062  0.5197 -0.9888  0.9628
 8140SOL     OW35878   3.169   2.806   9.729  0.0487  0.7817 -0.0226
 8140SOL    HW135879   3.162   2.902   9.730  0.4644  0.8096  1.4266
 8140SOL    HW235880   3.231   2.787   9.800 -0.5993  0.2682  0.4033
 8141SOL     OW35881   1.420   0.129   4.836  0.4103 -0.0630 -0.3035
 8141SOL    HW135882   1.342   0.074   4.848  0.8573 -0.6807 -0.2378
 8141SOL    HW235883   1.486   0.072   4.874 -1.2294 -1.1205  0.9733
 8142SOL     OW35884   4.304   4.063   8.648  0.4336 -0.2536 -0.3144
 8142SOL    HW135885   4.300   4.092   8.557  1.7315 -0.8766 -0.5705
 8142SOL    HW235886   4.365   3.992   8.627  0.7304 -0.1807  0.3112
 8143SOL     OW35887   2.035   0.878   1.872 -0.4002 -0.1997 -0.1745
 8143SOL    HW135888   1.979   0.809   1.907  0.6689 -0.5151  0.9086
 8143SOL    HW235889   2.114   0.852   1.918  0.0513 -0.7176 -1.2335
 8144SOL     OW35890   1.352   3.339   0.837 -0.0573 -0.4331  0.3489
 8144SOL    HW135891   1.437   3.337   0.792 -0.8612  0.5447 -1.2277
 8144SOL    HW235892   1.333   3.433   0.832 -1.0942 -0.7509 -1.6016
 8145SOL     OW35893   3.122   3.831   5.665 -0.5125 -0.4523 -0.2215
 8145SOL    HW135894   3.213   3.812   5.686 -0.2078 -0.5717 -1.6355
 8145SOL    HW235895   3.114   3.807   5.573 -3.4600  0.0271 -0.1156
 8146SOL     OW35896   0.900   2.274   3.242  0.4342 -0.4832  0.0430
 8146SOL    HW135897   0.966   2.326   3.196  0.9412 -1.6001 -0.4707
 8146SOL    HW235898   0.834   2.257   3.174  0.6392 -1.8506  0.1902
 8147SOL     OW35899   3.894   3.666   9.446 -0.0285 -0.1304 -0.1954
 8147SOL    HW135900   3.989   3.660   9.441  0.2608  2.5646  1.9918
 8147SOL    HW235901   3.885   3.571   9.437  0.3553 -0.1243 -0.6423
 8148SOL     OW35902   3.017   1.977  12.016  0.0059  0.2003  0.6849
 8148SOL    HW135903   3.103   1.934  12.016  0.2839  0.7465  1.6308
 8148SOL    HW235904   2.960   1.904  12.039  1.8874 -1.5710 -0.2444
 8149SOL     OW35905   3.049   2.828   9.372  0.1267  0.4284  0.3152
 8149SOL    HW135906   2.998   2.807   9.450 -0.7002  1.4285  0.0329
 8149SOL    HW235907   3.112   2.756   9.371 -0.5679 -0.1793  1.0248
 8150SOL     OW35908   4.410   2.344  10.318  0.7064 -0.5496  0.1764
 8150SOL    HW135909   4.356   2.307  10.388  1.1405  0.4078  1.0285
 8150SOL    HW235910   4.489   2.342  10.373  0.0471  1.4855  1.2321
 8151SOL     OW35911   0.258   4.522  12.516  0.4226  0.6091 -0.1185
 8151SOL    HW135912   0.216   4.572  12.446 -0.3369 -0.4225 -0.4154
 8151SOL    HW235913   0.183   4.528  12.575  0.5044 -0.5732  0.1136
 8152SOL     OW35914   2.867   3.680   0.355  0.1150 -0.1406  0.1797
 8152SOL    HW135915   2.879   3.586   0.338  3.1606  0.2243  0.3105
 8152SOL    HW235916   2.841   3.704   0.267 -1.2078  0.3584  0.7105
 8153SOL     OW35917   3.045   0.804  11.571  0.2742 -0.6094  0.0297
 8153SOL    HW135918   2.986   0.785  11.497  0.8182 -1.4408 -0.1935
 8153SOL    HW235919   3.009   0.747  11.638 -1.0360  0.0763 -0.0853
 8154SOL     OW35920   3.412   4.444   4.707  0.0031  0.8316  0.1256
 8154SOL    HW135921   3.440   4.428   4.797 -0.7560  0.9560  0.3808
 8154SOL    HW235922   3.493   4.433   4.657  0.7894 -0.8413  1.7434
 8155SOL     OW35923   2.406   0.972  15.900 -0.2511  0.2900  0.1872
 8155SOL    HW135924   2.360   1.002  15.822 -1.1094  1.1127  1.0163
 8155SOL    HW235925   2.435   0.890  15.858 -1.4093  1.0397 -2.0842
 8156SOL     OW35926   0.685   3.801  10.195 -0.6537  0.1350 -0.2079
 8156SOL    HW135927   0.699   3.878  10.250 -0.3500  0.1528 -0.3128
 8156SOL    HW235928   0.593   3.789  10.220 -1.1621  1.9263 -1.1503
 8157SOL     OW35929   3.174   4.198   3.912 -0.0114  0.0572  0.2543
 8157SOL    HW135930   3.155   4.245   3.831  1.2063 -0.8284 -0.5536
 8157SOL    HW235931   3.255   4.238   3.943  1.0964 -1.3429 -0.7713
 8158SOL     OW35932   4.490   4.317   6.169  0.3401 -0.1276  0.3872
 8158SOL    HW135933   4.559   4.263   6.209 -1.0968 -1.7740  0.6401
 8158SOL    HW235934   4.524   4.366   6.094  0.8221  1.8789  1.9190
 8159SOL     OW35935   2.242   1.335   7.716 -0.0396  0.3515  0.7395
 8159SOL    HW135936   2.257   1.406   7.778 -2.3566  0.9152  0.6516
 8159SOL    HW235937   2.308   1.350   7.649 -0.5532 -0.0178  0.1488
 8160SOL     OW35938   3.320   1.785   9.088 -0.1556 -0.6390 -0.3008
 8160SOL    HW135939   3.408   1.777   9.053 -0.7537 -3.1241 -1.2473
 8160SOL    HW235940   3.274   1.778   9.004  2.1068 -4.3786 -1.2190
 8161SOL     OW35941   4.268   3.821   7.792 -0.0670 -0.1562  0.0436
 8161SOL    HW135942   4.328   3.798   7.720 -2.9342 -0.9120 -2.0901
 8161SOL    HW235943   4.322   3.871   7.853  1.4464 -0.7503 -0.7888
 8162SOL     OW35944   1.442   3.599  13.944  0.0455 -0.5187  0.6080
 8162SOL    HW135945   1.366   3.654  13.966  0.4680  1.3177 -2.4576
 8162SOL    HW235946   1.515   3.655  13.916 -0.2470  0.9035  2.6859
 8163SOL     OW35947   3.594   4.578   8.723 -0.4254 -0.5759  0.2028
 8163SOL    HW135948   3.605   4.669   8.751 -0.0167 -0.6426  0.2610
 8163SOL    HW235949   3.673   4.566   8.670 -1.0049  1.5997 -1.1540
 8164SOL     OW35950   3.373   3.032   3.078  0.0578 -0.1686 -0.2650
 8164SOL    HW135951   3.365   2.942   3.047 -2.3633  0.1698 -0.6753
 8164SOL    HW235952   3.412   3.017   3.164 -0.8921  0.4873  0.2832
 8165SOL     OW35953   1.986   4.526   3.228  0.0737 -0.4776  0.2808
 8165SOL    HW135954   2.031   4.603   3.193 -1.0236 -0.4166 -1.0113
 8165SOL    HW235955   2.060   4.478   3.266  0.6149 -0.5660 -0.8516
 8166SOL     OW35956   3.834   0.245   3.144 -0.2070  0.2371  0.5113
 8166SOL    HW135957   3.877   0.250   3.229  0.2094 -0.1682  0.3209
 8166SOL    HW235958   3.907   0.201   3.102 -0.5403 -0.3612  0.5638
 8167SOL     OW35959   4.588   3.125  16.438 -0.1861  0.1253  0.5559
 8167SOL    HW135960   4.635   3.158  16.362  0.0142  0.4538  0.8236
 8167SOL    HW235961   4.547   3.202  16.476  0.5982  1.0653 -0.5170
 8168SOL     OW35962   1.273   3.061   0.820 -0.4086 -0.0897 -0.0877
 8168SOL    HW135963   1.281   3.156   0.818 -2.1621  0.0637  0.2163
 8168SOL    HW235964   1.236   3.042   0.734  0.7614 -1.6008 -0.2637
 8169SOL     OW35965   2.684   3.385   5.854 -0.3679 -0.3633 -0.1890
 8169SOL    HW135966   2.719   3.318   5.795  0.6084  0.6211 -0.7256
 8169SOL    HW235967   2.762   3.425   5.892 -0.9477  0.4037  0.2076
 8170SOL     OW35968   1.543   2.154   6.600 -0.1407  0.6680  0.2656
 8170SOL    HW135969   1.601   2.127   6.671 -1.8912 -0.8599  1.1264
 8170SOL    HW235970   1.480   2.192   6.662 -0.7051  0.3735 -0.1298
 8171SOL     OW35971   3.553   1.498   2.415  0.0584  0.1444 -0.1049
 8171SOL    HW135972   3.610   1.550   2.357 -1.2365 -2.8474 -4.0833
 8171SOL    HW235973   3.616   1.486   2.486  0.6112 -1.3527 -0.8402
 8172SOL     OW35974   1.097   4.570  12.380  0.6745 -0.2548 -0.5664
 8172SOL    HW135975   1.116   4.590  12.288 -0.4130  1.5512 -0.4045
 8172SOL    HW235976   1.160   4.502  12.405  1.1958 -0.0753 -1.3850
 8173SOL     OW35977   4.202   3.381   1.466  0.1594  0.4023 -0.0055
 8173SOL    HW135978   4.230   3.368   1.556  4.0037  2.2559 -0.8769
 8173SOL    HW235979   4.198   3.475   1.449  1.0519  0.7118  1.5051
 8174SOL     OW35980   4.160   1.073   3.980 -0.0100  0.1242  0.4475
 8174SOL    HW135981   4.102   0.999   3.997  1.5229 -0.9099  1.2397
 8174SOL    HW235982   4.114   1.149   4.014 -0.4124  0.6881 -1.4104
 8175SOL     OW35983   2.967   1.952   7.469 -0.0221  0.0324 -0.3945
 8175SOL    HW135984   2.996   1.869   7.506  1.5247  0.5112 -0.5172
 8175SOL    HW235985   3.018   2.015   7.521  1.4439 -1.0996 -0.4592
 8176SOL     OW35986   4.456   2.860   6.810  0.5373 -0.3558 -0.5294
 8176SOL    HW135987   4.476   2.935   6.756  2.5333  0.3232  1.1656
 8176SOL    HW235988   4.360   2.853   6.810  0.4738  0.3626  1.1422
 8177SOL     OW35989   4.025   1.801   4.958  0.3927 -0.2398  0.1991
 8177SOL    HW135990   3.956   1.779   5.021  0.6656  0.8107  0.8725
 8177SOL    HW235991   4.085   1.725   4.956 -1.3252 -1.5720 -0.5541
 8178SOL     OW35992   1.096   2.074   7.765 -0.1893  0.2803  0.1417
 8178SOL    HW135993   1.120   2.127   7.690  2.2879  2.5741  2.5631
 8178SOL    HW235994   1.161   2.004   7.764  1.3286  1.7097 -0.7025
 8179SOL     OW35995   1.772   4.611   6.967 -0.6397 -0.3186  0.1209
 8179SOL    HW135996   1.838   4.586   7.032 -0.1237 -1.4324 -0.8411
 8179SOL    HW235997   1.727   4.528   6.957 -0.6874  0.0824 -2.8853
 8180SOL     OW35998   3.309   1.610   0.389 -0.0843  0.3393  0.3691
 8180SOL    HW135999   3.360   1.608   0.308 -2.1017  1.3650 -0.9111
 8180SOL    HW236000   3.351   1.536   0.433  0.5270 -0.2918 -1.2541
 8181SOL     OW36001   0.954   0.930   0.871 -0.1303 -0.4280  0.2255
 8181SOL    HW136002   1.044   0.897   0.866  0.5707  1.3596  0.8871
 8181SOL    HW236003   0.924   0.899   0.786 -0.7529 -0.2311  0.3705
 8182SOL     OW36004   1.293   3.942   9.071  0.4747 -0.2293 -0.2953
 8182SOL    HW136005   1.244   3.916   8.993 -0.7924 -1.5508  0.9354
 8182SOL    HW236006   1.376   3.975   9.037  0.8358 -0.7034  0.1213
 8183SOL     OW36007   4.149   1.012   2.739 -0.2869  0.7719  0.4080
 8183SOL    HW136008   4.152   1.042   2.648  0.3989 -0.1761  0.1111
 8183SOL    HW236009   4.153   0.917   2.725  0.1592  1.0341 -1.2174
 8184SOL     OW36010   0.825   1.419   6.986 -0.2407 -0.0191 -0.0098
 8184SOL    HW136011   0.756   1.396   7.047  0.2156  1.2203  0.9540
 8184SOL    HW236012   0.790   1.500   6.950 -0.2874 -0.0130  0.0508
 8185SOL     OW36013   0.493   0.124  11.392  0.2685  0.3221 -0.4741
 8185SOL    HW136014   0.510   0.030  11.387  1.4747  0.3972  2.6513
 8185SOL    HW236015   0.526   0.155  11.307  0.1768  0.8587 -0.3136
 8186SOL     OW36016   2.036   4.525  13.917  0.8658  0.3109  0.8537
 8186SOL    HW136017   2.035   4.492  14.007 -1.1919 -1.8521  0.0630
 8186SOL    HW236018   1.964   4.588  13.909  2.0813  1.4273 -0.9660
 8187SOL     OW36019   1.614   0.486   1.466  0.3392  0.3589 -0.6508
 8187SOL    HW136020   1.660   0.551   1.519 -2.5753  1.7052  0.2099
 8187SOL    HW236021   1.686   0.425   1.450  0.5146  0.6309 -0.8859
 8188SOL     OW36022   2.678   4.111   0.730  0.8886 -0.1102  0.2713
 8188SOL    HW136023   2.729   4.091   0.652 -0.5714  1.8877 -1.1829
 8188SOL    HW236024   2.712   4.063   0.806  2.7933  0.4474 -0.2412
 8189SOL     OW36025   1.254   0.125   4.014 -0.1522  0.1296  0.1612
 8189SOL    HW136026   1.300   0.158   3.937  0.1777 -0.0121  0.2957
 8189SOL    HW236027   1.313   0.178   4.068 -0.7373  2.7702 -1.7976
 8190SOL     OW36028   3.642   2.101  15.175 -0.7568 -0.7674  0.0920
 8190SOL    HW136029   3.629   2.052  15.255  1.4716 -2.0700 -0.3379
 8190SOL    HW236030   3.734   2.094  15.150  0.6471  1.3583  4.5623
 8191SOL     OW36031   3.465   0.562   5.450  0.3546  0.4861  0.5281
 8191SOL    HW136032   3.474   0.574   5.356  1.7938  0.8639  0.7044
 8191SOL    HW236033   3.370   0.558   5.455  0.2859  2.6719  0.9460
 8192SOL     OW36034   1.796   2.242   6.393  0.0529 -0.7643  0.1152
 8192SOL    HW136035   1.887   2.225   6.371 -0.1876  1.1408 -2.4086
 8192SOL    HW236036   1.776   2.160   6.439 -1.2383  0.2734  1.4044
 8193SOL     OW36037   0.714   4.135   5.491  0.1100 -0.0229  0.3278
 8193SOL    HW136038   0.655   4.068   5.525  1.0106 -0.3101  1.3268
 8193SOL    HW236039   0.648   4.195   5.456  0.5726  0.5737  0.4768
 8194SOL     OW36040   0.769   2.600   2.692 -0.3382  0.0620 -0.3787
 8194SOL    HW136041   0.687   2.580   2.738  0.4437  0.6187  1.2529
 8194SOL    HW236042   0.781   2.677   2.748  0.9550  0.0633 -0.6549
 8195SOL     OW36043   1.331   3.907   3.942 -0.1022 -0.8633 -0.3692
 8195SOL    HW136044   1.236   3.896   3.931 -0.5743 -0.3750  3.0680
 8195SOL    HW236045   1.364   3.829   3.897  1.2289 -0.4941 -0.0277
 8196SOL     OW36046   2.341   3.628   4.953  0.6563 -0.1106  0.0365
 8196SOL    HW136047   2.414   3.572   4.927  0.9736  0.0228  0.6295
 8196SOL    HW236048   2.284   3.576   5.011  0.3524 -0.9309 -0.9932
 8197SOL     OW36049   3.809   4.048   6.331 -0.5142 -0.1805  0.6919
 8197SOL    HW136050   3.747   4.113   6.295 -0.4733  0.8411  2.4754
 8197SOL    HW236051   3.896   4.083   6.312 -0.0338 -1.8988 -0.1925
 8198SOL     OW36052   0.907   3.279   1.447  0.3005 -0.3060 -0.3082
 8198SOL    HW136053   0.846   3.322   1.386 -0.5429 -0.8027  0.1823
 8198SOL    HW236054   0.989   3.328   1.436  0.5041 -0.4468  0.6002
 8199SOL     OW36055   2.253   1.938   7.560 -0.4863  0.1496 -0.2738
 8199SOL    HW136056   2.318   1.943   7.629 -0.7298  1.2123 -0.1244
 8199SOL    HW236057   2.265   1.858   7.508 -2.2274  0.0146 -0.4736
 8200SOL     OW36058   2.332   0.158   3.281 -0.1866 -0.2327 -0.7014
 8200SOL    HW136059   2.327   0.240   3.232 -1.5522  1.3414  2.0614
 8200SOL    HW236060   2.367   0.183   3.366 -1.3898  0.9200 -0.5517
 8201SOL     OW36061   1.786   1.788   5.727 -0.3245  0.8655 -0.3597
 8201SOL    HW136062   1.803   1.831   5.811  1.0643  1.5205 -0.9693
 8201SOL    HW236063   1.840   1.710   5.733 -2.9024 -0.8876  0.1586
 8202SOL     OW36064   0.216   3.963  11.741  0.5771 -0.3445  0.7325
 8202SOL    HW136065   0.155   4.037  11.735 -0.2125 -0.9527  1.2283
 8202SOL    HW236066   0.257   3.979  11.656 -0.2210 -1.3262  0.1528
 8203SOL     OW36067   1.968   4.444   3.706  0.1300  0.4951  0.1422
 8203SOL    HW136068   1.924   4.383   3.646 -1.5094  2.5751 -0.7449
 8203SOL    HW236069   1.979   4.521   3.650  0.3726  0.6096  0.3507
 8204SOL     OW36070   3.710   3.827   9.566  0.6362  0.0482  0.4826
 8204SOL    HW136071   3.660   3.861   9.492 -1.1355  0.1889  1.7406
 8204SOL    HW236072   3.792   3.803   9.523  0.7709  0.4760  0.4964
 8205SOL     OW36073   3.205   4.116   4.636 -0.1522 -0.4383 -0.0475
 8205SOL    HW136074   3.256   4.037   4.654 -2.6713 -1.7375  1.3946
 8205SOL    HW236075   3.208   4.108   4.541 -1.9387 -0.6602 -0.0883
 8206SOL     OW36076   4.681   1.375   1.011 -0.5788  0.2695  0.2932
 8206SOL    HW136077   4.698   1.435   0.939 -1.9458 -0.6952 -0.8459
 8206SOL    HW236078   4.585   1.367   1.006 -0.4201  0.4705 -3.0422
 8207SOL     OW36079   1.319   2.124   4.947  0.3851 -0.2946  0.1951
 8207SOL    HW136080   1.398   2.096   4.993  0.8012 -0.0899 -0.3965
 8207SOL    HW236081   1.346   2.207   4.907 -2.1932  0.4918  0.0933
 8208SOL     OW36082   1.372   3.276   7.559  0.0403  0.0665 -0.1652
 8208SOL    HW136083   1.324   3.350   7.595 -0.9540 -1.1020  0.9217
 8208SOL    HW236084   1.416   3.313   7.483 -1.1422  3.3045  0.7306
 8209SOL     OW36085   1.730   0.186   1.927 -0.0111 -0.0470  0.5329
 8209SOL    HW136086   1.729   0.259   1.989 -1.5186  0.4274 -0.0539
 8209SOL    HW236087   1.637   0.166   1.933  0.2907 -1.7333 -0.3248
 8210SOL     OW36088   4.190   3.453   3.116  0.5768 -0.3224 -0.9335
 8210SOL    HW136089   4.195   3.536   3.163  2.0639 -0.9836  0.0915
 8210SOL    HW236090   4.135   3.469   3.039  0.2385  1.2584 -0.3448
 8211SOL     OW36091   0.852   0.025   4.501 -0.0494  0.4245  0.3781
 8211SOL    HW136092   0.860   4.681   4.568 -0.3501 -0.8592 -0.9062
 8211SOL    HW236093   0.777   0.073   4.536  0.5828 -0.9804  3.6281
 8212SOL     OW36094   3.099   2.267   6.561 -0.6957  0.3077 -0.0655
 8212SOL    HW136095   3.170   2.262   6.624  2.3851  1.6301 -3.4377
 8212SOL    HW236096   3.035   2.221   6.615 -1.4833  2.0127  0.4842
 8213SOL     OW36097   2.581   4.700  12.024 -0.3512  0.3917  0.2750
 8213SOL    HW136098   2.516   4.660  11.966  2.4006 -0.3744 -2.2338
 8213SOL    HW236099   2.609   0.044  11.962 -1.9560  1.2172  0.4368
 8214SOL     OW36100   1.059   0.706   3.537 -0.0080  0.2053  0.4081
 8214SOL    HW136101   0.969   0.702   3.569  0.9161 -0.2331  2.9348
 8214SOL    HW236102   1.097   0.770   3.597 -1.0439  0.7116  0.5319
 8215SOL     OW36103   4.407   0.094   5.102 -0.2727  0.2189 -0.1846
 8215SOL    HW136104   4.434   0.116   5.013 -0.0542  0.8309  0.0318
 8215SOL    HW236105   4.401   0.183   5.139  2.2304  1.5243 -2.9391
 8216SOL     OW36106   2.068   1.284   1.687 -0.4501 -0.4403  0.2260
 8216SOL    HW136107   2.126   1.292   1.762 -1.2630 -0.9065  0.9037
 8216SOL    HW236108   2.028   1.372   1.690  0.2030 -0.1481  0.3108
 8217SOL     OW36109   4.130   2.858   3.647 -0.2139 -0.1281  0.0692
 8217SOL    HW136110   4.041   2.862   3.613 -0.6108  0.6646  1.1914
 8217SOL    HW236111   4.113   2.831   3.738  0.9900 -0.7969  0.1078
 8218SOL     OW36112   1.322   1.391   0.077 -0.5386  0.5340  0.0641
 8218SOL    HW136113   1.286   1.371   0.164  0.8849 -0.5290  0.4000
 8218SOL    HW236114   1.302   1.485   0.080  0.2152  0.7079 -0.4125
 8219SOL     OW36115   4.712   3.919   4.317 -0.0231 -0.4045 -0.0827
 8219SOL    HW136116   0.020   4.004   4.284 -2.3691  0.5566  0.1000
 8219SOL    HW236117   0.044   3.902   4.393 -0.2920  0.3676  0.2942
 8220SOL     OW36118   4.101   4.364   8.609 -0.3512  0.2493  0.1255
 8220SOL    HW136119   4.123   4.418   8.534 -2.4345  0.6862 -0.1686
 8220SOL    HW236120   4.106   4.421   8.686 -3.2054 -0.9025  1.1717
 8221SOL     OW36121   1.656   3.170  14.975 -0.1188 -0.2346  0.3623
 8221SOL    HW136122   1.745   3.200  14.992  0.3098 -1.2089 -0.1452
 8221SOL    HW236123   1.676   3.076  14.971  2.6862  0.3942 -0.5317
 8222SOL     OW36124   0.964   0.868   8.642  0.4233 -0.4331  0.2603
 8222SOL    HW136125   0.926   0.828   8.564  0.3897  0.9915 -0.4428
 8222SOL    HW236126   0.934   0.810   8.712  1.3161 -1.2859 -0.0438
 8223SOL     OW36127   3.796   3.086   6.036 -0.3101 -0.2831 -0.6167
 8223SOL    HW136128   3.811   3.107   6.128 -1.7192 -0.5801 -0.3222
 8223SOL    HW236129   3.707   3.114   6.014 -0.4948 -1.0906 -0.9183
 8224SOL     OW36130   1.859   0.277   1.144  0.2788 -0.0688 -0.3668
 8224SOL    HW136131   1.873   0.186   1.170  0.6171 -0.5572 -2.2598
 8224SOL    HW236132   1.767   0.264   1.120 -0.6958  3.5348  1.5018
 8225SOL     OW36133   3.989   0.820  13.785  0.5787  0.2894  0.0999
 8225SOL    HW136134   4.084   0.819  13.774  0.7365 -1.2817  1.4970
 8225SOL    HW236135   3.976   0.897  13.841  0.5973  0.9639 -0.8172
 8226SOL     OW36136   4.537   0.893   2.821  0.1375 -0.0440 -0.6358
 8226SOL    HW136137   4.519   0.922   2.732  2.1312 -2.1806 -1.7220
 8226SOL    HW236138   4.628   0.921   2.834 -0.8284  1.8946  2.0492
 8227SOL     OW36139   2.215   4.263   8.343  0.0568 -0.6463 -0.3136
 8227SOL    HW136140   2.257   4.178   8.335  1.4743  0.2262 -2.0062
 8227SOL    HW236141   2.274   4.325   8.301  0.9350 -1.1901  0.1232
 8228SOL     OW36142   0.849   4.171   1.167  0.1180  0.1437  0.5590
 8228SOL    HW136143   0.836   4.202   1.256 -3.2811 -1.9577  0.7440
 8228SOL    HW236144   0.896   4.090   1.186 -0.7215 -0.1350  1.4041
 8229SOL     OW36145   1.535   1.227   3.808 -0.5433 -0.4396 -0.7565
 8229SOL    HW136146   1.499   1.247   3.894  1.4912 -3.3691  0.8061
 8229SOL    HW236147   1.583   1.308   3.789  1.1465 -1.0684  0.7924
 8230SOL     OW36148   3.715   3.675   8.732  0.1821  0.4950 -0.0808
 8230SOL    HW136149   3.759   3.725   8.801 -0.6015 -0.5208  1.1387
 8230SOL    HW236150   3.626   3.700   8.754 -0.9484 -0.1968 -3.9703
 8231SOL     OW36151   1.488   2.354  15.146  0.1281  0.2564  0.3557
 8231SOL    HW136152   1.430   2.366  15.070  0.1847 -1.7417 -0.0031
 8231SOL    HW236153   1.431   2.373  15.220 -0.6916 -2.3049  0.3973
 8232SOL     OW36154   0.543   4.341   5.392 -0.4730  0.1815 -0.2851
 8232SOL    HW136155   0.588   4.399   5.330  0.7166 -0.7564 -0.2925
 8232SOL    HW236156   0.458   4.329   5.349 -0.7819 -2.3863  1.0541
 8233SOL     OW36157   1.341   0.352  16.231  0.3016 -0.1166 -0.2187
 8233SOL    HW136158   1.251   0.321  16.232  0.7310 -1.3615  0.9337
 8233SOL    HW236159   1.378   0.301  16.303  0.0855  2.4146  1.6520
 8234SOL     OW36160   4.358   3.494  11.279  0.2439  0.0859  0.0232
 8234SOL    HW136161   4.377   3.584  11.253  1.5680 -0.3162 -0.4203
 8234SOL    HW236162   4.266   3.501  11.303 -0.2154 -0.3673 -1.5414
 8235SOL     OW36163   4.687   1.587  12.155  0.0032 -0.1253 -0.5762
 8235SOL    HW136164   0.004   1.644  12.220 -1.7871 -0.0707  0.5100
 8235SOL    HW236165   4.601   1.572  12.194 -0.7437  0.4864 -1.9872
 8236SOL     OW36166   1.901   3.575  17.683  0.0423 -0.3968  0.0213
 8236SOL    HW136167   1.933   3.661   0.013  0.8659 -0.4582 -0.7293
 8236SOL    HW236168   1.978   3.522  17.661 -0.7216 -1.9689  1.1905
 8237SOL     OW36169   4.328   3.908   4.546  0.0377  0.4406  0.5046
 8237SOL    HW136170   4.357   3.972   4.611 -0.0218 -1.8006  2.7520
 8237SOL    HW236171   4.305   3.838   4.607  0.5944  0.4155  0.6847
 8238SOL     OW36172   3.769   0.730   5.418 -0.3197  0.2440 -0.0031
 8238SOL    HW136173   3.820   0.715   5.338  0.7577  1.6406  0.4236
 8238SOL    HW236174   3.762   0.639   5.447  2.2066 -0.9348 -3.1178
 8239SOL     OW36175   0.393   2.413   6.460 -0.2490  0.0505  0.0075
 8239SOL    HW136176   0.414   2.325   6.491 -3.3536 -0.3709  0.8758
 8239SOL    HW236177   0.298   2.420   6.450 -0.3428 -1.1915  0.0288
 8240SOL     OW36178   0.401   2.102   2.577  0.6992 -0.4450  0.0752
 8240SOL    HW136179   0.421   2.117   2.484  1.2068  2.4271  0.6649
 8240SOL    HW236180   0.476   2.048   2.601  2.6675  1.8967 -0.7887
 8241SOL     OW36181   2.018   1.888   7.172  0.7410  0.0253 -0.0028
 8241SOL    HW136182   1.926   1.881   7.145  1.0223 -0.3571 -0.8630
 8241SOL    HW236183   2.013   1.950   7.245  2.6373  0.9246 -0.6514
 8242SOL     OW36184   3.604   1.403  16.665 -0.2838  0.1221  0.1105
 8242SOL    HW136185   3.630   1.450  16.744 -0.3489  0.0037  0.2002
 8242SOL    HW236186   3.533   1.356  16.708  0.1732  1.9658  2.8942
 8243SOL     OW36187   4.490   2.425   2.730 -0.4710 -0.6031  0.1641
 8243SOL    HW136188   4.528   2.492   2.672 -1.3793  0.2017  0.4971
 8243SOL    HW236189   4.533   2.438   2.814  1.7684  1.0502 -1.2020
 8244SOL     OW36190   3.400   2.244  15.805  0.3996 -0.1365  0.2910
 8244SOL    HW136191   3.412   2.151  15.787 -2.6062 -0.5514  0.4437
 8244SOL    HW236192   3.484   2.276  15.837  0.8875 -1.5069  0.3381
 8245SOL     OW36193   4.343   4.015   5.007 -0.3561 -0.0202  0.4212
 8245SOL    HW136194   4.283   4.042   5.076 -0.5294  0.4495  0.0826
 8245SOL    HW236195   4.336   3.923   5.035  0.0159 -0.3795 -0.6708
 8246SOL     OW36196   3.754   0.451   7.311 -0.4413 -0.1461 -0.0209
 8246SOL    HW136197   3.749   0.542   7.339 -1.5729 -0.4019  0.6273
 8246SOL    HW236198   3.709   0.401   7.379  0.3772 -0.8191  0.0281
 8247SOL     OW36199   2.507   0.687  15.482 -0.1032 -0.3535 -0.3993
 8247SOL    HW136200   2.453   0.614  15.511 -0.8335  0.9433  1.4750
 8247SOL    HW236201   2.511   0.746  15.557  0.0116  0.1020 -0.7606
 8248SOL     OW36202   3.144   1.184  14.028  0.0174  0.3402 -0.1377
 8248SOL    HW136203   3.214   1.214  13.969  1.1271  1.5504  1.7858
 8248SOL    HW236204   3.191   1.168  14.110  2.2811 -0.5326 -1.6053
 8249SOL     OW36205   0.099   1.852   9.973  0.2535 -0.5933  0.2986
 8249SOL    HW136206   0.055   1.774  10.007  0.6632 -1.4457 -1.0977
 8249SOL    HW236207   0.141   1.886  10.052 -0.5942 -1.4388  1.1088
 8250SOL     OW36208   1.596   2.345  17.463  0.7113 -0.4505  0.5985
 8250SOL    HW136209   1.574   2.324  17.372 -0.0873 -0.9166  0.8986
 8250SOL    HW236210   1.516   2.358  17.514  0.9124  0.2551  0.7361
 8251SOL     OW36211   3.223   3.800  13.956 -0.4237  0.2339  0.2139
 8251SOL    HW136212   3.204   3.749  14.035 -2.2519  0.8699  0.1681
 8251SOL    HW236213   3.319   3.795  13.961 -0.4820  1.0558  2.6811
 8252SOL     OW36214   2.319   2.823   9.867 -0.0861 -0.3434  0.6792
 8252SOL    HW136215   2.412   2.842   9.877 -0.5984  1.4357  2.1351
 8252SOL    HW236216   2.306   2.746   9.922 -0.7301  0.1611  1.2368
 8253SOL     OW36217   3.963   1.030  11.745 -0.3626 -0.4700  0.0973
 8253SOL    HW136218   4.045   1.077  11.760 -0.6196 -0.5521  1.8126
 8253SOL    HW236219   3.931   1.055  11.658  0.3469  0.1244  0.0132
 8254SOL     OW36220   1.894   1.687  16.039  0.1953  0.2473  0.2426
 8254SOL    HW136221   1.907   1.656  15.949 -1.8363  0.1334 -0.0063
 8254SOL    HW236222   1.815   1.738  16.021 -0.4135 -0.4244  0.9703
 8255SOL     OW36223   1.697   0.816   7.102  0.1525 -0.0916 -0.3553
 8255SOL    HW136224   1.680   0.827   7.008  3.5806 -1.8396 -1.1496
 8255SOL    HW236225   1.617   0.766   7.121  0.2072 -0.0927 -0.1237
 8256SOL     OW36226   4.522   0.978   0.726  0.4637  0.1522  0.6234
 8256SOL    HW136227   4.516   1.024   0.810  2.0380 -0.1190  0.8924
 8256SOL    HW236228   4.439   0.931   0.726  2.7927 -3.9402  1.1138
 8257SOL     OW36229   4.047   3.202   3.180  0.1663  0.0273  0.7383
 8257SOL    HW136230   4.069   3.288   3.144  0.4095 -0.1480  0.4779
 8257SOL    HW236231   4.127   3.198   3.233  2.4469 -1.1715 -2.8197
 8258SOL     OW36232   2.195   1.091   2.030  0.1400  0.5622 -0.5111
 8258SOL    HW136233   2.220   1.061   1.943 -1.2611  2.0181 -1.4020
 8258SOL    HW236234   2.213   1.185   2.034 -0.1863  0.5718  0.8878
 8259SOL     OW36235   3.904   1.977  15.149 -0.7094 -0.0079  0.1664
 8259SOL    HW136236   3.955   1.915  15.202 -1.7419 -0.8179  0.1939
 8259SOL    HW236237   3.903   1.927  15.067  0.3035 -1.1687  0.8571
 8260SOL     OW36238   1.022   3.834   6.176  0.1079  0.2327  0.0323
 8260SOL    HW136239   1.117   3.849   6.182 -0.3506  1.8178  3.5992
 8260SOL    HW236240   0.999   3.923   6.151 -0.3236 -0.5115 -2.2190
 8261SOL     OW36241   3.790   0.917   7.940  0.0012  0.0149  0.0306
 8261SOL    HW136242   3.803   1.011   7.933  0.4325 -0.0740 -0.3859
 8261SOL    HW236243   3.701   0.908   7.908 -0.3027  3.4428 -0.0011
 8262SOL     OW36244   2.071   4.051  11.089 -0.5091 -0.2492  0.1386
 8262SOL    HW136245   1.978   4.075  11.088 -0.6318 -0.7600 -0.7763
 8262SOL    HW236246   2.056   3.978  11.149 -1.5411 -0.3296 -0.2117
 8263SOL     OW36247   4.235   0.303   7.355 -0.6693  0.1194 -0.3516
 8263SOL    HW136248   4.222   0.213   7.326 -1.5804  1.0301 -2.7643
 8263SOL    HW236249   4.260   0.284   7.446  0.0108 -0.1185 -0.5896
 8264SOL     OW36250   3.943   0.275   7.212  0.7629 -0.0217  0.1427
 8264SOL    HW136251   4.017   0.314   7.166  0.2034  0.1843 -0.5693
 8264SOL    HW236252   3.891   0.352   7.234 -0.8698 -1.1035  0.0656
 8265SOL     OW36253   4.270   1.063   1.687  0.2357  0.8333 -0.0022
 8265SOL    HW136254   4.183   1.029   1.666  1.4536 -0.8581 -2.2160
 8265SOL    HW236255   4.312   0.978   1.698  2.5349  1.8868 -0.5106
 8266SOL     OW36256   1.310   4.552  17.468 -0.6103  0.4399 -0.0248
 8266SOL    HW136257   1.343   4.492  17.535  1.1644 -0.1171 -1.3974
 8266SOL    HW236258   1.305   4.635  17.516  0.2333  0.0308  0.7683
 8267SOL     OW36259   2.398   3.070   6.875  0.3296  0.0330  0.2307
 8267SOL    HW136260   2.429   3.050   6.786  1.6453  0.7157  0.5349
 8267SOL    HW236261   2.307   3.098   6.863  0.5422  0.5665 -0.1410
 8268SOL     OW36262   3.631   3.524   3.502  0.0817 -0.2593 -0.1154
 8268SOL    HW136263   3.619   3.521   3.597 -1.6326 -0.5297 -0.3338
 8268SOL    HW236264   3.564   3.591   3.489 -1.7652 -2.1713 -0.3639
 8269SOL     OW36265   0.639   3.779   8.168  0.0040  0.2023 -0.2123
 8269SOL    HW136266   0.718   3.814   8.209 -0.2093  0.3492  0.0741
 8269SOL    HW236267   0.679   3.761   8.083 -1.9754  0.1900 -1.1284
 8270SOL     OW36268   4.685   0.775   7.614  0.3529  0.5919  0.0552
 8270SOL    HW136269   4.701   0.683   7.636  1.1859  0.5308 -0.8187
 8270SOL    HW236270   4.668   0.760   7.521 -0.7938  3.7132 -0.2301
 8271SOL     OW36271   0.245   3.011   2.591  0.5095  0.3487 -0.2830
 8271SOL    HW136272   0.270   2.986   2.502  1.5290 -0.0349  0.1068
 8271SOL    HW236273   0.175   2.949   2.612 -1.0512  2.4436  0.7333
 8272SOL     OW36274   2.754   0.171   1.453 -0.1336  0.0460  0.1077
 8272SOL    HW136275   2.822   0.195   1.516  2.5517 -0.2726 -2.7044
 8272SOL    HW236276   2.673   0.203   1.494 -0.0970 -1.0384  1.0271
 8273SOL     OW36277   3.845   0.624  17.279 -0.2688  0.0767  0.0104
 8273SOL    HW136278   3.895   0.546  17.300  0.1998  0.4033  0.1143
 8273SOL    HW236279   3.914   0.689  17.295  0.1922 -0.4403  0.0950
 8274SOL     OW36280   1.164   1.694   0.073 -0.2737 -0.3545 -0.1351
 8274SOL    HW136281   1.104   1.650   0.013 -1.5686 -1.7079  2.1706
 8274SOL    HW236282   1.230   1.714   0.007  0.7057  0.0806  0.9721
 8275SOL     OW36283   3.312   2.680   2.800 -0.1961 -0.1396  0.2132
 8275SOL    HW136284   3.321   2.685   2.895 -0.7456  2.3756  0.1452
 8275SOL    HW236285   3.293   2.586   2.799 -0.6891 -0.0579  2.0571
 8276SOL     OW36286   2.770   2.975   9.292 -0.5818  0.3138  0.3770
 8276SOL    HW136287   2.840   3.039   9.299  0.0654 -0.2433 -0.9658
 8276SOL    HW236288   2.708   3.003   9.360 -1.6453  1.0853 -0.8943
 8277SOL     OW36289   1.347   0.330   0.439 -0.0421 -0.3041  0.0377
 8277SOL    HW136290   1.297   0.386   0.380  0.1062  1.1089  1.2393
 8277SOL    HW236291   1.271   0.290   0.481  0.6151 -1.1796  0.3986
 8278SOL     OW36292   2.644   3.657  11.294 -0.1182 -0.1520  0.1711
 8278SOL    HW136293   2.695   3.630  11.218 -2.0943 -2.7490 -0.2496
 8278SOL    HW236294   2.711   3.667  11.361 -1.4934  1.7200  1.2802
 8279SOL     OW36295   3.477   0.611  11.109 -0.8073  0.0162  0.0687
 8279SOL    HW136296   3.398   0.585  11.156 -1.1046  0.5508 -0.1366
 8279SOL    HW236297   3.547   0.603  11.174 -2.5474 -1.1732  1.8086
 8280SOL     OW36298   3.321   1.291   8.897 -0.3659  0.2672 -0.0116
 8280SOL    HW136299   3.350   1.370   8.942 -0.3617 -1.4300  2.9143
 8280SOL    HW236300   3.387   1.280   8.828 -1.2161  2.3461 -1.1624
 8281SOL     OW36301   4.065   3.467  11.057 -0.4289 -0.1040 -0.2005
 8281SOL    HW136302   4.088   3.532  11.123  0.0521 -0.5028  0.0177
 8281SOL    HW236303   4.148   3.474  11.010 -1.8795  0.5247 -2.6889
 8282SOL     OW36304   1.340   1.110   7.805 -0.0087 -0.2839  0.5439
 8282SOL    HW136305   1.320   1.153   7.888  3.2659 -1.2790  1.8099
 8282SOL    HW236306   1.284   1.160   7.745 -2.2432 -0.9561  2.0639
 8283SOL     OW36307   1.942   3.364  10.774  0.4717  0.2488 -1.0438
 8283SOL    HW136308   1.942   3.369  10.870  2.1201  1.4043 -1.1005
 8283SOL    HW236309   1.992   3.283  10.775 -1.7870 -1.1282  0.0377
 8284SOL     OW36310   1.283   0.420   2.887  0.1457  0.3635  0.0646
 8284SOL    HW136311   1.206   0.362   2.890 -0.8807  1.7719  0.7880
 8284SOL    HW236312   1.333   0.367   2.825 -0.4972 -1.3306  0.9877
 8285SOL     OW36313   2.858   0.333   4.143 -0.1564  0.3781 -0.6787
 8285SOL    HW136314   2.913   0.396   4.096 -0.0631 -0.5116 -1.7657
 8285SOL    HW236315   2.914   0.261   4.173  0.4396  1.2459  0.2678
 8286SOL     OW36316   4.287   3.905  13.229 -0.1274 -0.4631 -0.3889
 8286SOL    HW136317   4.353   3.967  13.197 -1.6923  0.5853 -1.6413
 8286SOL    HW236318   4.335   3.833  13.268 -1.3591 -1.8023 -1.3447
 8287SOL     OW36319   4.661   2.947   5.387 -0.2145  0.3230 -0.1359
 8287SOL    HW136320   4.670   2.907   5.300 -2.1748  0.8574 -0.5736
 8287SOL    HW236321   4.678   2.865   5.434 -0.6250 -0.4240 -1.2802
 8288SOL     OW36322   0.044   4.193  14.214 -0.4827  0.1610  0.1257
 8288SOL    HW136323   0.085   4.225  14.295 -0.9798  1.7870 -0.2637
 8288SOL    HW236324   0.057   4.100  14.233  1.5918  0.5209  0.4605
 8289SOL     OW36325   2.026   2.598   5.959 -0.3303 -0.5547  0.0922
 8289SOL    HW136326   2.065   2.657   6.024  0.7100 -0.7526 -0.3423
 8289SOL    HW236327   1.943   2.641   5.940  0.1571 -0.7585 -2.5039
 8290SOL     OW36328   1.177   1.472   4.000  0.2072  0.2058 -0.8723
 8290SOL    HW136329   1.212   1.561   4.001  0.0519  0.2461  0.7695
 8290SOL    HW236330   1.144   1.464   4.089  0.5874  0.8047 -0.6816
 8291SOL     OW36331   1.051   3.954   6.883 -0.2347 -0.5900 -0.1147
 8291SOL    HW136332   1.054   3.994   6.795  0.8703 -2.1666 -0.7893
 8291SOL    HW236333   1.137   3.912   6.879  0.6450  1.3836 -2.3410
 8292SOL     OW36334   0.295   1.595   7.207  0.0352 -0.5226 -0.2498
 8292SOL    HW136335   0.222   1.563   7.153  0.8805 -0.0830 -1.6362
 8292SOL    HW236336   0.354   1.630   7.141  1.5684 -2.5978  0.0283
 8293SOL     OW36337   0.647   4.145   2.240  0.2793  0.0449  0.0128
 8293SOL    HW136338   0.579   4.200   2.200  0.9486  0.5326 -0.4588
 8293SOL    HW236339   0.601   4.064   2.220  0.6978 -0.7364  2.3033
 8294SOL     OW36340   2.414   3.034   3.860 -0.7710 -0.3013  0.0903
 8294SOL    HW136341   2.369   2.949   3.861 -1.7755  0.2099 -2.0938
 8294SOL    HW236342   2.343   3.092   3.834  0.4096  0.8952 -0.4354
 8295SOL     OW36343   4.178   2.985   7.681  0.3659  0.0187  0.0023
 8295SOL    HW136344   4.205   3.074   7.658 -1.9374  0.6271 -0.3532
 8295SOL    HW236345   4.200   2.941   7.598  1.0238  2.5238 -1.1451
 8296SOL     OW36346   3.496   0.312   5.931 -0.7047  0.4658 -0.4795
 8296SOL    HW136347   3.470   0.394   5.888  2.9751  0.8881 -1.8965
 8296SOL    HW236348   3.413   0.302   5.977 -1.1720  1.1567 -1.1753
 8297SOL     OW36349   2.016   0.912  12.964 -0.1410  0.1417  0.1099
 8297SOL    HW136350   2.035   0.991  12.914 -0.9634 -0.3228 -0.9342
 8297SOL    HW236351   1.994   0.939  13.054  0.1104  0.9636 -0.0782
 8298SOL     OW36352   1.763   1.030   0.718  0.2202  0.2845  0.1829
 8298SOL    HW136353   1.853   1.022   0.685  0.4102  0.4444  0.6556
 8298SOL    HW236354   1.731   0.941   0.708  0.0714  0.4092 -0.4107
 8299SOL     OW36355   3.504   2.237   0.757 -0.1399  0.3107  0.4897
 8299SOL    HW136356   3.552   2.315   0.729 -0.3161 -0.4047 -1.8544
 8299SOL    HW236357   3.440   2.226   0.686 -2.0024  0.3336  2.1813
 8300SOL     OW36358   2.164   0.501   3.690  0.0207  0.4431 -0.2408
 8300SOL    HW136359   2.211   0.582   3.669 -1.1742  1.6791  1.7942
 8300SOL    HW236360   2.091   0.534   3.743  0.6863  0.5940  0.5654
 8301SOL     OW36361   3.046   0.837   0.496 -0.1542  0.2136  0.2303
 8301SOL    HW136362   3.061   0.742   0.499  0.8575  0.3370 -0.7539
 8301SOL    HW236363   3.070   0.857   0.405 -1.0353  0.5157  0.0635
 8302SOL     OW36364   2.582   2.706   7.147 -0.6838  0.2998  0.3047
 8302SOL    HW136365   2.528   2.658   7.210 -0.4232 -0.5042 -0.0787
 8302SOL    HW236366   2.521   2.769   7.109  0.1098  0.2718 -1.0087
 8303SOL     OW36367   0.611   3.509  13.135 -0.3064 -0.3077 -0.6115
 8303SOL    HW136368   0.534   3.477  13.087 -1.3973 -1.1589  1.7258
 8303SOL    HW236369   0.593   3.469  13.220 -1.1759  0.1400 -0.5753
 8304SOL     OW36370   0.473   0.776   7.942 -0.5738 -0.1326  0.2613
 8304SOL    HW136371   0.470   0.842   7.872 -3.2024  0.7963  1.2708
 8304SOL    HW236372   0.557   0.801   7.980 -0.3540  0.7745 -0.8195
 8305SOL     OW36373   0.489   0.052   0.520 -0.0157  0.0620  0.4044
 8305SOL    HW136374   0.429   0.011   0.582  0.2917  1.7208  1.7806
 8305SOL    HW236375   0.508   4.711   0.452  0.9367 -1.0635  1.7526
 8306SOL     OW36376   1.621   3.171   0.396  0.5349 -0.1874 -0.2291
 8306SOL    HW136377   1.632   3.252   0.446  3.5395  0.2810 -1.6597
 8306SOL    HW236378   1.530   3.173   0.369 -0.5530  1.5444  3.5994
 8307SOL     OW36379   1.455   2.487   8.774  0.2540 -0.3762  0.0190
 8307SOL    HW136380   1.464   2.558   8.837  0.8140  0.7024 -1.2915
 8307SOL    HW236381   1.375   2.449   8.811 -0.0607 -1.0456 -1.3429
 8308SOL     OW36382   0.868   0.604  10.734 -0.0709  0.1412 -0.5468
 8308SOL    HW136383   0.785   0.624  10.691 -0.1917 -0.2811 -0.5049
 8308SOL    HW236384   0.843   0.535  10.795 -1.4741  0.3206 -0.9192
 8309SOL     OW36385   1.170   1.024   0.012 -0.5051  0.0857  0.0550
 8309SOL    HW136386   1.211   1.027   0.099 -2.2570  0.1209  0.8970
 8309SOL    HW236387   1.199   0.933   0.005  2.5184  1.0102  0.7824
 8310SOL     OW36388   1.838   0.065   3.435 -0.1345 -0.6010  0.0928
 8310SOL    HW136389   1.743   0.052   3.429  0.0371 -2.8223  2.6245
 8310SOL    HW236390   1.857   0.097   3.347 -0.9945  2.6422  1.0893
 8311SOL     OW36391   2.148   4.425   5.097  0.1407 -0.2766  0.2052
 8311SOL    HW136392   2.203   4.398   5.170 -1.2520  2.5875  2.3450
 8311SOL    HW236393   2.065   4.453   5.138 -0.1465  2.5160 -2.2667
 8312SOL     OW36394   1.710   0.336   7.925 -0.0953  0.2374 -0.2800
 8312SOL    HW136395   1.711   0.330   7.830 -0.8215 -1.2986 -0.1816
 8312SOL    HW236396   1.747   0.251   7.948  0.7147  1.0845  1.5809
 8313SOL     OW36397   2.314   2.239   7.502  0.2700 -0.7582 -0.1653
 8313SOL    HW136398   2.329   2.266   7.593  0.4992  1.1577 -0.7702
 8313SOL    HW236399   2.267   2.156   7.504 -0.3318 -0.4213 -0.2718
 8314SOL     OW36400   4.438   0.182   5.715  0.2372 -0.2271 -0.0113
 8314SOL    HW136401   4.408   0.270   5.691  0.2209 -0.9982 -2.7585
 8314SOL    HW236402   4.486   0.158   5.636 -2.0123 -0.8634 -1.1874
 8315SOL     OW36403   1.522   4.616   7.576  0.5018 -0.1868 -0.6417
 8315SOL    HW136404   1.588   4.654   7.519 -1.4188  2.9364 -0.7631
 8315SOL    HW236405   1.442   4.665   7.558  0.9124  0.3710 -0.9551
 8316SOL     OW36406   0.598   4.327   7.522 -0.0426  0.1061 -0.0102
 8316SOL    HW136407   0.578   4.236   7.542  0.6049 -0.2889 -1.1401
 8316SOL    HW236408   0.568   4.361   7.606 -0.9800  1.2699 -0.8155
 8317SOL     OW36409   3.357   2.966   7.775 -0.4435 -0.5916  1.1946
 8317SOL    HW136410   3.422   2.971   7.706 -0.8985  0.9812  0.8702
 8317SOL    HW236411   3.356   2.874   7.803  0.4000 -1.7979 -2.8299
 8318SOL     OW36412   1.064   3.151   0.019 -0.2533 -0.0846  0.4105
 8318SOL    HW136413   1.140   3.094   0.014 -1.5106 -1.6510 -1.0416
 8318SOL    HW236414   1.063   3.163  17.622 -2.0254  2.9398  0.8165
 8319SOL     OW36415   1.019   2.446   0.063 -0.0430 -0.0508  0.0852
 8319SOL    HW136416   1.046   2.355   0.055  1.3230  0.5109 -1.9152
 8319SOL    HW236417   1.073   2.482   0.133 -0.6004  2.8096 -0.9316
 8320SOL     OW36418   1.154   4.190   2.465 -0.2115 -0.2342 -0.0357
 8320SOL    HW136419   1.101   4.204   2.543 -0.7211  0.3372 -0.4858
 8320SOL    HW236420   1.096   4.209   2.391 -0.8933  2.0736  1.0851
 8321SOL     OW36421   3.129   0.290   2.464 -0.4422  0.3867  0.0077
 8321SOL    HW136422   3.091   0.308   2.550 -1.2394  0.3301 -0.3290
 8321SOL    HW236423   3.214   0.335   2.465 -0.3888  0.3010 -0.6558
 8322SOL     OW36424   0.647   1.949   7.295  0.0211  0.0699 -0.2288
 8322SOL    HW136425   0.677   1.932   7.385  4.2939 -0.3822 -1.7157
 8322SOL    HW236426   0.556   1.978   7.300  0.4207  1.3087 -0.1488
 8323SOL     OW36427   3.501   2.942   5.845  0.1955 -0.1003 -0.1867
 8323SOL    HW136428   3.541   2.968   5.761 -0.5444 -0.8444 -0.7599
 8323SOL    HW236429   3.484   3.029   5.881 -0.8226  0.1582 -1.2982
 8324SOL     OW36430   0.868   0.400   8.553 -0.1970  0.2644  0.4079
 8324SOL    HW136431   0.935   0.381   8.619 -0.9364  0.0279  1.0923
 8324SOL    HW236432   0.903   0.343   8.485  1.5978  0.7473  0.9092
 8325SOL     OW36433   4.239   3.378   3.493 -0.2521 -0.0024 -0.0195
 8325SOL    HW136434   4.182   3.454   3.485  0.9732  0.7251 -1.6746
 8325SOL    HW236435   4.293   3.387   3.415  0.3474 -2.5756  0.1002
 8326SOL     OW36436   2.860   3.116   2.778  1.1929  0.2597 -0.1534
 8326SOL    HW136437   2.786   3.109   2.838  1.0369  0.3737 -0.3306
 8326SOL    HW236438   2.927   3.167   2.822 -0.6854  2.8378 -0.2776
 8327SOL     OW36439   0.709   3.807  17.351 -0.9332 -0.2323 -0.2317
 8327SOL    HW136440   0.738   3.799  17.442 -1.7004 -1.7140 -0.1150
 8327SOL    HW236441   0.620   3.774  17.364 -1.7027  1.9784  0.1898
 8328SOL     OW36442   0.913   2.758   6.882  0.6477 -0.1637 -0.2896
 8328SOL    HW136443   0.851   2.710   6.826 -1.2684  1.0713  0.7951
 8328SOL    HW236444   0.937   2.831   6.824  2.7454  0.9905  2.0600
 8329SOL     OW36445   0.977   4.148  16.043 -0.0373  0.3664 -0.0716
 8329SOL    HW136446   0.896   4.117  16.084  0.2942  0.8209  0.9317
 8329SOL    HW236447   0.946   4.126  15.955 -2.5031 -2.7409  1.5616
 8330SOL     OW36448   1.681   0.919   6.835 -0.2452 -0.5235  0.5333
 8330SOL    HW136449   1.715   0.936   6.747 -2.3167 -1.2455 -0.4168
 8330SOL    HW236450   1.589   0.936   6.816 -0.3545  1.9211  3.2595
 8331SOL     OW36451   2.978   1.356   4.422 -0.1109  0.0443 -0.4194
 8331SOL    HW136452   3.063   1.314   4.433 -0.1578  0.3504  1.0963
 8331SOL    HW236453   3.008   1.445   4.403 -0.2881 -0.0629 -1.2324
 8332SOL     OW36454   3.617   1.199   5.558  0.2908 -0.0880  0.2371
 8332SOL    HW136455   3.661   1.117   5.577 -2.5243 -1.5103  0.6032
 8332SOL    HW236456   3.673   1.263   5.601 -1.4569  0.3463  1.8634
 8333SOL     OW36457   0.405   1.077   3.432  0.1177  0.8370 -0.1008
 8333SOL    HW136458   0.463   1.100   3.505 -0.0887  1.5040 -0.1533
 8333SOL    HW236459   0.335   1.027   3.473  1.4628 -1.8779 -1.0787
 8334SOL     OW36460   0.351   1.437   2.118  0.0724 -0.5395  0.4068
 8334SOL    HW136461   0.406   1.498   2.069 -0.0200  0.1497  1.1521
 8334SOL    HW236462   0.359   1.364   2.058  0.2161 -0.7311  0.6564
 8335SOL     OW36463   3.769   4.348   6.652  0.5404  1.1182 -0.4395
 8335SOL    HW136464   3.695   4.347   6.713 -0.3807  1.8096 -1.5505
 8335SOL    HW236465   3.843   4.376   6.705  0.2016  0.7857  0.2054
 8336SOL     OW36466   3.146   0.028   3.045 -0.3659  0.1622  0.3026
 8336SOL    HW136467   3.080   0.088   3.079  0.3944  0.3489  1.4578
 8336SOL    HW236468   3.111   4.668   3.075 -0.1379  0.4953  1.5299
 8337SOL     OW36469   2.586   0.858   7.432 -0.9186 -0.3456  0.0269
 8337SOL    HW136470   2.510   0.916   7.422 -1.2973 -1.0065 -0.9073
 8337SOL    HW236471   2.542   0.799   7.493  0.5935 -0.9367  0.5347
 8338SOL     OW36472   3.343   4.191  12.309  0.0472 -0.3279 -0.0451
 8338SOL    HW136473   3.359   4.122  12.373 -0.2837 -1.8255 -1.5633
 8338SOL    HW236474   3.247   4.192  12.304  0.1014  1.2837 -0.7803
 8339SOL     OW36475   3.179   4.167   6.922 -0.3986 -0.0445 -0.1737
 8339SOL    HW136476   3.196   4.244   6.868 -0.1768 -0.1164 -0.2101
 8339SOL    HW236477   3.097   4.137   6.883 -0.5179 -0.5428  0.4599
 8340SOL     OW36478   3.667   2.151   4.333 -0.4418 -0.3561  0.0176
 8340SOL    HW136479   3.715   2.109   4.262  2.2264  2.2425  0.2470
 8340SOL    HW236480   3.616   2.077   4.366  0.3875 -1.1013 -0.3756
 8341SOL     OW36481   1.146   2.955   5.498  0.0946  0.5173  0.2215
 8341SOL    HW136482   1.165   3.004   5.578 -3.6979 -0.9105  2.0134
 8341SOL    HW236483   1.231   2.940   5.457  0.1964  1.9190 -0.0796
 8342SOL     OW36484   2.188   0.511   4.378  0.0279  0.6563 -0.1739
 8342SOL    HW136485   2.164   0.604   4.382 -0.3933  0.5664 -0.6412
 8342SOL    HW236486   2.240   0.514   4.298 -4.0530 -0.3804 -2.8726
 8343SOL     OW36487   3.409   3.256   2.459 -0.5634 -0.2121 -0.1505
 8343SOL    HW136488   3.480   3.272   2.521  0.1809  1.2409 -1.3827
 8343SOL    HW236489   3.425   3.169   2.421 -4.4494 -0.4539 -1.2332
 8344SOL     OW36490   4.691   4.655   1.209  0.5518  0.2223 -0.8856
 8344SOL    HW136491   4.595   4.649   1.205  0.6111 -2.3536  1.1641
 8344SOL    HW236492   0.004   4.621   1.127  3.7875  2.1133 -0.1798
 8345SOL     OW36493   3.628   2.654  10.787  0.2210  0.2934 -0.0176
 8345SOL    HW136494   3.686   2.667  10.861 -0.0392  0.5371  0.1460
 8345SOL    HW236495   3.692   2.650  10.716 -1.8820  0.7219 -1.9556
 8346SOL     OW36496   3.296   2.509   8.790  0.1426 -0.3136  0.0998
 8346SOL    HW136497   3.391   2.499   8.797  0.4245  0.9307 -1.8134
 8346SOL    HW236498   3.278   2.503   8.883 -0.8426  1.4276  0.0109
 8347SOL     OW36499   2.311   2.444   8.213 -0.1974 -0.1639 -0.2383
 8347SOL    HW136500   2.266   2.482   8.289  0.3561  0.1026 -0.0464
 8347SOL    HW236501   2.390   2.497   8.216 -1.3965  1.6408 -0.3443
 8348SOL     OW36502   2.457   1.428   6.033 -0.0958 -0.3639 -0.0543
 8348SOL    HW136503   2.407   1.377   6.096  0.6932  0.7746  1.4844
 8348SOL    HW236504   2.490   1.497   6.090 -0.6628 -0.0442 -0.1195
 8349SOL     OW36505   0.352   4.024   9.473 -0.1466 -0.4441  0.0713
 8349SOL    HW136506   0.342   4.027   9.568  0.1632  0.3911  0.0802
 8349SOL    HW236507   0.411   3.949   9.480  0.9491  0.1978 -2.2476
 8350SOL     OW36508   2.058   4.414   2.361  1.0561  0.0758 -0.4447
 8350SOL    HW136509   2.081   4.429   2.269 -0.0351  0.6345 -0.6248
 8350SOL    HW236510   2.075   4.320   2.358 -2.8731 -0.7192  1.3880
 8351SOL     OW36511   1.358   3.562   0.684 -0.2866  0.0926 -0.3218
 8351SOL    HW136512   1.310   3.645   0.689 -1.7222 -0.7113 -0.7386
 8351SOL    HW236513   1.428   3.583   0.622  0.9928 -0.6793  0.8565
 8352SOL     OW36514   3.761   0.132   2.491  0.2836  0.0229 -0.1941
 8352SOL    HW136515   3.836   0.088   2.453 -0.6510 -1.1770 -0.6666
 8352SOL    HW236516   3.685   0.088   2.451  0.5680  0.5272 -1.2744
 8353SOL     OW36517   1.385   2.653  15.283  0.3372  0.3690  0.0559
 8353SOL    HW136518   1.409   2.725  15.341 -1.6491  1.9713 -1.0908
 8353SOL    HW236519   1.412   2.691  15.200  0.4393 -1.1341 -0.6006
 8354SOL     OW36520   1.695   2.114   1.465 -0.2614  0.0425  0.1571
 8354SOL    HW136521   1.730   2.051   1.403  0.5269  1.0488 -0.4209
 8354SOL    HW236522   1.670   2.179   1.399  0.5122 -1.5785 -1.7150
 8355SOL     OW36523   0.311   4.384   3.947  0.6331  0.3903 -0.0869
 8355SOL    HW136524   0.315   4.448   3.877  0.0567 -1.1498 -1.5346
 8355SOL    HW236525   0.403   4.359   3.953  0.6674  0.7866  1.0214
 8356SOL     OW36526   4.479   3.988   1.163 -0.0186 -0.5366 -0.2377
 8356SOL    HW136527   4.393   4.017   1.193 -0.2446 -0.1912 -1.2263
 8356SOL    HW236528   4.539   3.981   1.237  0.9915  0.8234 -0.9399
 8357SOL     OW36529   1.269   1.029  11.759 -0.0492 -0.3735  0.0422
 8357SOL    HW136530   1.264   1.051  11.665  1.4538  0.2036  0.0964
 8357SOL    HW236531   1.356   1.065  11.772 -0.1782 -0.2577  0.5837
 8358SOL     OW36532   3.260   3.866  14.741 -0.1179  0.1002 -0.0072
 8358SOL    HW136533   3.209   3.925  14.796 -0.4378  1.0647 -1.3175
 8358SOL    HW236534   3.234   3.894  14.653 -0.2539  1.6569  0.5250
 8359SOL     OW36535   3.565   3.962   5.105 -0.1230 -0.2255  0.4776
 8359SOL    HW136536   3.494   3.931   5.162 -0.0123  0.1787  0.8361
 8359SOL    HW236537   3.584   3.879   5.062 -0.4437  0.1866 -0.4618
 8360SOL     OW36538   2.882   2.634  15.858 -0.0884  1.0388  0.8218
 8360SOL    HW136539   2.868   2.701  15.792 -2.6008 -2.8085 -2.5487
 8360SOL    HW236540   2.925   2.569  15.802 -1.5701 -0.6551  1.6345
 8361SOL     OW36541   4.006   2.775   9.121  0.5855  0.0241  0.5899
 8361SOL    HW136542   4.057   2.847   9.158  1.4776 -0.7591  0.8981
 8361SOL    HW236543   3.970   2.732   9.199  1.9224  1.8713  2.2424
 8362SOL     OW36544   0.875   2.254  15.025  0.1668  0.4161 -0.6767
 8362SOL    HW136545   0.935   2.252  15.100  0.3839 -0.2616 -0.8652
 8362SOL    HW236546   0.808   2.318  15.052 -0.1488 -0.3486  0.3839
 8363SOL     OW36547   2.336   0.945  12.996 -0.1903 -0.1971  0.0334
 8363SOL    HW136548   2.389   0.904  12.928 -0.4288 -4.0212  2.1789
 8363SOL    HW236549   2.285   1.006  12.941 -1.4801 -3.3095 -2.2529
 8364SOL     OW36550   2.404   0.449   7.122 -1.1091  0.3557 -0.0432
 8364SOL    HW136551   2.405   0.382   7.191 -1.5474  0.5757  0.1767
 8364SOL    HW236552   2.315   0.429   7.093 -1.6510 -0.4357  2.1533
 8365SOL     OW36553   3.586   0.502   3.758 -0.6018  0.3871 -0.1453
 8365SOL    HW136554   3.546   0.543   3.681 -2.5087 -0.3987  0.4333
 8365SOL    HW236555   3.597   0.575   3.818 -2.0562 -1.0166  1.8306
 8366SOL     OW36556   1.327   2.780   2.147  0.0257  0.3821  0.2332
 8366SOL    HW136557   1.276   2.808   2.072  3.3239 -0.0614 -2.1944
 8366SOL    HW236558   1.409   2.754   2.105  0.6498  0.0043  1.6474
 8367SOL     OW36559   3.830   2.759   7.098 -0.0598 -0.3551  0.0373
 8367SOL    HW136560   3.780   2.754   7.180  0.2808 -0.4232  0.2378
 8367SOL    HW236561   3.912   2.721   7.129  0.0277 -0.9667 -0.9420
 8368SOL     OW36562   2.457   2.675  14.841 -0.0142  0.5235  0.4222
 8368SOL    HW136563   2.394   2.672  14.913  0.1817 -1.6820  0.5095
 8368SOL    HW236564   2.479   2.582  14.833  0.6937  0.6312  1.0309
 8369SOL     OW36565   0.242   0.324   1.471 -0.2053 -0.5669 -0.3310
 8369SOL    HW136566   0.217   0.243   1.515 -0.1837 -0.5488 -0.2849
 8369SOL    HW236567   0.246   0.385   1.546  1.3177 -0.1771 -0.7394
 8370SOL     OW36568   3.795   3.243   6.321  0.3468 -0.7669  0.3116
 8370SOL    HW136569   3.847   3.286   6.389 -0.9653  0.0370  0.8131
 8370SOL    HW236570   3.765   3.161   6.362 -1.0574 -0.7057 -0.5970
 8371SOL     OW36571   4.143   4.154  15.096 -0.2633  0.1472  0.4399
 8371SOL    HW136572   4.146   4.115  15.009 -2.7278  1.2263 -0.1343
 8371SOL    HW236573   4.052   4.183  15.102 -0.0576  1.0349 -0.8979
 8372SOL     OW36574   2.691   0.341  15.668 -0.2288  0.3850 -0.0913
 8372SOL    HW136575   2.668   0.362  15.578 -1.2218 -0.8126 -0.1126
 8372SOL    HW236576   2.780   0.376  15.674 -1.1163  2.3210  2.0033
 8373SOL     OW36577   0.488   0.795   1.909 -0.3748  0.5039 -0.5935
 8373SOL    HW136578   0.515   0.882   1.881  0.3839  0.5105  0.1566
 8373SOL    HW236579   0.544   0.777   1.984 -2.3763  1.4691  1.1405
 8374SOL     OW36580   0.063   1.106   4.350  0.1027 -0.2464 -0.1032
 8374SOL    HW136581   0.011   1.093   4.429  0.2157 -0.5092 -0.0706
 8374SOL    HW236582   0.100   1.017   4.350  1.8126  0.4518 -2.0281
 8375SOL     OW36583   0.664   0.301   0.595 -0.1105  0.1809  0.3011
 8375SOL    HW136584   0.757   0.313   0.612 -0.3855  1.8061  0.7048
 8375SOL    HW236585   0.656   0.215   0.555  1.1544  0.0798  0.2719
 8376SOL     OW36586   0.840   0.730  10.994  0.1992  0.2790  0.2951
 8376SOL    HW136587   0.827   0.680  10.914 -2.2610  0.5130  0.5493
 8376SOL    HW236588   0.855   0.817  10.957 -2.0807  1.2253  1.6152
 8377SOL     OW36589   3.889   1.955   2.413 -0.7879  0.0396  0.1014
 8377SOL    HW136590   3.936   2.025   2.367 -0.6126 -0.7265 -0.8837
 8377SOL    HW236591   3.894   1.990   2.502 -0.4137  0.1441  0.0364
 8378SOL     OW36592   1.393   4.355   7.363 -0.4037 -0.3536  0.2743
 8378SOL    HW136593   1.440   4.422   7.313  2.0654 -2.0391  0.3014
 8378SOL    HW236594   1.417   4.280   7.308  1.5129 -0.7600  1.6341
 8379SOL     OW36595   2.792   3.261   6.252  0.0827  0.0166 -0.3022
 8379SOL    HW136596   2.706   3.299   6.265 -1.5807 -3.3804 -1.3381
 8379SOL    HW236597   2.788   3.212   6.170 -0.7174  0.2206 -0.3823
 8380SOL     OW36598   2.445   1.422  15.701 -0.1883 -0.1039 -0.4409
 8380SOL    HW136599   2.383   1.435  15.630 -0.6153 -3.5258 -0.7021
 8380SOL    HW236600   2.427   1.495  15.760  0.2864 -0.2422 -0.1235
 8381SOL     OW36601   1.176   3.383   6.238 -0.1235  0.0515 -0.3003
 8381SOL    HW136602   1.218   3.381   6.152 -1.3538  2.0731 -0.9516
 8381SOL    HW236603   1.154   3.291   6.253  0.8923 -0.2031 -0.3550
 8382SOL     OW36604   3.647   0.217  12.750 -0.2040  0.1443 -0.6143
 8382SOL    HW136605   3.614   0.293  12.798  1.7165 -0.1608  1.2162
 8382SOL    HW236606   3.684   0.255  12.671 -0.7355  2.2340  0.1548
 8383SOL     OW36607   1.777   0.441   2.092  0.0192  0.1379  0.5257
 8383SOL    HW136608   1.713   0.494   2.044 -0.5439  0.0931  1.2243
 8383SOL    HW236609   1.852   0.500   2.097 -0.3611  0.9155 -2.6956
 8384SOL     OW36610   1.484   1.443   1.594  0.2377 -0.1321  0.3049
 8384SOL    HW136611   1.534   1.458   1.514 -1.2199  1.7432 -0.2915
 8384SOL    HW236612   1.390   1.461   1.585 -0.1386 -1.3003  1.9221
 8385SOL     OW36613   1.156   1.507  15.306  0.3938 -0.1501 -0.0073
 8385SOL    HW136614   1.194   1.422  15.284  0.3584  0.2943 -1.7966
 8385SOL    HW236615   1.114   1.531  15.223  0.4910  2.9892  0.8407
 8386SOL     OW36616   0.240   2.775   5.521  0.2762  0.2922  0.8842
 8386SOL    HW136617   0.276   2.740   5.439 -0.9540  2.3479 -0.5284
 8386SOL    HW236618   0.149   2.744   5.520 -0.2347  1.9172 -2.7096
 8387SOL     OW36619   0.820   2.815   2.861 -0.0646 -0.7263  0.3635
 8387SOL    HW136620   0.882   2.868   2.811 -0.2106  1.6864  2.7163
 8387SOL    HW236621   0.771   2.875   2.917  0.9786  0.4278  0.0448
 8388SOL     OW36622   2.124   2.866   9.625  0.1731 -0.7427 -0.1213
 8388SOL    HW136623   2.175   2.849   9.703  1.0367 -1.6331 -0.8793
 8388SOL    HW236624   2.072   2.938   9.662 -0.7195 -1.7891  0.6635
 8389SOL     OW36625   4.516   4.651   7.881  0.1481  0.0269 -0.6104
 8389SOL    HW136626   4.477   4.685   7.800  0.1009  2.4777  0.4536
 8389SOL    HW236627   4.579   4.588   7.847  1.7794  1.2635  0.1299
 8390SOL     OW36628   2.109   1.170   8.025 -0.1362 -0.0412 -0.7076
 8390SOL    HW136629   2.179   1.135   7.970 -0.1473 -2.9152  1.1254
 8390SOL    HW236630   2.131   1.134   8.111 -0.2703 -1.1543 -1.1457
 8391SOL     OW36631   1.070   1.029   8.374 -0.1195  0.4241 -0.0453
 8391SOL    HW136632   1.028   0.965   8.432  4.0081 -0.6324  1.7306
 8391SOL    HW236633   1.063   1.105   8.432  0.4479  2.2365 -2.3356
 8392SOL     OW36634   1.681   4.505  17.284 -0.0624 -0.5559  0.2653
 8392SOL    HW136635   1.707   4.514  17.193  0.3310  1.6872  0.6069
 8392SOL    HW236636   1.622   4.429  17.288  0.7240 -1.1604  0.4802
 8393SOL     OW36637   1.241   1.435  13.638 -0.1669 -0.1189  0.4984
 8393SOL    HW136638   1.218   1.432  13.545 -1.7857 -2.0752  0.9916
 8393SOL    HW236639   1.200   1.352  13.662  0.2880 -0.4769  0.0547
 8394SOL     OW36640   1.312   1.967   1.820 -0.2850  0.1699 -0.4724
 8394SOL    HW136641   1.341   1.975   1.911  0.2603 -2.3038 -0.4112
 8394SOL    HW236642   1.390   2.010   1.785  0.9717 -0.8222  1.0596
 8395SOL     OW36643   1.859   4.452  11.506  0.1731  0.3095  0.0645
 8395SOL    HW136644   1.953   4.439  11.498  0.6934  3.7678  0.8435
 8395SOL    HW236645   1.818   4.401  11.435  1.5843 -1.4529  0.5014
 8396SOL     OW36646   2.508   0.401   5.528 -0.0504 -0.5992  0.3068
 8396SOL    HW136647   2.586   0.440   5.566  0.0745  0.6772 -1.2822
 8396SOL    HW236648   2.542   0.361   5.448 -1.3185  1.1865 -1.1115
 8397SOL     OW36649   1.680   2.619   9.527 -0.1976  0.3900 -0.0708
 8397SOL    HW136650   1.662   2.619   9.621  1.4581 -1.5230  0.2298
 8397SOL    HW236651   1.773   2.640   9.520 -0.3307  0.1102 -2.6058
 8398SOL     OW36652   3.995   3.037   8.350  0.1958 -0.0974  0.7542
 8398SOL    HW136653   4.072   3.000   8.308  0.2151  0.9583 -0.1347
 8398SOL    HW236654   4.036   3.101   8.407  0.5237  0.8939 -0.6062
 8399SOL     OW36655   3.550   3.481  13.595 -0.6582  0.3168 -0.6129
 8399SOL    HW136656   3.497   3.522  13.664 -0.3270 -0.8148  0.2981
 8399SOL    HW236657   3.594   3.555  13.551  0.6838 -0.8012 -1.1403
 8400SOL     OW36658   1.627   4.258  17.670  0.0829 -0.0008  0.3789
 8400SOL    HW136659   1.629   4.171   0.013  3.2122  0.7075  1.7239
 8400SOL    HW236660   1.554   4.255  17.608  0.9877 -0.7288 -0.6716
 8401SOL     OW36661   1.615   4.648   2.785 -0.2690 -0.5802 -0.3170
 8401SOL    HW136662   1.669   4.686   2.854 -0.2018  1.1044 -1.2933
 8401SOL    HW236663   1.580   4.569   2.826  0.6799  0.0293  1.6720
 8402SOL     OW36664   2.037   3.237   8.411 -0.5306  0.1543  1.0361
 8402SOL    HW136665   1.965   3.298   8.395 -2.0906 -1.8811  0.2515
 8402SOL    HW236666   1.993   3.160   8.449 -0.1881  0.3452  1.8127
 8403SOL     OW36667   0.540   0.334   6.951 -0.1474  0.2201  0.4232
 8403SOL    HW136668   0.573   0.255   6.995  1.4872  1.0474  0.6727
 8403SOL    HW236669   0.458   0.304   6.912 -1.3093  3.0661  0.7048
 8404SOL     OW36670   1.797   3.707   3.127  0.2851  0.4303 -0.3278
 8404SOL    HW136671   1.724   3.664   3.082 -0.8680  3.3758 -1.2103
 8404SOL    HW236672   1.858   3.734   3.059 -1.7092  0.0040 -2.2813
 8405SOL     OW36673   2.122   0.791   0.958  0.0121  0.0713 -0.3734
 8405SOL    HW136674   2.153   0.836   0.879  0.7648  0.8701  0.3686
 8405SOL    HW236675   2.208   0.783   0.999  0.8291 -0.5449 -2.2171
 8406SOL     OW36676   4.516   3.983  17.547  0.1548 -0.4726  0.4269
 8406SOL    HW136677   4.492   4.065  17.503 -0.8825 -1.8479 -1.6009
 8406SOL    HW236678   4.520   4.009  17.639  1.0172  3.8296 -0.7955
 8407SOL     OW36679   3.964   0.591   0.216 -0.2820 -0.1230 -0.3885
 8407SOL    HW136680   3.908   0.588   0.293 -0.1247 -3.0060 -0.3866
 8407SOL    HW236681   3.912   0.547   0.149  1.1975 -1.1320 -0.8801
 8408SOL     OW36682   3.742   4.276   8.501  0.2529  0.1759  0.2021
 8408SOL    HW136683   3.691   4.237   8.572  1.4018 -0.3304  0.7459
 8408SOL    HW236684   3.735   4.369   8.523  0.3229  0.4056 -0.7280
 8409SOL     OW36685   1.675   2.290   7.213 -0.1955 -0.5629  0.5827
 8409SOL    HW136686   1.690   2.292   7.118 -2.9826  1.0762  0.1676
 8409SOL    HW236687   1.601   2.229   7.216  0.6687 -1.6055  0.9165
 8410SOL     OW36688   1.129   1.215   2.195  0.0768 -0.5705 -0.2055
 8410SOL    HW136689   1.133   1.170   2.111 -1.3886  0.4598 -0.8253
 8410SOL    HW236690   1.184   1.292   2.183 -1.4265  0.4438 -0.6289
 8411SOL     OW36691   0.317   2.466   2.002  0.8561 -0.1164  0.0015
 8411SOL    HW136692   0.339   2.520   2.078  1.1296  1.5337 -1.2505
 8411SOL    HW236693   0.394   2.481   1.948  1.9173 -1.5269  1.1360
 8412SOL     OW36694   0.615   3.492  16.125  0.6967  0.4536 -0.2092
 8412SOL    HW136695   0.585   3.493  16.034 -0.6240 -0.7815  0.2308
 8412SOL    HW236696   0.538   3.518  16.175  0.5843 -1.2015  0.4943
 8413SOL     OW36697   0.373   1.492  10.390  0.0035 -0.3224 -0.3085
 8413SOL    HW136698   0.373   1.569  10.334  1.2076 -1.7450 -2.2863
 8413SOL    HW236699   0.436   1.435  10.345 -0.6287 -0.6129 -0.8162
 8414SOL     OW36700   1.894   2.874   5.614 -0.1166  0.0958 -0.1263
 8414SOL    HW136701   1.849   2.872   5.698  3.9824 -0.2875  2.0480
 8414SOL    HW236702   1.916   2.781   5.604  1.1869  0.2220  1.6030
 8415SOL     OW36703   3.399   3.409   9.552  0.3879 -0.2572  0.0262
 8415SOL    HW136704   3.462   3.481   9.555  0.0622  0.0554 -0.6082
 8415SOL    HW236705   3.454   3.333   9.567 -1.1483 -1.4512 -0.4290
 8416SOL     OW36706   0.221   2.401   0.350  0.0100  0.2901 -0.4838
 8416SOL    HW136707   0.228   2.311   0.318  1.2549  0.4165 -0.5586
 8416SOL    HW236708   0.308   2.424   0.383 -0.8882  1.9714  0.7098
 8417SOL     OW36709   0.033   3.471   8.404 -0.1001 -0.2568 -0.0186
 8417SOL    HW136710   0.054   3.458   8.312 -0.6862 -0.6437 -0.0969
 8417SOL    HW236711   0.047   3.384   8.441 -1.0115 -1.0569 -1.5647
 8418SOL     OW36712   1.425   0.557   6.023 -0.6512 -0.2561  0.1439
 8418SOL    HW136713   1.465   0.516   5.946  0.3706  2.3010 -0.6846
 8418SOL    HW236714   1.476   0.638   6.025 -1.0013 -0.0630  0.9200
 8419SOL     OW36715   0.342   0.391  12.694  0.4147  0.6004 -0.3919
 8419SOL    HW136716   0.353   0.481  12.725 -1.5190  1.2491 -1.5467
 8419SOL    HW236717   0.276   0.398  12.625 -0.3040  1.6315  0.3908
 8420SOL     OW36718   3.345   2.878   8.209 -0.4626 -0.5420  0.0840
 8420SOL    HW136719   3.314   2.790   8.232 -2.5358 -0.1337 -1.1958
 8420SOL    HW236720   3.429   2.860   8.167 -0.2861 -1.6387  0.8964
 8421SOL     OW36721   0.646   2.760   6.761 -0.2343  0.1185  0.2550
 8421SOL    HW136722   0.640   2.853   6.742 -1.8152  0.0031  0.2320
 8421SOL    HW236723   0.594   2.723   6.690 -2.1710 -0.5551  2.0204
 8422SOL     OW36724   2.674   0.168   3.244  0.1962 -0.0523 -0.0800
 8422SOL    HW136725   2.681   0.140   3.153 -1.5294 -1.3316  0.1824
 8422SOL    HW236726   2.654   0.262   3.250 -1.0344 -0.2786 -0.6638
 8423SOL     OW36727   1.831   3.332   2.315 -0.1310 -0.3587  0.4390
 8423SOL    HW136728   1.750   3.316   2.266 -1.0750  2.7114  0.9993
 8423SOL    HW236729   1.859   3.413   2.273  2.1292 -1.8158 -0.8947
 8424SOL     OW36730   3.496   2.280   7.624  0.3378 -0.0434 -0.4164
 8424SOL    HW136731   3.590   2.260   7.618  0.2237 -1.1635  1.2850
 8424SOL    HW236732   3.491   2.295   7.718 -1.2656  3.1225 -1.0056
 8425SOL     OW36733   2.527   2.941   5.465  0.1421 -0.2429  0.1242
 8425SOL    HW136734   2.465   2.870   5.478  0.5930 -0.8116 -0.8159
 8425SOL    HW236735   2.608   2.915   5.509  0.8481  1.1567 -0.3373
 8426SOL     OW36736   3.180   0.652   7.974 -0.0290 -0.0062 -0.3477
 8426SOL    HW136737   3.136   0.570   7.950 -0.9476  0.6410 -0.8597
 8426SOL    HW236738   3.227   0.607   8.045  0.1193  0.1359 -0.3556
 8427SOL     OW36739   2.972   0.881   3.707  0.2439 -0.0303  0.2163
 8427SOL    HW136740   2.957   0.974   3.690  3.4287  0.6354  1.1859
 8427SOL    HW236741   3.001   0.890   3.798 -0.3931  1.9588  0.2205
 8428SOL     OW36742   2.311   4.096   3.409 -0.3207  0.1128  0.2037
 8428SOL    HW136743   2.275   4.127   3.492 -1.9794  1.3806 -0.9891
 8428SOL    HW236744   2.365   4.021   3.436  0.4793  1.1220  1.4219
 8429SOL     OW36745   1.116   0.919   4.285 -0.0314 -0.0372  0.5282
 8429SOL    HW136746   1.147   0.858   4.352  0.3134 -1.2053 -0.6724
 8429SOL    HW236747   1.088   0.867   4.209  0.5122  0.4422 -0.0063
 8430SOL     OW36748   0.830   1.982   9.764  0.0898 -0.6857  0.6449
 8430SOL    HW136749   0.845   2.026   9.681  0.5455 -1.1725  0.4747
 8430SOL    HW236750   0.811   1.891   9.744 -0.2798 -0.2418 -1.0384
 8431SOL     OW36751   4.480   2.659   6.645 -0.0663 -0.1558  0.5303
 8431SOL    HW136752   4.515   2.592   6.703 -1.7714 -2.5181 -1.1558
 8431SOL    HW236753   4.460   2.724   6.712 -1.5655 -0.6963  0.5997
 8432SOL     OW36754   4.384   0.951   4.043  0.4395  0.1367 -0.1828
 8432SOL    HW136755   4.448   1.016   4.074 -1.2524  2.0726 -0.7410
 8432SOL    HW236756   4.318   1.010   4.006 -1.0609 -0.8785  0.9118
 8433SOL     OW36757   0.370   2.190  16.964  0.2531 -0.2653 -0.0354
 8433SOL    HW136758   0.376   2.278  16.926  1.7869 -1.5477 -2.7494
 8433SOL    HW236759   0.454   2.150  16.945 -1.4288 -3.0175 -1.6737
 8434SOL     OW36760   0.795   0.669   8.201 -0.0057 -0.0901  0.1933
 8434SOL    HW136761   0.771   0.579   8.179 -1.1177  0.1193  0.5507
 8434SOL    HW236762   0.800   0.710   8.114  0.2667 -0.4811  0.0264
 8435SOL     OW36763   4.679   2.919  11.626  0.1511  0.3243  0.8366
 8435SOL    HW136764   4.713   2.855  11.564 -0.6278 -0.1823  0.9249
 8435SOL    HW236765   4.640   2.982  11.565  1.3324  2.4206  2.2434
 8436SOL     OW36766   0.834   3.333   8.789  0.0404 -0.6325  0.2128
 8436SOL    HW136767   0.832   3.371   8.877 -4.0674  1.1357 -0.6316
 8436SOL    HW236768   0.740   3.326   8.771 -0.0314 -0.5810  0.5497
 8437SOL     OW36769   0.176   2.359   2.823  0.0874  0.4642 -0.5446
 8437SOL    HW136770   0.146   2.282   2.871  0.0729  1.0267  0.3603
 8437SOL    HW236771   0.196   2.417   2.896  0.0740  0.6165 -0.6616
 8438SOL     OW36772   4.667   2.442   8.497 -0.0469 -0.3628 -0.7045
 8438SOL    HW136773   4.662   2.537   8.505 -2.9591 -0.4741 -1.2765
 8438SOL    HW236774   4.698   2.430   8.407  2.3178  0.4551 -0.0117
 8439SOL     OW36775   4.350   4.401   5.424 -0.7577  0.0962  0.1221
 8439SOL    HW136776   4.366   4.482   5.375  3.7526 -0.8362 -0.0160
 8439SOL    HW236777   4.439   4.366   5.427 -0.4321  0.9055 -0.0155
 8440SOL     OW36778   3.798   0.709   7.366 -0.2474 -0.0920  0.7574
 8440SOL    HW136779   3.713   0.748   7.386 -0.3971  0.2305 -0.4774
 8440SOL    HW236780   3.850   0.770   7.314 -0.6800 -0.5724 -0.2526
 8441SOL     OW36781   4.106   3.900   2.797 -0.1635 -0.2954 -0.0737
 8441SOL    HW136782   4.082   3.807   2.789 -0.4977  0.0493 -3.0369
 8441SOL    HW236783   4.201   3.905   2.807 -0.1249 -0.6619 -0.2364
 8442SOL     OW36784   4.551   3.434   4.991 -0.0045 -0.0937 -0.1210
 8442SOL    HW136785   4.608   3.443   5.067 -0.1395 -2.2133  0.2384
 8442SOL    HW236786   4.589   3.491   4.924  0.8265 -0.3860  0.1006
 8443SOL     OW36787   4.008   0.664   7.037 -0.1085  0.1709 -0.0882
 8443SOL    HW136788   4.045   0.586   7.079  0.4961  0.1308 -0.7059
 8443SOL    HW236789   3.920   0.634   7.017  0.0164 -0.4203  0.2517
 8444SOL     OW36790   1.118   2.822  13.025 -0.6337 -0.9030  0.1025
 8444SOL    HW136791   1.070   2.855  13.101 -1.3699 -1.6692 -0.0334
 8444SOL    HW236792   1.048   2.771  12.986 -0.5460 -0.9683  0.0317
 8445SOL     OW36793   4.442   3.302  16.586 -0.3462 -0.5143  0.0174
 8445SOL    HW136794   4.354   3.282  16.616 -0.6875  1.2686  0.1965
 8445SOL    HW236795   4.487   3.272  16.665 -1.7580 -0.4718  0.8375
 8446SOL     OW36796   3.809   3.996  11.701  0.1835 -0.5289 -0.3446
 8446SOL    HW136797   3.802   4.005  11.797  0.2730 -2.4842 -0.1568
 8446SOL    HW236798   3.870   4.068  11.688  1.2259 -0.7492  3.1653
 8447SOL     OW36799   4.502   1.272   2.458  0.0270  0.2600  0.0980
 8447SOL    HW136800   4.541   1.289   2.372  0.1999  0.7128  0.2650
 8447SOL    HW236801   4.568   1.297   2.522  0.3922 -0.8803  0.1745
 8448SOL     OW36802   3.075   4.290   4.154  0.0364 -0.2868  0.6210
 8448SOL    HW136803   3.086   4.249   4.068  2.0032 -0.5760  0.9924
 8448SOL    HW236804   3.112   4.216   4.202 -1.9778 -2.2512 -0.8538
 8449SOL     OW36805   3.446   3.716   4.511  0.2187 -0.3526  0.3516
 8449SOL    HW136806   3.486   3.641   4.467  1.6057  1.3195 -1.2714
 8449SOL    HW236807   3.519   3.777   4.522 -0.3898  0.5586 -0.5651
 8450SOL     OW36808   2.758   2.169   1.524 -0.2344  0.2360 -0.2175
 8450SOL    HW136809   2.841   2.134   1.493 -1.6537 -2.2286 -1.2776
 8450SOL    HW236810   2.774   2.167   1.618  0.9311  0.8373 -0.4118
 8451SOL     OW36811   4.282   2.128  11.809  0.1824  0.0411 -0.0755
 8451SOL    HW136812   4.204   2.084  11.775 -0.9180  0.0778  2.4398
 8451SOL    HW236813   4.255   2.173  11.889 -2.0005  0.3505 -0.9843
 8452SOL     OW36814   3.249   0.662   6.966  0.1241 -0.4949  0.4326
 8452SOL    HW136815   3.192   0.698   7.034  1.8372 -0.5067  1.8889
 8452SOL    HW236816   3.189   0.658   6.892  0.9384  3.4580 -0.4406
 8453SOL     OW36817   1.876   1.910  12.579  0.0682 -0.2166  0.8156
 8453SOL    HW136818   1.789   1.889  12.546 -0.1054 -1.9387  2.3956
 8453SOL    HW236819   1.851   1.983  12.635  0.6575  1.3164 -0.9115
 8454SOL     OW36820   0.911   2.019  17.657 -0.2301  0.3092 -0.2705
 8454SOL    HW136821   0.879   1.934  17.687  0.2221  0.4366  0.5657
 8454SOL    HW236822   0.923   1.997  17.565 -1.5609  2.6926 -1.0045
 8455SOL     OW36823   0.344   3.950  10.177  0.1618  0.1960 -0.2929
 8455SOL    HW136824   0.312   3.991  10.257 -1.2911 -1.4657 -0.0316
 8455SOL    HW236825   0.389   3.871  10.209 -0.8770  0.3653  1.6038
 8456SOL     OW36826   3.816   1.624   5.751  0.2225 -0.6975 -0.3632
 8456SOL    HW136827   3.890   1.663   5.704 -1.5795  1.9395 -0.9866
 8456SOL    HW236828   3.852   1.610   5.838  2.6480  0.3875 -1.1844
 8457SOL     OW36829   3.963   2.113   3.601 -0.1106  0.6202 -0.1189
 8457SOL    HW136830   3.913   2.194   3.599 -0.7423  0.2573  0.7241
 8457SOL    HW236831   4.034   2.144   3.545 -0.3031  1.6196  0.1972
 8458SOL     OW36832   3.156   3.044   3.503 -1.0559  0.9764  0.1316
 8458SOL    HW136833   3.250   3.056   3.518 -1.1708 -0.6835  2.0807
 8458SOL    HW236834   3.115   3.070   3.586 -1.3435 -1.1250  0.6329
 8459SOL     OW36835   1.050   4.574  16.511  0.1046  0.2050  0.0395
 8459SOL    HW136836   1.037   4.654  16.562 -0.2488  0.2247 -0.0811
 8459SOL    HW236837   1.051   4.518  16.588 -0.0961 -0.5288 -0.4924
 8460SOL     OW36838   3.904   1.614   6.760 -0.2456 -0.5027 -0.2990
 8460SOL    HW136839   3.917   1.524   6.791  0.1078  0.2677  1.7967
 8460SOL    HW236840   3.978   1.634   6.704 -0.5600 -0.2278 -0.6175
 8461SOL     OW36841   4.425   2.633  12.962  0.4082  0.3905 -0.3261
 8461SOL    HW136842   4.510   2.674  12.943  1.2452  0.2535  3.0337
 8461SOL    HW236843   4.363   2.703  12.946 -0.6045  0.0385  2.0770
 8462SOL     OW36844   2.662   2.529  12.652  0.6011  0.3687  0.7844
 8462SOL    HW136845   2.580   2.495  12.688 -0.8863  0.9615 -2.0276
 8462SOL    HW236846   2.639   2.621  12.663 -1.2348  0.2335 -1.6580
 8463SOL     OW36847   0.256   1.527   8.740  0.0267 -0.2758  0.4373
 8463SOL    HW136848   0.280   1.538   8.832  1.2352 -0.8196  0.1992
 8463SOL    HW236849   0.196   1.601   8.731  0.3827  0.0164  0.4698
 8464SOL     OW36850   0.262   4.439  12.137  0.2179  0.0807  0.1014
 8464SOL    HW136851   0.271   4.494  12.059  0.4146 -0.6350 -0.3774
 8464SOL    HW236852   0.204   4.495  12.190 -0.1558 -3.2937  3.2737
 8465SOL     OW36853   2.443   4.077  15.206 -0.1167  0.9063 -0.3139
 8465SOL    HW136854   2.429   3.993  15.249  1.8369  0.3039 -0.8340
 8465SOL    HW236855   2.383   4.074  15.132  1.6517 -2.9380 -1.5665
 8466SOL     OW36856   1.811   2.780   9.712  0.3073  0.2536 -0.2071
 8466SOL    HW136857   1.871   2.815   9.777 -0.2719 -1.1671  1.0910
 8466SOL    HW236858   1.750   2.739   9.774  0.7006  0.2805  0.1951
 8467SOL     OW36859   3.657   0.267   4.993 -0.1897 -0.6263 -0.1800
 8467SOL    HW136860   3.715   0.192   5.000  1.3468  0.6436  0.7230
 8467SOL    HW236861   3.635   0.286   5.085  1.5256  1.6369 -0.2223
 8468SOL     OW36862   3.085   4.174   7.785 -0.6512 -0.6689 -0.1524
 8468SOL    HW136863   3.030   4.250   7.804 -1.1322 -0.7826 -1.0675
 8468SOL    HW236864   3.054   4.107   7.846  1.7739 -0.1773  1.6022
 8469SOL     OW36865   1.101   4.387   3.335 -0.1690  0.2548  0.2605
 8469SOL    HW136866   1.069   4.474   3.309  2.4026  0.8860 -0.7795
 8469SOL    HW236867   1.105   4.344   3.250  1.1055  1.6168 -0.3774
 8470SOL     OW36868   2.626   1.760   2.375 -0.1005  0.0769 -0.2483
 8470SOL    HW136869   2.560   1.711   2.425  0.3389 -0.1732  0.0834
 8470SOL    HW236870   2.684   1.690   2.345  0.6025  0.4071  0.3504
 8471SOL     OW36871   2.380   2.315   7.759  0.2010 -0.1156  0.0493
 8471SOL    HW136872   2.464   2.283   7.792  1.9985  3.3206 -1.2321
 8471SOL    HW236873   2.331   2.331   7.839 -0.9783  0.4086 -0.7639
 8472SOL     OW36874   2.606   4.068   6.524  0.1338  0.0101 -0.4507
 8472SOL    HW136875   2.592   4.162   6.507  2.7075  0.4983  0.1664
 8472SOL    HW236876   2.517   4.038   6.508 -0.4278  0.7440  1.2803
 8473SOL     OW36877   2.478   0.854  12.774 -0.2546  0.0127 -0.4752
 8473SOL    HW136878   2.543   0.865  12.705  0.1972 -0.5811 -0.1506
 8473SOL    HW236879   2.502   0.766  12.803 -0.4275  0.5205  1.2406
 8474SOL     OW36880   3.635   0.424   1.845  0.4229  0.2784 -0.4222
 8474SOL    HW136881   3.562   0.481   1.869  0.0880 -0.3255  0.0027
 8474SOL    HW236882   3.650   0.371   1.923 -1.0593  0.2011 -0.1960
 8475SOL     OW36883   2.769   0.898  16.381 -0.1343 -0.1052  0.8257
 8475SOL    HW136884   2.800   0.973  16.331 -1.7869 -2.5595 -3.9033
 8475SOL    HW236885   2.740   0.947  16.458 -1.6192  0.7345 -0.2658
 8476SOL     OW36886   4.482   2.887  16.562  0.1957 -0.5877 -0.3672
 8476SOL    HW136887   4.484   2.813  16.501  1.4655  0.6521 -1.8270
 8476SOL    HW236888   4.536   2.952  16.517 -1.4122 -0.2731 -1.8479
 8477SOL     OW36889   1.529   3.616   9.598 -0.0224  0.8697  0.0187
 8477SOL    HW136890   1.592   3.608   9.669 -0.0018 -0.8850 -0.1947
 8477SOL    HW236891   1.575   3.588   9.520  2.1302 -0.4861  1.7711
 8478SOL     OW36892   1.273   0.280   3.683  0.1650  0.1025 -1.0128
 8478SOL    HW136893   1.261   0.213   3.615 -0.3121  1.5418 -2.3301
 8478SOL    HW236894   1.261   0.353   3.622  3.0580  0.9054 -0.5942
 8479SOL     OW36895   2.276   1.878  15.878 -0.1793  0.1256  0.0078
 8479SOL    HW136896   2.346   1.920  15.828  2.4090 -3.2280  0.7828
 8479SOL    HW236897   2.197   1.912  15.835 -0.0044 -0.3075 -0.6660
 8480SOL     OW36898   2.714   0.898   4.011 -0.6959  0.7270  0.0054
 8480SOL    HW136899   2.650   0.956   3.969 -0.3014 -0.1834 -1.8685
 8480SOL    HW236900   2.717   0.915   4.105 -1.3978  3.7828 -0.5249
 8481SOL     OW36901   1.565   1.004   8.873 -0.5758  0.5945  0.5003
 8481SOL    HW136902   1.616   1.017   8.953  0.8051  0.4333 -0.3435
 8481SOL    HW236903   1.478   1.035   8.895  0.3945  2.6180  1.4573
 8482SOL     OW36904   2.689   3.947   5.130 -0.4527 -0.1149 -0.7901
 8482SOL    HW136905   2.704   3.961   5.037  1.7156  0.2457 -0.3902
 8482SOL    HW236906   2.775   3.970   5.165 -1.4262  1.3540  0.6151
 8483SOL     OW36907   4.386   3.096  11.162 -0.4545  0.1519 -0.5054
 8483SOL    HW136908   4.400   3.168  11.100  2.2589  0.3983  0.3841
 8483SOL    HW236909   4.478   3.080  11.181 -0.4093  2.1151  0.9242
 8484SOL     OW36910   4.443   0.930  13.025  0.1680 -0.2098  0.3312
 8484SOL    HW136911   4.534   0.900  13.028  0.0500 -0.7370 -1.4695
 8484SOL    HW236912   4.406   0.849  12.988  0.6040 -0.6209  0.7933
 8485SOL     OW36913   3.603   2.207   8.783  0.3343  0.2106 -0.3321
 8485SOL    HW136914   3.666   2.232   8.850 -0.7379  0.5902  0.5455
 8485SOL    HW236915   3.615   2.282   8.726  1.0718 -0.8597 -1.5640
 8486SOL     OW36916   2.173   0.572   2.546  0.2937 -0.0701 -0.2187
 8486SOL    HW136917   2.173   0.667   2.531 -1.5467  0.5418  3.6903
 8486SOL    HW236918   2.203   0.574   2.637  0.2700 -1.1062 -0.1929
 8487SOL     OW36919   0.320   4.662   7.828  0.0868  0.2610 -0.4027
 8487SOL    HW136920   0.379   4.720   7.876  0.7863 -1.3110  0.6437
 8487SOL    HW236921   0.381   4.609   7.777  0.6858  2.2610 -1.7345
 8488SOL     OW36922   1.872   4.295   5.492 -0.8587 -0.1348  0.2040
 8488SOL    HW136923   1.799   4.233   5.492 -1.9829  1.1857  2.2028
 8488SOL    HW236924   1.930   4.234   5.446 -1.2433 -0.7548  0.5422
 8489SOL     OW36925   3.106   0.395  13.500 -0.6284  0.1119 -0.0895
 8489SOL    HW136926   3.118   0.405  13.594  3.6983 -2.1714 -0.3670
 8489SOL    HW236927   3.043   0.323  13.490 -0.4623  0.1114 -1.1241
 8490SOL     OW36928   0.205   2.191   7.522 -0.3323 -0.2483 -0.7346
 8490SOL    HW136929   0.198   2.117   7.461  0.9262  0.2788 -1.5178
 8490SOL    HW236930   0.211   2.270   7.468  1.9741 -0.0847 -0.2141
 8491SOL     OW36931   0.286   1.925   7.711 -0.1808  0.3634  0.1169
 8491SOL    HW136932   0.305   1.896   7.622 -0.2810  1.4728 -0.2620
 8491SOL    HW236933   0.346   1.873   7.765  1.4557  0.4067 -1.6686
 8492SOL     OW36934   0.213   0.648   3.632  0.3041  0.8029 -0.6055
 8492SOL    HW136935   0.302   0.679   3.646  0.7208 -0.2914 -0.7774
 8492SOL    HW236936   0.179   0.658   3.721 -2.1426 -0.3458 -1.3899
 8493SOL     OW36937   0.181   4.343  13.399 -0.2922  0.1114 -0.0975
 8493SOL    HW136938   0.147   4.433  13.400 -2.3353 -0.6200 -2.6340
 8493SOL    HW236939   0.152   4.316  13.486  1.2595 -0.7025  0.1596
 8494SOL     OW36940   3.319   2.820  17.564 -0.2936  0.4127 -0.1922
 8494SOL    HW136941   3.343   2.748  17.622  0.9970  0.3456 -0.8245
 8494SOL    HW236942   3.300   2.768  17.486 -1.7205 -0.7852  0.9455
 8495SOL     OW36943   3.905   0.966   8.735  0.8159 -0.0368 -0.7723
 8495SOL    HW136944   3.946   0.993   8.653  0.0923  2.1132 -0.4336
 8495SOL    HW236945   3.812   0.962   8.710  0.5067 -1.7376  0.6763
 8496SOL     OW36946   0.571   3.787   2.939 -0.0631 -0.1665 -0.4553
 8496SOL    HW136947   0.596   3.820   3.026 -1.3169 -0.8898  0.1707
 8496SOL    HW236948   0.486   3.829   2.927 -0.8348 -2.0904 -1.6244
 8497SOL     OW36949   1.919   2.123  13.400  0.0303 -0.1254 -0.1806
 8497SOL    HW136950   1.881   2.105  13.314  0.3057  2.7558 -0.9142
 8497SOL    HW236951   1.892   2.214  13.411 -2.4524 -1.0321  1.2081
 8498SOL     OW36952   0.525   0.188   7.445 -0.5947 -0.1209 -0.0426
 8498SOL    HW136953   0.437   0.177   7.481 -0.0282 -2.5176  0.5934
 8498SOL    HW236954   0.519   0.117   7.383  0.0151 -0.8570  0.7352
 8499SOL     OW36955   0.386   3.083   2.825 -0.5046 -0.0357  0.1389
 8499SOL    HW136956   0.366   3.176   2.826  1.3353  0.3501  0.5077
 8499SOL    HW236957   0.348   3.060   2.741 -0.3022 -0.1761  0.0851
 8500SOL     OW36958   2.210   0.698  11.076 -0.1155 -0.1130  0.1350
 8500SOL    HW136959   2.233   0.654  10.994 -0.7790 -1.4716  0.6828
 8500SOL    HW236960   2.148   0.638  11.119 -0.0711  1.3477  2.2302
 8501SOL     OW36961   4.019   0.852   4.104  0.3653  0.3408  0.2580
 8501SOL    HW136962   4.018   0.773   4.049 -4.3970  1.2128 -0.8911
 8501SOL    HW236963   3.965   0.818   4.175  0.0084  1.3260  0.4548
 8502SOL     OW36964   2.790   3.635   0.067 -0.1467 -0.7021 -0.0675
 8502SOL    HW136965   2.839   3.638  17.682  0.0152 -1.4107 -0.0029
 8502SOL    HW236966   2.701   3.618   0.038 -0.7035 -1.2012  1.9056
 8503SOL     OW36967   3.189   1.803   4.736 -0.0887 -0.6526 -0.1412
 8503SOL    HW136968   3.199   1.897   4.725 -0.2301 -0.4749  1.2528
 8503SOL    HW236969   3.116   1.800   4.797  0.9407  0.4935  1.1351
 8504SOL     OW36970   2.309   4.616  11.935 -0.5167 -0.1479 -0.2151
 8504SOL    HW136971   2.294   4.612  12.029  2.4669  0.0831  0.2699
 8504SOL    HW236972   2.234   4.566  11.903 -0.8120  0.9632 -1.2404
 8505SOL     OW36973   2.135   0.029   3.168  0.4611  0.2536  0.2716
 8505SOL    HW136974   2.196   0.084   3.217  0.0484  0.5897  0.4047
 8505SOL    HW236975   2.184   0.028   3.085 -2.0650 -1.6333 -1.1841
 8506SOL     OW36976   3.871   2.384   5.795  0.2236 -0.1422  0.2279
 8506SOL    HW136977   3.814   2.332   5.739 -1.3218  0.7938  0.9281
 8506SOL    HW236978   3.920   2.417   5.720 -0.4350  2.0874  0.7714
 8507SOL     OW36979   3.043   3.609  15.674  0.0859  0.1995 -0.2964
 8507SOL    HW136980   3.137   3.624  15.664 -0.1079  0.7869 -1.1792
 8507SOL    HW236981   3.046   3.613  15.770 -0.2697  0.7456 -0.3101
 8508SOL     OW36982   3.226   4.344  11.243 -0.4285 -0.2345  0.4731
 8508SOL    HW136983   3.227   4.289  11.165  2.4822 -1.2093  1.1868
 8508SOL    HW236984   3.321   4.355  11.253 -0.5253 -0.5883  1.8031
 8509SOL     OW36985   0.995   2.973   7.288  0.4380 -0.6845 -0.0771
 8509SOL    HW136986   1.018   3.014   7.371  2.0530 -0.8207 -0.4742
 8509SOL    HW236987   1.064   2.906   7.290  1.6906  0.6499  0.6634
 8510SOL     OW36988   2.582   0.417  15.418 -0.2474 -0.4411  0.7755
 8510SOL    HW136989   2.505   0.417  15.361  1.8975 -0.7943 -2.0928
 8510SOL    HW236990   2.591   0.510  15.437  0.1163 -0.5079  0.9280
 8511SOL     OW36991   4.703   3.134  12.189 -0.1804 -0.0847  0.3688
 8511SOL    HW136992   0.032   3.212  12.205  1.7010 -1.2227 -0.3321
 8511SOL    HW236993   4.708   3.119  12.095 -1.0083  1.1052  0.1341
 8512SOL     OW36994   3.282   2.795   5.741  0.6756  0.2480 -0.4333
 8512SOL    HW136995   3.333   2.875   5.753  0.5458  0.2815 -0.1042
 8512SOL    HW236996   3.292   2.765   5.831 -2.8642  2.0864  0.6020
 8513SOL     OW36997   2.105   2.537   1.855  0.4134 -0.0635 -0.5446
 8513SOL    HW136998   2.130   2.628   1.867 -1.6804  0.3933  0.2811
 8513SOL    HW236999   2.183   2.501   1.812  2.0439 -0.0271  2.4283
 8514SOL     OW37000   3.718   1.798   4.695  0.5490 -0.2949  0.2289
 8514SOL    HW137001   3.717   1.789   4.600  2.5587 -0.2695  0.2205
 8514SOL    HW237002   3.679   1.713   4.716  1.4427 -1.5739 -3.3648
 8515SOL     OW37003   0.722   1.817   8.198 -0.3333  0.8949  0.2450
 8515SOL    HW137004   0.756   1.844   8.284  3.2280 -1.2996 -0.4731
 8515SOL    HW237005   0.630   1.837   8.213 -0.5656 -1.4194  2.0872
 8516SOL     OW37006   0.862   4.122   5.011  0.1964  0.4272 -0.3718
 8516SOL    HW137007   0.868   4.109   5.106 -0.5805  0.2643 -0.3417
 8516SOL    HW237008   0.843   4.215   5.018  0.1314  0.2685  1.5357
 8517SOL     OW37009   2.638   4.626   5.761  0.2983 -0.5792  0.2434
 8517SOL    HW137010   2.612   4.602   5.851 -2.9564 -0.0889 -0.5520
 8517SOL    HW237011   2.637   4.539   5.720 -4.1433 -1.2161  1.6297
 8518SOL     OW37012   1.717   2.145   4.425  0.4497  0.2752 -0.1010
 8518SOL    HW137013   1.645   2.093   4.388  0.0189  2.0749 -1.8517
 8518SOL    HW237014   1.786   2.127   4.361  0.2847  0.3313 -0.2957
 8519SOL     OW37015   4.293   1.826   7.673  0.4300  0.5470  0.2747
 8519SOL    HW137016   4.272   1.735   7.691  0.8164  0.8873  2.4337
 8519SOL    HW237017   4.385   1.818   7.649  0.1406  1.0847 -0.9875
 8520SOL     OW37018   0.258   2.130  10.064  0.8774 -0.2561 -0.5525
 8520SOL    HW137019   0.283   2.157   9.975  1.0778 -2.0621 -1.0454
 8520SOL    HW237020   0.265   2.212  10.114 -2.0425 -0.5236  0.2904
 8521SOL     OW37021   2.257   0.025   4.047 -0.3028  0.8034 -0.2661
 8521SOL    HW137022   2.204   0.083   3.992 -0.3718  0.3769 -0.6518
 8521SOL    HW237023   2.197   0.017   4.121  0.1147 -1.6840 -0.1808
 8522SOL     OW37024   3.405   1.700   6.442  0.4388  0.3775  0.0730
 8522SOL    HW137025   3.325   1.751   6.435 -0.1753 -0.7611 -1.1309
 8522SOL    HW237026   3.474   1.760   6.472 -0.0658  0.9990 -0.0154
 8523SOL     OW37027   1.601   4.673   5.045  0.4036  0.3721 -0.6012
 8523SOL    HW137028   1.594   4.629   5.129  0.0570  0.8832 -0.3608
 8523SOL    HW237029   1.595   0.041   5.071  2.1041  0.0164  1.0313
 8524SOL     OW37030   3.922   2.065   2.675  0.1696  0.4503 -0.7885
 8524SOL    HW137031   3.998   2.105   2.633 -0.9387  2.7276 -0.6404
 8524SOL    HW237032   3.938   2.095   2.764  0.7204 -1.7498 -0.1439
 8525SOL     OW37033   2.069   3.724  15.485 -0.3098 -0.3702 -0.3480
 8525SOL    HW137034   2.157   3.695  15.511  0.2903  0.6168 -1.2557
 8525SOL    HW237035   2.054   3.648  15.429  0.5747 -0.6618 -0.1935
 8526SOL     OW37036   0.539   0.879  10.227  0.0361  0.5812  0.2772
 8526SOL    HW137037   0.560   0.960  10.181  0.7953 -0.6555 -1.5911
 8526SOL    HW237038   0.461   0.907  10.273  0.2748  1.1425  0.3399
 8527SOL     OW37039   4.010   3.226  13.709 -0.0602  0.1310  0.0038
 8527SOL    HW137040   3.945   3.188  13.650  0.9514 -0.4776 -0.7016
 8527SOL    HW237041   4.041   3.307  13.668 -0.7372  1.9600  3.0782
 8528SOL     OW37042   2.947   2.486  13.621  0.7429 -0.9991  0.1932
 8528SOL    HW137043   2.950   2.572  13.663  1.8500 -2.1484  2.4446
 8528SOL    HW237044   2.854   2.462  13.628  0.1517  1.3767  0.5542
 8529SOL     OW37045   1.870   0.258   3.888  0.0046  0.0855  0.4779
 8529SOL    HW137046   1.954   0.211   3.891  0.6622  1.2305  0.0046
 8529SOL    HW237047   1.813   0.202   3.834 -1.7907  1.1803  1.2561
 8530SOL     OW37048   3.643   3.730  17.397 -0.1300 -0.3865  0.1610
 8530SOL    HW137049   3.564   3.675  17.396 -1.5583  1.6973 -3.1721
 8530SOL    HW237050   3.687   3.694  17.320 -0.9466 -0.3144 -0.3462
 8531SOL     OW37051   3.909   3.984   4.365  0.2135 -0.0235  0.2444
 8531SOL    HW137052   3.856   4.040   4.308 -1.4949 -2.4350 -0.5393
 8531SOL    HW237053   3.975   3.954   4.302  0.4780  1.1587 -0.0451
 8532SOL     OW37054   3.323   3.526  17.198  0.5311 -0.4494  0.2711
 8532SOL    HW137055   3.244   3.499  17.245 -1.4983  2.0125 -1.6767
 8532SOL    HW237056   3.361   3.582  17.266 -0.6599 -0.7945  1.2246
 8533SOL     OW37057   2.591   0.778   0.770 -0.2326 -0.1973  0.4136
 8533SOL    HW137058   2.537   0.709   0.810 -0.2309 -0.6529 -0.3701
 8533SOL    HW237059   2.572   0.769   0.677  0.2682  0.1771  0.2782
 8534SOL     OW37060   0.535   1.786   3.621 -0.2062 -0.1993  0.1211
 8534SOL    HW137061   0.624   1.774   3.654 -0.2059  0.9353  0.5707
 8534SOL    HW237062   0.478   1.740   3.683 -0.7970 -0.4362 -0.6059
 8535SOL     OW37063   1.086   0.348   5.009 -0.3083  0.1369  0.2184
 8535SOL    HW137064   1.178   0.371   5.016  0.7042 -3.1661 -2.3525
 8535SOL    HW237065   1.055   0.427   4.963 -1.1723 -0.4519 -0.2158
 8536SOL     OW37066   2.951   1.596   6.826  0.0731 -0.6794 -0.5016
 8536SOL    HW137067   2.913   1.519   6.867 -0.0511  0.0624  0.7939
 8536SOL    HW237068   3.024   1.550   6.784  0.0642 -1.4490  0.3253
 8537SOL     OW37069   2.992   1.076   7.968  0.3746  0.3612  0.2393
 8537SOL    HW137070   2.968   1.072   8.061  0.6535  3.7480  0.4773
 8537SOL    HW237071   3.031   0.989   7.964 -1.3367 -0.4141  0.0713
 8538SOL     OW37072   2.892   2.761   8.793  0.2597 -0.4521 -0.0605
 8538SOL    HW137073   2.900   2.829   8.727  1.6829 -2.6951 -2.1831
 8538SOL    HW237074   2.941   2.811   8.859 -1.6089 -0.1994  1.1363
 8539SOL     OW37075   1.127   4.348  16.114 -0.2119 -0.4157 -0.1389
 8539SOL    HW137076   1.130   4.416  16.047  0.0417 -0.2422  0.0508
 8539SOL    HW237077   1.065   4.280  16.086  1.8519 -1.7695 -1.4204
 8540SOL     OW37078   4.597   0.058   2.259 -0.7581 -0.2742  0.1119
 8540SOL    HW137079   4.659   0.106   2.205  1.2341 -0.9923  1.7408
 8540SOL    HW237080   4.518   0.112   2.248 -0.1407  0.4878 -0.5832
 8541SOL     OW37081   2.858   3.337  14.379  0.3799 -0.4455  1.3880
 8541SOL    HW137082   2.896   3.363  14.295  1.4583 -2.6809  1.1823
 8541SOL    HW237083   2.937   3.329  14.433  1.0778  0.6544  0.5501
 8542SOL     OW37084   0.426   0.875   8.440  0.8118  0.4841 -0.0533
 8542SOL    HW137085   0.488   0.804   8.421 -1.8247 -1.4533 -1.4355
 8542SOL    HW237086   0.349   0.854   8.386  1.0615 -1.6781  0.4298
 8543SOL     OW37087   4.412   3.837   3.784  0.5700  0.2359  0.4069
 8543SOL    HW137088   4.416   3.756   3.835  2.4945  0.1200  0.0780
 8543SOL    HW237089   4.342   3.886   3.825 -0.9791 -1.7527  0.1291
 8544SOL     OW37090   4.077   2.104  10.126 -1.0589  0.3222 -0.1986
 8544SOL    HW137091   4.089   2.046  10.051  0.4619  1.8947 -1.1605
 8544SOL    HW237092   4.145   2.170  10.116 -0.0263 -0.7011  0.0806
 8545SOL     OW37093   2.116   0.497   1.486 -0.3240 -0.5022 -0.0022
 8545SOL    HW137094   2.135   0.467   1.397 -2.1214 -0.1828 -0.5025
 8545SOL    HW237095   2.204   0.498   1.524  0.2640 -0.4722 -1.3691
 8546SOL     OW37096   0.328   3.622   9.183 -0.3620 -0.2339  0.4286
 8546SOL    HW137097   0.408   3.592   9.226 -0.1135 -1.4709 -0.9112
 8546SOL    HW237098   0.267   3.548   9.184  0.2166 -0.7060  0.9248
 8547SOL     OW37099   4.289   2.228  11.304  0.1147 -0.0545 -0.5321
 8547SOL    HW137100   4.370   2.235  11.355  0.5532 -0.1051 -1.2238
 8547SOL    HW237101   4.256   2.318  11.298 -0.8092 -0.4930 -1.9144
 8548SOL     OW37102   4.219   1.479   7.339  0.1289  0.1487  0.6383
 8548SOL    HW137103   4.299   1.454   7.384  1.0755 -0.6145 -1.4858
 8548SOL    HW237104   4.198   1.561   7.385  0.4607 -0.4863  1.9065
 8549SOL     OW37105   0.598   3.796   7.424  0.2528  0.6060  0.4578
 8549SOL    HW137106   0.551   3.812   7.506  0.0517 -0.9561  0.6536
 8549SOL    HW237107   0.671   3.741   7.453  1.4361  0.5359 -2.6112
 8550SOL     OW37108   3.200   2.574   5.602  0.1419 -0.2350  0.1751
 8550SOL    HW137109   3.246   2.490   5.608 -0.1382 -0.2191  2.6422
 8550SOL    HW237110   3.250   2.652   5.627  1.0186 -0.7694  0.0681
 8551SOL     OW37111   2.803   0.103  17.168 -0.2037  0.9302  0.2800
 8551SOL    HW137112   2.729   0.063  17.214  0.5252  2.5968  2.8765
 8551SOL    HW237113   2.778   0.098  17.076  2.4627  0.5248 -0.4403
 8552SOL     OW37114   0.739   1.680   9.657  0.1704  0.6784  0.1293
 8552SOL    HW137115   0.752   1.628   9.736  0.3868  1.5170  0.6392
 8552SOL    HW237116   0.645   1.698   9.658  0.0571  0.2023 -2.0075
 8553SOL     OW37117   1.637   4.302   4.119  0.0752  0.0655  0.0999
 8553SOL    HW137118   1.705   4.369   4.117 -2.2458  2.4349 -0.6489
 8553SOL    HW237119   1.575   4.337   4.054  0.3965 -2.9575 -1.8522
 8554SOL     OW37120   1.218   0.579   4.119  0.1384  0.6563  0.0291
 8554SOL    HW137121   1.174   0.580   4.204  0.1323  0.9024  0.0229
 8554SOL    HW237122   1.270   0.500   4.132  1.8661  1.0723 -4.1331
 8555SOL     OW37123   1.198   0.074   8.704 -0.2510  0.4884  0.2802
 8555SOL    HW137124   1.157   0.138   8.761 -0.2920 -1.2061  2.1696
 8555SOL    HW237125   1.127   0.053   8.643 -1.9104 -1.1342  2.8123
 8556SOL     OW37126   2.530   4.504   7.835 -0.5102  0.3916  0.5148
 8556SOL    HW137127   2.527   4.451   7.756 -0.1643 -1.8659  2.0080
 8556SOL    HW237128   2.592   4.574   7.814 -0.4652 -0.2175 -1.3529
 8557SOL     OW37129   2.806   4.468   5.121  0.1947  0.3707 -0.0949
 8557SOL    HW137130   2.712   4.453   5.130  0.2624 -0.4999 -0.8368
 8557SOL    HW237131   2.805   4.562   5.102  0.8600  0.6123  1.1123
 8558SOL     OW37132   0.914   4.241   2.648 -0.3215  0.3167 -0.2311
 8558SOL    HW137133   0.849   4.242   2.717 -0.3450  1.8704 -0.2638
 8558SOL    HW237134   0.874   4.180   2.587 -0.0857  0.9177 -0.9919
 8559SOL     OW37135   1.804   4.324   5.018 -0.0025  0.5100  0.1088
 8559SOL    HW137136   1.829   4.364   5.101 -1.2946  0.4264  0.5392
 8559SOL    HW237137   1.738   4.262   5.047 -0.7574  0.3242 -2.0192
 8560SOL     OW37138   1.073   0.319  12.382  0.2101 -0.1857  0.2867
 8560SOL    HW137139   1.139   0.348  12.444 -0.6627  0.5295  0.8685
 8560SOL    HW237140   1.051   0.235  12.423 -1.5732 -0.9850 -2.2669
 8561SOL     OW37141   0.538   2.425   4.380 -0.2350  0.2441 -0.1194
 8561SOL    HW137142   0.463   2.418   4.321 -0.2593 -0.6910  0.0344
 8561SOL    HW237143   0.544   2.336   4.413  1.4809  0.1075 -0.7898
 8562SOL     OW37144   4.640   4.179   8.162  0.0539  0.0638 -0.7334
 8562SOL    HW137145   4.645   4.202   8.254 -0.7121 -2.4140 -0.0795
 8562SOL    HW237146   4.636   4.084   8.173  3.6036 -0.2129 -1.7483
 8563SOL     OW37147   1.238   3.123   2.969 -0.5206  0.5751 -0.2052
 8563SOL    HW137148   1.155   3.087   2.999  0.6655  0.4499  2.9340
 8563SOL    HW237149   1.258   3.065   2.896 -1.1127  1.0433 -0.7410
 8564SOL     OW37150   2.251   1.013  11.054  0.2251 -0.7482  0.0891
 8564SOL    HW137151   2.291   1.056  10.978 -1.1438 -1.4171 -1.0052
 8564SOL    HW237152   2.217   0.941  11.001 -1.5175 -0.5611  0.9460
 8565SOL     OW37153   1.333   4.360  12.135  0.3496 -0.1191 -0.6363
 8565SOL    HW137154   1.419   4.319  12.126 -0.1411 -1.1404 -0.7649
 8565SOL    HW237155   1.332   4.398  12.223 -0.3776  0.0201 -0.7051
 8566SOL     OW37156   2.149   3.684  12.951  0.1597  0.1468 -0.4126
 8566SOL    HW137157   2.129   3.775  12.929  1.2071  0.4405 -0.1853
 8566SOL    HW237158   2.245   3.686  12.953  0.1680 -0.3440  0.0030
 8567SOL     OW37159   1.718   0.705   3.478 -0.4224  0.2825 -0.2683
 8567SOL    HW137160   1.762   0.749   3.406 -1.9973  1.4772 -0.5138
 8567SOL    HW237161   1.764   0.621   3.481  1.9185  1.5104 -2.4327
 8568SOL     OW37162   1.167   1.007   5.549 -0.2499 -0.4202  0.8304
 8568SOL    HW137163   1.080   1.045   5.540  0.0035 -0.2688 -1.0596
 8568SOL    HW237164   1.177   1.033   5.640  0.1237  2.0384  0.0968
 8569SOL     OW37165   2.629   0.635  11.923  0.1064 -0.9162 -0.6958
 8569SOL    HW137166   2.600   0.554  11.882 -2.9658  0.4880 -1.2409
 8569SOL    HW237167   2.553   0.665  11.973  0.4625 -1.8439  0.3900
 8570SOL     OW37168   0.829   1.027   6.134  0.1518  0.1220  0.0009
 8570SOL    HW137169   0.830   0.982   6.219  0.2722  2.7990  1.3986
 8570SOL    HW237170   0.756   1.088   6.125 -1.1716 -0.8925  3.8021
 8571SOL     OW37171   2.395   3.087  12.351  0.1052  0.6901 -0.5764
 8571SOL    HW137172   2.382   3.016  12.414 -1.6679  1.8890  0.3931
 8571SOL    HW237173   2.475   3.129  12.384  1.1205 -1.8513  0.1895
 8572SOL     OW37174   0.109   0.411   2.760  0.0253  0.3166  0.7219
 8572SOL    HW137175   0.101   0.345   2.829  1.1850  0.5034  1.0284
 8572SOL    HW237176   0.190   0.397   2.712 -1.0669 -1.8681 -0.4971
 8573SOL     OW37177   0.242   2.547   8.888 -0.1549 -0.0650 -0.0850
 8573SOL    HW137178   0.223   2.639   8.871  0.2476  0.2349  1.1257
 8573SOL    HW237179   0.197   2.496   8.820  2.4462 -1.9688 -0.3599
 8574SOL     OW37180   2.238   3.490   9.625  0.2864  0.0306  0.4668
 8574SOL    HW137181   2.166   3.429   9.641  0.3895 -0.2644 -0.1624
 8574SOL    HW237182   2.191   3.572   9.612 -1.4370 -0.9784  0.3269
 8575SOL     OW37183   3.061   3.290  14.555 -0.0581  0.7150  0.1733
 8575SOL    HW137184   3.011   3.232  14.612  2.9282 -1.1693  0.8908
 8575SOL    HW237185   3.121   3.228  14.513 -0.2653  0.1664  0.6904
 8576SOL     OW37186   3.026   2.926  17.188 -0.4149 -0.1926  0.1180
 8576SOL    HW137187   3.021   2.845  17.240  1.1875  0.6043  1.5112
 8576SOL    HW237188   2.961   2.904  17.122  0.9063 -0.2070 -1.1829
 8577SOL     OW37189   4.017   2.411   5.551 -0.2413  0.4761 -0.3583
 8577SOL    HW137190   4.082   2.349   5.519 -1.0228 -0.5930  0.0805
 8577SOL    HW237191   4.022   2.474   5.480 -0.7592 -0.2155 -1.0133
 8578SOL     OW37192   3.720   4.686   6.138  0.3285  0.3426  0.4408
 8578SOL    HW137193   3.752   0.052   6.129 -0.5054  0.6510  0.5938
 8578SOL    HW237194   3.780   4.640   6.196  0.3824  1.3810  1.2060
 8579SOL     OW37195   2.593   2.697  11.368 -0.0500  0.3781 -0.2173
 8579SOL    HW137196   2.560   2.784  11.388 -0.9011 -0.3512  1.5796
 8579SOL    HW237197   2.686   2.711  11.389  0.3115 -0.1260 -1.4721
 8580SOL     OW37198   2.261   4.347   2.148 -0.0217 -0.6713  0.3556
 8580SOL    HW137199   2.282   4.253   2.152 -2.4305 -1.1764  1.2561
 8580SOL    HW237200   2.347   4.382   2.170 -1.0428  1.6408  0.5970
 8581SOL     OW37201   2.791   3.989   1.982  0.1128  0.0774  0.4607
 8581SOL    HW137202   2.852   3.920   2.007 -0.6005 -1.3505 -1.7501
 8581SOL    HW237203   2.746   3.949   1.907  1.3243 -0.9958  0.3124
 8582SOL     OW37204   4.267   0.707  12.878  0.1154  0.2459  0.2371
 8582SOL    HW137205   4.226   0.769  12.817  1.2206  1.2355  0.5095
 8582SOL    HW237206   4.311   0.648  12.817 -0.1200  0.2650  0.0480
 8583SOL     OW37207   3.277   2.564   6.878  0.2880 -0.1544  0.3184
 8583SOL    HW137208   3.270   2.555   6.974  0.7303  1.4860  0.5013
 8583SOL    HW237209   3.343   2.496   6.864  0.0541 -0.5948  1.3456
 8584SOL     OW37210   4.001   0.131   4.680 -0.6693  0.0613 -0.9156
 8584SOL    HW137211   3.944   0.206   4.664 -1.4174 -0.3862 -0.2994
 8584SOL    HW237212   4.077   0.162   4.631 -0.5029 -1.8959 -1.9016
 8585SOL     OW37213   1.542   1.352   2.617 -0.3031 -0.1774 -0.3423
 8585SOL    HW137214   1.457   1.354   2.573  0.4678  1.9160 -1.7238
 8585SOL    HW237215   1.518   1.388   2.702  1.5252  1.5574 -0.5517
 8586SOL     OW37216   4.671   3.469  10.716 -0.0954 -0.3021 -0.2147
 8586SOL    HW137217   4.661   3.509  10.803 -1.1340 -0.5149 -0.2377
 8586SOL    HW237218   0.041   3.448  10.720 -0.3287 -1.6334 -1.8382
 8587SOL     OW37219   1.631   3.636   6.442  0.0925  0.0532 -0.1533
 8587SOL    HW137220   1.616   3.545   6.468 -0.7415  0.3999  0.5933
 8587SOL    HW237221   1.638   3.622   6.347 -2.1890 -2.7695  0.1000
 8588SOL     OW37222   2.989   0.684  14.567  0.1201 -0.1278 -0.0577
 8588SOL    HW137223   2.910   0.734  14.545  0.5743 -0.2000 -1.8680
 8588SOL    HW237224   2.991   0.676  14.662  0.4925 -0.2070 -0.0725
 8589SOL     OW37225   2.076   1.237   0.407  0.0759 -0.2308 -0.6505
 8589SOL    HW137226   2.054   1.166   0.468 -0.7384 -0.3910 -1.1227
 8589SOL    HW237227   1.989   1.260   0.373  0.3726  0.3987 -0.9673
 8590SOL     OW37228   2.184   4.618  14.480 -0.6085 -0.0507  0.0478
 8590SOL    HW137229   2.138   4.633  14.562 -0.1383  0.5575  0.2009
 8590SOL    HW237230   2.139   4.539  14.448  0.3005  0.2629 -2.0493
 8591SOL     OW37231   0.048   3.497  14.318 -0.0447 -0.3313  0.0783
 8591SOL    HW137232   0.126   3.468  14.366 -0.4528  0.0376  0.9474
 8591SOL    HW237233   4.703   3.472  14.379  0.8648 -0.8661  0.9013
 8592SOL     OW37234   3.303   3.548   7.773 -0.5531 -0.2593 -0.5418
 8592SOL    HW137235   3.226   3.496   7.750 -0.5342 -0.7837  0.5612
 8592SOL    HW237236   3.373   3.484   7.768  2.1907  2.5982  1.4045
 8593SOL     OW37237   0.284   1.837   5.085  0.2811 -0.3461  0.4048
 8593SOL    HW137238   0.365   1.872   5.048 -0.5903  1.3771  0.1180
 8593SOL    HW237239   0.295   1.859   5.178 -1.9003  0.6090  0.4406
 8594SOL     OW37240   1.053   2.709  15.323 -0.0195 -0.3698  0.1155
 8594SOL    HW137241   1.045   2.674  15.235  1.6314 -0.7796  0.1404
 8594SOL    HW237242   1.148   2.716  15.333 -0.0712  0.3847  0.0902
 8595SOL     OW37243   4.300   0.673  16.133 -0.2744 -0.1811 -0.0718
 8595SOL    HW137244   4.237   0.722  16.081  0.1587  2.5258  1.9193
 8595SOL    HW237245   4.356   0.750  16.144 -0.2304 -0.3194  0.6694
 8596SOL     OW37246   0.844   0.858   0.625 -0.3884  0.4188  0.0083
 8596SOL    HW137247   0.887   0.920   0.566  0.8815  0.0589  0.5622
 8596SOL    HW237248   0.761   0.905   0.631 -0.8546 -0.3546 -0.5349
 8597SOL     OW37249   1.875   1.703   4.620  0.2948 -0.1175  0.2082
 8597SOL    HW137250   1.928   1.624   4.617 -0.5605 -0.5701 -2.2880
 8597SOL    HW237251   1.827   1.690   4.703  0.6834 -1.3854  0.2312
 8598SOL     OW37252   1.516   2.452   1.689 -0.1403  0.0112 -0.8279
 8598SOL    HW137253   1.581   2.496   1.744 -1.2301 -0.7416  1.0858
 8598SOL    HW237254   1.580   2.427   1.623 -1.0528  0.7954 -2.0094
 8599SOL     OW37255   3.000   3.426   8.692  0.4819 -0.0879 -0.1092
 8599SOL    HW137256   2.996   3.382   8.607  0.3726 -2.1307  0.9432
 8599SOL    HW237257   2.967   3.510   8.660 -0.0713 -0.7320 -1.2116
 8600SOL     OW37258   4.042   3.434   8.092 -0.3831 -0.0060  0.2395
 8600SOL    HW137259   4.100   3.505   8.064  0.9529 -0.9297  0.6854
 8600SOL    HW237260   4.093   3.359   8.121  0.0136 -0.5468 -1.8739
 8601SOL     OW37261   0.952   1.889   2.326 -0.5340  0.2143 -0.8054
 8601SOL    HW137262   1.001   1.935   2.258 -1.4939 -1.3981 -2.5818
 8601SOL    HW237263   0.934   1.806   2.283  1.7051 -1.1925  1.0022
 8602SOL     OW37264   2.540   2.268   5.354 -0.1044 -0.1555  0.3405
 8602SOL    HW137265   2.634   2.287   5.357 -0.3227  1.0613 -0.5432
 8602SOL    HW237266   2.534   2.201   5.423 -2.1579 -1.9366 -1.5810
 8603SOL     OW37267   1.735   4.039   6.867  0.2520  0.2506 -0.0792
 8603SOL    HW137268   1.744   3.951   6.830 -1.8708  0.0964 -0.2049
 8603SOL    HW237269   1.643   4.053   6.847  0.2492  0.4892  0.1071
 8604SOL     OW37270   4.265   1.767  17.626  0.3998 -0.1949  0.0958
 8604SOL    HW137271   4.306   1.733  17.547  3.8904  2.0460  0.9632
 8604SOL    HW237272   4.173   1.761  17.600  0.2138  0.7649  0.5216
 8605SOL     OW37273   3.696   0.502   5.567 -0.1938  0.1675  0.6562
 8605SOL    HW137274   3.688   0.563   5.640  0.7625  2.6796 -1.3364
 8605SOL    HW237275   3.612   0.513   5.522 -0.4419 -4.0173  0.0692
 8606SOL     OW37276   2.902   4.046  16.225 -0.1760 -0.1877  0.1645
 8606SOL    HW137277   2.910   4.049  16.321  3.4424  1.4846 -0.1938
 8606SOL    HW237278   2.878   4.136  16.206  0.7387  0.1785  0.7709
 8607SOL     OW37279   2.516   1.326   2.572 -0.4774 -0.1069 -0.5084
 8607SOL    HW137280   2.530   1.307   2.479 -0.0849  0.3040 -0.5298
 8607SOL    HW237281   2.555   1.249   2.614 -1.1621 -0.9521 -1.4090
 8608SOL     OW37282   1.367   0.136   7.552  0.4279 -0.3388  0.3605
 8608SOL    HW137283   1.444   0.183   7.521  1.6171 -1.0076  2.2497
 8608SOL    HW237284   1.341   0.192   7.626  0.4692 -1.2138  1.0410
 8609SOL     OW37285   2.571   2.927   8.790  0.0119 -0.8304 -0.4824
 8609SOL    HW137286   2.554   2.887   8.875  0.9848 -1.3027 -0.5082
 8609SOL    HW237287   2.602   2.848   8.745  1.4168  0.0567 -1.0705
 8610SOL     OW37288   2.974   3.437   4.112  0.3083  0.1787 -0.2238
 8610SOL    HW137289   2.969   3.433   4.208 -0.2132 -0.1763 -0.2639
 8610SOL    HW237290   2.964   3.345   4.087  1.9523  0.4943 -1.9719
 8611SOL     OW37291   3.144   1.004  15.159  0.9523 -0.0788 -0.2952
 8611SOL    HW137292   3.054   0.976  15.178  0.7736  1.0735  0.5475
 8611SOL    HW237293   3.177   0.999  15.249 -1.0049  0.4140  0.4530
 8612SOL     OW37294   4.224   0.413   8.013  0.5193 -0.4254 -0.1753
 8612SOL    HW137295   4.133   0.444   8.017  0.8619  0.1891  2.7325
 8612SOL    HW237296   4.270   0.489   8.048  0.7571  0.4486 -2.3623
 8613SOL     OW37297   0.687   2.041  15.079  0.1401 -0.7305  0.5191
 8613SOL    HW137298   0.750   2.112  15.089  1.1331 -1.6341  0.6804
 8613SOL    HW237299   0.675   2.038  14.984 -0.0166 -2.0853  0.5790
 8614SOL     OW37300   3.029   2.635   2.871 -0.2447  0.4179  0.9363
 8614SOL    HW137301   2.995   2.724   2.863 -1.5678 -0.2664 -1.1530
 8614SOL    HW237302   3.119   2.651   2.844  0.6848  1.0484  4.5368
 8615SOL     OW37303   4.304   0.490   4.614  0.0632  0.0265 -0.6109
 8615SOL    HW137304   4.338   0.550   4.548 -0.1225  0.0594 -0.6770
 8615SOL    HW237305   4.210   0.503   4.601 -0.1605 -0.3448  0.5570
 8616SOL     OW37306   4.295   2.576   5.608 -0.1619  0.0784 -0.0555
 8616SOL    HW137307   4.281   2.631   5.684  0.5753  0.4714 -0.2005
 8616SOL    HW237308   4.301   2.653   5.551  1.3925 -0.0340 -0.0534
 8617SOL     OW37309   2.852   3.799  15.801  0.2164 -0.5497 -0.0334
 8617SOL    HW137310   2.897   3.803  15.717 -2.3388  1.7186 -1.2842
 8617SOL    HW237311   2.847   3.704  15.813  0.3114 -0.9034 -2.8661
 8618SOL     OW37312   4.219   3.696   3.262  0.3808 -0.0168 -0.2027
 8618SOL    HW137313   4.242   3.678   3.353 -0.5648  0.7981  0.1933
 8618SOL    HW237314   4.169   3.778   3.259 -0.4301 -0.5213 -0.4549
 8619SOL     OW37315   1.827   3.697   8.516 -0.4279  0.0665 -0.1126
 8619SOL    HW137316   1.800   3.762   8.451 -0.7114  0.3237  0.2686
 8619SOL    HW237317   1.796   3.617   8.473  0.3600  0.1817 -0.9006
 8620SOL     OW37318   0.226   2.662   9.714 -0.3585  0.0431 -0.4352
 8620SOL    HW137319   0.177   2.711   9.780 -0.1372 -0.4415  0.0836
 8620SOL    HW237320   0.258   2.727   9.651 -0.5244  0.0427 -0.5201
 8621SOL     OW37321   3.154   2.072   7.261  0.5877 -0.4739 -0.1804
 8621SOL    HW137322   3.109   2.081   7.345  1.9891 -0.9314  0.6051
 8621SOL    HW237323   3.084   2.015   7.229  1.0026  0.0662 -2.0476
 8622SOL     OW37324   1.338   2.909   3.343 -0.0106  0.1413  0.6222
 8622SOL    HW137325   1.353   2.898   3.249  1.2784  0.0619  0.8444
 8622SOL    HW237326   1.425   2.911   3.383  1.2372 -0.8673 -2.0460
 8623SOL     OW37327   2.344   0.777   2.109 -0.1865  0.1160  0.3716
 8623SOL    HW137328   2.394   0.793   2.189  0.0523  0.9042  0.0623
 8623SOL    HW237329   2.404   0.719   2.063 -1.2576  0.1104 -1.0560
 8624SOL     OW37330   0.620   2.683   4.413  0.2787 -1.0368  0.0973
 8624SOL    HW137331   0.563   2.734   4.355  1.4973  1.3762  0.9923
 8624SOL    HW237332   0.582   2.596   4.408 -1.9207 -0.0482 -0.3592
 8625SOL     OW37333   4.690   1.271   5.575 -0.1181 -0.3082  0.1564
 8625SOL    HW137334   4.664   1.303   5.489 -0.6256  1.4268  0.9383
 8625SOL    HW237335   4.670   1.179   5.563  0.9993 -0.4011 -0.9464
 8626SOL     OW37336   1.596   4.336   6.422 -0.1002  0.1464  0.0757
 8626SOL    HW137337   1.639   4.252   6.409 -0.0588  0.2623 -0.5452
 8626SOL    HW237338   1.670   4.396   6.429  0.4037 -0.3545 -0.9450
 8627SOL     OW37339   3.962   0.271   9.770 -0.0014 -0.1154 -0.1618
 8627SOL    HW137340   3.918   0.318   9.841  0.3083 -1.2140  0.7662
 8627SOL    HW237341   3.946   0.180   9.794  0.9367 -0.3371 -0.3796
 8628SOL     OW37342   3.276   2.498   4.166  0.2588  0.6346 -0.1814
 8628SOL    HW137343   3.328   2.547   4.103  1.2084 -0.6238 -0.3685
 8628SOL    HW237344   3.183   2.505   4.145  0.1244  1.0564  0.5551
 8629SOL     OW37345   4.040   1.497   7.097  0.3452  0.3462 -0.0907
 8629SOL    HW137346   4.101   1.559   7.138  0.8589  0.6655 -1.3436
 8629SOL    HW237347   4.079   1.417   7.132  0.3221  0.6618  0.6607
 8630SOL     OW37348   2.311   4.649   7.275  0.1484  0.7284  0.1715
 8630SOL    HW137349   2.405   4.652   7.261  0.3896  0.4199  1.7345
 8630SOL    HW237350   2.292   4.562   7.241  1.1283  0.2685  0.8090
 8631SOL     OW37351   1.360   3.641   7.435  0.6217  0.5467 -0.1716
 8631SOL    HW137352   1.398   3.661   7.520 -2.5792  0.9088  1.1842
 8631SOL    HW237353   1.414   3.567   7.409  0.2909  0.3696 -0.3607
 8632SOL     OW37354   2.349   2.013  17.136  0.3764 -0.1919  0.6312
 8632SOL    HW137355   2.277   1.990  17.078  0.4555 -1.4725  1.0538
 8632SOL    HW237356   2.346   1.944  17.202  0.6747 -2.0343 -1.2714
 8633SOL     OW37357   0.993   2.080   2.644  0.0832  0.6206 -0.6912
 8633SOL    HW137358   0.921   2.131   2.682 -1.2259 -2.6780  1.2581
 8633SOL    HW237359   0.996   2.106   2.552 -2.1523  1.4169 -0.5502
 8634SOL     OW37360   4.369   4.198   6.361  0.0942 -0.2241 -0.2092
 8634SOL    HW137361   4.407   4.241   6.285  1.8451 -0.6796  0.4186
 8634SOL    HW237362   4.387   4.259   6.433 -3.4078  0.9343 -0.2922
 8635SOL     OW37363   2.359   4.079   2.157  0.0901  0.1673  0.5704
 8635SOL    HW137364   2.452   4.058   2.169 -0.2061 -0.7045  1.3432
 8635SOL    HW237365   2.309   4.003   2.186 -1.5332  0.0890 -2.4348
 8636SOL     OW37366   3.301   4.461   2.896 -0.2139  0.2434 -0.3307
 8636SOL    HW137367   3.316   4.538   2.841  0.0754  1.1894  1.0613
 8636SOL    HW237368   3.380   4.453   2.949 -0.4734  1.4840  0.2411
 8637SOL     OW37369   3.626   3.805   3.260 -0.1788  0.1139 -0.3305
 8637SOL    HW137370   3.623   3.900   3.269 -0.4883  0.0292  0.4343
 8637SOL    HW237371   3.571   3.775   3.332  0.5849  1.2855  0.7502
 8638SOL     OW37372   4.420   0.688   4.477  0.3819  0.0377  0.3360
 8638SOL    HW137373   4.372   0.718   4.400 -1.3110 -0.9863  0.9844
 8638SOL    HW237374   4.419   0.760   4.540  0.9420 -0.1722  0.5801
 8639SOL     OW37375   0.615   2.314   4.740  0.3675  0.1953 -0.2833
 8639SOL    HW137376   0.521   2.313   4.757  0.2659  2.4873 -0.6811
 8639SOL    HW237377   0.607   2.400   4.700 -0.6885 -0.3426 -1.1996
 8640SOL     OW37378   0.111   1.784   7.415  0.1546  0.4485 -0.0254
 8640SOL    HW137379   0.197   1.769   7.378 -0.5701  0.2298 -1.6071
 8640SOL    HW237380   0.122   1.827   7.500  1.8525 -1.9373  0.9593
 8641SOL     OW37381   2.577   3.291   6.641 -0.0107 -0.7784 -0.2770
 8641SOL    HW137382   2.648   3.232   6.615 -0.8266 -0.3859 -3.3016
 8641SOL    HW237383   2.556   3.245   6.722  0.4278 -0.3869  0.0609
 8642SOL     OW37384   2.024   1.230   9.957 -1.0021 -0.2492 -0.4501
 8642SOL    HW137385   2.009   1.171  10.030  0.5037  0.3566  0.3528
 8642SOL    HW237386   1.983   1.183   9.885  0.8168 -0.5526 -1.2962
 8643SOL     OW37387   2.692   4.524   4.762 -0.2215  0.2197 -0.0923
 8643SOL    HW137388   2.602   4.495   4.771  0.3978 -1.2835  1.3667
 8643SOL    HW237389   2.717   4.497   4.674  1.4782 -0.7707  0.6941
 8644SOL     OW37390   3.463   4.372  12.469  0.1231  0.2769 -0.1359
 8644SOL    HW137391   3.415   4.316  12.408 -1.2033  0.4537  0.7378
 8644SOL    HW237392   3.524   4.309  12.508  2.0988  1.4594 -1.3532
 8645SOL     OW37393   0.359   0.117   1.699  0.3320  0.3031 -0.3846
 8645SOL    HW137394   0.270   0.105   1.668  0.6419  0.6123 -1.3884
 8645SOL    HW237395   0.381   0.028   1.730  0.1667 -0.0768 -1.3702
 8646SOL     OW37396   0.456   3.420   8.055 -0.1684  0.2452 -0.0095
 8646SOL    HW137397   0.528   3.411   8.118  2.3511 -0.2581 -2.9992
 8646SOL    HW237398   0.407   3.480   8.112  0.8130  1.0365  0.0065
 8647SOL     OW37399   4.398   1.657   5.606 -0.6527  0.1883 -0.3751
 8647SOL    HW137400   4.335   1.658   5.534 -2.1137 -0.2659  0.8922
 8647SOL    HW237401   4.368   1.578   5.651  0.0635 -0.7165 -1.4784
 8648SOL     OW37402   1.287   2.396  15.294 -0.4777  0.3464 -1.4916
 8648SOL    HW137403   1.267   2.391  15.387  2.9991  1.1554 -0.7075
 8648SOL    HW237404   1.301   2.489  15.277 -1.7870  0.8000 -0.1464
 8649SOL     OW37405   1.918   4.493   5.221  0.0328 -0.8204  0.6811
 8649SOL    HW137406   1.889   4.438   5.294 -1.8714  0.4499  0.8733
 8649SOL    HW237407   1.939   4.581   5.253  2.3093 -1.8068  1.9138
 8650SOL     OW37408   2.994   4.509  15.064 -0.8643 -0.3775 -0.3312
 8650SOL    HW137409   2.935   4.584  15.061 -0.3383  0.0253 -0.5234
 8650SOL    HW237410   3.026   4.514  15.154 -1.3729 -1.0843 -0.1157
 8651SOL     OW37411   0.017   3.139  17.560  0.0863  0.2519  0.2485
 8651SOL    HW137412   4.663   3.177  17.599 -0.3387 -0.9309  0.5357
 8651SOL    HW237413   0.020   3.057  17.608 -0.5259  0.4966  0.6897
 8652SOL     OW37414   0.484   2.524   8.107  0.3387 -0.3856  0.0709
 8652SOL    HW137415   0.480   2.533   8.012  2.1006  0.5087  0.0781
 8652SOL    HW237416   0.470   2.615   8.130  0.5548 -0.9104  2.3426
 8653SOL     OW37417   2.933   1.209   8.725  0.0118  0.1468 -0.3849
 8653SOL    HW137418   2.840   1.189   8.734  0.2436  0.1345  1.8441
 8653SOL    HW237419   2.959   1.189   8.815  3.4398  0.1827 -1.3836
 8654SOL     OW37420   3.547   2.600   8.344 -0.1990 -0.2783  0.2410
 8654SOL    HW137421   3.559   2.644   8.260  2.0577 -0.4854  0.4506
 8654SOL    HW237422   3.452   2.609   8.348 -0.0004  1.1700  1.7250
 8655SOL     OW37423   2.617   4.317  17.464 -0.1083  0.3495  0.0894
 8655SOL    HW137424   2.642   4.409  17.465  1.3824 -0.0350 -1.0462
 8655SOL    HW237425   2.539   4.300  17.517  0.3853 -1.7782  0.1622
 8656SOL     OW37426   0.206   3.477   1.918 -0.3690  0.3926  0.5004
 8656SOL    HW137427   0.259   3.418   1.973 -1.0789 -0.4215  0.3165
 8656SOL    HW237428   0.124   3.428   1.930 -1.3250  2.1607  1.1192
 8657SOL     OW37429   2.415   0.058   6.479  0.4705 -0.2449 -0.3542
 8657SOL    HW137430   2.357   4.707   6.489 -0.1048  0.3951  0.9725
 8657SOL    HW237431   2.356   0.132   6.491  0.7988  0.1857 -1.3586
 8658SOL     OW37432   0.626   4.701   2.799 -0.4929  0.3655  0.2705
 8658SOL    HW137433   0.693   4.703   2.867  0.7817 -1.5196 -0.9195
 8658SOL    HW237434   0.658   4.626   2.748  0.6690  3.3155 -3.3744
 8659SOL     OW37435   1.381   4.103   5.526 -0.0408  0.4832 -0.1274
 8659SOL    HW137436   1.286   4.093   5.535  0.4178  0.0394  3.9899
 8659SOL    HW237437   1.394   4.183   5.576 -1.4288  0.4931  0.2083
 8660SOL     OW37438   1.605   2.169   1.900  0.3861 -0.1561 -0.0131
 8660SOL    HW137439   1.586   2.152   1.808  1.2867  3.3481 -0.8553
 8660SOL    HW237440   1.690   2.211   1.887  0.5357 -0.4376  0.0590
 8661SOL     OW37441   3.882   1.841  16.387  0.2995 -0.7918 -0.5374
 8661SOL    HW137442   3.931   1.858  16.468 -1.9873  3.8317 -0.1258
 8661SOL    HW237443   3.937   1.871  16.315 -0.4461 -0.7385 -1.0785
 8662SOL     OW37444   1.267   1.455   2.152  0.4972  0.3737  0.6822
 8662SOL    HW137445   1.312   1.514   2.090 -0.2746  1.1743  0.8874
 8662SOL    HW237446   1.319   1.478   2.229 -2.0785 -0.4230  2.6335
 8663SOL     OW37447   2.905   2.357   2.579 -0.5648  0.1864 -0.1098
 8663SOL    HW137448   2.935   2.301   2.508  0.9890 -0.6819  1.2322
 8663SOL    HW237449   2.991   2.386   2.609  0.1834 -0.8783 -1.2294
 8664SOL     OW37450   4.496   0.679   5.770  0.3518 -0.0508 -0.3976
 8664SOL    HW137451   4.506   0.725   5.854 -0.4015  0.1340 -0.4193
 8664SOL    HW237452   4.532   0.742   5.708 -0.5987  2.1843  1.3419
 8665SOL     OW37453   1.824   2.173   7.870  0.3256  0.7547 -0.1633
 8665SOL    HW137454   1.874   2.210   7.943 -0.1038 -0.0229  0.5321
 8665SOL    HW237455   1.753   2.138   7.925  0.8695 -0.6734 -0.3620
 8666SOL     OW37456   4.038   1.415   5.585 -0.7715 -0.4023 -0.5216
 8666SOL    HW137457   4.076   1.503   5.582 -1.2827 -0.1249  1.1719
 8666SOL    HW237458   4.103   1.375   5.642  0.0735  0.6596 -0.7513
 8667SOL     OW37459   2.343   0.621  16.779 -0.6727  0.7433  0.0741
 8667SOL    HW137460   2.345   0.601  16.686  1.9698 -0.5266  0.4150
 8667SOL    HW237461   2.361   0.533  16.814 -1.0043  0.5313 -0.2927
 8668SOL     OW37462   1.862   4.722  12.758  0.1174  0.1667  0.2772
 8668SOL    HW137463   1.868   0.004  12.853 -0.9176 -2.7671  0.5311
 8668SOL    HW237464   1.776   0.039  12.747 -1.1960 -2.3727  1.0901
 8669SOL     OW37465   1.153   3.746   7.710  0.8251  0.3774  0.0261
 8669SOL    HW137466   1.159   3.797   7.629 -0.6920  2.2991  1.1241
 8669SOL    HW237467   1.204   3.801   7.770  0.7947  0.4635 -0.0278
 8670SOL     OW37468   1.245   2.505   1.457  0.1710 -0.1660  0.2623
 8670SOL    HW137469   1.327   2.498   1.408 -1.6121 -0.3940 -2.7457
 8670SOL    HW237470   1.185   2.505   1.381  1.9454  2.1005 -1.1623
 8671SOL     OW37471   0.703   0.500   4.963  0.4673 -0.4208 -0.2887
 8671SOL    HW137472   0.701   0.431   4.896 -1.0804 -1.1637  0.5287
 8671SOL    HW237473   0.788   0.537   4.937  0.8268  0.8792  2.7632
 8672SOL     OW37474   1.811   4.489   4.179  0.3854  0.1975 -0.0681
 8672SOL    HW137475   1.877   4.429   4.215 -1.4496 -0.9099  1.4070
 8672SOL    HW237476   1.853   4.538   4.108  2.1292 -0.8781  0.2036
 8673SOL     OW37477   0.536   0.980   7.810  0.7477  0.1197  0.2641
 8673SOL    HW137478   0.513   1.056   7.756  1.1105 -1.5153 -2.1798
 8673SOL    HW237479   0.617   1.019   7.843  1.7667 -0.5995 -1.3622
 8674SOL     OW37480   1.759   3.813   0.119  0.1946  0.0801  0.1812
 8674SOL    HW137481   1.852   3.809   0.095  0.4610 -0.8343  1.3466
 8674SOL    HW237482   1.719   3.824   0.033  1.5480 -0.5628 -0.5422
 8675SOL     OW37483   3.626   1.942   0.961 -0.1284  0.4860  0.0614
 8675SOL    HW137484   3.690   2.013   0.968 -1.3375  1.6133 -0.3128
 8675SOL    HW237485   3.662   1.903   0.881  1.7113  2.0211  0.1505
 8676SOL     OW37486   1.152   3.387  15.919 -0.4777  0.8063 -0.5139
 8676SOL    HW137487   1.201   3.466  15.897  0.4635  0.1026 -0.9304
 8676SOL    HW237488   1.159   3.396  16.014 -1.3539  1.3527 -0.5024
 8677SOL     OW37489   4.649   3.684   2.362  0.6740 -0.1141  0.2450
 8677SOL    HW137490   4.671   3.594   2.387 -3.1739 -1.2348 -0.3913
 8677SOL    HW237491   4.712   3.696   2.292  1.4559 -2.9226  0.4581
 8678SOL     OW37492   2.959   1.070   1.557  0.0440  0.3923  0.4222
 8678SOL    HW137493   2.958   1.073   1.653  0.7319  0.4776  0.4232
 8678SOL    HW237494   3.014   1.144   1.531 -1.6527  1.2541 -0.7144
 8679SOL     OW37495   3.071   1.486   7.924  0.0063  0.0884  0.0168
 8679SOL    HW137496   3.118   1.405   7.903  0.8827  0.1636  1.6860
 8679SOL    HW237497   3.001   1.476   7.860  1.4075 -1.5339 -1.2958
 8680SOL     OW37498   2.890   0.346   9.437  0.4815 -0.0724  0.1492
 8680SOL    HW137499   2.798   0.369   9.445  0.9180  1.5018  0.4946
 8680SOL    HW237500   2.938   0.421   9.473 -0.3829  0.0533  1.0246
 8681SOL     OW37501   2.389   1.684   8.201  0.5162 -0.3758  0.3204
 8681SOL    HW137502   2.390   1.777   8.224 -2.2191 -0.2711 -0.0416
 8681SOL    HW237503   2.352   1.654   8.284 -1.6324 -0.6157 -0.7309
 8682SOL     OW37504   0.524   2.534  15.301 -0.1170 -0.3140  0.7909
 8682SOL    HW137505   0.475   2.586  15.365  0.8635  2.5166 -0.7653
 8682SOL    HW237506   0.578   2.609  15.275 -1.3185  0.0849 -0.5425
 8683SOL     OW37507   2.611   3.097   0.857 -0.1010 -0.0809 -0.6607
 8683SOL    HW137508   2.561   3.105   0.939 -0.1403  0.4919 -0.7381
 8683SOL    HW237509   2.603   3.004   0.837  1.3775 -0.9315  2.7307
 8684SOL     OW37510   2.040   4.352   4.294 -0.0475 -0.6423 -0.2922
 8684SOL    HW137511   2.053   4.261   4.268 -0.4978 -0.9893  0.7283
 8684SOL    HW237512   2.046   4.356   4.390 -1.2216 -0.2184 -0.2354
 8685SOL     OW37513   0.174   0.067  11.565  0.5453 -0.1545  0.1039
 8685SOL    HW137514   0.201   0.002  11.500 -1.8872  0.0122 -1.0557
 8685SOL    HW237515   0.178   0.013  11.643  0.8657  0.4374  0.4994
 8686SOL     OW37516   4.190   3.094  10.902  0.7796  0.1789  0.2238
 8686SOL    HW137517   4.134   3.031  10.947  0.7716  0.3290  0.4201
 8686SOL    HW237518   4.277   3.066  10.930  1.5438  0.6582 -1.6141
 8687SOL     OW37519   0.993   4.680   9.127 -0.2794  0.2055 -0.0833
 8687SOL    HW137520   1.073   4.657   9.174 -1.7677 -1.2491  1.7528
 8687SOL    HW237521   0.927   4.688   9.196  0.9725 -1.0720  1.2411
 8688SOL     OW37522   3.522   1.511   6.972 -0.0252  0.5132 -0.3265
 8688SOL    HW137523   3.505   1.604   6.958  0.0374  0.9801  2.6945
 8688SOL    HW237524   3.572   1.517   7.053  2.3724 -1.1108 -1.6646
 8689SOL     OW37525   3.233   1.804  11.965  0.2843  0.2879 -0.1089
 8689SOL    HW137526   3.262   1.799  11.874 -0.3732 -0.6660 -0.2666
 8689SOL    HW237527   3.252   1.714  11.989  1.2963  0.1324 -1.4521
 8690SOL     OW37528   2.975   4.635   3.675 -0.5886 -0.0473 -0.6184
 8690SOL    HW137529   2.949   4.708   3.730  1.8361 -0.2946  0.8767
 8690SOL    HW237530   3.031   4.673   3.607  1.0849  0.7959  1.2490
 8691SOL     OW37531   4.143   3.284  11.651 -0.1688  0.1906 -0.8037
 8691SOL    HW137532   4.097   3.368  11.650  0.6077  0.6122 -0.4326
 8691SOL    HW237533   4.230   3.307  11.682 -0.1841 -1.3267  0.3926
 8692SOL     OW37534   3.552   4.290   1.958 -0.0668  0.1943 -0.1886
 8692SOL    HW137535   3.635   4.245   1.945  0.5137  0.9570  0.9515
 8692SOL    HW237536   3.503   4.212   1.931 -3.3178  2.5345 -1.0225
 8693SOL     OW37537   4.359   3.345   5.457 -0.5319  0.4492  0.1292
 8693SOL    HW137538   4.408   3.270   5.422 -1.9344 -0.8496  0.9096
 8693SOL    HW237539   4.355   3.399   5.378  0.0810  2.6914  1.6563
 8694SOL     OW37540   1.847   4.172   3.311 -0.7223 -0.1213  0.7780
 8694SOL    HW137541   1.788   4.139   3.379 -2.1667 -1.5775 -1.1732
 8694SOL    HW237542   1.899   4.232   3.364  2.3935 -1.5270 -0.6952
 8695SOL     OW37543   4.130   3.625   5.207 -0.0256 -0.3122 -0.7073
 8695SOL    HW137544   4.050   3.657   5.164  0.3742 -1.6102 -2.4322
 8695SOL    HW237545   4.101   3.612   5.298  1.2950 -1.4433 -0.4517
 8696SOL     OW37546   4.134   1.718   7.458  0.3898  0.2727  0.2583
 8696SOL    HW137547   4.098   1.767   7.384 -0.0448 -0.5636 -0.0905
 8696SOL    HW237548   4.161   1.791   7.513 -1.6597  0.5548  0.8653
 8697SOL     OW37549   1.923   2.830   4.933 -0.0871 -0.0801 -0.1232
 8697SOL    HW137550   2.012   2.795   4.925  0.0135  0.3318 -0.8272
 8697SOL    HW237551   1.943   2.914   4.972  2.4861 -0.8577  0.1830
 8698SOL     OW37552   2.277   1.621  10.090  0.2056  0.5962 -0.2519
 8698SOL    HW137553   2.262   1.596  10.181 -2.3067 -0.8801 -1.0898
 8698SOL    HW237554   2.215   1.573  10.036 -1.8856  1.2004  1.6344
 8699SOL     OW37555   0.386   3.694  17.049 -0.1159  0.2862 -0.1786
 8699SOL    HW137556   0.429   3.624  17.099  1.9028 -0.3578 -2.7829
 8699SOL    HW237557   0.381   3.767  17.111 -1.1965  0.1229 -0.0695
 8700SOL     OW37558   2.451   2.303  13.447  0.4675  0.3470 -0.1023
 8700SOL    HW137559   2.380   2.239  13.440  1.4749 -0.8733  0.8470
 8700SOL    HW237560   2.402   2.385  13.450 -1.9949 -1.0315 -2.0679
 8701SOL     OW37561   3.859   4.510   8.840  0.1437 -0.3228  0.4891
 8701SOL    HW137562   3.952   4.527   8.832  0.0695 -0.0753  0.1292
 8701SOL    HW237563   3.839   4.503   8.746 -2.7781  1.6732  0.9390
 8702SOL     OW37564   1.152   0.459   6.711 -0.4160 -0.1600  0.0781
 8702SOL    HW137565   1.104   0.445   6.792 -1.1064  0.1478 -0.2795
 8702SOL    HW237566   1.076   0.468   6.654 -0.5577 -0.2011  0.2626
 8703SOL     OW37567   3.974   2.246  13.818 -0.1389 -0.0770  0.3717
 8703SOL    HW137568   3.984   2.275  13.908  0.3266 -1.3070  0.7207
 8703SOL    HW237569   3.909   2.303  13.778 -0.1542 -0.3307  0.0271
 8704SOL     OW37570   3.197   3.279   5.258  0.1123  0.7968 -0.0693
 8704SOL    HW137571   3.199   3.242   5.346 -0.8413  2.0061  0.4716
 8704SOL    HW237572   3.268   3.343   5.257  0.0696  0.8400 -1.1725
 8705SOL     OW37573   4.095   3.255   0.423  0.1340  0.1524  0.7834
 8705SOL    HW137574   4.101   3.229   0.515 -2.9431  2.1482  1.5390
 8705SOL    HW237575   4.024   3.317   0.437 -0.0139  0.5022 -1.5137
 8706SOL     OW37576   1.664   0.680   3.893 -0.5676  0.5058 -0.2995
 8706SOL    HW137577   1.617   0.764   3.899 -0.2788  0.7387 -1.2645
 8706SOL    HW237578   1.585   0.634   3.868 -0.8467  1.3481 -0.9883
 8707SOL     OW37579   0.541   0.487  14.457 -0.0045 -0.3060  0.1003
 8707SOL    HW137580   0.605   0.551  14.487  0.7425 -0.1275 -1.8852
 8707SOL    HW237581   0.591   0.413  14.423 -0.7543 -0.2850 -1.0341
 8708SOL     OW37582   0.905   2.903   7.812  0.0902  0.0892 -0.0174
 8708SOL    HW137583   0.873   2.950   7.889 -0.3486  0.6295 -0.5293
 8708SOL    HW237584   0.979   2.847   7.836 -0.9158 -0.8054  1.0409
 8709SOL     OW37585   0.861   3.467   5.060 -0.0868 -0.5403 -0.8046
 8709SOL    HW137586   0.922   3.508   5.120 -1.2711 -2.6523  1.8225
 8709SOL    HW237587   0.778   3.504   5.091  2.1395  0.6411  3.6883
 8710SOL     OW37588   3.831   2.719   3.571 -0.4200 -0.2967  0.5819
 8710SOL    HW137589   3.766   2.660   3.533 -0.6809 -0.4782  1.3251
 8710SOL    HW237590   3.854   2.670   3.649 -0.2567 -0.0886  0.6628
 8711SOL     OW37591   3.868   2.119   7.960 -0.2911 -0.2252  0.5707
 8711SOL    HW137592   3.911   2.088   8.040 -0.8433  2.8388  2.0293
 8711SOL    HW237593   3.892   2.209   7.939  0.7325 -0.6622 -0.1433
 8712SOL     OW37594   0.511   0.537   0.313  0.1656  0.1302 -0.5573
 8712SOL    HW137595   0.529   0.563   0.223 -0.7626 -0.6633 -0.9699
 8712SOL    HW237596   0.468   0.613   0.352  0.1338  0.2944 -0.9173
 8713SOL     OW37597   0.681   0.316   7.841  0.4025  0.6084 -0.1729
 8713SOL    HW137598   0.647   0.370   7.770 -1.8055  0.3885  0.7151
 8713SOL    HW237599   0.760   0.284   7.798 -0.1301 -1.8162  0.6477
 8714SOL     OW37600   3.460   4.590  17.206  0.0042 -0.4708  0.0835
 8714SOL    HW137601   3.476   4.681  17.228  0.4594 -0.3539 -0.7551
 8714SOL    HW237602   3.463   4.581  17.111  2.5010  2.3374 -0.0919
 8715SOL     OW37603   2.406   0.349   5.803  0.0254 -0.0135  0.8998
 8715SOL    HW137604   2.501   0.343   5.789 -0.2905 -1.1815 -0.6859
 8715SOL    HW237605   2.385   0.259   5.830 -0.1370 -0.5449 -0.9711
 8716SOL     OW37606   3.321   4.347   6.669  0.2242 -0.3444 -0.0693
 8716SOL    HW137607   3.289   4.422   6.619  0.7623 -0.9472 -1.3051
 8716SOL    HW237608   3.255   4.282   6.644  0.3729  0.1382 -1.7135
 8717SOL     OW37609   1.598   2.960  16.922  0.1466  0.4151  0.8395
 8717SOL    HW137610   1.603   3.009  17.004 -1.3706  0.3835  0.9452
 8717SOL    HW237611   1.543   3.016  16.868 -0.4711 -1.8106 -0.8594
 8718SOL     OW37612   4.338   3.810  15.953  0.6641  0.6069  0.7217
 8718SOL    HW137613   4.425   3.788  15.918 -0.1177  0.2983 -1.0220
 8718SOL    HW237614   4.360   3.897  15.987 -1.2605  1.1738  0.5232
 8719SOL     OW37615   1.127   3.150   1.863 -0.8629 -0.3328  0.6961
 8719SOL    HW137616   1.124   3.241   1.894  1.6050 -0.0736  0.2068
 8719SOL    HW237617   1.165   3.165   1.776  0.0359  0.6661  1.2635
 8720SOL     OW37618   0.555   0.196   8.227  0.4517  0.0939  0.4391
 8720SOL    HW137619   0.502   0.118   8.213 -0.2390  0.8387 -1.0693
 8720SOL    HW237620   0.628   0.154   8.273  0.2893  0.0671  0.6721
 8721SOL     OW37621   1.010   0.749   2.250  0.2652 -0.2196 -0.0540
 8721SOL    HW137622   0.948   0.778   2.317  0.0173 -2.5177  0.7258
 8721SOL    HW237623   1.085   0.805   2.268  0.5126 -0.2499 -1.0021
 8722SOL     OW37624   3.723   2.769  11.706 -0.3326  0.0641 -0.1624
 8722SOL    HW137625   3.749   2.836  11.769 -0.2755 -0.5580  0.4788
 8722SOL    HW237626   3.736   2.684  11.749 -0.0535 -0.5580 -1.4666
 8723SOL     OW37627   0.414   1.870   9.947  0.2223 -0.3378  0.7954
 8723SOL    HW137628   0.370   1.852   9.864  1.8142 -0.5104 -0.0221
 8723SOL    HW237629   0.369   1.947   9.980  1.7755  0.8471  0.1584
 8724SOL     OW37630   2.312   3.142   9.341 -0.5354 -0.1931 -0.5378
 8724SOL    HW137631   2.261   3.079   9.290 -1.0110 -0.9062  0.8429
 8724SOL    HW237632   2.321   3.212   9.276  2.9052  1.7666  2.0244
 8725SOL     OW37633   1.864   3.294   3.022  0.4649 -0.0792 -0.2134
 8725SOL    HW137634   1.792   3.292   2.959  0.1149  2.1413  0.1185
 8725SOL    HW237635   1.813   3.338   3.090  1.2081 -1.7310  1.3924
 8726SOL     OW37636   3.591   2.638   5.527  0.0031  0.0163  0.8065
 8726SOL    HW137637   3.589   2.713   5.467  0.3636 -1.1389 -0.6392
 8726SOL    HW237638   3.560   2.569   5.469  0.9473  2.0142 -2.0837
 8727SOL     OW37639   1.101   4.215   6.699  0.3588  0.4202 -0.1991
 8727SOL    HW137640   1.031   4.277   6.679 -0.0601 -0.7785 -2.4785
 8727SOL    HW237641   1.165   4.272   6.740 -0.9638  0.3157  2.0133
 8728SOL     OW37642   3.246   0.532   6.606  0.1232  0.2869  0.5723
 8728SOL    HW137643   3.227   0.499   6.694  0.5509 -0.6351  0.3224
 8728SOL    HW237644   3.163   0.546   6.562  0.5359  1.3403  0.1413
 8729SOL     OW37645   1.954   4.163  14.667  0.0829 -0.1538  0.0049
 8729SOL    HW137646   2.030   4.209  14.632  0.1336  0.4988  0.9647
 8729SOL    HW237647   1.981   4.156  14.759  1.6910  0.7734 -0.3995
 8730SOL     OW37648   1.354   3.117   9.745 -0.2318  0.0160  0.2418
 8730SOL    HW137649   1.359   3.196   9.692  0.8919  0.5339  1.1359
 8730SOL    HW237650   1.378   3.141   9.834 -2.6393 -0.3120  0.9637
 8731SOL     OW37651   3.652   3.016   4.925  0.0477 -0.3210 -0.6173
 8731SOL    HW137652   3.736   3.015   4.880  0.9159  0.9091  1.0190
 8731SOL    HW237653   3.611   3.060   4.850 -2.0813 -2.2029 -0.5970
 8732SOL     OW37654   4.305   2.024  10.920 -0.3170 -0.1947 -0.0487
 8732SOL    HW137655   4.263   1.984  10.996  0.4576  2.3500  1.7486
 8732SOL    HW237656   4.369   2.079  10.965 -1.6805  0.5793  0.9556
 8733SOL     OW37657   1.682   4.293   9.252  0.3728  0.0076 -0.0889
 8733SOL    HW137658   1.620   4.366   9.261 -1.2716 -0.9722 -3.3744
 8733SOL    HW237659   1.678   4.274   9.158 -0.7128 -0.5295  0.0551
 8734SOL     OW37660   2.646   2.550   5.964  0.9698  0.4775  0.4805
 8734SOL    HW137661   2.645   2.491   6.040 -3.0508  2.1459  1.7142
 8734SOL    HW237662   2.664   2.487   5.895 -1.2883  0.5670 -0.1867
 8735SOL     OW37663   0.815   1.715   6.657 -0.6254 -0.3581  0.2723
 8735SOL    HW137664   0.880   1.664   6.607 -1.1749 -1.5291  0.7556
 8735SOL    HW237665   0.803   1.794   6.604 -1.4084 -0.1299  0.7928
 8736SOL     OW37666   2.418   2.892   7.066  0.4195  0.0188 -0.0553
 8736SOL    HW137667   2.423   2.943   7.146 -0.9423  0.8694 -0.5047
 8736SOL    HW237668   2.413   2.956   6.995  0.0963 -1.2147 -1.1500
 8737SOL     OW37669   4.208   3.812   6.269 -0.1586 -0.2835  0.1936
 8737SOL    HW137670   4.302   3.796   6.277  0.0857  0.9075 -0.2435
 8737SOL    HW237671   4.178   3.823   6.359 -1.7648 -1.5310 -0.1808
 8738SOL     OW37672   1.060   0.644   1.815 -0.0465  0.7811 -0.3826
 8738SOL    HW137673   1.131   0.643   1.879  1.7143  0.6238 -2.3522
 8738SOL    HW237674   1.067   0.553   1.784 -0.5684  0.2596  1.0269
 8739SOL     OW37675   0.130   0.615   8.082 -0.5292  0.0276 -0.1020
 8739SOL    HW137676   0.199   0.657   8.133  0.3075 -0.3764 -0.8943
 8739SOL    HW237677   0.183   0.539   8.058  0.6902  0.8073  0.0984
 8740SOL     OW37678   1.742   3.711  10.014  0.0683  0.2431  0.2774
 8740SOL    HW137679   1.677   3.781  10.021  1.4720  2.0137 -4.9689
 8740SOL    HW237680   1.738   3.668   9.929 -0.2980  2.9591 -1.0808
 8741SOL     OW37681   3.597   1.259   6.905  0.2131  0.0396  0.0010
 8741SOL    HW137682   3.590   1.351   6.928  0.6605 -0.0912  0.6524
 8741SOL    HW237683   3.607   1.255   6.810 -1.8585  0.5397 -0.2408
 8742SOL     OW37684   4.375   2.663   3.605  0.5904 -0.5100  0.1628
 8742SOL    HW137685   4.308   2.731   3.604  1.4361  0.3388  3.2877
 8742SOL    HW237686   4.322   2.587   3.629  0.3323  0.4248  2.5221
 8743SOL     OW37687   2.573   0.780   2.772 -0.3630 -0.3035  0.1907
 8743SOL    HW137688   2.611   0.735   2.697 -0.2121 -0.5356  0.4074
 8743SOL    HW237689   2.522   0.848   2.728  0.7770  0.4768  0.0815
 8744SOL     OW37690   1.307   4.218   9.905 -0.2957 -0.3173 -0.3132
 8744SOL    HW137691   1.398   4.205   9.931 -0.6405 -0.8257  0.6317
 8744SOL    HW237692   1.306   4.310   9.932  1.2797 -0.6537  0.9157
 8745SOL     OW37693   0.814   0.810   7.950 -0.6892  0.0993  0.6948
 8745SOL    HW137694   0.882   0.876   7.940  1.6407 -2.0714  2.0376
 8745SOL    HW237695   0.819   0.761   7.868  2.2156 -1.1145  1.5892
 8746SOL     OW37696   3.253   3.181   5.874  0.3659  0.4695 -0.4630
 8746SOL    HW137697   3.305   3.193   5.953  1.1744 -2.1243 -0.5894
 8746SOL    HW237698   3.205   3.263   5.871  2.3352  1.5503 -2.4265
 8747SOL     OW37699   0.105   1.990   2.520 -0.3841  0.8550 -0.4436
 8747SOL    HW137700   0.176   2.042   2.559 -0.2119 -0.3049  0.8090
 8747SOL    HW237701   0.090   1.914   2.577 -1.5550  0.6404 -1.0503
 8748SOL     OW37702   3.784   0.126   7.601 -0.0390  0.4864 -0.8612
 8748SOL    HW137703   3.814   0.075   7.676  1.6717  1.7734 -0.6610
 8748SOL    HW237704   3.858   0.182   7.575 -0.3030  1.4086  0.3920
 8749SOL     OW37705   0.227   3.755   4.353  0.4623 -0.2743 -0.4204
 8749SOL    HW137706   0.304   3.751   4.409 -1.1480  1.8208  1.9103
 8749SOL    HW237707   0.211   3.666   4.323 -0.4049 -0.1544 -0.3176
 8750SOL     OW37708   1.440   2.643   7.577 -0.7087  0.4334  0.5358
 8750SOL    HW137709   1.462   2.599   7.659  0.5329  3.3502  1.7743
 8750SOL    HW237710   1.526   2.639   7.535 -0.2313 -2.1092  1.7799
 8751SOL     OW37711   1.956   0.368   8.958 -0.1347  0.1417 -0.8190
 8751SOL    HW137712   1.962   0.309   9.033 -0.7040  1.5600  0.3623
 8751SOL    HW237713   2.047   0.399   8.951  0.2314 -0.7433  0.0542
 8752SOL     OW37714   1.049   3.917   5.302  0.3697 -0.0872 -0.0330
 8752SOL    HW137715   1.001   4.000   5.295  0.9902  0.3672  1.2581
 8752SOL    HW237716   1.045   3.907   5.397  1.0554 -0.3009 -0.0245
 8753SOL     OW37717   1.750   3.160   0.105  0.1476  0.3772  0.2244
 8753SOL    HW137718   1.825   3.119   0.147  1.8658 -0.6861 -3.9441
 8753SOL    HW237719   1.678   3.154   0.168  0.6167  0.7336  0.7940
 8754SOL     OW37720   3.380   3.850   9.984  0.0427  0.1609 -0.1790
 8754SOL    HW137721   3.419   3.765  10.006 -1.6117 -0.9353 -1.4707
 8754SOL    HW237722   3.427   3.871   9.904  1.1132 -0.0777  0.3840
 8755SOL     OW37723   1.611   1.089   4.196  0.1435  0.0830  0.1953
 8755SOL    HW137724   1.620   1.180   4.167  0.8797  0.4648  1.6434
 8755SOL    HW237725   1.517   1.087   4.213 -0.1336 -3.0024 -1.6055
 8756SOL     OW37726   1.132   0.016   0.326 -0.1858  0.1336  0.6989
 8756SOL    HW137727   1.157   4.688   0.403 -1.7511 -3.2462 -1.0700
 8756SOL    HW237728   1.037   0.017   0.334 -0.3410  1.8764 -1.5557
 8757SOL     OW37729   2.822   2.277   9.138 -0.6037  0.5926 -0.5490
 8757SOL    HW137730   2.810   2.281   9.233  0.3557 -1.2462 -0.3402
 8757SOL    HW237731   2.791   2.363   9.111 -1.9749  1.0223  2.3638
 8758SOL     OW37732   0.896   2.477  17.341  0.6563 -0.0259 -0.2698
 8758SOL    HW137733   0.921   2.552  17.287 -1.0554 -0.0332 -1.0634
 8758SOL    HW237734   0.865   2.526  17.416  0.3898  0.5380 -0.7485
 8759SOL     OW37735   4.610   2.592   6.245  0.0258 -0.1380 -0.0465
 8759SOL    HW137736   4.595   2.674   6.292 -2.3946 -0.3541 -0.4588
 8759SOL    HW237737   4.630   2.538   6.321  1.5883  0.6281  0.1097
 8760SOL     OW37738   1.969   1.049  16.348  0.2475 -0.5843 -0.1279
 8760SOL    HW137739   2.040   0.986  16.342  1.0983  0.4759 -1.3045
 8760SOL    HW237740   2.019   1.118  16.305  1.1236 -2.3980 -1.9825
 8761SOL     OW37741   1.211   4.103   1.564 -0.2948 -0.2038 -0.1972
 8761SOL    HW137742   1.270   4.135   1.632 -0.2513  1.2632 -0.9124
 8761SOL    HW237743   1.253   4.022   1.532  0.3792  0.5612 -1.2555
 8762SOL     OW37744   0.472   1.362  10.130 -1.2549 -0.5774 -0.2114
 8762SOL    HW137745   0.553   1.367  10.079 -1.5469 -0.8220 -0.6947
 8762SOL    HW237746   0.406   1.410  10.079 -2.6110  0.1058  2.1851
 8763SOL     OW37747   2.447   4.545  10.563  0.4626 -0.0537  0.2594
 8763SOL    HW137748   2.405   4.617  10.516 -2.1118 -0.7328  1.5106
 8763SOL    HW237749   2.411   4.558  10.651 -0.3777 -0.7729  0.0313
 8764SOL     OW37750   0.353   1.580   9.535  0.2877  0.3759  0.5459
 8764SOL    HW137751   0.403   1.659   9.518  2.5109 -1.3810 -1.1345
 8764SOL    HW237752   0.406   1.540   9.604  1.1546 -2.4062 -1.7266
 8765SOL     OW37753   2.197   0.883   7.571 -0.2860 -0.0287  0.5108
 8765SOL    HW137754   2.110   0.920   7.587 -1.6274 -1.9159 -2.4057
 8765SOL    HW237755   2.180   0.791   7.589 -1.7794  0.2829  0.7064
 8766SOL     OW37756   4.007   1.113   2.970 -0.4636  0.4753  0.1660
 8766SOL    HW137757   4.063   1.066   2.909 -0.1006  1.0625  0.0442
 8766SOL    HW237758   4.063   1.116   3.048  0.8089 -1.4705 -0.6898
 8767SOL     OW37759   4.504   0.083  11.028 -0.0621  0.0073  0.3987
 8767SOL    HW137760   4.552   4.724  11.034  0.4476  0.2684 -0.0387
 8767SOL    HW237761   4.425   0.056  11.075  0.5896 -1.0948  0.8813
 8768SOL     OW37762   3.165   2.227   3.632  0.0381 -0.2820 -0.2203
 8768SOL    HW137763   3.126   2.140   3.640  0.3882 -0.3368  0.8754
 8768SOL    HW237764   3.176   2.248   3.724  2.5174 -0.3382 -0.5016
 8769SOL     OW37765   3.303   2.572   7.151 -0.2315  0.0950  0.5574
 8769SOL    HW137766   3.306   2.480   7.179 -0.2316 -0.9632 -2.9139
 8769SOL    HW237767   3.211   2.589   7.170 -0.3659 -1.4798  1.3657
 8770SOL     OW37768   4.267   1.456   4.509 -0.1047  0.1525  0.2067
 8770SOL    HW137769   4.361   1.450   4.492 -0.3150 -0.6370 -0.6695
 8770SOL    HW237770   4.256   1.518   4.581 -0.9863 -1.3260  1.3452
 8771SOL     OW37771   2.371   0.374   9.178  0.3486  0.2372  0.1117
 8771SOL    HW137772   2.327   0.290   9.189  0.2712  0.3658  0.7389
 8771SOL    HW237773   2.458   0.358   9.140  0.2557 -1.0951  0.4666
 8772SOL     OW37774   4.533   4.243   6.776 -0.8077 -0.0431 -0.1452
 8772SOL    HW137775   4.580   4.239   6.859 -0.4774  1.5978 -0.2526
 8772SOL    HW237776   4.501   4.153   6.774 -0.8349 -0.1032  2.7960
 8773SOL     OW37777   3.172   0.602   5.048 -0.4899  0.1874  0.7280
 8773SOL    HW137778   3.151   0.632   5.136  1.5450 -0.6806  1.4998
 8773SOL    HW237779   3.265   0.624   5.047 -0.4337 -0.1139 -0.6943
 8774SOL     OW37780   0.086   2.418   4.897 -0.1750 -0.0007 -0.3099
 8774SOL    HW137781   0.030   2.393   4.971 -1.9916  0.5120 -1.4889
 8774SOL    HW237782   0.051   2.377   4.818  1.0465 -0.8386 -0.4067
 8775SOL     OW37783   3.825   2.322   4.521  0.1511 -0.8198 -0.1125
 8775SOL    HW137784   3.789   2.275   4.445  0.3462  0.8277 -1.2240
 8775SOL    HW237785   3.898   2.374   4.487 -0.9804 -0.8309 -2.6104
 8776SOL     OW37786   3.612   2.732  11.301  0.3888  0.2542  0.6317
 8776SOL    HW137787   3.683   2.751  11.362  1.5716 -3.5575  0.3864
 8776SOL    HW237788   3.557   2.681  11.360  1.0116  0.2908  1.2424
 8777SOL     OW37789   1.355   1.632   8.119 -0.2645  0.0477 -0.1208
 8777SOL    HW137790   1.432   1.604   8.070  0.4768 -0.2981  1.2565
 8777SOL    HW237791   1.333   1.554   8.170  0.5019  0.0020  0.1419
 8778SOL     OW37792   4.720   2.925   7.096  0.5017 -0.3342 -0.5308
 8778SOL    HW137793   4.627   2.938   7.119  0.5776  1.5156 -1.3176
 8778SOL    HW237794   0.016   3.018   7.105 -0.0399 -0.0862 -1.8752
 8779SOL     OW37795   1.509   2.519  13.112 -0.3580  0.3898  0.6230
 8779SOL    HW137796   1.427   2.501  13.159 -0.5706  1.8803  0.8210
 8779SOL    HW237797   1.467   2.589  13.062  1.2900  2.6662  2.4290
 8780SOL     OW37798   0.969   4.217   2.252  0.3612  0.2670 -0.0604
 8780SOL    HW137799   0.887   4.263   2.240 -0.2005 -0.5096  0.7778
 8780SOL    HW237800   1.004   4.223   2.163 -0.5357  0.2254 -0.4098
 8781SOL     OW37801   3.067   2.780   5.392  0.5299 -0.1923 -0.4210
 8781SOL    HW137802   3.100   2.845   5.454 -1.5533 -0.6794  1.1576
 8781SOL    HW237803   3.014   2.734   5.457  1.0990 -1.1382 -0.6263
 8782SOL     OW37804   2.030   0.129   1.714  0.0561  0.1592  0.6938
 8782SOL    HW137805   1.985   0.046   1.729  0.4513 -0.1132  0.3714
 8782SOL    HW237806   1.993   0.170   1.636 -0.5897 -0.5590  0.6278
 8783SOL     OW37807   4.470   2.193   9.364 -0.0722 -0.6201 -0.0845
 8783SOL    HW137808   4.563   2.176   9.358  0.4088  2.5710 -1.5110
 8783SOL    HW237809   4.446   2.160   9.451 -0.1189  3.5506  1.5281
 8784SOL     OW37810   1.942   3.381  11.038  0.1059 -0.1537  0.1571
 8784SOL    HW137811   2.021   3.408  11.085  0.8898  0.3217 -1.4285
 8784SOL    HW237812   1.881   3.444  11.076  1.3408  0.1426  1.6373
 8785SOL     OW37813   0.168   3.931   7.639  0.7218 -0.3034  0.3286
 8785SOL    HW137814   0.173   3.836   7.625  2.2729 -0.1997  0.2378
 8785SOL    HW237815   0.168   3.938   7.735  2.3025  0.2049  0.2831
 8786SOL     OW37816   4.350   0.679   8.019  0.1169  0.0503  0.2010
 8786SOL    HW137817   4.334   0.774   8.020 -1.1431 -0.1637  0.2457
 8786SOL    HW237818   4.437   0.688   7.979 -0.5011 -0.7435 -1.3263
 8787SOL     OW37819   0.351   1.281   8.898 -0.0824 -0.4351  0.0405
 8787SOL    HW137820   0.369   1.314   8.810 -1.9788 -1.3792 -0.6908
 8787SOL    HW237821   0.426   1.223   8.914 -0.8430 -1.3967  0.0693
 8788SOL     OW37822   3.405   0.735   4.718  0.6501  0.0547  0.2002
 8788SOL    HW137823   3.349   0.810   4.735 -1.9095 -1.6812 -0.4704
 8788SOL    HW237824   3.435   0.756   4.629  1.4179  0.5943  0.5869
 8789SOL     OW37825   4.118   0.732   2.318  0.0925  0.0089 -0.3919
 8789SOL    HW137826   4.204   0.702   2.288  1.4036  0.9964  2.3418
 8789SOL    HW237827   4.144   0.802   2.378 -1.7208 -0.2307  0.6511
 8790SOL     OW37828   0.490   1.131   7.029  0.4043  0.0165  0.2345
 8790SOL    HW137829   0.480   1.196   7.099 -0.2913  1.6172 -1.3600
 8790SOL    HW237830   0.487   1.051   7.082 -0.7280 -1.5404 -2.1896
 8791SOL     OW37831   1.429   2.375   4.028  0.6173  0.2379  0.2731
 8791SOL    HW137832   1.339   2.389   4.056  0.0232 -2.1978 -0.4365
 8791SOL    HW237833   1.483   2.439   4.074  2.7204 -0.5833 -1.0488
 8792SOL     OW37834   0.193   0.910   4.786 -0.1191 -0.1267  0.0377
 8792SOL    HW137835   0.105   0.898   4.750 -0.5077  0.3271  0.8169
 8792SOL    HW237836   0.212   0.997   4.750  1.8567  0.2684  2.0257
 8793SOL     OW37837   2.462   3.762  17.538 -0.5461  0.1153 -0.2486
 8793SOL    HW137838   2.516   3.796  17.467 -0.3047 -1.9106 -1.0376
 8793SOL    HW237839   2.501   3.674  17.545  0.5480  0.4469 -2.3009
 8794SOL     OW37840   2.629   3.427   4.198  0.1053 -0.5478 -0.0988
 8794SOL    HW137841   2.714   3.444   4.156  0.4418 -2.7071 -0.2921
 8794SOL    HW237842   2.561   3.459   4.138 -0.3124 -1.0327  0.1183
 8795SOL     OW37843   4.676   4.645   2.812  0.1323  0.1975  0.3853
 8795SOL    HW137844   4.656   4.576   2.875 -1.7310 -0.2012 -0.6112
 8795SOL    HW237845   0.037   4.669   2.849  0.7960 -1.4541 -0.0864
 8796SOL     OW37846   3.315   0.583  12.393  0.0428 -0.0355  0.2850
 8796SOL    HW137847   3.360   0.667  12.383 -0.2968  0.1424  0.2503
 8796SOL    HW237848   3.376   0.527  12.345 -0.2127  0.7032 -0.8831
 8797SOL     OW37849   3.360   4.163   9.367  0.3932 -0.1543  0.6210
 8797SOL    HW137850   3.359   4.209   9.450  0.0453  0.1044  0.4724
 8797SOL    HW237851   3.375   4.240   9.312  0.1692 -0.2052  0.4896
 8798SOL     OW37852   1.413   0.875  10.585 -0.0800  0.0649 -0.0941
 8798SOL    HW137853   1.412   0.970  10.580 -3.2623 -0.0050 -0.6434
 8798SOL    HW237854   1.322   0.860  10.611 -0.7716 -0.6324 -2.8694
 8799SOL     OW37855   1.735   0.970   1.545 -0.5400  1.2439 -0.5476
 8799SOL    HW137856   1.738   1.028   1.469  0.0369  0.0592 -1.4350
 8799SOL    HW237857   1.785   1.025   1.606 -1.0810  1.0307  0.0798
 8800SOL     OW37858   4.086   1.966  13.840  0.2857 -0.2992 -0.7485
 8800SOL    HW137859   4.035   1.927  13.911 -0.0562  0.6681 -0.4569
 8800SOL    HW237860   4.054   2.055  13.854 -0.4295 -0.7871  0.6941
 8801SOL     OW37861   0.484   4.587   9.601  0.6324  0.6435 -0.1337
 8801SOL    HW137862   0.573   4.615   9.625  0.9215 -0.7057  0.3392
 8801SOL    HW237863   0.470   4.624   9.514 -0.8754  1.1867  0.3485
 8802SOL     OW37864   3.319   3.918   5.225 -0.5867 -0.0521 -0.3473
 8802SOL    HW137865   3.277   3.979   5.286  1.8623  0.7525  0.5206
 8802SOL    HW237866   3.303   3.838   5.275  0.7953  0.3517  0.7617
 8803SOL     OW37867   3.604   1.444  10.607 -0.1027 -0.3578 -0.3679
 8803SOL    HW137868   3.589   1.383  10.534  0.2152 -0.0217 -0.7104
 8803SOL    HW237869   3.595   1.387  10.683  0.5619  0.4118  0.2883
 8804SOL     OW37870   4.112   4.323   5.330  0.0791 -0.2188 -0.0585
 8804SOL    HW137871   4.164   4.391   5.372  0.1704 -0.4339  0.1701
 8804SOL    HW237872   4.042   4.381   5.298 -0.0101 -0.3024 -0.0157
 8805SOL     OW37873   0.051   2.538   0.101 -0.0818  0.2118 -0.1291
 8805SOL    HW137874   0.102   2.478   0.155  0.8969  1.6115  0.5183
 8805SOL    HW237875   4.694   2.532   0.152  1.5235 -1.5647  2.1900
 8806SOL     OW37876   3.928   1.617  12.458 -0.1286 -0.0704 -0.3799
 8806SOL    HW137877   3.981   1.606  12.536  0.1539 -0.4558 -0.6274
 8806SOL    HW237878   3.971   1.556  12.398 -2.1464 -1.0748 -0.8373
 8807SOL     OW37879   1.474   3.571  14.562 -0.0157  0.3192  0.9498
 8807SOL    HW137880   1.399   3.529  14.521  0.5245 -2.0740  2.3983
 8807SOL    HW237881   1.425   3.595  14.640  1.5244  0.5778  1.8423
 8808SOL     OW37882   0.719   0.278   5.735  0.0668  0.1162 -0.0742
 8808SOL    HW137883   0.628   0.251   5.724  0.4099 -0.3935 -1.6450
 8808SOL    HW237884   0.715   0.333   5.813 -0.3121  0.5967 -0.4373
 8809SOL     OW37885   3.385   0.490   7.296 -0.2950 -0.0411  0.1731
 8809SOL    HW137886   3.310   0.434   7.276  1.6814 -2.3018 -1.0005
 8809SOL    HW237887   3.401   0.474   7.389  0.1289 -0.8259 -0.0328
 8810SOL     OW37888   2.596   3.527   4.889  0.1860 -0.0276 -0.5780
 8810SOL    HW137889   2.651   3.452   4.909  1.4627  1.2341  0.5581
 8810SOL    HW237890   2.552   3.510   4.805 -1.9722  0.7785  0.3718
 8811SOL     OW37891   2.078   3.518  15.314  0.2922  0.1146 -0.2948
 8811SOL    HW137892   2.116   3.433  15.290 -0.9719 -0.8567  1.1432
 8811SOL    HW237893   1.995   3.514  15.266 -0.7716  1.0439  1.4843
 8812SOL     OW37894   3.915   1.714   7.008  0.4249  0.2755 -1.1166
 8812SOL    HW137895   3.963   1.642   7.047 -1.5126  0.2043  1.1289
 8812SOL    HW237896   3.894   1.674   6.924 -0.4884  0.8719 -1.1798
 8813SOL     OW37897   2.690   2.940   7.942 -0.6308 -0.6308 -0.2692
 8813SOL    HW137898   2.662   2.950   8.033  0.3398  4.1522 -0.4904
 8813SOL    HW237899   2.782   2.913   7.945 -0.4509  0.1999  2.2503
 8814SOL     OW37900   0.443   3.235   1.157  0.2049  0.8042 -0.2762
 8814SOL    HW137901   0.484   3.149   1.157 -0.5119  0.4616  1.6619
 8814SOL    HW237902   0.494   3.276   1.087 -0.5431 -1.0819 -1.9102
 8815SOL     OW37903   1.946   3.437   4.061  0.5762  0.7298 -0.4377
 8815SOL    HW137904   1.943   3.532   4.048  0.1177  0.9559  1.3122
 8815SOL    HW237905   1.925   3.416   4.152 -0.8603  2.7651 -0.2778
 8816SOL     OW37906   4.024   1.431   7.854  0.1260 -0.7395  0.2160
 8816SOL    HW137907   3.992   1.404   7.768 -0.3525  2.8429 -0.7513
 8816SOL    HW237908   3.981   1.514   7.877  1.1586 -0.7423  2.1432
 8817SOL     OW37909   1.731   1.704   8.946 -0.0598 -0.1337  0.0037
 8817SOL    HW137910   1.664   1.771   8.936  1.8041  1.8536  0.9575
 8817SOL    HW237911   1.692   1.625   8.907  1.8491 -1.2235  0.3219
 8818SOL     OW37912   1.623   2.299   3.259 -0.1293  0.3371  0.0555
 8818SOL    HW137913   1.603   2.372   3.201 -1.9899 -0.1105  0.1241
 8818SOL    HW237914   1.643   2.225   3.201  1.3609  0.7673  0.0149
 8819SOL     OW37915   3.919   1.459  17.160  0.1735  0.3697  0.3757
 8819SOL    HW137916   3.947   1.410  17.083 -0.4183  0.6737 -0.0251
 8819SOL    HW237917   3.827   1.444  17.141  0.3949  0.9823 -1.1488
 8820SOL     OW37918   4.284   2.284  10.079  0.4533 -0.5578  0.1128
 8820SOL    HW137919   4.343   2.283  10.004  1.0244 -1.3524  0.5728
 8820SOL    HW237920   4.341   2.328  10.143  1.1044 -0.0919 -0.7950
 8821SOL     OW37921   3.029   3.174  13.108  0.2303  0.3034  0.1110
 8821SOL    HW137922   2.966   3.167  13.036 -0.0320 -0.6996  0.4374
 8821SOL    HW237923   3.034   3.270  13.110  0.5284  0.2378  2.5817
 8822SOL     OW37924   4.102   1.254   7.234  0.3484 -0.1185 -0.2082
 8822SOL    HW137925   4.138   1.180   7.185  2.0607  0.3990  0.2728
 8822SOL    HW237926   4.165   1.261   7.306 -0.8291  0.9190  0.7019
 8823SOL     OW37927   1.972   3.707  17.332  0.0243  0.4212 -0.8335
 8823SOL    HW137928   2.058   3.714  17.373  0.6622 -1.6990 -1.8132
 8823SOL    HW237929   1.962   3.613  17.344 -1.4087  0.7864  0.6789
 8824SOL     OW37930   4.547   0.828   5.411 -0.2045  0.0002 -0.1039
 8824SOL    HW137931   4.454   0.806   5.414 -0.8728  3.0139  0.4648
 8824SOL    HW237932   4.572   0.757   5.351 -0.5945 -1.7617  1.8294
 8825SOL     OW37933   1.517   1.248   3.254  0.4006  0.0113  0.0963
 8825SOL    HW137934   1.561   1.259   3.338  1.9325  0.3686 -0.7519
 8825SOL    HW237935   1.431   1.223   3.288  1.2991 -2.6740  0.4357
 8826SOL     OW37936   4.662   3.632   6.029  0.4927  0.1760  0.1209
 8826SOL    HW137937   4.713   3.552   6.040  0.4719  0.0775 -0.5300
 8826SOL    HW237938   0.001   3.698   5.998 -1.4878  2.3412  0.6770
 8827SOL     OW37939   4.566   0.330   6.340  0.3022  0.3874  0.3721
 8827SOL    HW137940   4.584   0.375   6.257  0.1820  1.8099  1.1265
 8827SOL    HW237941   4.650   0.287   6.360 -0.7310 -2.0474 -0.4981
 8828SOL     OW37942   0.589   4.182   3.690  0.1350  0.4407 -0.3588
 8828SOL    HW137943   0.577   4.220   3.603  0.0703  1.2047 -0.0154
 8828SOL    HW237944   0.636   4.257   3.725  1.1005 -0.2768 -0.1195
 8829SOL     OW37945   0.921   2.445  11.847 -0.8206  0.1891 -0.2988
 8829SOL    HW137946   0.999   2.392  11.862 -1.1122 -0.0124  0.4862
 8829SOL    HW237947   0.858   2.381  11.881  0.2076 -0.7931 -0.2366
 8830SOL     OW37948   0.164   3.629   3.629  0.3061  0.0576 -0.1601
 8830SOL    HW137949   0.227   3.556   3.636  0.2805 -0.0187 -0.7260
 8830SOL    HW237950   0.157   3.653   3.721 -2.2021  1.8393 -0.8495
 8831SOL     OW37951   4.141   2.730   2.317 -0.3377 -0.5338 -0.5027
 8831SOL    HW137952   4.119   2.820   2.340 -2.4518 -0.9012 -1.0546
 8831SOL    HW237953   4.233   2.724   2.292 -0.1297 -0.6192  0.2875
 8832SOL     OW37954   0.629   0.436   7.366 -0.5627 -0.2950 -0.0831
 8832SOL    HW137955   0.618   0.472   7.454  0.6099 -1.1855  0.4258
 8832SOL    HW237956   0.592   0.349   7.375  0.5060 -0.5424  1.8202
 8833SOL     OW37957   2.729   2.534   9.072 -0.1842  0.1300  0.0762
 8833SOL    HW137958   2.745   2.594   9.144 -1.0461 -2.1318  2.1497
 8833SOL    HW237959   2.665   2.587   9.025  0.6738 -0.9020 -2.2761
 8834SOL     OW37960   2.685   4.616  14.891 -0.1871 -0.1813 -0.4498
 8834SOL    HW137961   2.749   4.631  14.821  1.4909  0.4778  1.2298
 8834SOL    HW237962   2.717   4.679  14.956 -0.9905  0.3708 -0.5957
 8835SOL     OW37963   1.359   3.041  14.591 -0.3093  0.0369  0.5540
 8835SOL    HW137964   1.373   3.006  14.503  2.3605  1.1511  0.5404
 8835SOL    HW237965   1.431   3.099  14.612 -0.4214  1.0737 -1.9925
 8836SOL     OW37966   4.720   4.668   6.258  0.0015 -0.2379  0.0918
 8836SOL    HW137967   4.641   4.708   6.221  1.2688 -0.5098 -2.8810
 8836SOL    HW237968   4.690   4.596   6.313 -0.1440 -0.6132 -0.4779
 8837SOL     OW37969   4.221   1.628   2.360 -0.4240 -0.1088  0.7093
 8837SOL    HW137970   4.129   1.648   2.378 -0.3732 -0.7176  1.6454
 8837SOL    HW237971   4.257   1.700   2.308 -1.2847 -1.1124 -1.2551
 8838SOL     OW37972   0.563   2.693   7.541  0.3104  0.3382  0.3506
 8838SOL    HW137973   0.573   2.785   7.565 -1.0798 -0.2224  3.0919
 8838SOL    HW237974   0.624   2.659   7.607  0.0764 -0.4274  0.1760
 8839SOL     OW37975   0.140   1.383   6.279  0.2317 -0.3176  0.1815
 8839SOL    HW137976   0.055   1.362   6.239 -0.2801  0.9818  0.5518
 8839SOL    HW237977   0.198   1.359   6.208 -0.0599 -0.7529  0.0914
 8840SOL     OW37978   2.909   4.340   3.371 -0.3955 -0.3991 -0.0380
 8840SOL    HW137979   2.999   4.315   3.394  0.0807 -0.9538 -2.5598
 8840SOL    HW237980   2.852   4.333   3.448  2.2172  1.0788  2.0577
 8841SOL     OW37981   4.390   1.048   3.770 -0.6098 -0.3110 -0.5936
 8841SOL    HW137982   4.340   0.976   3.809  2.5024 -1.9685  0.2697
 8841SOL    HW237983   4.324   1.095   3.717  2.2210  1.9226 -2.1548
 8842SOL     OW37984   2.684   0.827   6.267  0.0095  0.0588  0.0312
 8842SOL    HW137985   2.669   0.798   6.178  3.0885  1.1992 -0.8610
 8842SOL    HW237986   2.726   0.909   6.240  1.9680 -1.8158 -2.6122
 8843SOL     OW37987   2.365   1.055   4.231  0.3294 -0.0941 -0.0441
 8843SOL    HW137988   2.328   1.100   4.307  1.3068  0.7141 -0.0429
 8843SOL    HW237989   2.291   1.006   4.195  0.2935 -0.6020  0.7219
 8844SOL     OW37990   2.815   3.931   2.324  0.1510  0.2379 -0.3486
 8844SOL    HW137991   2.772   3.849   2.302 -0.1055  0.6241 -1.2882
 8844SOL    HW237992   2.885   3.931   2.258 -0.5615  0.9855 -1.1172
 8845SOL     OW37993   0.402   2.249   5.695 -0.6068 -0.1004 -0.2608
 8845SOL    HW137994   0.311   2.277   5.681 -0.8322 -0.1809  1.0533
 8845SOL    HW237995   0.432   2.275   5.608 -0.0314 -0.3862 -0.1419
 8846SOL     OW37996   3.803   3.295   4.797  0.0865 -0.1555 -0.0118
 8846SOL    HW137997   3.835   3.206   4.781  0.5032  0.0074 -0.0792
 8846SOL    HW237998   3.798   3.331   4.708 -0.8169  1.3639  0.6757
 8847SOL     OW37999   4.141   1.576   0.652 -0.2655  0.7925  0.5347
 8847SOL    HW138000   4.165   1.648   0.711 -0.3311  0.5003  0.9129
 8847SOL    HW238001   4.225   1.529   0.646 -0.7460  0.3317 -2.6279
 8848SOL     OW38002   2.274   4.710  17.162 -0.4056  0.3303  0.1381
 8848SOL    HW138003   2.208   4.646  17.134 -1.5807  1.8568 -0.5223
 8848SOL    HW238004   2.264   4.704  17.257 -0.0914  0.0035  0.1531
 8849SOL     OW38005   3.064   2.073   4.076  0.4589 -0.6430  0.4670
 8849SOL    HW138006   3.017   1.991   4.095 -0.9332  0.0977  0.2718
 8849SOL    HW238007   2.985   2.124   4.057 -0.2243 -1.6677  0.5594
 8850SOL     OW38008   0.322   1.884   0.420  0.1802 -0.2469  0.0343
 8850SOL    HW138009   0.402   1.879   0.471 -0.0569 -2.4983  0.1639
 8850SOL    HW238010   0.327   1.813   0.356 -0.1535 -0.3324  0.1036
 8851SOL     OW38011   2.607   1.091   6.674 -0.4637 -0.3775 -0.6319
 8851SOL    HW138012   2.600   1.088   6.769  1.5173  2.5071 -0.3913
 8851SOL    HW238013   2.639   1.180   6.659  1.0442 -0.6978  0.7225
 8852SOL     OW38014   3.468   2.294   4.145 -0.0436 -0.4161  0.6001
 8852SOL    HW138015   3.411   2.367   4.169  0.5348  0.3271 -0.2671
 8852SOL    HW238016   3.458   2.249   4.229  1.7704 -0.2369  0.8967
 8853SOL     OW38017   1.130   0.532   2.637 -0.0812 -0.1825  0.4709
 8853SOL    HW138018   1.178   0.485   2.569 -0.9466 -2.0927  1.1529
 8853SOL    HW238019   1.181   0.519   2.717 -0.1144  0.0060  0.5222
 8854SOL     OW38020   4.604   1.954   3.999 -0.4083 -0.4924 -0.1765
 8854SOL    HW138021   4.513   1.960   3.969  0.1030  1.6050 -1.3082
 8854SOL    HW238022   4.633   2.042   4.023  0.0773 -0.9586  0.9283
 8855SOL     OW38023   0.084   3.853  17.648  0.0758  0.1869 -0.3714
 8855SOL    HW138024   4.716   3.826  17.647 -0.1738  1.1124 -1.2923
 8855SOL    HW238025   0.109   3.785   0.014  1.9106  1.6952  0.5183
 8856SOL     OW38026   1.230   4.503   3.995 -0.9687  0.2132 -0.4021
 8856SOL    HW138027   1.226   4.457   4.079  2.1841  0.0839 -0.3311
 8856SOL    HW238028   1.235   4.592   4.029 -1.1363 -0.8742  2.4544
 8857SOL     OW38029   1.066   4.357   7.982  0.0347 -0.4559  0.4331
 8857SOL    HW138030   1.127   4.431   7.980 -0.8256  0.2751  1.5457
 8857SOL    HW238031   1.103   4.293   7.921  2.2321  1.3904 -0.1836
 8858SOL     OW38032   1.644   3.749  13.873 -0.1384  0.1730 -0.2953
 8858SOL    HW138033   1.691   3.812  13.819 -2.3933  1.4798 -0.6831
 8858SOL    HW238034   1.662   3.790  13.958 -1.9028 -0.8034  0.5416
 8859SOL     OW38035   1.593   3.239   2.451  0.9552  0.3565 -0.3965
 8859SOL    HW138036   1.656   3.174   2.482 -0.4148 -0.8655 -0.1563
 8859SOL    HW238037   1.631   3.326   2.468 -0.6998  1.5746 -2.9023
 8860SOL     OW38038   3.020   2.315   8.724  0.0711 -0.2662 -0.1709
 8860SOL    HW138039   3.072   2.367   8.662 -1.8756  1.0113 -0.7215
 8860SOL    HW238040   2.983   2.387   8.774  0.4888 -0.2449  0.1107
 8861SOL     OW38041   1.827   1.489   7.776  0.2262 -0.1220 -0.3511
 8861SOL    HW138042   1.865   1.405   7.800  1.1654 -0.1079 -1.8432
 8861SOL    HW238043   1.880   1.556   7.820  3.5309 -2.7887 -0.3347
 8862SOL     OW38044   1.186   3.214  17.196  0.3499  0.0335 -0.2113
 8862SOL    HW138045   1.105   3.251  17.163  1.2752  0.2430 -2.2296
 8862SOL    HW238046   1.245   3.269  17.145  1.3163 -0.8470 -0.0487
 8863SOL     OW38047   0.206   4.513   5.707  0.2376  0.2210 -0.1168
 8863SOL    HW138048   0.245   4.538   5.624 -2.1739  2.4644 -0.5700
 8863SOL    HW238049   0.287   4.491   5.753  1.1601  2.4344 -0.7082
 8864SOL     OW38050   0.085   1.073  12.097  0.3753 -0.1952  0.8415
 8864SOL    HW138051   0.033   1.143  12.057  0.8249 -0.0502  0.5053
 8864SOL    HW238052   0.173   1.081  12.060 -0.4486  0.4646 -0.9667
 8865SOL     OW38053   2.381   0.491   4.164  0.0841  0.3200 -0.4860
 8865SOL    HW138054   2.453   0.436   4.196  1.2447  0.6777 -2.4988
 8865SOL    HW238055   2.410   0.508   4.075 -3.3671  0.8206 -1.5206
 8866SOL     OW38056   4.290   3.094   1.579  0.5522  0.1355  0.1369
 8866SOL    HW138057   4.259   3.011   1.615  2.5830 -0.9899 -0.6753
 8866SOL    HW238058   4.203   3.113   1.545 -0.1286 -0.1657  1.7275
 8867SOL     OW38059   4.169   4.632   5.311 -0.7561 -0.4693  0.6945
 8867SOL    HW138060   4.253   4.655   5.271 -2.6340  1.2139 -2.2525
 8867SOL    HW238061   4.111   4.704   5.286  0.7506 -0.6264 -3.3004
 8868SOL     OW38062   0.773   2.240  15.419  0.0292  0.4372  0.3977
 8868SOL    HW138063   0.855   2.214  15.379 -0.7780 -1.7142  0.1452
 8868SOL    HW238064   0.750   2.323  15.376 -1.0411 -0.1915 -0.2552
 8869SOL     OW38065   0.120   2.794  12.004 -0.2459  0.0716 -0.1449
 8869SOL    HW138066   0.152   2.757  11.922  1.2445  2.5292 -0.6437
 8869SOL    HW238067   0.200   2.795  12.056  1.0525  0.2491 -2.1573
 8870SOL     OW38068   2.428   3.459   4.692  0.5317 -0.0927  0.0979
 8870SOL    HW138069   2.409   3.488   4.603 -0.5592  1.6057  0.8785
 8870SOL    HW238070   2.382   3.376   4.684 -0.2210  0.3728 -0.4774
 8871SOL     OW38071   2.464   3.510   3.849 -0.1482  0.0104  0.0876
 8871SOL    HW138072   2.559   3.514   3.847 -0.1354 -1.2439 -1.5870
 8871SOL    HW238073   2.453   3.431   3.795  3.1908 -0.2776 -0.1447
 8872SOL     OW38074   3.695   4.468  16.633 -0.0415  0.1861  0.4572
 8872SOL    HW138075   3.763   4.432  16.576  0.5855  0.3141  1.1252
 8872SOL    HW238076   3.728   4.556  16.651 -0.8667  0.4964  0.4564
 8873SOL     OW38077   2.515   1.049   6.917 -0.2352  0.0397 -0.2636
 8873SOL    HW138078   2.422   1.039   6.937 -0.4922  0.5543 -1.1699
 8873SOL    HW238079   2.549   0.981   6.975 -0.6261  1.4600  1.6349
 8874SOL     OW38080   3.848   1.795   8.843 -0.1550  0.6274  0.6735
 8874SOL    HW138081   3.834   1.877   8.891  0.0701  1.1728 -0.2033
 8874SOL    HW238082   3.845   1.735   8.917 -1.3194  2.4679  2.1423
 8875SOL     OW38083   0.746   0.023  10.197  0.1923  0.1025 -0.2584
 8875SOL    HW138084   0.810   4.675  10.192  0.1771 -0.0554  1.7141
 8875SOL    HW238085   0.737   0.037  10.103 -2.5832  0.7428  0.1126
 8876SOL     OW38086   2.651   2.821  13.842  0.5546 -0.6170  0.2546
 8876SOL    HW138087   2.719   2.824  13.909  2.4750 -0.8501 -1.6787
 8876SOL    HW238088   2.619   2.910  13.853 -0.2045 -0.8554 -0.0571
 8877SOL     OW38089   3.522   4.020   6.756 -0.2394 -0.0240  0.2999
 8877SOL    HW138090   3.610   4.022   6.717 -0.4962 -0.8999 -0.3392
 8877SOL    HW238091   3.476   3.958   6.699  0.8158  0.4808 -1.1293
 8878SOL     OW38092   3.857   4.482   3.552  0.3773 -0.0122  0.1586
 8878SOL    HW138093   3.796   4.411   3.572  0.8690 -0.4669  0.0624
 8878SOL    HW238094   3.795   4.538   3.506 -0.1999 -0.1756  0.7449
 8879SOL     OW38095   0.411   3.621   4.008 -0.1010 -0.1991 -0.3641
 8879SOL    HW138096   0.492   3.672   4.004  0.3763 -0.7925  1.8991
 8879SOL    HW238097   0.342   3.679   4.041 -1.3349 -0.3896 -2.6135
 8880SOL     OW38098   4.513   0.526   5.443  0.2514 -0.2038 -0.4775
 8880SOL    HW138099   4.588   0.529   5.502 -0.0291 -0.2745 -0.1205
 8880SOL    HW238100   4.549   0.477   5.369 -0.4475  1.2635 -1.7967
 8881SOL     OW38101   2.678   4.056   4.552  0.5469  0.4623 -0.2532
 8881SOL    HW138102   2.611   4.113   4.592  0.2524 -0.8995  1.1684
 8881SOL    HW238103   2.752   4.109   4.582  1.3214 -1.0805  0.5228
 8882SOL     OW38104   4.351   4.570  10.676 -0.1879 -0.2991 -0.2202
 8882SOL    HW138105   4.389   4.535  10.757 -0.2940 -2.0524 -0.9293
 8882SOL    HW238106   4.300   4.494  10.650  1.0868 -0.6209 -1.7963
 8883SOL     OW38107   2.195   1.477  11.538 -0.0394  0.1159 -0.0840
 8883SOL    HW138108   2.248   1.414  11.588 -1.2368 -1.3036 -0.6159
 8883SOL    HW238109   2.263   1.529  11.495  0.8747 -0.7362  0.3134
 8884SOL     OW38110   1.659   0.903   9.711 -0.2094 -0.0981 -0.3922
 8884SOL    HW138111   1.568   0.931   9.725  0.3482  2.5602 -1.9111
 8884SOL    HW238112   1.698   0.983   9.674  0.0791 -0.0960 -0.0779
 8885SOL     OW38113   1.050   2.757   8.233  0.5934  0.1702 -0.0708
 8885SOL    HW138114   1.099   2.709   8.299  1.3635  1.1189  0.0282
 8885SOL    HW238115   1.073   2.711   8.152 -0.0285 -1.8714  0.8949
 8886SOL     OW38116   1.147   2.439  12.996  0.2080 -0.4085 -0.5834
 8886SOL    HW138117   1.167   2.387  13.074  0.5897 -0.3901 -0.6696
 8886SOL    HW238118   1.096   2.375  12.946  1.1402 -2.4059  1.0224
 8887SOL     OW38119   1.906   2.059  11.728  0.4676  0.3552 -0.4035
 8887SOL    HW138120   1.818   2.086  11.703 -0.0996 -1.4329 -0.3628
 8887SOL    HW238121   1.896   2.055  11.823  0.1996  0.5072 -0.4245
 8888SOL     OW38122   3.594   1.361   4.931  0.2120 -0.2468  0.3848
 8888SOL    HW138123   3.506   1.324   4.940  0.1906 -0.3286 -0.2123
 8888SOL    HW238124   3.630   1.293   4.874 -1.9448 -0.6161 -0.5320
 8889SOL     OW38125   0.707   0.020   0.252  0.3161 -0.0284  0.0423
 8889SOL    HW138126   0.641   0.085   0.225  0.9248 -0.3297 -2.1813
 8889SOL    HW238127   0.674   4.666   0.207  2.0330 -1.1265  0.7028
 8890SOL     OW38128   3.016   0.022   4.240 -0.0397 -0.1186 -0.3284
 8890SOL    HW138129   2.932   0.031   4.195 -0.1637  1.5644  0.2369
 8890SOL    HW238130   3.010   4.672   4.300  0.5279  0.8051  0.8675
 8891SOL     OW38131   0.072   2.154  10.457 -0.1167 -0.4903 -0.1461
 8891SOL    HW138132   0.005   2.088  10.442  0.4001 -0.9983 -0.2414
 8891SOL    HW238133   0.016   2.232  10.460 -0.3975 -0.8055  2.8706
 8892SOL     OW38134   3.288   1.425   8.506 -0.3253 -0.3951 -0.6346
 8892SOL    HW138135   3.307   1.392   8.419  0.2671  0.6355 -0.8983
 8892SOL    HW238136   3.339   1.373   8.568 -0.6839 -0.7239 -0.6159
 8893SOL     OW38137   2.252   2.092  13.431 -0.0731  0.3781  0.3919
 8893SOL    HW138138   2.174   2.056  13.473 -0.9224  1.2581 -0.4374
 8893SOL    HW238139   2.254   2.051  13.344  1.5721 -1.9588  1.5153
 8894SOL     OW38140   3.159   3.773   1.820 -0.5193  0.2338 -0.5105
 8894SOL    HW138141   3.160   3.756   1.725  2.3301 -2.1026 -0.0652
 8894SOL    HW238142   3.240   3.821   1.837 -1.8470  2.3381 -0.1407
 8895SOL     OW38143   0.833   1.936   4.217 -0.1160  0.4811 -0.3068
 8895SOL    HW138144   0.775   1.950   4.143 -0.6438 -5.0547 -0.9407
 8895SOL    HW238145   0.850   1.842   4.222 -1.2079  0.3549  1.1236
 8896SOL     OW38146   1.479   2.289  17.127  0.4653  0.3473  0.0858
 8896SOL    HW138147   1.410   2.241  17.081  1.5961 -1.6448  0.4606
 8896SOL    HW238148   1.425   2.334  17.193 -1.1321 -1.8822  0.3197
 8897SOL     OW38149   4.076   3.624  14.764  0.3158  0.7180  0.2223
 8897SOL    HW138150   4.154   3.638  14.818  0.4277 -1.1447  0.5497
 8897SOL    HW238151   4.054   3.710  14.729  1.4726  0.5768 -0.8162
 8898SOL     OW38152   3.760   3.772   6.368 -0.1115 -0.8247 -0.5436
 8898SOL    HW138153   3.771   3.867   6.361 -1.6710 -0.6957 -1.0446
 8898SOL    HW238154   3.819   3.731   6.305 -1.1656 -1.3985 -1.1416
 8899SOL     OW38155   1.036   1.712   8.302 -0.1107  0.1622  0.2988
 8899SOL    HW138156   1.016   1.622   8.277  1.2630 -0.1076  0.1668
 8899SOL    HW238157   0.979   1.725   8.378 -0.4792  1.7274 -0.2285
 8900SOL     OW38158   0.631   4.227   8.759 -1.0614 -0.3057  0.4924
 8900SOL    HW138159   0.712   4.277   8.746 -1.8790  0.6171 -0.9713
 8900SOL    HW238160   0.646   4.191   8.847 -0.6747 -0.7897  0.2305
 8901SOL     OW38161   4.497   2.227   6.365 -0.6674  0.0894 -0.4560
 8901SOL    HW138162   4.426   2.223   6.430  1.3218  1.4711  1.8176
 8901SOL    HW238163   4.553   2.289   6.412 -1.0532 -0.4029  0.6821
 8902SOL     OW38164   3.712   1.207  14.279  0.4659  0.1391  0.4732
 8902SOL    HW138165   3.731   1.145  14.209  0.9079  0.3466  0.4086
 8902SOL    HW238166   3.717   1.156  14.360  1.7739  1.8950  1.5085
 8903SOL     OW38167   2.682   3.715   2.963  0.2640 -0.3600  0.0046
 8903SOL    HW138168   2.649   3.795   3.005 -1.0204 -1.8714  1.8499
 8903SOL    HW238169   2.609   3.656   2.982  0.7661 -0.6179  1.1129
 8904SOL     OW38170   2.158   3.008   2.468  0.2708  0.1912  0.2633
 8904SOL    HW138171   2.122   2.937   2.415  0.3392 -0.2156  0.7586
 8904SOL    HW238172   2.140   2.973   2.555  1.2032 -0.8564  0.0308
 8905SOL     OW38173   4.678   1.317   2.737 -0.5016 -0.4342  0.2109
 8905SOL    HW138174   4.708   1.242   2.788 -0.5630 -1.2439 -0.9166
 8905SOL    HW238175   0.014   1.322   2.663 -0.1753 -2.7922  0.3020
 8906SOL     OW38176   1.216   4.623   2.954 -0.5781 -0.4887 -0.6424
 8906SOL    HW138177   1.176   4.540   2.928 -0.6622 -1.3133  2.1698
 8906SOL    HW238178   1.239   4.658   2.867  1.2018  0.6713  0.3008
 8907SOL     OW38179   2.186   1.881   1.773  0.1413  0.2363  0.0989
 8907SOL    HW138180   2.254   1.817   1.751  1.1419  1.8492 -1.5508
 8907SOL    HW238181   2.234   1.963   1.787 -2.3732  1.7823 -0.2959
 8908SOL     OW38182   0.540   1.523   4.504  0.0360  0.2022  0.1017
 8908SOL    HW138183   0.534   1.524   4.600 -1.6783 -0.7751  0.0177
 8908SOL    HW238184   0.619   1.470   4.491  0.2366  0.5922 -0.2350
 8909SOL     OW38185   3.952   2.309  12.057  0.1703  0.6374  0.2336
 8909SOL    HW138186   3.867   2.272  12.083  2.4070 -1.7338  4.0281
 8909SOL    HW238187   3.934   2.403  12.062 -0.7081  0.3724  1.8421
 8910SOL     OW38188   0.383   3.626   7.159 -0.2434 -0.0535 -0.2259
 8910SOL    HW138189   0.351   3.687   7.225 -2.1973  0.1164 -1.3264
 8910SOL    HW238190   0.361   3.673   7.078 -0.7257  1.0604  0.5607
 8911SOL     OW38191   4.395   4.069  16.014  0.2248 -0.1855  0.3311
 8911SOL    HW138192   4.416   4.140  16.075  0.7640  0.5464 -0.7251
 8911SOL    HW238193   4.472   4.073  15.958 -0.4302  0.4411 -0.5154
 8912SOL     OW38194   0.300   0.310   6.203 -0.3354  0.2402 -0.2827
 8912SOL    HW138195   0.354   0.385   6.230 -1.2654  0.9964 -0.5244
 8912SOL    HW238196   0.293   0.314   6.107  1.5248 -0.4595 -0.4432
 8913SOL     OW38197   0.749   2.239   2.197  0.1596 -0.3974 -0.4965
 8913SOL    HW138198   0.770   2.259   2.106  0.4139 -1.4221 -0.6681
 8913SOL    HW238199   0.835   2.246   2.239 -0.4998 -0.3046  0.8567
 8914SOL     OW38200   0.747   4.383   3.797  0.7075  0.1294 -0.1339
 8914SOL    HW138201   0.732   4.476   3.810 -1.6582 -0.3376  0.3751
 8914SOL    HW238202   0.843   4.391   3.794  0.6620  0.8409  0.3469
 8915SOL     OW38203   2.915   3.178   3.977 -0.3590  0.4102  0.2735
 8915SOL    HW138204   2.885   3.146   4.063 -1.4313 -0.1607 -0.3101
 8915SOL    HW238205   2.832   3.181   3.929 -0.8607  0.5128  1.1364
 8916SOL     OW38206   0.492   2.354   2.304 -0.2793  0.0819  0.0523
 8916SOL    HW138207   0.579   2.352   2.264 -0.8170 -1.6830 -1.0576
 8916SOL    HW238208   0.444   2.316   2.230  0.6019  0.2064 -0.5819
 8917SOL     OW38209   3.337   3.868  17.259 -0.3491  0.6787  0.0487
 8917SOL    HW138210   3.365   3.797  17.316  0.8048  0.3695 -0.9146
 8917SOL    HW238211   3.261   3.836  17.211  0.5681 -1.9387  0.3544
 8918SOL     OW38212   3.195   2.738   6.358  0.1711 -0.4469 -0.0518
 8918SOL    HW138213   3.267   2.734   6.421 -0.0496 -0.8478  0.1766
 8918SOL    HW238214   3.148   2.662   6.391  0.2684 -0.4411  0.1032
 8919SOL     OW38215   0.343   3.435   4.838  0.3944 -0.2197 -0.6423
 8919SOL    HW138216   0.430   3.418   4.874 -0.5506 -0.5703  1.4575
 8919SOL    HW238217   0.289   3.375   4.889 -0.2680 -0.3186 -1.4479
 8920SOL     OW38218   0.616   4.518   0.856  0.2692 -0.1949 -0.2205
 8920SOL    HW138219   0.602   4.459   0.782  0.8782 -0.1965 -0.3321
 8920SOL    HW238220   0.557   4.592   0.843  0.8599  0.5385  1.2453
 8921SOL     OW38221   1.710   2.303   5.401 -0.7494  0.2736  0.4781
 8921SOL    HW138222   1.778   2.286   5.466 -0.8192 -3.0529 -0.2979
 8921SOL    HW238223   1.634   2.291   5.458 -0.3850 -1.5377  0.5710
 8922SOL     OW38224   3.468   1.435   3.033 -0.5706  0.0975  0.0541
 8922SOL    HW138225   3.562   1.453   3.042 -0.5684 -0.2746  0.8234
 8922SOL    HW238226   3.473   1.389   2.949  0.2748  0.3341 -0.0248
 8923SOL     OW38227   4.696   1.985   8.831 -0.7628  0.7368  0.3859
 8923SOL    HW138228   4.601   1.992   8.842 -0.8929  2.2330 -1.7688
 8923SOL    HW238229   4.714   2.058   8.891  0.6698  0.2744  0.5201
 8924SOL     OW38230   0.250   4.174   3.257  0.0828  0.5950  0.0979
 8924SOL    HW138231   0.162   4.163   3.293  0.3556 -0.3728  0.4468
 8924SOL    HW238232   0.241   4.231   3.180 -0.3236  2.4135  1.4838
 8925SOL     OW38233   3.722   0.686   8.952 -0.3633  0.1971  0.1150
 8925SOL    HW138234   3.631   0.657   8.959 -0.6986  0.9843 -0.9735
 8925SOL    HW238235   3.718   0.781   8.938  1.4076  0.0722 -1.1042
 8926SOL     OW38236   4.070   3.256   8.522 -0.2099  0.1990 -0.5077
 8926SOL    HW138237   4.100   3.215   8.603  0.2887  0.7669 -0.4044
 8926SOL    HW238238   4.142   3.319   8.520  1.8318 -2.0739  0.2438
 8927SOL     OW38239   0.722   2.836   1.600 -0.0687  0.2715 -0.2955
 8927SOL    HW138240   0.651   2.891   1.569 -0.3506  0.5927  0.9154
 8927SOL    HW238241   0.786   2.902   1.627  0.6830 -1.3413  1.9742
 8928SOL     OW38242   1.104   2.610   5.548  0.0591  0.2899  0.2443
 8928SOL    HW138243   1.047   2.685   5.533 -0.2162 -0.4344 -2.5145
 8928SOL    HW238244   1.169   2.643   5.610 -0.0809 -1.8090  1.4991
 8929SOL     OW38245   0.562   4.035   5.892  0.1906 -0.6266  0.3221
 8929SOL    HW138246   0.594   4.125   5.900  0.0752 -0.7017  1.6816
 8929SOL    HW238247   0.505   4.035   5.969 -0.5460 -0.4462 -0.2240
 8930SOL     OW38248   1.479   3.163   2.229  0.1287  0.5436  0.3872
 8930SOL    HW138249   1.568   3.175   2.197 -0.3854  2.7264 -0.2722
 8930SOL    HW238250   1.499   3.173   2.322 -1.4468  3.9050  0.3895
 8931SOL     OW38251   3.735   3.573   6.571 -0.2173  0.0732 -0.3162
 8931SOL    HW138252   3.642   3.551   6.565  0.0329 -1.2116  0.6653
 8931SOL    HW238253   3.746   3.645   6.509  0.7200  0.4020  0.2259
 8932SOL     OW38254   2.146   4.156   1.699  0.1729 -0.4542 -0.0923
 8932SOL    HW138255   2.112   4.184   1.784  2.6929 -1.8955  1.3698
 8932SOL    HW238256   2.201   4.231   1.674 -0.3784 -0.7137 -2.1318
 8933SOL     OW38257   3.072   1.691   3.965  0.3661  0.3170 -0.3371
 8933SOL    HW138258   3.167   1.687   3.957  0.1312  3.3606 -4.4712
 8933SOL    HW238259   3.054   1.600   3.990  0.5995 -0.0224 -1.4072
 8934SOL     OW38260   4.349   3.049  11.858 -0.2406 -0.2582 -0.5813
 8934SOL    HW138261   4.433   3.094  11.859 -0.4253  0.0431  0.6129
 8934SOL    HW238262   4.380   2.960  11.875 -1.3776 -0.3438  0.9963
 8935SOL     OW38263   2.678   0.942  12.189 -0.1420 -0.0152 -0.4687
 8935SOL    HW138264   2.668   0.996  12.267  1.7358 -0.9533  0.4141
 8935SOL    HW238265   2.761   0.901  12.211 -1.3338 -0.9792  2.2394
 8936SOL     OW38266   1.083   0.505  17.348 -0.2744 -0.1600 -0.3393
 8936SOL    HW138267   1.093   0.424  17.298 -1.1619 -0.3687 -0.1853
 8936SOL    HW238268   0.996   0.487  17.383  0.2221 -0.4297  0.7575
 8937SOL     OW38269   1.672   0.112   7.761 -0.3654  0.4265  0.6364
 8937SOL    HW138270   1.753   0.062   7.770 -0.3967  0.1928 -0.4131
 8937SOL    HW238271   1.677   0.147   7.672 -0.5720 -0.5763  0.2320
 8938SOL     OW38272   2.139   2.841   6.388 -0.4881 -0.2294  0.7213
 8938SOL    HW138273   2.055   2.887   6.387 -1.5474 -2.1487 -1.2490
 8938SOL    HW238274   2.134   2.798   6.473 -1.8767 -1.8938 -0.1811
 8939SOL     OW38275   3.570   3.554   4.299 -0.3713  0.5661  0.4003
 8939SOL    HW138276   3.661   3.529   4.278 -1.3320 -0.8229 -2.1091
 8939SOL    HW238277   3.551   3.607   4.222  0.4929  1.6199  0.9207
 8940SOL     OW38278   4.515   4.625  14.625  0.2377 -0.3088  0.7962
 8940SOL    HW138279   4.556   4.674  14.696 -1.7837 -0.1455  1.8654
 8940SOL    HW238280   4.470   4.559  14.678 -2.7390  0.2407 -1.0462
 8941SOL     OW38281   3.988   1.863   7.262 -0.5562 -0.2920 -0.6112
 8941SOL    HW138282   3.954   1.945   7.226 -2.3088 -1.5522 -1.7983
 8941SOL    HW238283   3.973   1.802   7.191 -1.9806  1.0295 -1.4499
 8942SOL     OW38284   0.850   3.350   8.040  0.1381  0.3376  0.9205
 8942SOL    HW138285   0.931   3.308   8.069 -1.3647 -1.4684  2.4604
 8942SOL    HW238286   0.885   3.424   7.991 -1.4772 -0.3699 -1.3180
 8943SOL     OW38287   3.745   0.360  16.348  0.0098  0.6496  0.2814
 8943SOL    HW138288   3.673   0.340  16.288 -0.5665  1.1121  0.8067
 8943SOL    HW238289   3.696   0.341  16.428 -0.1198 -2.2083 -0.5064
 8944SOL     OW38290   1.885   2.697   2.687 -0.2828  0.4308  0.4788
 8944SOL    HW138291   1.908   2.641   2.761  0.4438 -2.6257 -2.1130
 8944SOL    HW238292   1.939   2.776   2.696 -1.4135  1.5223 -2.1180
 8945SOL     OW38293   3.063   0.404  14.868  0.5987  0.4656  0.1743
 8945SOL    HW138294   3.108   0.391  14.784 -2.4065 -0.8814 -1.2098
 8945SOL    HW238295   3.121   0.472  14.901  0.3412  0.3251  0.9010
 8946SOL     OW38296   2.136   0.134   7.263  0.1729  0.1013  0.2288
 8946SOL    HW138297   2.179   0.049   7.269  0.9366  0.5966  1.9681
 8946SOL    HW238298   2.096   0.127   7.177  0.5565  3.2721 -0.2032
 8947SOL     OW38299   3.018   4.088   9.367  0.0873  0.5361 -0.1763
 8947SOL    HW138300   2.972   4.136   9.436  0.2617  0.5424 -0.0643
 8947SOL    HW238301   3.000   4.149   9.296  0.0647 -1.1454 -1.6199
 8948SOL     OW38302   4.408   2.967   9.864 -0.7569 -0.2093  0.1517
 8948SOL    HW138303   4.432   3.054   9.896 -2.3419 -0.0935  1.0292
 8948SOL    HW238304   4.476   2.955   9.797  0.6102 -1.6219  1.8104
 8949SOL     OW38305   4.520   1.791   4.474  0.3836 -0.7964  0.1988
 8949SOL    HW138306   4.463   1.733   4.424 -1.4581  1.4579 -0.2952
 8949SOL    HW238307   4.518   1.750   4.561 -1.3920 -1.5947 -0.2154
 8950SOL     OW38308   4.557   3.222  11.867  0.4113 -0.4511 -0.9718
 8950SOL    HW138309   4.543   3.290  11.801 -2.2514 -1.2339 -1.1936
 8950SOL    HW238310   4.545   3.277  11.944  0.1751 -0.3228 -1.1024
 8951SOL     OW38311   3.961   3.255   5.697  0.0885 -0.5753 -0.1871
 8951SOL    HW138312   3.959   3.176   5.750 -3.0984 -0.2123  0.2553
 8951SOL    HW238313   4.041   3.246   5.644 -0.1585 -2.5902 -0.1980
 8952SOL     OW38314   3.353   1.231   3.639  0.0526  0.6890 -0.3109
 8952SOL    HW138315   3.335   1.325   3.644  1.6877  1.0801 -2.2516
 8952SOL    HW238316   3.399   1.215   3.722 -0.5879  1.3157  0.1674
 8953SOL     OW38317   1.557   0.852   1.343 -0.4675  0.2481 -0.2066
 8953SOL    HW138318   1.610   0.862   1.422  2.0962 -2.1591 -1.6112
 8953SOL    HW238319   1.607   0.793   1.286 -0.0998 -1.5716  2.0273
 8954SOL     OW38320   3.377   1.519   1.174 -0.1096  0.0042 -0.0369
 8954SOL    HW138321   3.456   1.570   1.155  0.5413 -1.3574 -1.0130
 8954SOL    HW238322   3.400   1.481   1.258 -0.3942 -1.2607 -0.5313
 8955SOL     OW38323   4.140   1.167  11.472  0.5799  0.3461 -0.5058
 8955SOL    HW138324   4.175   1.081  11.493  0.5598  0.7602  1.2407
 8955SOL    HW238325   4.054   1.147  11.436  2.3730 -1.1094 -3.9383
 8956SOL     OW38326   4.327   3.104   5.874 -0.0707 -1.0791  0.8034
 8956SOL    HW138327   4.361   3.193   5.886  0.7040 -1.4178  1.0946
 8956SOL    HW238328   4.248   3.129   5.826  1.5728  1.3961 -0.6156
 8957SOL     OW38329   2.744   1.190   7.926 -0.4615  0.3370 -0.0322
 8957SOL    HW138330   2.835   1.158   7.928 -0.1097  1.3329  0.0064
 8957SOL    HW238331   2.705   1.122   7.980 -0.2445  0.2908  0.0683
 8958SOL     OW38332   0.839   1.921   5.816 -0.1739  0.1354  0.0988
 8958SOL    HW138333   0.784   1.989   5.777  0.7021  1.7880  1.7016
 8958SOL    HW238334   0.880   1.885   5.738 -0.6703 -0.3047  0.0438
 8959SOL     OW38335   0.178   0.116   0.179 -0.1692  0.1457 -0.2014
 8959SOL    HW138336   0.130   0.198   0.189 -0.7189 -0.2878  0.6905
 8959SOL    HW238337   0.138   0.061   0.246 -2.0707  2.2575  0.3859
 8960SOL     OW38338   0.867   0.400  15.079  0.0243 -0.2240  0.1296
 8960SOL    HW138339   0.845   0.371  15.167 -0.6713  2.3299  0.7812
 8960SOL    HW238340   0.959   0.421  15.095 -0.5061 -0.3385  3.2717
 8961SOL     OW38341   0.356   0.355   2.626  0.6287 -0.2273 -0.2658
 8961SOL    HW138342   0.299   0.319   2.558  0.2922  0.8022 -0.5264
 8961SOL    HW238343   0.411   0.278   2.640 -1.4388 -2.3178 -3.5807
 8962SOL     OW38344   1.256   0.013   5.078  0.2052 -0.5706  0.6929
 8962SOL    HW138345   1.169   0.031   5.114 -0.0822  2.1216 -1.3474
 8962SOL    HW238346   1.309   0.071   5.133 -1.1606  2.1435 -0.8440
 8963SOL     OW38347   4.180   2.566   2.827 -0.1862 -0.1299 -0.2697
 8963SOL    HW138348   4.258   2.592   2.875 -0.7080 -0.7606  0.9282
 8963SOL    HW238349   4.218   2.554   2.741  0.4110  0.1423 -0.0399
 8964SOL     OW38350   2.105   1.055   4.872 -0.2722 -0.7001  0.0046
 8964SOL    HW138351   2.188   1.039   4.826 -0.2576 -2.4467  0.6257
 8964SOL    HW238352   2.099   0.988   4.941 -0.3945  0.4359  1.0920
 8965SOL     OW38353   0.021   1.941   6.975 -0.4892 -0.2341  0.1324
 8965SOL    HW138354   0.012   1.869   6.914  1.0106 -0.4698  0.1803
 8965SOL    HW238355   0.033   1.883   7.050  0.2003  0.0873  0.2761
 8966SOL     OW38356   4.467   3.029   2.645  0.1660  0.3197  0.9649
 8966SOL    HW138357   4.390   2.976   2.668 -0.0105 -0.2701 -1.0403
 8966SOL    HW238358   4.428   3.099   2.593 -0.8573 -0.1713  1.0636
 8967SOL     OW38359   3.646   3.434   4.974  0.4014  0.2866  0.7393
 8967SOL    HW138360   3.617   3.476   4.892  1.3194  1.2619  0.9248
 8967SOL    HW238361   3.705   3.365   4.944 -2.9153 -1.6505 -1.3751
 8968SOL     OW38362   2.541   3.585  13.161  0.1065  0.4856 -0.1132
 8968SOL    HW138363   2.556   3.585  13.255  0.4117  1.0296 -0.1609
 8968SOL    HW238364   2.504   3.501  13.135 -3.1016  1.8093  0.2958
 8969SOL     OW38365   3.628   2.295   3.536  0.1074  0.4142  0.1249
 8969SOL    HW138366   3.577   2.219   3.564  0.6079 -0.3787 -1.1348
 8969SOL    HW238367   3.713   2.278   3.577 -0.2449  0.6215  0.9506
 8970SOL     OW38368   3.226   2.744   1.907 -0.2970  0.4110 -0.8647
 8970SOL    HW138369   3.155   2.740   1.843 -2.0732  3.7601  0.8762
 8970SOL    HW238370   3.233   2.656   1.944 -1.0525  0.2678 -1.0513
 8971SOL     OW38371   0.684   2.408   3.504 -0.0049  0.3224  0.0907
 8971SOL    HW138372   0.704   2.316   3.491  1.5314  0.7120 -0.2601
 8971SOL    HW238373   0.606   2.419   3.450  0.7806  0.8994 -0.9214
 8972SOL     OW38374   3.184   4.488  13.138  0.0627  0.0851 -0.2813
 8972SOL    HW138375   3.223   4.489  13.050  1.3441  2.7305  0.3159
 8972SOL    HW238376   3.094   4.468  13.113  0.9354 -2.4416 -1.4167
 8973SOL     OW38377   1.949   1.108  15.963  0.2653  0.1160  0.2248
 8973SOL    HW138378   2.013   1.047  16.000  1.0109  0.3787 -0.6297
 8973SOL    HW238379   1.976   1.095  15.872 -1.3361 -1.6694 -0.0125
 8974SOL     OW38380   1.577   4.385  11.847  0.3080 -0.0552 -0.1845
 8974SOL    HW138381   1.587   4.332  11.926 -2.1402 -2.1958 -1.3102
 8974SOL    HW238382   1.517   4.334  11.793  0.8613 -1.6615  0.7086
 8975SOL     OW38383   4.090   4.109   6.667  0.3934  0.4672  0.3299
 8975SOL    HW138384   4.040   4.032   6.694  1.8965 -0.4449  0.5149
 8975SOL    HW238385   4.132   4.129   6.751 -1.7750  1.2173  1.2448
 8976SOL     OW38386   4.621   1.284  12.141 -0.1628  0.9636 -0.5274
 8976SOL    HW138387   4.608   1.233  12.221 -3.5772  2.0867 -0.3797
 8976SOL    HW238388   4.643   1.371  12.173 -3.2779  0.9637  1.5983
 8977SOL     OW38389   0.614   1.980   4.022  0.6300  0.4657  0.0052
 8977SOL    HW138390   0.620   1.996   3.928 -2.0623  1.8661  0.0530
 8977SOL    HW238391   0.533   1.930   4.031  0.4109  0.6636 -0.9321
 8978SOL     OW38392   1.233   4.479   8.275 -0.3947  0.4178 -0.2683
 8978SOL    HW138393   1.279   4.558   8.248 -1.4262  1.0323 -0.2358
 8978SOL    HW238394   1.209   4.512   8.361  0.2970  0.9070 -0.2707
 8979SOL     OW38395   1.710   0.222   0.811  0.4323 -0.0871  0.5512
 8979SOL    HW138396   1.616   0.213   0.825  0.4319  1.1775  1.3431
 8979SOL    HW238397   1.720   0.168   0.732  0.3062  1.3771 -0.4735
 8980SOL     OW38398   1.480   4.091   6.744  0.3726  0.1401  0.7701
 8980SOL    HW138399   1.442   4.170   6.706 -1.8805 -0.9815  0.7142
 8980SOL    HW238400   1.451   4.034   6.673  0.4261  0.5417  0.4289
 8981SOL     OW38401   3.548   0.761   6.010 -0.3299  0.3070 -0.5501
 8981SOL    HW138402   3.465   0.808   6.016  0.7603  2.2005 -0.2411
 8981SOL    HW238403   3.541   0.701   6.085 -1.9129  1.6291  0.3580
 8982SOL     OW38404   4.037   4.038   4.735 -0.1992  0.6548 -0.2480
 8982SOL    HW138405   4.101   4.102   4.766  0.9512  0.0087 -1.2530
 8982SOL    HW238406   3.986   4.018   4.813 -1.1939  0.9055 -0.8372
 8983SOL     OW38407   2.413   3.721   2.475 -0.1040 -0.4667 -0.1240
 8983SOL    HW138408   2.444   3.712   2.565  2.1192 -0.5050 -0.9098
 8983SOL    HW238409   2.320   3.726   2.498  0.2333 -0.0254  1.1380
 8984SOL     OW38410   3.927   1.432  10.571 -0.2759  0.0122 -0.2662
 8984SOL    HW138411   3.834   1.432  10.549 -0.0570 -0.7155 -1.2029
 8984SOL    HW238412   3.930   1.347  10.617  1.3227 -1.0659 -2.3618
 8985SOL     OW38413   4.344   2.197   2.071 -0.3963 -0.2656 -0.8734
 8985SOL    HW138414   4.343   2.133   2.000  0.2285 -1.7554  0.4558
 8985SOL    HW238415   4.299   2.153   2.142 -0.2833  0.0393 -0.6131
 8986SOL     OW38416   4.240   4.484   6.273 -0.1277 -0.1506 -0.1640
 8986SOL    HW138417   4.294   4.424   6.221  0.3878  0.5152 -0.4006
 8986SOL    HW238418   4.300   4.530   6.331 -0.9594  1.9365 -0.9538
 8987SOL     OW38419   4.659   3.940   3.835 -0.1013  0.4441  0.2216
 8987SOL    HW138420   4.567   3.923   3.814 -0.0944  2.0082 -1.0824
 8987SOL    HW238421   4.641   3.988   3.916  1.9612 -0.9122  1.5062
 8988SOL     OW38422   3.594   2.119  17.568 -0.2853 -0.2603 -0.2199
 8988SOL    HW138423   3.504   2.088  17.578  0.1773 -0.9851  1.5811
 8988SOL    HW238424   3.591   2.128  17.473  0.3519  2.3598 -0.0046
 8989SOL     OW38425   4.355   2.589   6.436 -0.5941 -0.0597  0.0801
 8989SOL    HW138426   4.427   2.588   6.373 -1.4672  1.0804 -0.9197
 8989SOL    HW238427   4.406   2.622   6.511  0.3552 -1.8177  0.2053
 8990SOL     OW38428   3.973   2.623   5.009 -0.5197  0.1317  1.4153
 8990SOL    HW138429   3.948   2.554   4.947 -0.3022  0.7266  0.6749
 8990SOL    HW238430   3.887   2.654   5.037 -0.2221  1.1575  1.1586
 8991SOL     OW38431   1.173   0.250   1.108 -0.2216  0.8301 -0.2997
 8991SOL    HW138432   1.104   0.311   1.135 -0.0565  1.3137 -0.9612
 8991SOL    HW238433   1.172   0.214   1.196  0.6621 -0.4647 -0.8154
 8992SOL     OW38434   2.903   1.902   5.460 -0.2487 -0.0403 -0.2821
 8992SOL    HW138435   2.814   1.867   5.453  0.0053 -1.1582  2.0802
 8992SOL    HW238436   2.902   1.934   5.370 -1.2872  1.7558  0.3778
 8993SOL     OW38437   1.098   0.985   3.201  0.4540 -0.1029 -0.5184
 8993SOL    HW138438   1.003   0.989   3.190  0.2349  0.8238  1.6917
 8993SOL    HW238439   1.112   0.891   3.212 -1.7561 -0.5493 -1.4439
 8994SOL     OW38440   4.247   0.111   9.947 -0.1162 -0.4079  0.0864
 8994SOL    HW138441   4.253   0.171  10.021  2.0630 -0.7379  0.2006
 8994SOL    HW238442   4.331   0.129   9.903 -1.1778  3.2433 -0.4443
 8995SOL     OW38443   2.472   2.598   2.347 -0.6372  0.3199 -0.0108
 8995SOL    HW138444   2.393   2.609   2.294 -1.2970 -1.1542  0.6747
 8995SOL    HW238445   2.516   2.683   2.341  0.3734 -0.3394 -2.1063
 8996SOL     OW38446   1.329   3.653  10.996 -0.2404  0.5413  0.0723
 8996SOL    HW138447   1.334   3.705  10.915  1.3259 -2.0421 -1.4914
 8996SOL    HW238448   1.364   3.716  11.060  1.8659 -1.1492  0.5607
 8997SOL     OW38449   3.290   2.259  13.098  0.1955  0.1703 -0.1345
 8997SOL    HW138450   3.308   2.273  13.005 -0.3748 -0.3376 -0.3171
 8997SOL    HW238451   3.316   2.345  13.131  1.7531 -0.2117 -0.3733
 8998SOL     OW38452   2.705   1.577   6.594  0.2480 -0.1106 -0.0944
 8998SOL    HW138453   2.701   1.630   6.515  1.8855 -0.3330 -0.3268
 8998SOL    HW238454   2.771   1.610   6.655  1.1434 -1.6976 -0.2076
 8999SOL     OW38455   3.902   2.386   6.064 -0.2631 -0.1495  0.8627
 8999SOL    HW138456   3.865   2.472   6.041  0.0926 -0.0888  0.5078
 8999SOL    HW238457   3.884   2.341   5.981  0.3582 -0.9129  1.1431
 9000SOL     OW38458   3.751   1.119  16.350  0.0819 -0.2824  0.1412
 9000SOL    HW138459   3.695   1.043  16.359  0.6400 -0.5363  1.4627
 9000SOL    HW238460   3.837   1.077  16.341 -0.9128 -1.6849 -2.5461
 9001SOL     OW38461   0.814   0.822   3.031  0.0608  0.0067  0.0809
 9001SOL    HW138462   0.846   0.747   2.981 -0.5360 -0.0608 -0.1963
 9001SOL    HW238463   0.810   0.775   3.114  1.9057  1.1007  0.7984
 9002SOL     OW38464   3.433   3.998  16.982  0.4301 -0.2429  0.6093
 9002SOL    HW138465   3.340   4.005  16.963  0.6816  0.8387 -0.1967
 9002SOL    HW238466   3.460   3.930  16.920 -0.1176  1.1199 -1.0955
 9003SOL     OW38467   0.732   4.220   2.855  0.2613 -0.6460  0.0635
 9003SOL    HW138468   0.718   4.277   2.931  0.8872 -0.1400 -0.2014
 9003SOL    HW238469   0.790   4.160   2.903 -0.7533 -0.9028  0.9882
 9004SOL     OW38470   4.679   4.167   4.733  0.2367  0.2780 -0.4602
 9004SOL    HW138471   0.039   4.211   4.716 -0.1999  1.7064  1.0919
 9004SOL    HW238472   4.661   4.197   4.822 -0.4968  1.3148 -0.9667
 9005SOL     OW38473   4.294   2.765  13.443  0.3049  0.1216  0.1849
 9005SOL    HW138474   4.295   2.685  13.495  0.6698 -0.1055 -0.1699
 9005SOL    HW238475   4.288   2.714  13.362 -0.0105 -1.3175  1.1173
 9006SOL     OW38476   2.900   3.731  16.942 -0.6416 -0.8961 -0.0313
 9006SOL    HW138477   2.841   3.661  16.912 -3.1561  0.5181  1.5733
 9006SOL    HW238478   2.849   3.798  16.896  1.6341  0.1141 -1.0679
 9007SOL     OW38479   3.382   0.179   8.405  0.7216  0.2903 -0.5493
 9007SOL    HW138480   3.399   0.126   8.327 -0.4085 -0.7598 -0.0802
 9007SOL    HW238481   3.469   0.171   8.443  0.9651 -0.0547 -1.1725
 9008SOL     OW38482   0.844   1.112   9.874  0.0206  0.3430  0.8081
 9008SOL    HW138483   0.789   1.180   9.913 -0.2168  0.5325  0.1447
 9008SOL    HW238484   0.894   1.061   9.937 -0.9541 -1.6196  0.0221
 9009SOL     OW38485   1.771   4.599  11.196  0.1855  0.1136  0.3422
 9009SOL    HW138486   1.710   4.666  11.227 -1.2239 -1.0983  0.1920
 9009SOL    HW238487   1.740   4.530  11.254 -0.1462 -0.5366 -0.6027
 9010SOL     OW38488   1.074   0.099  12.520 -0.1739  0.1775  0.2831
 9010SOL    HW138489   1.021   0.100  12.600 -1.3741  1.0159 -0.5323
 9010SOL    HW238490   1.058   0.011  12.487  1.1911  0.3240 -0.7745
 9011SOL     OW38491   4.070   4.477  14.160 -0.3961 -0.5187  0.1696
 9011SOL    HW138492   4.051   4.392  14.198  0.2587 -1.0718 -0.7424
 9011SOL    HW238493   4.029   4.476  14.073 -1.0776  0.3466  0.4689
 9012SOL     OW38494   4.516   4.598   5.263  0.0720 -0.1698 -0.7357
 9012SOL    HW138495   4.484   4.666   5.203 -0.5794 -0.6401 -0.9229
 9012SOL    HW238496   4.571   4.534   5.217  1.7734  1.5533 -1.0860
 9013SOL     OW38497   0.208   1.244   4.869  0.0538  0.6439 -0.6434
 9013SOL    HW138498   0.261   1.238   4.949  1.6753  0.6373 -1.7325
 9013SOL    HW238499   0.134   1.183   4.879 -1.7604  3.0550  0.7741
 9014SOL     OW38500   0.858   3.580  10.163  0.2439 -0.2229  0.2297
 9014SOL    HW138501   0.811   3.527  10.099 -1.4679  1.9757 -0.3424
 9014SOL    HW238502   0.806   3.661  10.161 -1.2571 -1.1946 -0.1019
 9015SOL     OW38503   0.294   0.759   0.674  0.3636  0.6601  0.9611
 9015SOL    HW138504   0.218   0.711   0.705  0.9207 -0.9232 -0.0785
 9015SOL    HW238505   0.246   0.839   0.653  2.0605  1.4196 -0.0780
 9016SOL     OW38506   4.514   2.947   2.264 -0.9236 -0.2924  0.1640
 9016SOL    HW138507   4.583   2.889   2.295 -2.7205 -1.8968  1.1894
 9016SOL    HW238508   4.535   3.033   2.300  2.0315 -1.5495  1.3790
 9017SOL     OW38509   2.264   4.129  16.686  0.1572 -0.2538  0.3199
 9017SOL    HW138510   2.331   4.060  16.677 -2.3485 -2.4461 -1.2712
 9017SOL    HW238511   2.330   4.196  16.668 -0.9941  1.7274  3.5257
 9018SOL     OW38512   3.295   4.708  15.982 -0.0689 -0.4251 -0.1486
 9018SOL    HW138513   3.340   4.631  16.015  0.1072 -0.6188 -0.8501
 9018SOL    HW238514   3.241   4.670  15.912 -0.1240 -0.1036 -0.2813
 9019SOL     OW38515   0.019   2.095   7.979 -0.6484 -0.3096  0.0352
 9019SOL    HW138516   0.038   2.052   7.895  1.7075  0.8049  0.0022
 9019SOL    HW238517   0.091   2.066   8.036 -1.1981 -2.5680 -0.4246
 9020SOL     OW38518   1.624   4.178   2.605  0.1652 -0.2376  0.9724
 9020SOL    HW138519   1.544   4.127   2.590 -0.1612  0.1590  1.3660
 9020SOL    HW238520   1.597   4.263   2.571  0.0115 -0.3430  0.8268
 9021SOL     OW38521   1.017   0.339   9.831  0.7867  0.3462  0.0847
 9021SOL    HW138522   0.989   0.325   9.921  0.9484 -0.5244 -0.0041
 9021SOL    HW238523   0.972   0.417   9.796  2.2554  0.2471 -2.0804
 9022SOL     OW38524   1.912   0.162  15.080 -0.2817  0.1912  0.0873
 9022SOL    HW138525   1.964   0.108  15.020  0.2414 -0.9074  1.5350
 9022SOL    HW238526   1.879   0.099  15.144 -1.0234 -0.1010 -0.5786
 9023SOL     OW38527   2.323   1.213  16.013 -0.1988 -0.0428  0.6304
 9023SOL    HW138528   2.349   1.145  15.951 -1.4370 -2.1194  2.3577
 9023SOL    HW238529   2.335   1.294  15.963 -1.1447 -0.6709 -0.5917
 9024SOL     OW38530   3.041   0.814   7.833  0.3343 -0.4334  0.7784
 9024SOL    HW138531   3.095   0.740   7.862  2.9124  1.0499 -0.2254
 9024SOL    HW238532   3.051   0.809   7.738  1.9049  0.1794  0.9017
 9025SOL     OW38533   2.053   1.500   7.391 -0.7876  0.3199  0.5217
 9025SOL    HW138534   1.972   1.522   7.438 -0.8317  0.8939  0.1841
 9025SOL    HW238535   2.075   1.416   7.432 -0.7303  0.1702  0.1819
 9026SOL     OW38536   0.894   1.978   6.072  0.4925  0.1975 -0.2835
 9026SOL    HW138537   0.885   1.974   5.977 -4.2770 -0.8620  0.2047
 9026SOL    HW238538   0.837   1.909   6.106  0.4259  0.4125  0.0445
 9027SOL     OW38539   0.089   2.902  15.358  0.1830 -0.2100  0.4650
 9027SOL    HW138540   0.117   2.916  15.449  1.4696 -2.2957  0.3982
 9027SOL    HW238541   0.085   2.807  15.343  1.2661 -0.0774 -0.6646
 9028SOL     OW38542   1.805   4.544   4.857 -0.0674  0.1902 -0.5735
 9028SOL    HW138543   1.747   4.594   4.914  1.4707  0.9474  0.3312
 9028SOL    HW238544   1.813   4.459   4.900  0.9814 -0.3708 -1.8680
 9029SOL     OW38545   2.453   2.058   3.091 -0.3150  0.2255 -0.2474
 9029SOL    HW138546   2.497   2.137   3.060  0.0555  0.5099  0.9964
 9029SOL    HW238547   2.474   2.054   3.185 -0.1601  0.7722 -0.2568
 9030SOL     OW38548   3.088   0.611  13.920  0.2647  0.4309  0.4551
 9030SOL    HW138549   3.099   0.546  13.850 -1.3264  0.1071  0.5041
 9030SOL    HW238550   3.017   0.664  13.886 -0.2101  1.2447  2.7155
 9031SOL     OW38551   2.735   1.681   1.250 -0.0833 -0.1188 -0.3812
 9031SOL    HW138552   2.679   1.726   1.313 -0.8564 -0.0447 -1.1196
 9031SOL    HW238553   2.795   1.754   1.231  0.1247 -0.6293 -1.6639
 9032SOL     OW38554   4.518   0.473   8.299 -0.3632  0.1692 -0.7039
 9032SOL    HW138555   4.459   0.548   8.285  1.9705  1.7568 -2.0891
 9032SOL    HW238556   4.465   0.419   8.357 -2.6535  2.6332 -0.4475
 9033SOL     OW38557   4.354   4.053   7.511  0.4612 -0.4404 -0.8622
 9033SOL    HW138558   4.407   4.117   7.465 -0.8634  0.2507 -1.4384
 9033SOL    HW238559   4.402   3.972   7.491 -2.1632 -1.5362 -2.6839
 9034SOL     OW38560   4.508   2.886   2.931 -0.0089 -0.0657  0.2234
 9034SOL    HW138561   4.429   2.939   2.918  1.4267  1.8661 -0.6203
 9034SOL    HW238562   4.516   2.858   2.840  2.9543  0.6406  0.2698
 9035SOL     OW38563   2.425   0.588   0.942 -0.0232 -0.0220  0.0404
 9035SOL    HW138564   2.351   0.533   0.917 -0.4489 -0.1712  1.6350
 9035SOL    HW238565   2.372   0.648   0.994  0.6867 -0.0959  0.8455
 9036SOL     OW38566   2.032   0.799  17.274 -0.0970  0.9654  0.4945
 9036SOL    HW138567   2.067   0.739  17.208  1.0435  3.5000 -1.1975
 9036SOL    HW238568   1.938   0.801  17.255 -0.0866  0.0286  0.3456
 9037SOL     OW38569   0.813   3.616   3.804  0.1471 -0.4348 -0.0791
 9037SOL    HW138570   0.843   3.544   3.858  1.8181  0.6211  0.4094
 9037SOL    HW238571   0.892   3.632   3.752  0.2071 -3.2241 -0.8554
 9038SOL     OW38572   4.242   4.654   0.495  0.2003  0.7938 -0.2380
 9038SOL    HW138573   4.183   4.607   0.436 -0.5383  1.4206  0.0098
 9038SOL    HW238574   4.309   4.682   0.433 -0.1737 -2.8019 -2.3138
 9039SOL     OW38575   2.356   4.338  13.703  0.4202  0.0809 -0.1855
 9039SOL    HW138576   2.270   4.354  13.663  0.6029  1.5082 -0.0291
 9039SOL    HW238577   2.329   4.338  13.795 -1.6017  1.1728 -0.7670
 9040SOL     OW38578   4.651   2.565   4.590 -0.3091  0.2414  0.0484
 9040SOL    HW138579   4.714   2.636   4.577  0.3669 -0.1180  1.3905
 9040SOL    HW238580   4.706   2.487   4.587 -0.7586  0.0281 -2.5006
 9041SOL     OW38581   0.111   1.008   0.261 -0.4813  0.1787 -0.2725
 9041SOL    HW138582   0.022   1.043   0.264 -0.7623 -0.3399 -3.0461
 9041SOL    HW238583   0.131   1.010   0.355 -0.0059 -0.5900 -0.3542
 9042SOL     OW38584   3.821   4.561   8.557  0.1266 -0.1248 -0.8668
 9042SOL    HW138585   3.887   4.536   8.492  1.2523 -2.1452  1.0483
 9042SOL    HW238586   3.836   4.656   8.550 -0.2147  0.1426  2.0891
 9043SOL     OW38587   0.541   2.532   6.268 -0.1086 -0.5858  0.6735
 9043SOL    HW138588   0.484   2.489   6.332 -0.6711 -1.2319 -0.2586
 9043SOL    HW238589   0.588   2.453   6.239 -0.1497 -0.3210 -0.0867
 9044SOL     OW38590   2.543   2.717  10.418  0.7069 -0.1664  0.3397
 9044SOL    HW138591   2.604   2.657  10.463  0.9399 -0.1213  0.0859
 9044SOL    HW238592   2.539   2.791  10.478  1.7085 -0.5250  0.8635
 9045SOL     OW38593   2.144   0.244   0.193  0.1143 -0.1282 -0.0414
 9045SOL    HW138594   2.143   0.319   0.133  0.7327 -0.8324 -0.9370
 9045SOL    HW238595   2.072   0.273   0.249 -0.0258  1.1543 -0.8785
 9046SOL     OW38596   4.388   1.158  12.864  0.5786 -0.1857 -0.1382
 9046SOL    HW138597   4.361   1.079  12.911 -0.0724 -0.5739 -1.1875
 9046SOL    HW238598   4.449   1.194  12.929 -1.0015 -0.9780  1.7703
 9047SOL     OW38599   2.303   1.797  16.449 -0.5335  0.0059  0.7308
 9047SOL    HW138600   2.316   1.768  16.540  2.9674 -1.5293 -0.2606
 9047SOL    HW238601   2.308   1.712  16.405  0.1532 -0.8890  2.5217
 9048SOL     OW38602   1.194   2.664   8.483  0.1883 -0.9008  0.0706
 9048SOL    HW138603   1.260   2.606   8.447  0.0253 -1.4420  0.6538
 9048SOL    HW238604   1.160   2.604   8.549 -2.6059 -0.2431 -0.7632
 9049SOL     OW38605   3.445   1.467   6.606  0.6529  0.6074  0.0823
 9049SOL    HW138606   3.537   1.441   6.599  0.8306  0.7044  2.0089
 9049SOL    HW238607   3.445   1.545   6.550 -0.6685  0.2813 -0.3912
 9050SOL     OW38608   2.867   1.041   8.970 -0.1288 -0.0972  0.5424
 9050SOL    HW138609   2.833   1.113   9.023 -0.3577 -1.2135  1.9346
 9050SOL    HW238610   2.962   1.053   8.963  0.0860 -3.0741 -1.9565
 9051SOL     OW38611   1.040   0.094   4.902  0.5686  0.2564 -0.1543
 9051SOL    HW138612   1.067   0.064   4.989  1.9948  2.7149  0.2399
 9051SOL    HW238613   1.020   0.185   4.925 -0.6261  0.0346 -0.3228
 9052SOL     OW38614   3.556   3.994   9.757 -0.3156  0.2435 -0.2600
 9052SOL    HW138615   3.476   3.966   9.712  0.1043  3.0209 -2.7243
 9052SOL    HW238616   3.618   3.948   9.701 -1.4899  0.7196 -1.9690
 9053SOL     OW38617   1.242   3.088   7.074 -0.3102  0.2078  0.0649
 9053SOL    HW138618   1.246   3.008   7.126  0.7899  0.2715  0.0795
 9053SOL    HW238619   1.168   3.073   7.014  0.8952  2.9141 -2.1173
 9054SOL     OW38620   2.509   1.399   1.898 -0.0670 -0.6121  0.7173
 9054SOL    HW138621   2.594   1.367   1.870 -0.1608 -0.8829  0.7412
 9054SOL    HW238622   2.506   1.476   1.841 -0.0285 -1.7417 -0.7931
 9055SOL     OW38623   1.188   2.298   7.178 -0.7449  0.0941 -0.5879
 9055SOL    HW138624   1.135   2.254   7.111 -0.1868 -1.7687  0.2006
 9055SOL    HW238625   1.137   2.273   7.255 -0.5067  0.5694 -0.2759
 9056SOL     OW38626   2.797   1.265   0.797 -0.1606 -0.1514  0.4246
 9056SOL    HW138627   2.887   1.287   0.774 -0.7326  0.0764 -1.5732
 9056SOL    HW238628   2.777   1.203   0.727 -0.4185  0.7957 -0.3362
 9057SOL     OW38629   2.421   3.717  12.940  0.0212  0.5813 -0.2445
 9057SOL    HW138630   2.451   3.804  12.914 -3.0798  2.7630  3.4031
 9057SOL    HW238631   2.485   3.691  13.006 -0.0386  0.5104 -0.2138
 9058SOL     OW38632   0.327   2.750   3.431 -0.3706  0.1125 -0.7285
 9058SOL    HW138633   0.309   2.713   3.345 -0.6112  0.2269 -0.7268
 9058SOL    HW238634   0.242   2.757   3.475 -0.2706  0.4318 -0.5887
 9059SOL     OW38635   1.500   0.269   0.015 -0.1371  0.7226 -0.9266
 9059SOL    HW138636   1.459   0.353  17.692 -1.2121  0.1630 -1.0552
 9059SOL    HW238637   1.576   0.267  17.653 -2.3112 -1.4945 -3.6574
 9060SOL     OW38638   3.236   2.577  11.935  0.4322  0.0243  0.4510
 9060SOL    HW138639   3.299   2.573  11.863 -1.3121 -1.0796 -0.9952
 9060SOL    HW238640   3.236   2.483  11.951  3.3385  0.0542  0.5618
 9061SOL     OW38641   1.991   1.294  15.575 -0.3258 -0.4320  0.0827
 9061SOL    HW138642   1.906   1.330  15.549 -1.1661 -1.5573  1.2705
 9061SOL    HW238643   1.995   1.323  15.666 -1.0480  0.2849 -0.1100
 9062SOL     OW38644   1.176   4.298   0.559  0.2174  0.4183 -0.9527
 9062SOL    HW138645   1.219   4.250   0.488 -1.4049 -1.1931 -0.8726
 9062SOL    HW238646   1.219   4.269   0.639 -2.3915 -2.1114 -0.4411
 9063SOL     OW38647   1.630   3.641  12.840  0.1984  0.3242 -0.1350
 9063SOL    HW138648   1.681   3.660  12.919 -1.6607  2.3813  0.5745
 9063SOL    HW238649   1.687   3.657  12.765  0.4448 -0.6851 -0.1596
 9064SOL     OW38650   3.599   4.235   5.109  0.0772  0.0533 -0.5213
 9064SOL    HW138651   3.583   4.142   5.124  0.0940 -0.1052 -1.4451
 9064SOL    HW238652   3.669   4.241   5.174 -3.1906  0.8232  2.8951
 9065SOL     OW38653   2.077   0.965   7.230 -0.0998  0.1473  0.2020
 9065SOL    HW138654   2.118   0.896   7.179  0.3046 -1.1951  2.3351
 9065SOL    HW238655   2.152   0.995   7.281  1.7094 -0.9146 -1.8476
 9066SOL     OW38656   2.816   3.396   6.868 -0.5755 -0.4812  0.2098
 9066SOL    HW138657   2.746   3.375   6.930 -0.1931 -1.0484  0.4518
 9066SOL    HW238658   2.761   3.447   6.809 -0.1627  1.7489  1.7423
 9067SOL     OW38659   1.462   1.247   6.748  0.2895 -0.0805  0.0974
 9067SOL    HW138660   1.372   1.273   6.729  0.7689 -0.3830 -2.5496
 9067SOL    HW238661   1.475   1.307   6.822  3.7431  0.8127 -1.2327
 9068SOL     OW38662   1.246   1.182  16.743 -0.2596 -0.1575  0.6773
 9068SOL    HW138663   1.172   1.214  16.794  0.5363 -0.1939  1.8632
 9068SOL    HW238664   1.316   1.246  16.756  0.2447 -0.7991  1.1035
 9069SOL     OW38665   4.562   4.153  12.616 -0.2899  0.0260 -0.3451
 9069SOL    HW138666   4.602   4.116  12.694 -0.0699 -1.4330 -1.1499
 9069SOL    HW238667   4.551   4.078  12.557 -0.8496 -0.6035  0.5703
 9070SOL     OW38668   4.259   1.524   6.632 -0.1166  0.4274  0.5118
 9070SOL    HW138669   4.187   1.582   6.606  0.0883  0.1798 -0.5996
 9070SOL    HW238670   4.327   1.589   6.645  1.0756 -0.5206 -0.9595
 9071SOL     OW38671   2.160   2.251   6.695 -0.0602 -0.1403  0.1424
 9071SOL    HW138672   2.127   2.225   6.781 -0.4590 -1.5179 -0.4240
 9071SOL    HW238673   2.107   2.326   6.669  1.1205  1.0863  1.3058
 9072SOL     OW38674   4.160   3.671   9.393  0.1425  0.2199  0.9884
 9072SOL    HW138675   4.209   3.591   9.374 -0.1010  0.5567 -1.0511
 9072SOL    HW238676   4.212   3.745   9.362  1.9957 -1.6602 -0.3925
 9073SOL     OW38677   1.260   0.316  13.625 -0.4142  0.3975  0.5347
 9073SOL    HW138678   1.194   0.248  13.643  1.6926 -1.2528  1.9681
 9073SOL    HW238679   1.241   0.378  13.695  1.4314  0.4288  0.9960
 9074SOL     OW38680   4.000   2.452   3.366 -0.0386  0.5575 -0.1901
 9074SOL    HW138681   3.983   2.378   3.425  0.0062  0.2263 -0.5947
 9074SOL    HW238682   3.916   2.476   3.328 -0.2642  1.9417  1.1555
 9075SOL     OW38683   2.524   1.352   7.913 -0.1306 -0.3828 -0.0630
 9075SOL    HW138684   2.615   1.327   7.925 -0.5341 -2.2426 -0.7183
 9075SOL    HW238685   2.478   1.274   7.945 -1.0193  0.5598  0.9845
 9076SOL     OW38686   1.822   0.396   6.574 -1.0542  0.2489  0.4404
 9076SOL    HW138687   1.728   0.407   6.568 -0.8908  1.7523  0.7306
 9076SOL    HW238688   1.844   0.388   6.666  1.0083 -0.9066 -0.1388
 9077SOL     OW38689   3.896   2.292   5.185 -0.1653 -0.4020  0.1434
 9077SOL    HW138690   3.939   2.375   5.204 -0.7560  0.2020 -1.1917
 9077SOL    HW238691   3.874   2.265   5.275  1.0988 -1.9489 -0.0116
 9078SOL     OW38692   1.989   4.396   8.629  0.0455  0.2389  0.0559
 9078SOL    HW138693   1.983   4.348   8.547 -2.0756 -0.3259  0.5451
 9078SOL    HW238694   1.939   4.336   8.683 -3.5776  3.2740  0.0805
 9079SOL     OW38695   3.650   2.189   2.100  0.4108  0.0844  0.1107
 9079SOL    HW138696   3.633   2.166   2.009 -2.6411  0.3261  0.6132
 9079SOL    HW238697   3.564   2.222   2.128  1.4447  2.5226  0.4233
 9080SOL     OW38698   2.050   1.708  12.640  0.7318  0.0929  0.6351
 9080SOL    HW138699   2.006   1.790  12.620 -0.7043 -0.5506  1.1507
 9080SOL    HW238700   1.973   1.655  12.662  1.1885 -1.8153 -2.3986
 9081SOL     OW38701   2.181   3.034   9.991 -0.6945 -0.0678  0.9932
 9081SOL    HW138702   2.222   3.080  10.065  1.6450  0.2017 -0.4750
 9081SOL    HW238703   2.249   2.971   9.968  1.2335  2.3744  0.0076
 9082SOL     OW38704   4.560   0.978   5.676  0.6943  0.5825 -0.5050
 9082SOL    HW138705   4.556   0.958   5.583  2.4746 -0.9427 -0.2525
 9082SOL    HW238706   4.647   0.950   5.705  0.2439 -2.1896 -1.7641
 9083SOL     OW38707   1.233   0.299   3.313 -0.3242 -0.1540 -0.6565
 9083SOL    HW138708   1.228   0.371   3.376 -0.8272 -0.3330 -0.4868
 9083SOL    HW238709   1.144   0.264   3.317 -0.1192 -0.9205 -3.2089
 9084SOL     OW38710   4.530   1.383   4.177 -0.0957  0.7344  0.3508
 9084SOL    HW138711   4.488   1.401   4.093  0.8489  3.0279  0.3720
 9084SOL    HW238712   4.615   1.424   4.159  1.2761 -1.5840  1.4311
 9085SOL     OW38713   0.160   0.660  10.066 -0.0743 -0.0929  0.0341
 9085SOL    HW138714   0.198   0.577  10.091  1.0710  0.7064  0.9284
 9085SOL    HW238715   0.120   0.691  10.147  1.2241 -0.3685  0.7835
 9086SOL     OW38716   2.901   2.552   6.286  0.6762  0.0109  0.4568
 9086SOL    HW138717   2.911   2.521   6.376  0.2195 -0.2911  0.3991
 9086SOL    HW238718   2.813   2.588   6.281  0.7857  0.3768  1.0438
 9087SOL     OW38719   3.379   2.177   8.016 -0.5753 -0.2829 -0.1564
 9087SOL    HW138720   3.464   2.152   8.051 -0.6069 -0.1722 -0.0019
 9087SOL    HW238721   3.343   2.103   7.966 -0.1804 -0.4484 -0.1950
 9088SOL     OW38722   1.937   0.234   7.764 -0.0190  0.1431  1.2580
 9088SOL    HW138723   1.970   0.242   7.854  0.8618  0.5362  0.9085
 9088SOL    HW238724   1.987   0.298   7.713  1.5451 -0.7615  1.6248
 9089SOL     OW38725   1.104   2.750   0.546 -0.4663 -0.5710 -0.1460
 9089SOL    HW138726   1.162   2.772   0.473  1.7963  0.7176  2.0551
 9089SOL    HW238727   1.075   2.834   0.580 -1.0674 -0.8074 -0.0846
 9090SOL     OW38728   4.134   0.690  15.118 -0.3101 -0.1704 -0.2939
 9090SOL    HW138729   4.207   0.637  15.084 -0.2772 -2.3573  3.1075
 9090SOL    HW238730   4.092   0.631  15.181  1.1189 -1.1929 -0.2695
 9091SOL     OW38731   2.911   0.926  17.527 -0.1648  0.2480 -0.2932
 9091SOL    HW138732   2.915   0.853  17.590 -0.5556  0.0870 -0.4589
 9091SOL    HW238733   2.987   0.980  17.548 -0.8902  1.1103  0.0878
 9092SOL     OW38734   0.286   2.903   2.325 -0.0046 -0.9445 -0.3584
 9092SOL    HW138735   0.340   2.950   2.261  0.3562  1.1169  1.4686
 9092SOL    HW238736   0.355   2.851   2.366 -0.2771 -2.2011 -1.4645
 9093SOL     OW38737   3.174   1.304   5.012  0.4621 -0.0428  0.5240
 9093SOL    HW138738   3.173   1.248   5.089  0.1342 -1.0752 -0.2351
 9093SOL    HW238739   3.113   1.254   4.957  1.2649 -1.0332  0.5515
 9094SOL     OW38740   4.624   2.433   5.819 -0.8451  0.0228  0.1457
 9094SOL    HW138741   4.549   2.379   5.793 -0.7279  1.2592 -2.7656
 9094SOL    HW238742   4.600   2.521   5.789  0.6223 -0.1173 -1.4376
 9095SOL     OW38743   4.081   3.939   3.316  0.0428  0.5698 -0.2163
 9095SOL    HW138744   4.030   3.880   3.371  2.7847 -0.6448  1.0025
 9095SOL    HW238745   4.011   3.988   3.272 -0.5741  1.2131  1.4666
 9096SOL     OW38746   0.031   0.397   0.633  0.0026  0.5368  0.0004
 9096SOL    HW138747   4.684   0.365   0.578  0.5690  0.2520 -0.5631
 9096SOL    HW238748   0.086   0.432   0.563  1.4441 -0.7452  0.4862
 9097SOL     OW38749   1.459   3.127   6.807 -0.3261  0.1568 -0.2162
 9097SOL    HW138750   1.476   3.129   6.902 -1.1076 -0.7921 -0.0610
 9097SOL    HW238751   1.384   3.187   6.808 -0.5149 -0.0563 -2.0250
 9098SOL     OW38752   1.323   3.982  16.513  0.6888  0.2209  0.0838
 9098SOL    HW138753   1.411   4.004  16.481  2.3801 -4.7168  1.3275
 9098SOL    HW238754   1.282   3.930  16.444  1.8779  1.0582 -1.2705
 9099SOL     OW38755   4.273   1.141   7.013 -0.1832 -0.1880 -0.1953
 9099SOL    HW138756   4.253   1.172   6.925  3.3417 -2.6058 -1.8216
 9099SOL    HW238757   4.351   1.194   7.028 -0.2206 -0.5268  1.1870
 9100SOL     OW38758   4.283   1.458   2.566  0.5462 -0.3374  0.0237
 9100SOL    HW138759   4.350   1.396   2.541  1.2400  0.3746  0.1120
 9100SOL    HW238760   4.267   1.507   2.485  1.0411  0.1300  0.2052
 9101SOL     OW38761   0.546   3.691   2.121 -0.0348 -0.1453  0.1538
 9101SOL    HW138762   0.607   3.653   2.184  1.1615  1.7619  0.1661
 9101SOL    HW238763   0.527   3.775   2.164  1.8832 -0.2167  1.1201
 9102SOL     OW38764   4.551   3.250   9.853 -0.3747 -0.7957 -0.1115
 9102SOL    HW138765   4.572   3.239   9.945 -0.1723 -0.0574 -0.0625
 9102SOL    HW238766   4.609   3.178   9.827 -0.5645 -1.1107  0.3626
 9103SOL     OW38767   3.679   1.233   2.755 -0.0620  0.6231 -0.0118
 9103SOL    HW138768   3.656   1.158   2.700 -0.0924 -0.2124  1.1346
 9103SOL    HW238769   3.693   1.192   2.841 -1.5771  2.7866  1.2691
 9104SOL     OW38770   3.157   1.828  14.768 -0.1642  0.0071 -0.7219
 9104SOL    HW138771   3.171   1.736  14.745  0.1031 -0.3892  0.9899
 9104SOL    HW238772   3.245   1.854  14.797 -1.1752  1.7059  0.8001
 9105SOL     OW38773   2.937   0.764   9.016 -0.1729  0.0214  0.8553
 9105SOL    HW138774   2.918   0.852   8.983 -1.4084  0.2930  2.3100
 9105SOL    HW238775   2.957   0.722   8.933 -1.4229 -1.3939  1.2930
 9106SOL     OW38776   0.814   2.800   5.544 -0.6286 -0.1087  0.0572
 9106SOL    HW138777   0.750   2.870   5.560 -0.1112  0.9852 -2.6480
 9106SOL    HW238778   0.864   2.833   5.470  0.7622  0.5141  1.2913
 9107SOL     OW38779   4.294   0.773   1.054  0.2737  0.3832 -0.5805
 9107SOL    HW138780   4.324   0.844   0.997  0.3874 -0.2514 -1.3052
 9107SOL    HW238781   4.374   0.725   1.075  1.1284  2.0289 -0.0808
 9108SOL     OW38782   2.593   1.773   5.170 -0.0643  0.8571 -0.3645
 9108SOL    HW138783   2.593   1.821   5.252  1.0083 -1.9131  1.2712
 9108SOL    HW238784   2.668   1.716   5.185 -0.5574 -0.1381 -1.6036
 9109SOL     OW38785   0.176   0.653   4.504  0.4743  0.1293 -0.1351
 9109SOL    HW138786   0.226   0.683   4.428  0.1006 -1.0830 -0.8510
 9109SOL    HW238787   0.090   0.636   4.465  0.2480  0.1846  0.3413
 9110SOL     OW38788   3.391   2.937   0.393  0.7172 -0.4183  0.3529
 9110SOL    HW138789   3.462   2.902   0.341  0.5709  2.0439 -1.5248
 9110SOL    HW238790   3.360   2.994   0.322 -0.0052 -1.1301  0.1029
 9111SOL     OW38791   1.790   2.212  13.844  0.4422 -0.3755 -0.0051
 9111SOL    HW138792   1.881   2.216  13.815  0.6857  3.8449  1.2540
 9111SOL    HW238793   1.773   2.304  13.824  2.2215  0.6111  3.1131
 9112SOL     OW38794   2.413   3.176   1.956  0.0714  0.3841  0.0249
 9112SOL    HW138795   2.390   3.108   1.894 -2.4933  2.1801 -1.0123
 9112SOL    HW238796   2.413   3.135   2.043  2.6391  0.8121  0.2081
 9113SOL     OW38797   0.779   4.351   3.112  0.4130 -0.2500  0.1228
 9113SOL    HW138798   0.715   4.334   3.181 -1.3539  2.9773 -0.7346
 9113SOL    HW238799   0.845   4.407   3.154  1.4273 -2.3064  1.3130
 9114SOL     OW38800   3.768   1.922  17.600 -0.1177 -0.0491  0.1299
 9114SOL    HW138801   3.725   2.007  17.601 -1.5191 -0.7274 -2.5205
 9114SOL    HW238802   3.693   1.871  17.572  0.9217 -0.3469 -2.1522
 9115SOL     OW38803   3.134   1.107   8.916  0.2125 -0.2669  0.0054
 9115SOL    HW138804   3.192   1.047   8.963 -0.7758 -1.6431 -0.5401
 9115SOL    HW238805   3.191   1.184   8.907  0.0378 -0.0724  0.5521
 9116SOL     OW38806   3.519   1.303  16.235  0.6826 -0.1873  0.1605
 9116SOL    HW138807   3.575   1.365  16.282 -1.2930  1.4283  0.3960
 9116SOL    HW238808   3.576   1.226  16.233  1.2246  0.2321 -0.5741
 9117SOL     OW38809   0.857   0.603   2.559  0.0586  0.4913  0.0004
 9117SOL    HW138810   0.863   0.538   2.490 -0.5462 -0.3172  0.7121
 9117SOL    HW238811   0.938   0.581   2.605 -0.7519  0.8325  1.6267
 9118SOL     OW38812   0.932   2.512   6.554  0.4940  0.5668 -0.9170
 9118SOL    HW138813   0.927   2.595   6.506  0.0534 -0.1873 -2.1512
 9118SOL    HW238814   1.026   2.491   6.550  0.5177  0.1004  1.6188
 9119SOL     OW38815   3.690   2.657  16.183  0.3348  0.4885 -0.1406
 9119SOL    HW138816   3.691   2.568  16.218  0.1816  0.4412 -0.2608
 9119SOL    HW238817   3.702   2.711  16.261  0.9888  1.1678 -0.7107
 9120SOL     OW38818   1.818   1.406  11.315  0.0851  0.5539 -0.8763
 9120SOL    HW138819   1.775   1.350  11.380 -0.7565 -0.4634 -2.3080
 9120SOL    HW238820   1.772   1.384  11.234 -2.1717  0.3948  0.4558
 9121SOL     OW38821   1.294   1.135   1.591  0.7290  0.0592  0.1972
 9121SOL    HW138822   1.369   1.087   1.626  0.8752 -0.3083 -0.6241
 9121SOL    HW238823   1.331   1.212   1.547 -0.7759  0.6167 -0.0998
 9122SOL     OW38824   1.498   4.027   6.265  0.0976  0.2330  0.8538
 9122SOL    HW138825   1.558   4.066   6.329 -1.3978  0.3308  2.1796
 9122SOL    HW238826   1.417   4.073   6.288 -1.6835 -2.4224 -0.1137
 9123SOL     OW38827   4.016   1.952   6.832 -0.5464 -0.1320  0.2024
 9123SOL    HW138828   3.995   1.884   6.896  0.6288  0.1898  0.9458
 9123SOL    HW238829   4.108   1.935   6.811 -0.0700  3.6939 -0.9254
 9124SOL     OW38830   3.669   3.595   5.377  0.2110 -1.0254 -0.4376
 9124SOL    HW138831   3.601   3.528   5.368 -3.0717  1.8343  3.2390
 9124SOL    HW238832   3.621   3.658   5.430 -0.1172 -0.1005 -1.8355
 9125SOL     OW38833   4.170   0.927   5.157 -0.3988  0.5037  0.1774
 9125SOL    HW138834   4.082   0.957   5.179  0.4499  2.7586  0.4726
 9125SOL    HW238835   4.153   0.846   5.108 -0.5392  0.2530  0.6347
 9126SOL     OW38836   2.979   1.024   1.827  0.6897 -0.2970 -0.0395
 9126SOL    HW138837   3.040   0.951   1.815 -0.0335 -0.4220 -3.0171
 9126SOL    HW238838   2.892   0.985   1.828 -0.0518  1.3849  0.0490
 9127SOL     OW38839   1.301   2.402   2.414 -0.5434 -0.2430  0.4116
 9127SOL    HW138840   1.211   2.372   2.422 -1.5743  1.7895 -3.6682
 9127SOL    HW238841   1.321   2.384   2.506  0.3606 -0.5571  0.1563
 9128SOL     OW38842   0.072   2.041   1.342 -0.4385 -0.1258 -0.8128
 9128SOL    HW138843   0.119   2.068   1.263  0.1156 -1.9176 -1.1011
 9128SOL    HW238844   0.029   2.124   1.357 -0.3988 -0.2217 -0.1707
 9129SOL     OW38845   2.543   2.130   3.680  0.6970 -0.9382 -0.0886
 9129SOL    HW138846   2.584   2.049   3.648 -1.3527 -0.8006 -3.0719
 9129SOL    HW238847   2.626   2.174   3.700  0.1375  0.8142 -1.6605
 9130SOL     OW38848   2.878   1.443   7.721  0.0457 -0.5736 -0.5601
 9130SOL    HW138849   2.885   1.349   7.708  1.0411 -0.6172  0.3191
 9130SOL    HW238850   2.792   1.454   7.680 -0.5293 -0.9052  0.5624
 9131SOL     OW38851   1.492   1.015   2.747 -0.5140 -0.4044 -0.1255
 9131SOL    HW138852   1.475   1.072   2.822  0.8710 -0.8582  0.5386
 9131SOL    HW238853   1.488   0.934   2.797 -0.5779 -1.0188 -1.1332
 9132SOL     OW38854   3.789   1.423  14.025 -0.1974 -0.1468  0.0479
 9132SOL    HW138855   3.807   1.357  13.959 -0.2914  0.0585 -0.1832
 9132SOL    HW238856   3.848   1.397  14.096  1.4497 -0.3543 -1.4257
 9133SOL     OW38857   1.409   1.116  11.323 -0.5749 -0.1592 -0.0791
 9133SOL    HW138858   1.469   1.057  11.367  0.6260 -1.5260 -3.5449
 9133SOL    HW238859   1.333   1.111  11.380 -0.1690  0.0926  0.4795
 9134SOL     OW38860   1.380   3.231   8.183 -0.0393 -0.0678  0.2456
 9134SOL    HW138861   1.427   3.313   8.199  1.8385 -0.7894 -1.5699
 9134SOL    HW238862   1.451   3.170   8.204 -0.6182 -1.0788 -0.7467
 9135SOL     OW38863   3.602   1.481   8.454  0.1058  0.1706 -0.1561
 9135SOL    HW138864   3.567   1.492   8.542 -0.8049 -0.6505 -0.4203
 9135SOL    HW238865   3.674   1.419   8.462  0.3417  0.7544  2.2809
 9136SOL     OW38866   0.023   3.440  15.191  0.0763  0.2873 -0.7507
 9136SOL    HW138867   0.012   3.358  15.145 -0.0950  0.0640 -0.3137
 9136SOL    HW238868   0.066   3.410  15.271 -0.1285  0.6285 -0.5109
 9137SOL     OW38869   0.761   3.977   9.389 -0.0332  0.3100  0.5073
 9137SOL    HW138870   0.813   3.972   9.308 -1.9739  0.8338 -0.7879
 9137SOL    HW238871   0.801   3.917   9.452 -1.0921 -0.4112  0.4781
 9138SOL     OW38872   0.594   3.349   3.743  0.6599  0.4434  0.2539
 9138SOL    HW138873   0.501   3.337   3.725  1.0213 -0.2522 -1.2161
 9138SOL    HW238874   0.618   3.426   3.691 -1.8009  0.0962 -1.3707
 9139SOL     OW38875   4.043   2.138   7.661 -0.3820  0.0102  0.5784
 9139SOL    HW138876   3.997   2.059   7.631 -1.8811  1.0574  0.1678
 9139SOL    HW238877   4.125   2.097   7.688  1.1840  1.2337 -2.4636
 9140SOL     OW38878   2.140   0.572   7.311 -0.2667 -0.0823 -0.0165
 9140SOL    HW138879   2.082   0.591   7.237  0.3233  1.2639 -0.1181
 9140SOL    HW238880   2.079   0.568   7.385 -1.9139 -0.2797 -1.3791
 9141SOL     OW38881   3.514   3.032   7.232 -0.8709  0.2539  0.4674
 9141SOL    HW138882   3.503   2.947   7.190 -3.0997 -0.4308  2.4323
 9141SOL    HW238883   3.604   3.047   7.203 -1.0281 -1.3086 -0.8233
 9142SOL     OW38884   0.748   3.686   6.034  0.2202 -0.0413 -0.2329
 9142SOL    HW138885   0.773   3.605   6.079 -2.8643 -1.3221 -0.8366
 9142SOL    HW238886   0.834   3.727   6.020  0.2157  0.1586  0.3241
 9143SOL     OW38887   1.946   0.940   4.150  0.1013 -0.1269  0.0989
 9143SOL    HW138888   1.870   0.883   4.141  0.9484 -1.1620 -0.6009
 9143SOL    HW238889   1.914   1.013   4.097  0.4524 -0.1174 -0.1060
 9144SOL     OW38890   0.683   3.792   1.798 -0.4373 -0.3673  0.9399
 9144SOL    HW138891   0.629   3.724   1.838 -1.4281 -0.9673 -1.3790
 9144SOL    HW238892   0.765   3.742   1.790 -1.1115 -1.5840  1.6382
 9145SOL     OW38893   2.408   1.369  11.660 -0.1598  0.5678  0.8585
 9145SOL    HW138894   2.406   1.275  11.639  1.7146  0.4142  1.3810
 9145SOL    HW238895   2.502   1.378  11.674  0.3062 -0.3398 -1.6064
 9146SOL     OW38896   1.134   3.560  17.156  0.5857 -0.0008 -0.1590
 9146SOL    HW138897   1.175   3.475  17.174 -0.7110 -1.0799 -2.3185
 9146SOL    HW238898   1.104   3.548  17.066 -1.5603 -1.2285  0.7001
 9147SOL     OW38899   2.366   0.285   4.539 -0.2956  0.2520  0.0462
 9147SOL    HW138900   2.412   0.361   4.505  0.3258 -0.2962 -0.3406
 9147SOL    HW238901   2.340   0.326   4.621  1.0434  0.2622  0.4672
 9148SOL     OW38902   3.381   1.295   5.652 -0.6168 -0.4134 -0.5222
 9148SOL    HW138903   3.466   1.262   5.622 -0.3894  0.8951 -1.3178
 9148SOL    HW238904   3.345   1.223   5.703  1.4622  0.4170  2.1284
 9149SOL     OW38905   2.469   3.329   8.164  0.1647 -1.0422 -0.8808
 9149SOL    HW138906   2.435   3.319   8.253  0.7710  0.6412 -0.4696
 9149SOL    HW238907   2.406   3.386   8.121 -1.1866 -1.6418  0.3069
 9150SOL     OW38908   4.243   1.249   6.744  0.4021  0.0281 -0.1404
 9150SOL    HW138909   4.275   1.196   6.670  0.6788  0.2738 -0.1990
 9150SOL    HW238910   4.285   1.334   6.728  0.6833  0.0028  0.4945
 9151SOL     OW38911   1.892   1.124   2.391  0.3406 -0.5464  0.1779
 9151SOL    HW138912   1.892   1.216   2.365  1.5386 -0.6795 -0.2838
 9151SOL    HW238913   1.812   1.116   2.443 -1.6198  2.3149 -2.3595
 9152SOL     OW38914   4.432   3.445  15.150 -0.0756  0.3452 -0.2216
 9152SOL    HW138915   4.353   3.390  15.154  1.8365 -2.2732  2.0649
 9152SOL    HW238916   4.431   3.475  15.241  0.9064 -1.2223  0.3151
 9153SOL     OW38917   3.705   2.695   7.323 -0.4598  0.3699 -0.0778
 9153SOL    HW138918   3.726   2.765   7.384  0.8131  1.4686 -1.7679
 9153SOL    HW238919   3.726   2.615   7.371  0.5455  0.3266 -0.5762
 9154SOL     OW38920   2.515   2.377   3.402  0.3880  0.2690 -0.3694
 9154SOL    HW138921   2.536   2.378   3.309  0.1503 -2.0741 -0.4306
 9154SOL    HW238922   2.601   2.356   3.438  0.1030 -2.6104 -1.3860
 9155SOL     OW38923   1.743   4.612   2.538 -0.3511  0.4401  0.1219
 9155SOL    HW138924   1.774   4.702   2.525  0.2098  0.0263 -1.4107
 9155SOL    HW238925   1.719   4.621   2.630  0.5532  3.8639  0.0181
 9156SOL     OW38926   4.494   2.480  15.654 -0.1698  0.2466 -0.1999
 9156SOL    HW138927   4.586   2.503  15.643 -0.4145  0.7573 -1.1349
 9156SOL    HW238928   4.469   2.502  15.565 -2.4187  2.7447  1.0430
 9157SOL     OW38929   2.650   3.996   5.751  0.2814  0.3030  0.6700
 9157SOL    HW138930   2.613   3.908   5.751 -2.7840  1.6342 -1.2800
 9157SOL    HW238931   2.682   4.007   5.662  0.6022  1.2607  0.9068
 9158SOL     OW38932   3.180   1.713   9.299 -0.3825 -0.0198 -0.1337
 9158SOL    HW138933   3.100   1.764   9.283  0.3740  0.3848 -2.6125
 9158SOL    HW238934   3.230   1.719   9.218  1.6193 -1.0281  1.0469
 9159SOL     OW38935   0.299   2.693  15.500 -0.1890  0.2654 -0.0428
 9159SOL    HW138936   0.346   2.659  15.577 -3.1477 -1.6113  0.9199
 9159SOL    HW238937   0.295   2.785  15.527 -1.6726  0.1282  0.2120
 9160SOL     OW38938   2.363   4.102   5.052 -0.0798  0.3272 -0.5300
 9160SOL    HW138939   2.269   4.122   5.053 -0.5775 -2.0775  3.9621
 9160SOL    HW238940   2.355   4.007   5.058 -0.9535  0.5142  1.1174
 9161SOL     OW38941   0.467   2.155  12.277  0.6499  0.2952  0.2785
 9161SOL    HW138942   0.403   2.217  12.311  2.5418  1.2546  2.0748
 9161SOL    HW238943   0.458   2.089  12.346  0.2850  1.0554  0.9683
 9162SOL     OW38944   1.196   0.614   0.612 -0.3261  0.4543 -0.4029
 9162SOL    HW138945   1.126   0.593   0.550 -0.5665 -0.5802  0.2271
 9162SOL    HW238946   1.148   0.672   0.670 -0.5937 -1.1951  1.0149
 9163SOL     OW38947   0.827   4.017   6.999  0.5235 -0.1800  0.6008
 9163SOL    HW138948   0.919   3.996   6.984  0.3207 -0.3456 -0.4546
 9163SOL    HW238949   0.811   3.966   7.079  0.2692  0.9471  1.2750
 9164SOL     OW38950   0.960   4.343   0.030 -0.1089  0.6643  0.7167
 9164SOL    HW138951   1.051   4.358   0.059  0.4034 -1.2119  0.0616
 9164SOL    HW238952   0.937   4.434   0.011  1.9289  1.1133  0.4033
 9165SOL     OW38953   0.172   1.582  14.816 -0.0796  0.0844  0.0373
 9165SOL    HW138954   0.152   1.543  14.901 -1.0547  2.5127  0.9168
 9165SOL    HW238955   0.263   1.599  14.838 -0.2508  1.0242  0.0044
 9166SOL     OW38956   1.701   1.240  16.947 -0.0912 -0.3766 -0.3748
 9166SOL    HW138957   1.698   1.282  17.033 -2.9416  0.9439 -1.1259
 9166SOL    HW238958   1.795   1.221  16.946 -0.0315 -0.0494 -0.8258
 9167SOL     OW38959   3.535   1.797  17.475  0.7428  0.0449  0.2036
 9167SOL    HW138960   3.557   1.716  17.521  2.1026  0.4267  0.2115
 9167SOL    HW238961   3.442   1.819  17.487  0.4958 -0.2524 -1.1954
 9168SOL     OW38962   0.048   0.974  12.344 -0.1755 -0.0943 -0.0266
 9168SOL    HW138963   4.688   1.020  12.348 -0.9189 -1.4687  0.2359
 9168SOL    HW238964   0.087   1.015  12.267 -0.4209  1.1432  0.5001
 9169SOL     OW38965   0.399   4.111   4.130 -0.7088  0.1351  0.1383
 9169SOL    HW138966   0.475   4.158   4.096  0.7696 -0.2479  2.8800
 9169SOL    HW238967   0.385   4.151   4.216 -0.2723  0.3909  0.0916
 9170SOL     OW38968   3.480   2.651   0.559 -0.4018 -0.9160 -0.5865
 9170SOL    HW138969   3.478   2.731   0.506  2.3047 -0.2044  0.3611
 9170SOL    HW238970   3.442   2.700   0.631  1.5267  0.7750 -0.6870
 9171SOL     OW38971   4.599   0.483   3.114  0.2597  0.2955 -0.2068
 9171SOL    HW138972   4.531   0.549   3.124 -0.4208 -0.1402 -2.1181
 9171SOL    HW238973   4.551   0.401   3.116  2.3468 -0.8476  3.1321
 9172SOL     OW38974   2.721   3.255   7.930  0.8791  0.3179 -0.8531
 9172SOL    HW138975   2.652   3.211   7.881 -1.5641  1.3348  1.6642
 9172SOL    HW238976   2.797   3.253   7.873  3.1813  3.2190  2.1188
 9173SOL     OW38977   0.535   4.526   6.077  0.0000 -0.3316 -0.4818
 9173SOL    HW138978   0.493   4.490   5.998  0.1508 -1.4215 -0.0586
 9173SOL    HW238979   0.463   4.562   6.129  0.9010  0.2085  0.3699
 9174SOL     OW38980   4.630   3.214   4.243 -0.4777  0.3930 -0.1132
 9174SOL    HW138981   4.581   3.287   4.205  0.2388 -0.6726 -3.0979
 9174SOL    HW238982   4.693   3.262   4.296 -4.0410  2.0945  2.5479
 9175SOL     OW38983   4.390   3.268   3.178  0.0988  0.0505 -0.2312
 9175SOL    HW138984   4.329   3.328   3.133  0.6662 -0.7554 -2.0591
 9175SOL    HW238985   4.438   3.332   3.230 -1.4291 -0.2148  1.5339
 9176SOL     OW38986   1.581   0.435   5.863 -0.2915  0.4013 -0.2425
 9176SOL    HW138987   1.635   0.394   5.795 -0.5024 -1.2271  0.5549
 9176SOL    HW238988   1.586   0.363   5.927  1.9358  0.1527 -0.6719
 9177SOL     OW38989   4.535   1.744   4.752  0.0061 -0.2060 -0.3525
 9177SOL    HW138990   4.566   1.808   4.815 -1.6718 -0.2900  0.5597
 9177SOL    HW238991   4.598   1.674   4.767  0.3450  0.8838  3.1607
 9178SOL     OW38992   4.312   2.090   7.758  0.7666 -0.1040  0.1460
 9178SOL    HW138993   4.307   1.994   7.761  0.7725 -0.1372 -0.9710
 9178SOL    HW238994   4.400   2.106   7.724  1.2772 -2.5167  0.3476
 9179SOL     OW38995   1.542   1.505   7.974  0.3549  0.2553 -0.5771
 9179SOL    HW138996   1.545   1.499   7.879 -2.7570 -4.1224 -0.3616
 9179SOL    HW238997   1.613   1.569   7.986 -0.7092  1.2495  0.4936
 9180SOL     OW38998   3.144   3.009   5.531  0.6171  0.3659 -0.0422
 9180SOL    HW138999   3.199   3.045   5.601  0.3938  0.2944  0.1684
 9180SOL    HW239000   3.057   3.036   5.563 -0.2643 -1.6540 -0.7692
 9181SOL     OW39001   3.303   4.024   2.118  0.6139  0.3994 -0.1576
 9181SOL    HW139002   3.219   4.052   2.082  0.6727  0.3134 -0.3596
 9181SOL    HW239003   3.356   4.009   2.040  0.9023 -0.9556  0.3021
 9182SOL     OW39004   4.668   2.686  14.501 -0.5885 -0.0900  0.0739
 9182SOL    HW139005   4.631   2.738  14.429  0.2262  1.9265  1.1151
 9182SOL    HW239006   0.022   2.740  14.514 -1.0640  0.9008 -1.1338
 9183SOL     OW39007   2.704   3.198   7.571  0.6080 -0.0941  0.5232
 9183SOL    HW139008   2.774   3.191   7.636  1.7034 -0.1742 -0.6638
 9183SOL    HW239009   2.641   3.136   7.609 -1.2654  1.6848  0.2874
 9184SOL     OW39010   0.701   0.241   2.511 -0.1809 -0.1614 -0.2234
 9184SOL    HW139011   0.629   0.189   2.476 -0.3878 -1.1638  1.7052
 9184SOL    HW239012   0.734   0.288   2.434 -0.5002  1.3737  0.5747
 9185SOL     OW39013   3.505   1.937   2.271  0.7034 -0.5240  0.0908
 9185SOL    HW139014   3.456   2.018   2.263 -1.8223 -2.1981 -1.5758
 9185SOL    HW239015   3.499   1.902   2.182 -0.0173  1.5540 -0.6709
 9186SOL     OW39016   2.662   4.608   0.668  0.3107 -0.1512 -0.5726
 9186SOL    HW139017   2.575   4.580   0.638 -0.1975 -0.2432  1.0133
 9186SOL    HW239018   2.635   4.618   0.759  0.5700 -0.7600 -0.4285
 9187SOL     OW39019   2.076   3.532   6.317 -0.4703  0.2589 -0.4989
 9187SOL    HW139020   2.066   3.530   6.412  2.1681  1.6638 -0.1713
 9187SOL    HW239021   2.171   3.520   6.314 -0.5259 -0.0444 -1.1962
 9188SOL     OW39022   3.260   0.786   3.584 -0.1848 -0.8446  0.1386
 9188SOL    HW139023   3.244   0.872   3.545  0.5086 -0.5597  0.4914
 9188SOL    HW239024   3.183   0.774   3.640 -0.3389  0.1766  0.1325
 9189SOL     OW39025   2.341   4.265   5.386 -0.4625  0.4751  0.8959
 9189SOL    HW139026   2.318   4.357   5.371  1.3671  0.4634 -1.8729
 9189SOL    HW239027   2.352   4.261   5.481 -0.4072 -0.0662  0.8677
 9190SOL     OW39028   0.879   4.272   5.659  0.0387  0.1499 -0.2934
 9190SOL    HW139029   0.877   4.364   5.633 -0.9445  0.0566 -0.5212
 9190SOL    HW239030   0.817   4.237   5.596  0.9870  1.6914 -2.0688
 9191SOL     OW39031   4.213   0.317   0.542  0.1572 -0.0428  0.0770
 9191SOL    HW139032   4.137   0.270   0.576  0.7156 -1.8565 -1.1418
 9191SOL    HW239033   4.280   0.252   0.565  0.7016  0.3495 -0.4036
 9192SOL     OW39034   0.920   3.145   3.641  0.2927  0.0370 -0.4719
 9192SOL    HW139035   0.982   3.088   3.594 -0.5342 -0.8908 -0.4282
 9192SOL    HW239036   0.844   3.146   3.583  0.3528 -1.1551 -0.5682
 9193SOL     OW39037   1.637   1.960   3.503  0.1682  0.0504 -0.0887
 9193SOL    HW139038   1.648   2.053   3.485 -0.3854  0.2026  0.3404
 9193SOL    HW239039   1.600   1.933   3.419  1.2656  1.4372 -1.0055
 9194SOL     OW39040   0.684   2.024   8.619  0.0257 -0.6110  0.2038
 9194SOL    HW139041   0.642   2.009   8.703  0.1069 -2.5973 -0.1120
 9194SOL    HW239042   0.605   2.056   8.574 -1.0822  0.1209  2.6461
 9195SOL     OW39043   2.887   2.859   2.683 -0.2901 -0.5353  0.0258
 9195SOL    HW139044   2.899   2.952   2.704  1.4059 -0.8148  0.2668
 9195SOL    HW239045   2.796   2.851   2.711  0.0831  0.9680  1.7443
 9196SOL     OW39046   0.280   4.598   6.185 -0.1109 -0.4544  0.0852
 9196SOL    HW139047   0.309   4.677   6.231  1.1528 -0.7439 -0.2045
 9196SOL    HW239048   0.186   4.608   6.201 -0.2195  0.5946 -1.2365
 9197SOL     OW39049   0.269   3.388   7.117 -0.9984  0.3311  0.4920
 9197SOL    HW139050   0.295   3.476   7.146 -0.6763  0.6029 -0.6181
 9197SOL    HW239051   0.330   3.341   7.174  1.8597  1.5250 -1.5346
 9198SOL     OW39052   3.903   4.303  15.846 -0.1529  0.5663 -0.9644
 9198SOL    HW139053   3.987   4.348  15.851  0.5250 -0.6219 -1.6120
 9198SOL    HW239054   3.906   4.260  15.932  0.2578  0.8290 -0.8487
 9199SOL     OW39055   3.974   4.246   7.749  0.0543  0.1922  0.2221
 9199SOL    HW139056   3.969   4.151   7.758 -0.7870  0.0307 -1.8056
 9199SOL    HW239057   4.043   4.257   7.684 -0.4373 -0.7701 -0.4672
 9200SOL     OW39058   2.956   4.546   6.930 -0.6159 -0.5876 -0.1474
 9200SOL    HW139059   3.022   4.529   6.997  0.7633 -1.2231 -1.6505
 9200SOL    HW239060   2.966   4.641   6.925 -2.8171 -0.5266 -3.7909
 9201SOL     OW39061   3.575   0.869   7.418 -0.5353  0.2436  0.4097
 9201SOL    HW139062   3.577   0.922   7.498 -2.2635 -0.6787  1.0758
 9201SOL    HW239063   3.617   0.926   7.353  1.8058 -0.1061  1.6454
 9202SOL     OW39064   0.993   2.504   7.623 -0.6561 -0.1496  0.1983
 9202SOL    HW139065   0.898   2.518   7.629 -0.1750  2.3392  1.7190
 9202SOL    HW239066   1.031   2.591   7.623  1.8795 -1.2607 -0.8048
 9203SOL     OW39067   0.674   1.779   1.777  0.1931 -0.4456 -0.5891
 9203SOL    HW139068   0.713   1.864   1.755 -2.0278 -0.1203 -3.2776
 9203SOL    HW239069   0.754   1.738   1.811  0.9217  0.8757 -0.7279
 9204SOL     OW39070   3.615   1.179   4.430  0.2989  0.2393 -0.7445
 9204SOL    HW139071   3.558   1.246   4.468 -1.7381 -1.0569 -1.5073
 9204SOL    HW239072   3.692   1.235   4.428 -0.0960  0.8154 -0.1339
 9205SOL     OW39073   3.576   2.252   7.259 -0.1168 -0.2132 -0.2823
 9205SOL    HW139074   3.490   2.281   7.230 -0.7712  0.7811  2.6426
 9205SOL    HW239075   3.618   2.267   7.174 -1.2136  1.0243 -0.6033
 9206SOL     OW39076   4.154   0.934   5.926  0.2833 -0.0480 -0.8884
 9206SOL    HW139077   4.193   0.948   5.840  0.2383 -1.5433 -1.1594
 9206SOL    HW239078   4.063   0.963   5.914  0.2361  0.6417  1.1396
 9207SOL     OW39079   0.301   4.128   9.723 -0.9069  0.2650  0.6354
 9207SOL    HW139080   0.214   4.152   9.690  0.3022  2.9907 -0.5787
 9207SOL    HW239081   0.281   4.081   9.804  2.5308  2.0203  2.4847
 9208SOL     OW39082   0.120   1.598  10.128  0.5230 -0.4043 -0.4395
 9208SOL    HW139083   0.197   1.631  10.175 -1.6598  2.2606  1.2726
 9208SOL    HW239084   0.163   1.531  10.075  0.2793 -1.6807  0.9719
 9209SOL     OW39085   0.529   1.959   3.404  0.1966 -0.2540  0.0721
 9209SOL    HW139086   0.524   1.923   3.493 -1.9278 -0.4933 -0.1462
 9209SOL    HW239087   0.487   1.893   3.349  0.0756  0.9478 -1.2763
 9210SOL     OW39088   3.772   2.117   3.224 -0.1650 -0.5458  0.2974
 9210SOL    HW139089   3.728   2.051   3.278 -1.1449 -1.3180 -1.4716
 9210SOL    HW239090   3.726   2.195   3.254  1.3004  0.2548  0.4991
 9211SOL     OW39091   0.342   2.634  15.760 -0.1806 -0.2673  0.1884
 9211SOL    HW139092   0.343   2.701  15.829  0.9365  0.3850 -0.4473
 9211SOL    HW239093   0.372   2.557  15.808 -1.0543 -1.0483 -0.5481
 9212SOL     OW39094   0.790   1.055   1.211  0.1442 -0.7117 -0.1453
 9212SOL    HW139095   0.788   1.037   1.305 -1.8443 -1.4497 -0.3075
 9212SOL    HW239096   0.814   0.967   1.181 -0.4548 -0.9066 -0.0685
 9213SOL     OW39097   0.319   4.308   9.487  0.4231 -0.6836 -0.2101
 9213SOL    HW139098   0.245   4.337   9.433  0.9984 -0.9056 -1.0957
 9213SOL    HW239099   0.306   4.216   9.464 -0.3605 -0.4854 -0.5725
 9214SOL     OW39100   3.202   3.524  14.599 -0.5605  0.5306  0.2988
 9214SOL    HW139101   3.186   3.572  14.518 -3.0083 -0.2088  0.3423
 9214SOL    HW239102   3.179   3.432  14.584 -0.3552  0.4892  0.2462
 9215SOL     OW39103   3.585   3.204   0.358  0.6607 -0.3587 -0.3266
 9215SOL    HW139104   3.607   3.130   0.302  1.9222  0.1685 -0.5348
 9215SOL    HW239105   3.670   3.247   0.358  0.2113  0.5274  0.2842
 9216SOL     OW39106   2.198   3.142   3.385  0.1512 -0.2131  0.5042
 9216SOL    HW139107   2.138   3.216   3.387 -0.7564 -0.9508  0.4285
 9216SOL    HW239108   2.269   3.166   3.325  0.9087  0.4878  1.6752
 9217SOL     OW39109   0.003   1.722   9.316 -0.2933 -0.4616  0.3104
 9217SOL    HW139110   0.048   1.774   9.382 -0.3111  0.5932 -0.4921
 9217SOL    HW239111   4.643   1.768   9.320  0.0473  0.5355 -3.0894
 9218SOL     OW39112   2.542   2.513   1.527 -0.6372 -0.2959 -0.5085
 9218SOL    HW139113   2.526   2.586   1.468 -1.3170  0.4519  0.6156
 9218SOL    HW239114   2.557   2.438   1.469  3.1379 -1.0735  1.4420
 9219SOL     OW39115   4.624   0.481   1.532  0.3499  0.0524 -0.6739
 9219SOL    HW139116   4.598   0.424   1.460  0.7585  1.3120 -1.8126
 9219SOL    HW239117   4.645   0.411   1.593 -1.2526  0.9032  0.8367
 9220SOL     OW39118   3.518   3.484   8.082 -0.0584  0.1315 -0.2246
 9220SOL    HW139119   3.440   3.451   8.127 -1.0662 -0.9582 -2.7508
 9220SOL    HW239120   3.586   3.425   8.114  1.1124  0.8602 -1.3533
 9221SOL     OW39121   2.866   0.335   8.449  0.3646 -0.4664  0.4369
 9221SOL    HW139122   2.879   0.424   8.417 -1.8404  0.0956  1.0974
 9221SOL    HW239123   2.950   0.310   8.488 -0.3657  0.1973  2.4277
 9222SOL     OW39124   2.150   2.715  11.937 -0.1568  0.1474  0.1760
 9222SOL    HW139125   2.133   2.720  12.031 -0.2526  2.5438  0.0407
 9222SOL    HW239126   2.082   2.781  11.924 -0.3758 -0.1055  0.0400
 9223SOL     OW39127   1.472   1.427  13.417  0.0132 -0.5561  0.2704
 9223SOL    HW139128   1.389   1.379  13.411  0.6662 -1.8474  1.5264
 9223SOL    HW239129   1.531   1.380  13.358 -1.9511 -1.8742 -0.6445
 9224SOL     OW39130   0.757   1.245   5.648 -0.0370  0.5831  0.4957
 9224SOL    HW139131   0.814   1.306   5.601  0.1429  0.9809  1.2190
 9224SOL    HW239132   0.682   1.244   5.589 -0.3750 -0.3450  0.9342
 9225SOL     OW39133   2.998   1.753   5.203 -0.1265 -0.4841 -0.6456
 9225SOL    HW139134   2.980   1.838   5.163  0.0286 -0.4288 -0.6010
 9225SOL    HW239135   2.909   1.723   5.220  0.3501 -1.0444  0.8940
 9226SOL     OW39136   2.447   3.630   1.792 -0.2543 -1.0118  0.3139
 9226SOL    HW139137   2.455   3.704   1.852  1.0959 -1.4253  0.6417
 9226SOL    HW239138   2.459   3.566   1.862  0.3679 -0.1427  0.9957
 9227SOL     OW39139   3.900   2.216  10.347 -0.5077  0.2457 -0.2174
 9227SOL    HW139140   3.974   2.238  10.403 -0.6270  0.0292  0.0262
 9227SOL    HW239141   3.952   2.168  10.283 -2.2574  1.3954 -2.5091
 9228SOL     OW39142   3.233   4.304   0.354 -0.4713 -0.1163  0.2966
 9228SOL    HW139143   3.322   4.297   0.388  0.2074  0.7958 -1.3052
 9228SOL    HW239144   3.222   4.398   0.361  3.4882  0.2071  1.8410
 9229SOL     OW39145   0.285   1.278   8.589  0.0293 -0.5018 -0.2307
 9229SOL    HW139146   0.199   1.280   8.548  0.3790 -1.4216 -1.0061
 9229SOL    HW239147   0.283   1.361   8.636  1.0609 -0.0499 -0.9885
 9230SOL     OW39148   4.442   2.505   9.697 -0.4560 -0.3806 -0.2198
 9230SOL    HW139149   4.518   2.463   9.738  0.6684  1.2993 -0.5948
 9230SOL    HW239150   4.372   2.488   9.761 -1.0217  1.0318 -0.4630
 9231SOL     OW39151   1.067   1.538  15.868  0.4415 -0.0627  0.2215
 9231SOL    HW139152   1.023   1.516  15.950  2.7707 -0.8424  1.2328
 9231SOL    HW239153   1.028   1.472  15.811 -0.2667  0.7806 -0.2842
 9232SOL     OW39154   0.019   2.043   4.568 -0.2218  0.0460  0.0461
 9232SOL    HW139155   0.009   2.102   4.493 -0.3358  0.9678  0.8053
 9232SOL    HW239156   0.060   1.961   4.539  0.9692  0.4233  0.6871
 9233SOL     OW39157   1.781   1.308  15.984 -0.2254 -0.6344 -0.4059
 9233SOL    HW139158   1.826   1.224  15.989  1.4185  0.2514 -0.1952
 9233SOL    HW239159   1.845   1.366  16.026 -3.3160  1.8282  0.9769
 9234SOL     OW39160   1.144   1.764   7.108  0.2526 -0.2991  0.3312
 9234SOL    HW139161   1.133   1.727   7.020  0.3340  2.2357 -0.7629
 9234SOL    HW239162   1.229   1.733   7.139  0.7634  0.0058 -0.7616
 9235SOL     OW39163   0.067   0.056   0.634 -0.2696 -0.6394  0.3470
 9235SOL    HW139164   0.160   0.034   0.640 -0.1684  0.0320  1.2257
 9235SOL    HW239165   0.067   0.148   0.609  0.2687 -0.2869  1.6662
 9236SOL     OW39166   2.994   3.866  17.401  0.0914  0.0390 -0.2168
 9236SOL    HW139167   2.963   3.781  17.370 -1.2727  0.5118 -0.1832
 9236SOL    HW239168   2.987   3.916  17.320  0.1684  1.7982  0.8736
 9237SOL     OW39169   0.298   3.832   8.673  0.3927 -0.6589 -0.2717
 9237SOL    HW139170   0.231   3.776   8.634 -0.2706  0.3578 -0.5757
 9237SOL    HW239171   0.374   3.786   8.637  0.9823 -2.7281  3.4908
 9238SOL     OW39172   2.117   0.870   1.311 -0.4473 -0.3484  0.1684
 9238SOL    HW139173   2.131   0.962   1.292 -2.8086  0.1014  0.6620
 9238SOL    HW239174   2.133   0.876   1.405 -2.5548 -1.8872  0.6176
 9239SOL     OW39175   3.891   0.039   7.338  0.4497  0.0782 -0.1352
 9239SOL    HW139176   3.918   0.124   7.302 -1.3339 -0.1289 -1.9578
 9239SOL    HW239177   3.813   0.064   7.387  1.1490  1.9115  0.0725
 9240SOL     OW39178   0.614   1.705   5.859 -0.1037  0.5014  0.4120
 9240SOL    HW139179   0.592   1.663   5.776  0.8699 -2.4323  1.6365
 9240SOL    HW239180   0.688   1.758   5.827 -0.4629  0.6484 -0.1933
 9241SOL     OW39181   1.787   3.839  12.653 -0.3239  0.0941 -0.8323
 9241SOL    HW139182   1.776   3.764  12.595 -1.5256 -1.7197  1.7199
 9241SOL    HW239183   1.757   3.911  12.598 -0.8576  0.2188 -0.3707
 9242SOL     OW39184   3.768   0.382   6.535 -0.4839 -0.7873 -0.8495
 9242SOL    HW139185   3.697   0.442   6.560  0.8733  0.3125  0.3456
 9242SOL    HW239186   3.835   0.408   6.599 -0.5786 -1.7250 -0.3706
 9243SOL     OW39187   3.625   2.489   0.700 -0.1464  0.2623  0.3018
 9243SOL    HW139188   3.702   2.492   0.643 -0.4121 -4.1076 -0.2922
 9243SOL    HW239189   3.563   2.536   0.644  1.1814  1.0052 -0.5691
 9244SOL     OW39190   1.968   2.877   9.914 -0.0434  0.4365  0.4332
 9244SOL    HW139191   2.024   2.952   9.936 -0.2866  0.2833  1.5599
 9244SOL    HW239192   1.971   2.819   9.989  0.3282 -0.6536 -0.4357
 9245SOL     OW39193   3.086   3.296   5.607  0.1020 -0.2215 -0.0588
 9245SOL    HW139194   3.072   3.302   5.701 -0.2322 -0.8596 -0.0646
 9245SOL    HW239195   2.999   3.309   5.570  0.0930  0.0412  0.0629
 9246SOL     OW39196   1.221   1.278   5.216  0.1076 -0.4501 -0.1056
 9246SOL    HW139197   1.196   1.310   5.302 -1.7379 -2.0978 -0.0333
 9246SOL    HW239198   1.259   1.360   5.183 -1.0914  1.5117  3.4029
 9247SOL     OW39199   3.665   1.536   4.710 -0.3650 -0.3653  0.1576
 9247SOL    HW139200   3.626   1.520   4.624  0.8005  1.5385 -0.7296
 9247SOL    HW239201   3.599   1.502   4.771 -0.4887  1.7786  1.1971
 9248SOL     OW39202   2.993   3.463   7.067  0.3055  0.1211 -0.8536
 9248SOL    HW139203   2.928   3.465   6.996 -1.1442  0.3050  0.4770
 9248SOL    HW239204   3.037   3.379   7.054  0.8409  0.1776  0.6352
 9249SOL     OW39205   2.413   3.504   2.227 -0.5385  0.3656 -0.2635
 9249SOL    HW139206   2.431   3.413   2.251 -1.3959  0.0648 -0.7752
 9249SOL    HW239207   2.427   3.551   2.309 -1.4698  0.7434 -0.3220
 9250SOL     OW39208   4.442   3.611   4.450 -0.2185 -0.4906  0.2444
 9250SOL    HW139209   4.405   3.613   4.539  2.4035 -1.4511  1.3435
 9250SOL    HW239210   4.525   3.656   4.467 -1.1932  0.3452  2.8804
 9251SOL     OW39211   1.707   0.300   5.658  0.1663  0.0202 -0.4211
 9251SOL    HW139212   1.794   0.319   5.623 -0.0106  1.4178 -0.1320
 9251SOL    HW239213   1.721   0.206   5.661  0.7796  0.1323  0.2054
 9252SOL     OW39214   3.249   2.812   6.016 -0.2711 -0.5487  0.3808
 9252SOL    HW139215   3.183   2.752   6.050  0.0174 -0.2347  1.5148
 9252SOL    HW239216   3.316   2.817   6.085  0.2858 -0.4497 -0.1671
 9253SOL     OW39217   4.678   0.691   6.920 -0.0702 -0.0448  0.1487
 9253SOL    HW139218   4.646   0.767   6.968 -0.9287 -0.0599 -0.3800
 9253SOL    HW239219   4.715   0.727   6.840  0.9434 -2.0934 -0.3089
 9254SOL     OW39220   2.056   0.725   0.509 -0.0959  0.1165 -0.1875
 9254SOL    HW139221   2.118   0.701   0.441 -0.4044  0.8830 -0.7273
 9254SOL    HW239222   2.081   0.656   0.571 -1.0318  0.9494  1.1307
 9255SOL     OW39223   2.975   2.153   2.424  0.4196  0.3635  0.1334
 9255SOL    HW139224   2.892   2.111   2.401 -0.7947  2.6254  0.4133
 9255SOL    HW239225   3.025   2.075   2.448 -0.3326  0.2816  1.3936
 9256SOL     OW39226   1.027   2.557   9.916 -0.1707  0.3951 -0.5602
 9256SOL    HW139227   1.058   2.639   9.878  0.4434 -0.4663 -1.9149
 9256SOL    HW239228   1.054   2.489   9.854  0.7547 -0.3936  0.6942
 9257SOL     OW39229   1.532   4.398   0.609 -0.6107  0.0668 -0.2220
 9257SOL    HW139230   1.598   4.348   0.655  1.1770  0.1620 -2.7067
 9257SOL    HW239231   1.529   4.472   0.670  1.8297  1.2487 -1.5074
 9258SOL     OW39232   1.178   4.046   4.946  0.2984  0.3866 -0.5968
 9258SOL    HW139233   1.243   4.112   4.922  0.0893 -0.4286 -3.3923
 9258SOL    HW239234   1.165   4.066   5.039  0.3906 -0.1140 -0.4744
 9259SOL     OW39235   1.105   3.158   7.472 -0.1733  0.3092  0.1845
 9259SOL    HW139236   1.055   3.186   7.549 -1.3478 -1.0177 -0.1111
 9259SOL    HW239237   1.196   3.175   7.495 -0.1249  1.2656 -0.6904
 9260SOL     OW39238   1.569   3.534   8.528 -0.1375  0.0215  0.0086
 9260SOL    HW139239   1.620   3.456   8.547  0.6436  1.1933  2.7611
 9260SOL    HW239240   1.482   3.499   8.546 -0.2530 -0.2268 -1.0258
 9261SOL     OW39241   2.688   0.341  17.623 -0.5111  0.1452 -0.7599
 9261SOL    HW139242   2.708   0.267  17.681 -2.0074 -0.3150 -0.8402
 9261SOL    HW239243   2.730   0.315  17.541 -1.0885  0.0866 -1.0297
 9262SOL     OW39244   2.462   1.269   1.475  0.3049  0.3827 -0.5045
 9262SOL    HW139245   2.439   1.184   1.438 -1.5353  0.2060  1.0498
 9262SOL    HW239246   2.557   1.258   1.474  0.1297 -1.3086  0.0218
 9263SOL     OW39247   4.366   2.512  13.907  0.5197  0.5723 -0.2786
 9263SOL    HW139248   4.432   2.443  13.910 -0.8047 -0.6451  0.5656
 9263SOL    HW239249   4.401   2.559  13.983 -0.3947  2.1166 -0.8013
 9264SOL     OW39250   4.645   0.765  12.968  0.6710  0.1364  0.3947
 9264SOL    HW139251   4.637   0.680  12.923 -1.4151 -0.4871  1.9757
 9264SOL    HW239252   4.710   0.807  12.911  1.1094 -1.0023  0.0469
 9265SOL     OW39253   2.457   0.933  17.305  0.3081 -0.0371  0.0347
 9265SOL    HW139254   2.517   0.953  17.376 -0.1318 -1.2587  0.7496
 9265SOL    HW239255   2.489   0.847  17.275  0.4404 -0.3045  0.9378
 9266SOL     OW39256   0.948   1.996   4.454  0.6703  0.0757 -0.0181
 9266SOL    HW139257   0.893   1.957   4.523 -0.8056  0.2019 -1.1227
 9266SOL    HW239258   0.891   1.996   4.377  1.0737 -2.2148 -0.3414
 9267SOL     OW39259   0.182   3.664   5.190  0.1520 -0.0063 -0.3785
 9267SOL    HW139260   0.200   3.668   5.096  0.7157  0.9048 -0.2301
 9267SOL    HW239261   0.228   3.742   5.221 -0.1611 -0.2515  0.6833
 9268SOL     OW39262   0.611   3.456   5.313 -0.2268 -0.4809 -0.1217
 9268SOL    HW139263   0.611   3.552   5.321  0.4000 -0.4807 -0.0785
 9268SOL    HW239264   0.520   3.433   5.294 -0.3493  0.3419 -0.5293
 9269SOL     OW39265   4.509   1.825   8.467  0.4239  0.1127 -0.3217
 9269SOL    HW139266   4.466   1.874   8.537 -0.9892 -0.7027 -0.6319
 9269SOL    HW239267   4.455   1.747   8.455 -1.2633  0.8149  2.7425
 9270SOL     OW39268   1.027   0.038   5.190 -0.4465 -0.6137  0.0590
 9270SOL    HW139269   1.035   0.077   5.277 -0.4853  0.6315 -0.5005
 9270SOL    HW239270   0.955   4.699   5.202  0.5311 -2.2821 -2.8825
 9271SOL     OW39271   3.422   1.915  10.544  0.6778  0.5478  0.0893
 9271SOL    HW139272   3.401   1.821  10.548  2.0622  0.2477  0.3492
 9271SOL    HW239273   3.517   1.920  10.535  0.7001 -0.9789 -0.5368
 9272SOL     OW39274   2.884   1.532   5.866  0.1474  0.0801 -0.2107
 9272SOL    HW139275   2.957   1.575   5.911 -0.1525 -0.1321  0.4763
 9272SOL    HW239276   2.908   1.535   5.773 -1.6006  2.0372 -0.5830
 9273SOL     OW39277   2.912   3.292   5.228 -0.1043 -0.0433  0.3525
 9273SOL    HW139278   2.897   3.320   5.318  1.7692 -0.5285  0.8215
 9273SOL    HW239279   3.004   3.267   5.218 -0.2791  1.0087 -3.6642
 9274SOL     OW39280   3.267   1.350   4.157  0.1639  0.4167 -0.1332
 9274SOL    HW139281   3.360   1.335   4.140  0.7755  0.8240  2.6962
 9274SOL    HW239282   3.276   1.347   4.253  2.7369 -0.4225 -0.3804
 9275SOL     OW39283   4.709   1.170  11.305 -0.1430  0.0210  0.4693
 9275SOL    HW139284   4.672   1.216  11.380 -1.8775 -0.7500  0.1043
 9275SOL    HW239285   0.043   1.118  11.361  1.3750  0.9826 -0.2359
 9276SOL     OW39286   0.593   3.561   1.895 -0.0114 -0.7252  0.0535
 9276SOL    HW139287   0.573   3.598   1.981 -2.0207 -0.2376 -0.6216
 9276SOL    HW239288   0.659   3.494   1.911  1.2736  0.2669 -1.1422
 9277SOL     OW39289   3.631   3.127   8.666 -0.2932 -0.5194  0.0474
 9277SOL    HW139290   3.641   3.198   8.730 -0.8935  1.4714 -2.0810
 9277SOL    HW239291   3.712   3.076   8.676  0.2240  0.4414  0.7544
 9278SOL     OW39292   0.135   1.736  10.442  0.4296  0.6082 -0.2269
 9278SOL    HW139293   0.075   1.689  10.498  0.9443 -1.1152 -1.1299
 9278SOL    HW239294   0.179   1.664  10.396  3.1471  1.1903  1.4482
 9279SOL     OW39295   2.363   0.466   8.386 -0.3495 -0.2029 -0.3081
 9279SOL    HW139296   2.445   0.419   8.375 -0.1791  0.2542 -0.9881
 9279SOL    HW239297   2.391   0.538   8.330 -1.5941  0.2384 -0.3646
 9280SOL     OW39298   4.230   2.413   1.985  0.3504  0.3133  0.5381
 9280SOL    HW139299   4.284   2.335   2.000 -1.0279 -0.5787  0.9910
 9280SOL    HW239300   4.155   2.403   2.044 -0.6254 -1.5056 -0.9899
 9281SOL     OW39301   3.152   0.262   5.092 -0.0110  0.7316  0.6186
 9281SOL    HW139302   3.123   0.186   5.040  0.0771  0.1891  1.3692
 9281SOL    HW239303   3.220   0.302   5.037 -2.2426  2.2028 -1.0795
 9282SOL     OW39304   4.670   4.234   8.428  0.0099 -0.2999 -0.1801
 9282SOL    HW139305   4.603   4.286   8.473  0.1286 -0.2353 -0.0787
 9282SOL    HW239306   4.722   4.310   8.401 -0.1393 -0.3463 -0.5988
 9283SOL     OW39307   2.631   1.824   4.696  0.5202 -0.5858 -0.2472
 9283SOL    HW139308   2.620   1.733   4.720  2.1098 -0.4532  1.0383
 9283SOL    HW239309   2.593   1.876   4.767 -0.5763 -1.8266  0.0661
 9284SOL     OW39310   3.966   2.248   2.066 -0.5895  0.5855  0.2082
 9284SOL    HW139311   3.950   2.317   2.131  0.6617  0.5499  0.5536
 9284SOL    HW239312   3.879   2.209   2.057  0.3289 -1.8048  1.7368
 9285SOL     OW39313   1.302   1.284  15.307 -0.2196 -0.2628  1.3231
 9285SOL    HW139314   1.233   1.218  15.312  0.2887 -1.0677 -1.8456
 9285SOL    HW239315   1.376   1.225  15.319  0.7412  0.8913  1.0315
 9286SOL     OW39316   2.233   0.414  11.304  0.5403  0.1583 -0.4954
 9286SOL    HW139317   2.308   0.356  11.295  0.1488 -0.2430 -1.1632
 9286SOL    HW239318   2.171   0.370  11.246 -2.2372  0.5456  2.1706
 9287SOL     OW39319   0.748   1.493   5.171  0.1636 -0.0108 -0.1719
 9287SOL    HW139320   0.840   1.494   5.198  0.2400 -0.9060 -0.4252
 9287SOL    HW239321   0.757   1.417   5.114  0.3527 -0.1288  0.0153
 9288SOL     OW39322   1.770   3.137   1.801 -0.1732  0.4821 -0.1785
 9288SOL    HW139323   1.805   3.225   1.812 -1.9087  0.8654  2.4366
 9288SOL    HW239324   1.825   3.093   1.865 -0.3089  1.6554  0.7478
 9289SOL     OW39325   3.513   2.974   6.555  0.0742  0.0094  0.0338
 9289SOL    HW139326   3.551   2.976   6.467  0.5284  0.0877  0.2365
 9289SOL    HW239327   3.541   3.057   6.594 -1.3330  0.7898 -0.6207
 9290SOL     OW39328   2.255   0.504  16.492  0.3072 -0.0411 -0.4110
 9290SOL    HW139329   2.184   0.445  16.466  0.4711 -0.7909  0.8192
 9290SOL    HW239330   2.274   0.542  16.407 -1.8423  0.1705 -0.7806
 9291SOL     OW39331   2.868   0.807   0.836 -0.1532 -0.5851  0.3643
 9291SOL    HW139332   2.776   0.792   0.812 -0.4504  0.4917  0.8153
 9291SOL    HW239333   2.860   0.798   0.931  2.2602 -0.7800  0.5332
 9292SOL     OW39334   2.776   4.164   4.887 -0.0481  0.1957 -0.3106
 9292SOL    HW139335   2.689   4.198   4.907 -0.4752 -0.4254 -1.1124
 9292SOL    HW239336   2.827   4.202   4.958  1.2077 -3.1234  0.5740
 9293SOL     OW39337   1.843   3.750   4.660 -0.1248 -0.5925 -0.3718
 9293SOL    HW139338   1.794   3.823   4.622 -0.1477 -0.3187  0.1741
 9293SOL    HW239339   1.928   3.794   4.659 -0.7200  0.5539 -0.4767
 9294SOL     OW39340   2.869   2.882   6.421 -0.3646 -0.1554 -0.6996
 9294SOL    HW139341   2.791   2.842   6.385  0.1979 -0.7948 -1.2092
 9294SOL    HW239342   2.883   2.829   6.499  1.7136  0.1737 -0.8351
 9295SOL     OW39343   2.232   2.786   3.495  0.0678  0.1251  0.5508
 9295SOL    HW139344   2.300   2.843   3.460 -0.8216  0.1287 -1.2039
 9295SOL    HW239345   2.246   2.697   3.461  0.7733  0.4222  0.0672
 9296SOL     OW39346   2.683   1.700   0.941 -0.0809  0.2129 -0.2751
 9296SOL    HW139347   2.709   1.620   0.987  0.5480  0.4349 -0.2375
 9296SOL    HW239348   2.720   1.695   0.853 -0.9644  0.2939 -0.6488
 9297SOL     OW39349   2.236   4.390   7.183 -0.0470  0.2009 -0.0625
 9297SOL    HW139350   2.218   4.344   7.101 -0.0811  0.1667 -0.0356
 9297SOL    HW239351   2.303   4.331   7.217  1.7122  2.2437  0.0165
 9298SOL     OW39352   2.203   2.332   7.968 -0.7275 -0.5481  0.2407
 9298SOL    HW139353   2.178   2.248   8.006 -0.6195  0.3631  2.3148
 9298SOL    HW239354   2.252   2.366   8.043 -0.0936  0.0882 -0.4545
 9299SOL     OW39355   0.032   0.276  10.705 -0.4428  0.0163 -0.1016
 9299SOL    HW139356   0.026   0.372  10.710 -0.0156  0.0813 -0.8953
 9299SOL    HW239357   0.127   0.268  10.696 -0.4710 -0.6365  0.1861
 9300SOL     OW39358   0.233   2.292   3.109  0.6603  0.0809  0.2037
 9300SOL    HW139359   0.262   2.234   3.179  1.1687 -1.1150 -1.0000
 9300SOL    HW239360   0.307   2.304   3.049  0.0346  0.3909 -0.5060
 9301SOL     OW39361   0.235   4.249   7.579 -0.2926  0.0839  0.1472
 9301SOL    HW139362   0.203   4.339   7.584  1.3247  0.6006  0.9131
 9301SOL    HW239363   0.268   4.243   7.669  0.0531  0.7940  0.0654
 9302SOL     OW39364   0.336   2.146   0.322  0.1280 -0.3915  0.1520
 9302SOL    HW139365   0.304   2.056   0.329 -2.6620  0.6591  0.5357
 9302SOL    HW239366   0.430   2.142   0.303  0.6780  0.3792  2.8271
 9303SOL     OW39367   3.751   0.310   2.106  0.5104 -0.3692 -0.4345
 9303SOL    HW139368   3.812   0.376   2.075 -0.4530  0.3779 -0.7215
 9303SOL    HW239369   3.789   0.279   2.189  0.7467 -0.1410 -0.4598
 9304SOL     OW39370   2.902   1.811   6.443  0.2473 -0.1051 -0.5650
 9304SOL    HW139371   2.866   1.833   6.357 -0.9592 -1.7449 -0.4954
 9304SOL    HW239372   2.938   1.722   6.433  0.8485 -0.0053  0.6798
 9305SOL     OW39373   1.214   0.863   2.904  0.3319  0.2213 -0.3650
 9305SOL    HW139374   1.264   0.876   2.824 -0.2186  1.9623 -0.4374
 9305SOL    HW239375   1.283   0.838   2.965  0.2315  1.5784  0.2974
 9306SOL     OW39376   0.117   4.476   5.992  0.4059 -0.0397  0.5362
 9306SOL    HW139377   0.138   4.549   5.934  0.2984 -0.8496 -0.5218
 9306SOL    HW239378   0.186   4.484   6.057  0.7324  0.0363  0.1777
 9307SOL     OW39379   3.581   1.893   6.491  0.1737 -0.5504 -0.1980
 9307SOL    HW139380   3.530   1.968   6.522 -0.2975 -0.3067 -1.5778
 9307SOL    HW239381   3.645   1.881   6.561  0.7442  0.6797 -0.5047
 9308SOL     OW39382   2.357   1.561   7.950 -0.7625 -0.3089  0.7677
 9308SOL    HW139383   2.397   1.607   8.025  4.0596 -0.9135 -1.4151
 9308SOL    HW239384   2.419   1.489   7.942 -0.8673 -0.2151 -0.7542
 9309SOL     OW39385   0.455   0.008  17.236 -0.8199  0.6503 -0.1464
 9309SOL    HW139386   0.471   0.066  17.161 -1.4790 -0.7249 -1.3561
 9309SOL    HW239387   0.403   4.660  17.200  2.3888 -0.6130 -2.2994
 9310SOL     OW39388   0.225   1.550   2.691 -0.4621  0.2960 -0.4085
 9310SOL    HW139389   0.318   1.531   2.675 -0.7452 -0.9396 -0.5392
 9310SOL    HW239390   0.183   1.529   2.608 -2.6921 -0.4327  0.9059
 9311SOL     OW39391   4.389   2.935  11.436 -0.0977 -0.2438  0.4944
 9311SOL    HW139392   4.468   2.973  11.396  0.8518 -1.6034  1.0601
 9311SOL    HW239393   4.360   3.005  11.494  0.1370 -2.3254  3.1601
 9312SOL     OW39394   2.684   3.354   3.028  0.6680 -0.4452  0.0114
 9312SOL    HW139395   2.594   3.341   2.996  0.8171 -1.2316 -0.0778
 9312SOL    HW239396   2.724   3.406   2.958 -0.2577 -0.9008 -0.8711
 9313SOL     OW39397   1.194   3.084   5.735  0.1157  0.3759  0.4961
 9313SOL    HW139398   1.258   3.058   5.801  1.8747  2.0083 -0.5641
 9313SOL    HW239399   1.203   3.174   5.766 -2.1786  0.6019  0.5559
 9314SOL     OW39400   3.107   0.861  13.688 -0.6061  0.4545 -0.0012
 9314SOL    HW139401   3.062   0.933  13.644  0.7491  1.6081  0.5307
 9314SOL    HW239402   3.037   0.799  13.710 -1.0004  1.0119  0.3171
 9315SOL     OW39403   1.147   1.415  12.334  0.2415 -0.1869  0.2599
 9315SOL    HW139404   1.201   1.452  12.404  1.8896 -0.7699 -0.6861
 9315SOL    HW239405   1.112   1.497  12.299 -1.7212 -0.6422  1.1709
 9316SOL     OW39406   4.703   1.642  17.235  0.1425 -0.0935  0.4057
 9316SOL    HW139407   0.026   1.716  17.273 -1.0847  0.1042  1.5377
 9316SOL    HW239408   4.705   1.583  17.311 -0.8850 -2.1541 -1.1629
 9317SOL     OW39409   3.847   0.541   3.435  0.0221 -0.4916 -0.3224
 9317SOL    HW139410   3.900   0.463   3.453  1.4352  0.5969  0.1912
 9317SOL    HW239411   3.893   0.604   3.490  0.4972 -0.0077 -1.2824
 9318SOL     OW39412   0.113   2.137   5.153  0.1030 -0.5160  0.5939
 9318SOL    HW139413   0.182   2.182   5.200 -2.0488  2.3160  1.0193
 9318SOL    HW239414   0.037   2.169   5.203 -0.2483 -0.6049  0.1197
 9319SOL     OW39415   3.762   3.115   4.325  0.8054 -0.0088  0.6354
 9319SOL    HW139416   3.811   3.120   4.407  0.4721 -1.5348  0.9154
 9319SOL    HW239417   3.698   3.048   4.348  0.2094  0.0984 -0.6779
 9320SOL     OW39418   3.269   2.991   0.149 -0.6625 -0.4195 -0.1808
 9320SOL    HW139419   3.297   3.024   0.064 -4.2156 -0.5672 -1.3936
 9320SOL    HW239420   3.305   2.903   0.157  2.0826  0.5772 -1.5086
 9321SOL     OW39421   4.710   0.668  10.290  0.4581  0.9859 -0.3450
 9321SOL    HW139422   0.027   0.728  10.351  1.9116 -0.3071 -0.0479
 9321SOL    HW239423   4.637   0.717  10.252  0.7701  2.8668  1.5347
 9322SOL     OW39424   3.090   4.573   9.126 -0.4945  0.4899  0.1327
 9322SOL    HW139425   3.092   4.592   9.032 -0.1730 -0.8898 -0.1453
 9322SOL    HW239426   3.119   4.654   9.167  1.1696  0.4843 -1.0286
 9323SOL     OW39427   1.201   3.112   5.009 -0.2923 -0.4433 -0.0224
 9323SOL    HW139428   1.129   3.050   4.994 -1.3253  0.8075 -0.2205
 9323SOL    HW239429   1.252   3.107   4.928 -2.1933  0.4351 -1.2868
 9324SOL     OW39430   2.846   0.015   5.118  0.0434 -0.1439  0.3220
 9324SOL    HW139431   2.865   0.074   5.192 -0.6222 -1.8743  1.8870
 9324SOL    HW239432   2.775   0.056   5.070  0.2890  2.6083  2.2771
 9325SOL     OW39433   4.369   1.085   8.285 -0.7311  0.5118 -0.0144
 9325SOL    HW139434   4.421   1.119   8.212 -0.5309  0.3833  0.0684
 9325SOL    HW239435   4.362   1.168   8.332 -0.7152  1.5030 -1.7645
 9326SOL     OW39436   1.864   3.125  10.975 -0.9029  0.1766  0.0755
 9326SOL    HW139437   1.859   3.219  10.994 -0.4748  0.6096 -2.0145
 9326SOL    HW239438   1.951   3.106  11.009 -0.6882 -1.1130 -1.2095
 9327SOL     OW39439   1.748   2.641   6.069 -0.1584 -0.3496 -0.2020
 9327SOL    HW139440   1.656   2.613   6.072 -0.8190  1.9377  0.5329
 9327SOL    HW239441   1.789   2.576   6.127  1.1570  0.7239  0.0555
 9328SOL     OW39442   0.273   4.292   2.147 -0.1315 -0.0873 -0.3475
 9328SOL    HW139443   0.184   4.314   2.119 -0.7182  1.7545  2.9649
 9328SOL    HW239444   0.304   4.244   2.070  2.6495  0.6319  0.3273
 9329SOL     OW39445   3.908   3.951   5.323 -0.3603 -0.0994  0.5940
 9329SOL    HW139446   3.946   3.885   5.381 -1.2503  0.4326  1.7812
 9329SOL    HW239447   3.858   3.894   5.265 -0.6044 -1.7152  2.4143
 9330SOL     OW39448   3.144   0.266   4.322 -1.0226 -0.2177  0.0574
 9330SOL    HW139449   3.096   0.200   4.271 -1.5150  0.5971 -0.5291
 9330SOL    HW239450   3.156   0.222   4.407 -2.0603  0.5592  0.6066
 9331SOL     OW39451   3.774   2.772   7.920 -0.2317 -0.4869  0.0047
 9331SOL    HW139452   3.857   2.755   7.965  0.6261 -0.4449 -1.5513
 9331SOL    HW239453   3.805   2.839   7.860  1.1630 -0.4042  0.8112
 9332SOL     OW39454   0.685   4.172   6.585  0.4776 -0.2183 -0.4453
 9332SOL    HW139455   0.668   4.116   6.660  1.3914  0.9285  0.6228
 9332SOL    HW239456   0.719   4.110   6.520 -1.2841  0.0438 -1.6084
 9333SOL     OW39457   1.930   4.051   4.502 -0.0216 -0.1372  0.8817
 9333SOL    HW139458   1.845   4.012   4.522 -1.0424  1.9536  0.5044
 9333SOL    HW239459   1.911   4.091   4.418 -1.2349 -3.2421 -0.3192
 9334SOL     OW39460   0.946   0.415   2.376 -0.4349  0.1234 -0.3442
 9334SOL    HW139461   0.936   0.329   2.336 -0.0529 -0.5585  1.0253
 9334SOL    HW239462   1.028   0.449   2.341  0.4266 -1.0288  0.5585
 9335SOL     OW39463   1.818   1.622  13.287  0.2788  0.3728  0.2976
 9335SOL    HW139464   1.845   1.547  13.340  0.3983  0.6418  0.6167
 9335SOL    HW239465   1.892   1.632  13.227  0.3069 -1.0417  0.0868
 9336SOL     OW39466   1.086   3.560  11.152 -0.0482 -0.3833 -0.4280
 9336SOL    HW139467   1.163   3.591  11.199  0.7641 -1.0526 -1.3082
 9336SOL    HW239468   1.126   3.546  11.066 -0.5080 -1.1003 -0.5269
 9337SOL     OW39469   0.149   2.358   1.836  0.1179 -0.6015 -0.0908
 9337SOL    HW139470   0.192   2.376   1.752 -1.2484 -0.4018 -0.7643
 9337SOL    HW239471   0.206   2.403   1.898 -0.2415 -1.7496  1.0717
 9338SOL     OW39472   0.548   0.984   5.135  0.4819 -0.5357  0.1325
 9338SOL    HW139473   0.515   0.910   5.083 -0.9527  1.2970 -1.5680
 9338SOL    HW239474   0.481   1.048   5.110  0.7478 -0.7555 -1.1539
 9339SOL     OW39475   1.535   1.121   0.565  0.1014 -0.0946  0.2886
 9339SOL    HW139476   1.629   1.105   0.573 -0.1530 -1.2820  0.9641
 9339SOL    HW239477   1.522   1.124   0.470 -0.8601 -0.3800  0.4105
 9340SOL     OW39478   0.188   0.284   8.514  0.5287 -0.6855 -0.2503
 9340SOL    HW139479   0.206   0.192   8.531 -0.9587 -1.0332 -0.5529
 9340SOL    HW239480   0.270   0.315   8.474  1.4981 -0.4846  1.9011
 9341SOL     OW39481   0.598   0.291  16.272  0.1718  0.2077 -0.2342
 9341SOL    HW139482   0.639   0.245  16.199  0.8783  0.2581  0.1299
 9341SOL    HW239483   0.538   0.345  16.221 -2.2982  0.1897  2.6072
 9342SOL     OW39484   3.587   1.929   2.739  0.6922  0.2732  0.2467
 9342SOL    HW139485   3.586   1.980   2.658 -1.3154  0.2410  0.2458
 9342SOL    HW239486   3.539   1.849   2.717  2.9259 -1.1394  0.4751
 9343SOL     OW39487   0.919   3.267  14.454  0.4128  0.3600 -0.2563
 9343SOL    HW139488   0.977   3.326  14.406  1.5198 -1.1743 -0.8377
 9343SOL    HW239489   0.855   3.326  14.493 -1.8089 -1.5393 -1.0053
 9344SOL     OW39490   4.479   3.892   2.390  0.1663  0.2501 -0.3154
 9344SOL    HW139491   4.398   3.866   2.433 -0.2447  1.6616 -0.2437
 9344SOL    HW239492   4.514   3.806   2.366  0.9541  0.5654 -0.3046
 9345SOL     OW39493   4.107   2.918  13.580 -1.0267  0.0683  0.1478
 9345SOL    HW139494   4.109   2.891  13.672  0.6047 -1.7396 -0.4091
 9345SOL    HW239495   4.148   2.838  13.547  1.2324  1.0814  0.5485
 9346SOL     OW39496   2.171   3.217   0.907 -0.1680 -0.0669 -0.0499
 9346SOL    HW139497   2.225   3.207   0.828 -1.8184  0.2758 -1.2097
 9346SOL    HW239498   2.119   3.137   0.897 -0.5967  0.5783 -3.2044
 9347SOL     OW39499   1.480   0.546  12.194 -0.5677  0.0102 -0.1070
 9347SOL    HW139500   1.401   0.581  12.154  0.2834 -0.2436 -2.0090
 9347SOL    HW239501   1.547   0.612  12.178  1.0689 -1.5787  0.1847
 9348SOL     OW39502   1.029   0.197   0.861  0.3950  0.2328 -0.1977
 9348SOL    HW139503   1.101   0.184   0.799  0.3464  1.8973 -0.5893
 9348SOL    HW239504   1.074   0.208   0.945 -0.6973 -1.3836  0.6035
 9349SOL     OW39505   0.439   3.841   9.680  0.2071  0.3076  0.9029
 9349SOL    HW139506   0.524   3.884   9.673 -1.0904  3.0771  2.5234
 9349SOL    HW239507   0.440   3.812   9.771 -0.6607  0.9951  1.1233
 9350SOL     OW39508   3.924   2.573   8.197  0.1285 -0.5971  0.2972
 9350SOL    HW139509   3.857   2.626   8.240  0.0031 -1.2896  0.9615
 9350SOL    HW239510   3.943   2.633   8.125 -0.9109 -2.4190 -1.5092
 9351SOL     OW39511   3.316   3.905   9.687 -0.5521 -0.4881  0.8143
 9351SOL    HW139512   3.261   3.930   9.761 -1.0898  1.6868 -0.2862
 9351SOL    HW239513   3.270   3.830   9.651 -1.3427  0.4324 -0.1093
 9352SOL     OW39514   3.331   2.515   0.302 -0.4359  0.3115  0.3176
 9352SOL    HW139515   3.384   2.537   0.379 -1.3140 -0.9254  1.2695
 9352SOL    HW239516   3.368   2.428   0.285 -1.2079  0.0681 -0.1041
 9353SOL     OW39517   3.572   0.679   4.971  0.1976 -0.3071 -0.0704
 9353SOL    HW139518   3.658   0.721   4.960  0.5921 -1.4387 -1.3249
 9353SOL    HW239519   3.529   0.709   4.891  0.1718 -0.2424 -0.0321
 9354SOL     OW39520   3.720   3.437   9.350 -0.6323 -0.1661  0.3429
 9354SOL    HW139521   3.734   3.407   9.260  1.1227  0.9333  0.2466
 9354SOL    HW239522   3.785   3.381   9.393  1.3824  1.0123 -1.1698
 9355SOL     OW39523   3.730   1.466   6.547 -0.0003 -0.0259 -0.2308
 9355SOL    HW139524   3.763   1.385   6.585  1.0352 -0.1866 -1.4439
 9355SOL    HW239525   3.752   1.537   6.608  1.8075 -0.9474  0.1844
 9356SOL     OW39526   0.481   0.958   2.185  0.3851 -0.7671  0.1112
 9356SOL    HW139527   0.547   1.027   2.191  1.3384 -1.5793 -0.9181
 9356SOL    HW239528   0.486   0.911   2.268  1.0239 -0.8469  0.0350
 9357SOL     OW39529   3.512   3.802   5.469  0.7232  0.4694  0.2364
 9357SOL    HW139530   3.462   3.881   5.491  1.2914  1.3593 -1.6093
 9357SOL    HW239531   3.436   3.745   5.452  0.0268  2.2837 -2.7896
 9358SOL     OW39532   0.007   0.364   4.909  0.3764  0.2083  0.0478
 9358SOL    HW139533   4.648   0.376   4.864  0.2715  0.8321  0.3991
 9358SOL    HW239534   0.032   0.276   4.883  1.3498  1.5053 -3.3154
 9359SOL     OW39535   4.202   2.890   6.024 -0.5453  0.0750 -0.4193
 9359SOL    HW139536   4.206   2.867   6.116  0.7097 -1.2408 -0.8052
 9359SOL    HW239537   4.158   2.973   6.039  0.9251  1.3385 -3.0951
 9360SOL     OW39538   3.897   1.400   5.357  0.3385 -0.0414  0.4095
 9360SOL    HW139539   3.954   1.407   5.280  1.0834 -0.9299  0.8804
 9360SOL    HW239540   3.946   1.446   5.425  0.4482 -0.9697  0.9635
 9361SOL     OW39541   4.367   3.741   6.586 -0.4502  0.2395  0.2052
 9361SOL    HW139542   4.276   3.762   6.565  0.2329  1.4822 -1.4456
 9361SOL    HW239543   4.366   3.725   6.681  0.7139  0.4688  0.2511
 9362SOL     OW39544   1.683   3.033   4.857  0.2637  0.2077  0.0760
 9362SOL    HW139545   1.608   3.026   4.917  0.8837  2.4109  1.1006
 9362SOL    HW239546   1.756   2.999   4.909  0.0540  3.3828  2.4153
 9363SOL     OW39547   0.149   2.047   8.639  0.2053  0.3099  0.6713
 9363SOL    HW139548   0.078   2.034   8.701  0.3166  0.5157  0.8424
 9363SOL    HW239549   0.203   1.968   8.649  0.4177  0.7901  3.3316
 9364SOL     OW39550   1.809   3.583  15.899 -0.3916  0.0129  0.3241
 9364SOL    HW139551   1.745   3.629  15.845 -0.8487 -0.1962  0.6891
 9364SOL    HW239552   1.761   3.580  15.981 -0.1513 -1.1328  0.4266
 9365SOL     OW39553   1.176   3.468   7.652  0.4980 -0.0245 -1.4906
 9365SOL    HW139554   1.138   3.510   7.575 -1.9090  0.0014 -0.2772
 9365SOL    HW239555   1.157   3.537   7.715  0.2667 -0.6189 -0.9186
 9366SOL     OW39556   3.392   1.069   7.008  0.6807  0.2416  0.1240
 9366SOL    HW139557   3.418   0.979   6.990 -1.6794 -0.5656  0.8163
 9366SOL    HW239558   3.459   1.130   6.976 -0.4992  0.4395 -1.9987
 9367SOL     OW39559   0.901   3.832   8.217 -0.1338 -0.0735  0.2229
 9367SOL    HW139560   0.972   3.850   8.155 -0.6857 -3.3505 -1.3460
 9367SOL    HW239561   0.937   3.753   8.257 -1.8988 -0.9609  0.0785
 9368SOL     OW39562   1.745   1.476   4.255  0.2955  0.2314 -0.1701
 9368SOL    HW139563   1.731   1.557   4.304  0.7371 -0.0877  0.4756
 9368SOL    HW239564   1.717   1.410   4.318 -0.1901 -0.6391 -1.2990
 9369SOL     OW39565   4.181   0.742   2.672  0.4711  0.2142  0.8598
 9369SOL    HW139566   4.220   0.662   2.708  0.2574  0.1431  0.9326
 9369SOL    HW239567   4.262   0.772   2.631  0.1486  0.5764  0.4787
 9370SOL     OW39568   1.183   2.880   1.933 -0.1122  0.0781 -0.0346
 9370SOL    HW139569   1.146   2.819   1.870  0.9822  0.9383 -1.5150
 9370SOL    HW239570   1.158   2.964   1.896 -1.6146 -0.5755 -0.5086
 9371SOL     OW39571   4.036   2.591   7.192 -0.2673  0.2087  0.0185
 9371SOL    HW139572   4.126   2.607   7.221 -1.2645  0.1997  3.1917
 9371SOL    HW239573   3.993   2.542   7.262  0.3562 -1.2729 -0.6339
 9372SOL     OW39574   2.057   1.497   9.976  0.1524 -0.0046 -0.2066
 9372SOL    HW139575   2.062   1.401   9.973  0.2605 -0.0273  0.7530
 9372SOL    HW239576   1.969   1.505  10.014  0.1333 -1.6640  0.1224
 9373SOL     OW39577   0.619   3.517   2.876 -0.0824 -0.3590 -0.3070
 9373SOL    HW139578   0.573   3.465   2.942 -2.9597  1.7817 -0.6208
 9373SOL    HW239579   0.580   3.604   2.886 -1.0738 -0.5184 -2.7241
 9374SOL     OW39580   4.122   1.380   0.319 -0.0925 -0.7891  0.0068
 9374SOL    HW139581   4.051   1.386   0.382  1.4314  0.6444  1.5877
 9374SOL    HW239582   4.092   1.299   0.276 -2.4471 -0.3998  0.9190
 9375SOL     OW39583   2.334   0.786   1.107  0.0024  0.0108 -0.2025
 9375SOL    HW139584   2.408   0.841   1.134  0.6327 -1.6104  1.3644
 9375SOL    HW239585   2.275   0.819   1.174  0.1622  1.1221 -0.6055
 9376SOL     OW39586   2.691   3.888  15.507 -0.0587  0.2253 -0.3001
 9376SOL    HW139587   2.784   3.868  15.504 -0.1176 -0.2996  1.0285
 9376SOL    HW239588   2.655   3.815  15.456  1.6697  0.7288 -2.2013
 9377SOL     OW39589   0.339   3.251   1.729  0.2154  0.1067  0.3577
 9377SOL    HW139590   0.281   3.203   1.788 -0.1426 -2.1939 -1.8914
 9377SOL    HW239591   0.282   3.273   1.655 -0.3996 -0.3661  0.6952
 9378SOL     OW39592   0.290   3.375  15.822  0.1106 -0.3392  0.3519
 9378SOL    HW139593   0.354   3.446  15.830  1.1652 -1.2615  0.2161
 9378SOL    HW239594   0.264   3.372  15.914 -1.1357 -1.9998 -0.0529
 9379SOL     OW39595   3.658   3.500  17.652 -0.5964 -0.0458  0.7175
 9379SOL    HW139596   3.601   3.512   0.031 -1.8433  0.0343 -0.2170
 9379SOL    HW239597   3.740   3.543  17.676  0.6377 -2.5620  1.0019
 9380SOL     OW39598   2.537   0.433   6.413  0.5431 -0.1752 -0.3051
 9380SOL    HW139599   2.554   0.434   6.508 -1.3584  0.0102  0.0237
 9380SOL    HW239600   2.491   0.516   6.408  0.1381 -0.4980 -1.8940
 9381SOL     OW39601   2.982   3.764  14.511  0.6601 -0.2769  0.3805
 9381SOL    HW139602   2.965   3.757  14.605  0.1450  0.0210  0.3099
 9381SOL    HW239603   3.055   3.826  14.504  2.1340 -1.9908  0.3162
 9382SOL     OW39604   1.342   0.416   1.515 -0.0270  0.4543 -0.0310
 9382SOL    HW139605   1.309   0.484   1.456 -0.5193  0.2790  0.0481
 9382SOL    HW239606   1.437   0.428   1.507 -0.0798 -0.4358 -2.0936
 9383SOL     OW39607   2.098   2.761  16.035  0.0494  0.1764  0.1769
 9383SOL    HW139608   2.088   2.804  16.120 -0.4111 -0.2813  0.3518
 9383SOL    HW239609   2.033   2.805  15.980  0.4511 -0.7623 -1.0646
 9384SOL     OW39610   4.720   1.032  14.389 -0.0483 -0.0579  0.2131
 9384SOL    HW139611   4.682   1.031  14.477 -3.7300 -0.1227 -1.3801
 9384SOL    HW239612   4.671   0.962  14.346 -1.4011  0.1948  1.3279
 9385SOL     OW39613   4.086   0.041   9.570 -0.3206  0.5613 -0.0090
 9385SOL    HW139614   4.143   0.109   9.607  0.7464 -0.1877 -0.3006
 9385SOL    HW239615   4.078   4.697   9.637 -2.5304  0.5897 -0.2325
 9386SOL     OW39616   0.486   2.377   5.456  0.8708  0.1250 -0.1017
 9386SOL    HW139617   0.518   2.467   5.458 -2.0298  1.1689 -0.2753
 9386SOL    HW239618   0.550   2.335   5.399 -0.0620 -0.2133 -0.9072
 9387SOL     OW39619   3.315   0.899   0.276 -0.4891  1.1703  0.0223
 9387SOL    HW139620   3.223   0.875   0.265 -0.2189  0.3875 -0.5056
 9387SOL    HW239621   3.319   0.986   0.236 -0.9118  1.2413  0.1377
 9388SOL     OW39622   1.855   2.091   2.365  0.2961 -0.1986  0.2870
 9388SOL    HW139623   1.925   2.156   2.376 -1.3628  1.9787 -2.1755
 9388SOL    HW239624   1.903   2.011   2.388  2.8999  0.9139 -1.3361
 9389SOL     OW39625   1.758   0.684   1.560  0.2093 -0.0750 -0.4639
 9389SOL    HW139626   1.852   0.675   1.576  0.6576 -1.1327 -3.7137
 9389SOL    HW239627   1.743   0.775   1.585  1.7969  0.1659 -0.4051
 9390SOL     OW39628   1.938   4.390   8.242 -0.1995  0.2436 -0.7275
 9390SOL    HW139629   2.028   4.360   8.245  0.2402  1.6885  0.1878
 9390SOL    HW239630   1.893   4.308   8.218  1.1344 -0.4601 -0.7890
 9391SOL     OW39631   2.811   0.613   4.033 -0.3537  0.8803  0.3413
 9391SOL    HW139632   2.834   0.703   4.007 -0.4090  1.3484  1.8943
 9391SOL    HW239633   2.805   0.624   4.128 -0.1281  1.9349  0.2400
 9392SOL     OW39634   0.988   0.157   9.643 -0.5294  0.0648 -0.1063
 9392SOL    HW139635   0.897   0.175   9.618 -0.0031 -0.5564 -2.5181
 9392SOL    HW239636   1.002   0.221   9.713 -0.1403 -2.0407  1.7408
 9393SOL     OW39637   1.697   3.344   8.679  0.1611 -0.3774 -0.4971
 9393SOL    HW139638   1.656   3.364   8.764 -2.4459 -0.4648 -1.7361
 9393SOL    HW239639   1.788   3.342   8.707  0.2788  3.5030 -0.5372
 9394SOL     OW39640   4.304   2.546  14.744  0.0979  0.0641 -0.6349
 9394SOL    HW139641   4.257   2.625  14.717  0.4817  0.5840  0.2230
 9394SOL    HW239642   4.276   2.522  14.832 -0.1974  3.6704  0.2909
 9395SOL     OW39643   1.536   0.849   2.047  0.5342  0.0386  0.0463
 9395SOL    HW139644   1.516   0.896   2.128  2.0846  1.6775 -0.5107
 9395SOL    HW239645   1.580   0.925   2.009 -0.9162  1.3675  1.0071
 9396SOL     OW39646   1.271   2.725  11.158 -0.5724 -0.3361  0.3632
 9396SOL    HW139647   1.256   2.641  11.114 -0.8846 -1.0492  1.8314
 9396SOL    HW239648   1.200   2.771  11.113  0.3321  1.8386  1.1956
 9397SOL     OW39649   1.275   2.852  13.341  0.2470 -0.0892 -0.1231
 9397SOL    HW139650   1.243   2.865  13.430  0.4943 -0.2975 -0.0052
 9397SOL    HW239651   1.250   2.760  13.336  0.1968 -0.2580  3.4134
 9398SOL     OW39652   1.905   4.454   7.767  0.2550  0.3583  0.0144
 9398SOL    HW139653   1.810   4.442   7.767  0.0729  1.8307 -0.5932
 9398SOL    HW239654   1.923   4.467   7.860  0.7349 -1.9895  0.2487
 9399SOL     OW39655   2.937   2.232  12.164  0.0149  0.2971  0.1486
 9399SOL    HW139656   2.936   2.144  12.127 -2.0657  1.5766 -2.7584
 9399SOL    HW239657   3.022   2.265  12.133  0.3503  1.6457  2.4606
 9400SOL     OW39658   4.288   2.245   9.641  0.5138 -0.3121  0.4388
 9400SOL    HW139659   4.340   2.321   9.668 -0.4633 -0.3271  2.3835
 9400SOL    HW239660   4.197   2.274   9.643  0.8305  0.7115  0.0182
 9401SOL     OW39661   0.557   0.071   0.818  0.1425  0.1713 -0.5370
 9401SOL    HW139662   0.613   0.092   0.743  0.4021  1.6028  0.0606
 9401SOL    HW239663   0.583   0.131   0.887  2.3668 -2.6128  1.0593
 9402SOL     OW39664   4.017   0.293   3.410 -0.3298  0.6652  0.2380
 9402SOL    HW139665   4.056   0.260   3.491 -0.0045  0.3674 -0.0383
 9402SOL    HW239666   4.097   0.296   3.357 -0.8889 -0.1535 -0.6522
 9403SOL     OW39667   4.125   4.545   4.528  0.2127 -0.4149 -0.0791
 9403SOL    HW139668   4.160   4.473   4.475  0.8859  0.1811 -0.4586
 9403SOL    HW239669   4.202   4.589   4.566 -2.0722  1.0330  2.8450
 9404SOL     OW39670   3.828   0.711  17.595 -0.0793 -0.5262 -0.1314
 9404SOL    HW139671   3.754   0.650  17.597 -0.9417  0.4933 -1.0724
 9404SOL    HW239672   3.779   0.785  17.559 -1.6333 -0.1184  2.8526
 9405SOL     OW39673   2.053   2.523   7.307 -0.1508  0.4779  0.1294
 9405SOL    HW139674   1.983   2.463   7.332 -0.7930  0.4320 -1.8091
 9405SOL    HW239675   2.008   2.593   7.260  2.3114 -0.0999 -3.0915
 9406SOL     OW39676   1.176   4.279   6.128  0.2444  0.3113  0.0015
 9406SOL    HW139677   1.215   4.221   6.063 -1.7172  0.0808 -0.9578
 9406SOL    HW239678   1.087   4.273   6.095  1.2948 -0.8209 -2.6669
 9407SOL     OW39679   2.054   3.117   7.097  0.2980 -0.6653 -0.8609
 9407SOL    HW139680   2.072   3.204   7.064  0.3921 -0.3911 -0.0762
 9407SOL    HW239681   2.075   3.123   7.190  0.2515 -3.4868 -0.6420
 9408SOL     OW39682   3.866   3.237   7.745  0.2701  0.2942  0.0944
 9408SOL    HW139683   3.894   3.320   7.783  0.5600 -0.7120  2.0675
 9408SOL    HW239684   3.803   3.219   7.814  0.9689 -1.4460  0.2874
 9409SOL     OW39685   1.519   2.974   7.290  0.3955 -0.4652  0.2728
 9409SOL    HW139686   1.530   2.921   7.211 -0.5218  0.2313 -0.3345
 9409SOL    HW239687   1.596   2.941   7.336 -0.2580 -1.4112  0.6941
 9410SOL     OW39688   3.733   1.749   9.241  0.4926 -0.0479  0.8537
 9410SOL    HW139689   3.777   1.694   9.177  0.0416  1.1788 -0.5044
 9410SOL    HW239690   3.778   1.830   9.218  0.7769 -0.1338  1.1055
 9411SOL     OW39691   0.614   2.101   3.773  0.7936  0.4630 -0.1577
 9411SOL    HW139692   0.608   2.074   3.682  1.4211 -0.7515  0.1522
 9411SOL    HW239693   0.553   2.174   3.782  0.7163  0.5583 -1.5999
 9412SOL     OW39694   1.181   4.603  12.110 -0.4719 -0.1270  0.1319
 9412SOL    HW139695   1.246   4.532  12.102  0.5508  0.5881  2.1162
 9412SOL    HW239696   1.218   4.680  12.068 -1.2776 -0.0815 -0.4893
 9413SOL     OW39697   4.187   4.152   6.920  0.2974 -0.1667  0.3523
 9413SOL    HW139698   4.258   4.215   6.931 -0.6329  0.8936  0.2535
 9413SOL    HW239699   4.234   4.069   6.923 -0.2049 -0.4056  1.6969
 9414SOL     OW39700   0.145   1.354   4.425 -0.4055  0.0260  0.4459
 9414SOL    HW139701   0.123   1.273   4.380 -1.0747 -0.1931  1.1567
 9414SOL    HW239702   0.226   1.383   4.384  0.3133  0.4932  2.1759
 9415SOL     OW39703   4.700   2.197   3.146  0.0778 -0.3017 -0.4930
 9415SOL    HW139704   4.700   2.284   3.185  0.4106 -0.8536  0.7448
 9415SOL    HW239705   0.059   2.196   3.098  0.7799 -2.5045  0.7627
 9416SOL     OW39706   3.492   3.788   7.953  0.5495  0.4894 -0.0320
 9416SOL    HW139707   3.442   3.854   7.905 -0.3135  0.3732  0.6982
 9416SOL    HW239708   3.428   3.719   7.966 -0.6035  2.0730  2.8973
 9417SOL     OW39709   2.909   0.992   4.689 -0.0902  0.2469  1.1131
 9417SOL    HW139710   2.901   0.964   4.598  0.0587 -1.0179  1.4879
 9417SOL    HW239711   2.988   0.946   4.717 -0.1282 -0.1378  0.5853
 9418SOL     OW39712   3.204   2.834  15.487 -0.6985  0.4395 -0.1934
 9418SOL    HW139713   3.206   2.853  15.581 -1.4150 -0.1116 -0.0656
 9418SOL    HW239714   3.113   2.843  15.459 -1.6142 -1.4219  2.2665
 9419SOL     OW39715   4.134   2.449   7.445 -0.5835  0.0363  0.5565
 9419SOL    HW139716   4.152   2.362   7.409  1.0554  0.9902 -0.9291
 9419SOL    HW239717   4.053   2.431   7.492  0.3374  0.9471  2.5297
 9420SOL     OW39718   1.106   2.933   3.160 -0.1566  0.1004 -0.2087
 9420SOL    HW139719   1.146   2.847   3.176  1.9110  0.7411 -1.8435
 9420SOL    HW239720   1.041   2.933   3.230 -0.7523 -0.6286 -0.7676
 9421SOL     OW39721   1.472   2.930   4.068  0.2531 -0.4284  0.3193
 9421SOL    HW139722   1.522   2.902   4.144 -0.5242 -1.3858  0.4732
 9421SOL    HW239723   1.535   2.913   3.997 -2.8098 -2.5893 -1.8762
 9422SOL     OW39724   0.585   2.170   1.571  0.3718 -0.2567 -0.3196
 9422SOL    HW139725   0.602   2.135   1.659  0.2230  0.8034  0.1308
 9422SOL    HW239726   0.497   2.203   1.590 -0.4220 -2.8374  0.5395
 9423SOL     OW39727   3.801   0.223   0.384  0.7130  0.1969  0.5018
 9423SOL    HW139728   3.714   0.187   0.367  1.2539 -2.1562  2.7299
 9423SOL    HW239729   3.778   0.314   0.400  1.7031  0.5364  0.0463
 9424SOL     OW39730   0.467   3.007   3.314 -0.3394  0.2667  0.4581
 9424SOL    HW139731   0.561   2.994   3.326  0.1189  2.3489 -0.8241
 9424SOL    HW239732   0.435   2.917   3.317 -0.1850  0.1400 -1.4223
 9425SOL     OW39733   4.696   3.807   7.264 -0.0220  0.2935 -0.1741
 9425SOL    HW139734   4.637   3.822   7.338  0.1021 -0.0882  0.0044
 9425SOL    HW239735   4.643   3.848   7.197 -1.0062  1.3902  1.2718
 9426SOL     OW39736   2.641   1.112   5.833 -0.0010 -0.3544 -0.6010
 9426SOL    HW139737   2.711   1.153   5.883 -0.1278 -0.1653 -0.5804
 9426SOL    HW239738   2.573   1.179   5.838 -0.1099 -0.4097 -1.3401
 9427SOL     OW39739   1.440   2.113   7.218  0.0102 -0.2561 -0.2929
 9427SOL    HW139740   1.433   2.118   7.313  0.8534  1.2992 -0.3144
 9427SOL    HW239741   1.371   2.174   7.192  0.1549 -0.4096 -1.0416
 9428SOL     OW39742   3.710   2.575   8.789  0.0175  0.1572  0.1470
 9428SOL    HW139743   3.731   2.510   8.857 -2.7618 -0.8323  0.0323
 9428SOL    HW239744   3.782   2.638   8.802 -0.1775  0.2394  0.8593
 9429SOL     OW39745   2.336   4.441   4.157 -0.4313  0.2064  0.3197
 9429SOL    HW139746   2.289   4.439   4.073  1.4463 -2.7159 -0.6845
 9429SOL    HW239747   2.290   4.515   4.195  1.8898  0.8442  1.8770
 9430SOL     OW39748   2.675   0.702   6.010  0.1248 -0.7358 -0.1511
 9430SOL    HW139749   2.743   0.638   6.031  1.1778  0.1629 -0.8063
 9430SOL    HW239750   2.693   0.728   5.919  1.6854  1.5500  0.8067
 9431SOL     OW39751   0.275   0.407   2.199 -0.1392  0.3852 -0.4428
 9431SOL    HW139752   0.249   0.471   2.132 -0.8112  0.6369  0.0622
 9431SOL    HW239753   0.368   0.395   2.177 -0.3484  0.3962 -1.3548
 9432SOL     OW39754   1.748   1.814   4.141  0.0983  0.1464  0.5128
 9432SOL    HW139755   1.759   1.766   4.223 -0.3158 -0.5122  0.1811
 9432SOL    HW239756   1.791   1.897   4.163  0.0400  0.0511  0.9894
 9433SOL     OW39757   0.285   0.472   7.679  0.1682 -0.9204  0.7437
 9433SOL    HW139758   0.359   0.458   7.738 -0.7035 -1.3798  1.7364
 9433SOL    HW239759   0.254   0.386   7.650 -1.2767 -1.0124  2.5070
 9434SOL     OW39760   3.104   4.236   7.525 -0.1636  0.2165  0.1063
 9434SOL    HW139761   3.089   4.187   7.606  2.4743  0.4927  0.7340
 9434SOL    HW239762   3.169   4.298   7.556 -1.3525  0.6229  1.7892
 9435SOL     OW39763   1.611   4.074   0.223 -0.0756 -0.3154  0.0443
 9435SOL    HW139764   1.649   4.051   0.308 -0.0914 -0.9560 -0.1288
 9435SOL    HW239765   1.639   3.995   0.178  0.6577 -0.6233  1.0417
 9436SOL     OW39766   3.048   4.354   6.216  0.5390  0.2648  0.9073
 9436SOL    HW139767   3.096   4.276   6.244 -0.2496 -1.6301 -3.0042
 9436SOL    HW239768   3.099   4.431   6.241 -0.6188  0.7431  1.7993
 9437SOL     OW39769   2.612   3.811   9.668  0.2357  0.3971 -0.1270
 9437SOL    HW139770   2.593   3.726   9.627 -0.9625  0.8928 -0.5973
 9437SOL    HW239771   2.681   3.840   9.608  0.3208  0.7670  0.1505
 9438SOL     OW39772   1.931   1.823   7.783  0.3134 -0.7875 -0.0024
 9438SOL    HW139773   1.983   1.904   7.788 -0.4369 -0.1633 -2.8887
 9438SOL    HW239774   1.990   1.763   7.830  1.4812  0.0101 -0.4389
 9439SOL     OW39775   3.044   3.605  17.294 -0.2391 -0.3929  0.0216
 9439SOL    HW139776   2.989   3.527  17.285 -0.4736 -0.1523 -0.6082
 9439SOL    HW239777   3.106   3.589  17.365 -0.5985 -4.4402 -0.5868
 9440SOL     OW39778   0.423   0.767   0.442 -0.1410 -0.0845 -0.7650
 9440SOL    HW139779   0.416   0.781   0.537  0.2511 -0.7607 -0.6394
 9440SOL    HW239780   0.476   0.846   0.428  0.1341 -0.4493 -1.7216
 9441SOL     OW39781   2.761   3.494   3.944  0.2542 -0.2950  0.1360
 9441SOL    HW139782   2.791   3.585   3.942 -0.4499 -0.0027  2.4707
 9441SOL    HW239783   2.839   3.460   3.987  0.1096 -1.3722 -0.4710
 9442SOL     OW39784   4.305   3.174   6.273 -0.2543  0.1943  0.0509
 9442SOL    HW139785   4.316   3.081   6.254 -0.9804  0.2773 -0.7871
 9442SOL    HW239786   4.322   3.182   6.367  2.4743 -1.8003 -0.2604
 9443SOL     OW39787   3.577   1.597   7.959  0.3333  0.1514 -0.0270
 9443SOL    HW139788   3.666   1.577   7.986  0.5771  1.3490  0.0584
 9443SOL    HW239789   3.530   1.517   7.984  3.2675 -1.2102  1.0819
 9444SOL     OW39790   4.415   0.711   3.193  0.4235  0.2295 -0.6554
 9444SOL    HW139791   4.374   0.756   3.119 -1.7901 -1.6174 -0.5487
 9444SOL    HW239792   4.501   0.752   3.202 -0.0735  0.3268  3.2945
 9445SOL     OW39793   1.054   3.798   3.949 -0.6048  0.3146  0.0949
 9445SOL    HW139794   0.994   3.859   3.906  0.3697 -0.8538 -2.8523
 9445SOL    HW239795   1.038   3.719   3.898  2.1923  1.7906 -3.0306
 9446SOL     OW39796   3.495   3.283   7.556  0.1325  0.3981  0.1199
 9446SOL    HW139797   3.504   3.328   7.640  2.0462  1.9928 -0.9557
 9446SOL    HW239798   3.516   3.193   7.580  0.3803  0.1387 -1.0905
 9447SOL     OW39799   1.384   3.724   2.650 -0.0046  0.2531 -0.4611
 9447SOL    HW139800   1.314   3.764   2.701  1.0625 -0.3653  1.4550
 9447SOL    HW239801   1.367   3.777   2.572 -1.5417  1.8803  0.9808
 9448SOL     OW39802   3.612   1.416  14.908 -0.4475  0.6944 -0.6236
 9448SOL    HW139803   3.689   1.442  14.858  1.1367 -1.2318  0.7812
 9448SOL    HW239804   3.625   1.480  14.978 -0.8647 -0.8175  0.8438
 9449SOL     OW39805   4.558   3.334  12.431  0.3277  0.0604  0.6000
 9449SOL    HW139806   4.542   3.371  12.344  0.3501 -0.1658  0.4994
 9449SOL    HW239807   4.535   3.407  12.488  0.5387  0.4835  0.1465
 9450SOL     OW39808   1.310   2.018   4.697 -0.3100  0.4723  0.3630
 9450SOL    HW139809   1.289   2.052   4.784  0.0469  3.7650 -0.8345
 9450SOL    HW239810   1.400   2.047   4.685 -0.6721  2.3689  2.3982
 9451SOL     OW39811   2.039   4.025  12.588  0.2157 -0.1083 -0.3954
 9451SOL    HW139812   2.031   4.120  12.577  1.0591  0.4200  3.6493
 9451SOL    HW239813   2.134   4.021  12.587  0.1505 -1.4466 -1.4248
 9452SOL     OW39814   0.976   3.821  17.043  0.0342 -0.4432 -0.2897
 9452SOL    HW139815   1.027   3.756  16.994  0.7561 -0.4844  0.5132
 9452SOL    HW239816   0.952   3.756  17.108  1.0043  0.9192  1.4356
 9453SOL     OW39817   4.578   3.489   7.559 -0.1440  0.2999  0.6019
 9453SOL    HW139818   4.629   3.488   7.477  0.1790 -3.1380  0.8280
 9453SOL    HW239819   4.644   3.470   7.626 -1.3892 -3.5991  0.7559
 9454SOL     OW39820   0.906   3.607   7.151  0.3365 -0.6427  0.1884
 9454SOL    HW139821   0.997   3.611   7.123  0.0793 -1.1103 -0.7133
 9454SOL    HW239822   0.888   3.699   7.170  2.4287 -0.2929  0.4378
 9455SOL     OW39823   4.472   2.910   6.030 -0.1779 -0.2583 -0.3603
 9455SOL    HW139824   4.422   2.837   6.066 -0.7255 -0.2606 -1.1257
 9455SOL    HW239825   4.408   2.973   5.997  0.7857  1.1625  0.4731
 9456SOL     OW39826   3.642   2.270   5.059  0.5875 -0.2711 -0.2351
 9456SOL    HW139827   3.722   2.310   5.093  1.8802 -1.2345 -2.1716
 9456SOL    HW239828   3.672   2.230   4.978  0.3481 -0.8968 -0.0123
 9457SOL     OW39829   3.958   2.687  14.894 -0.0971  0.3753  0.0828
 9457SOL    HW139830   4.027   2.735  14.849  0.5559  0.8265  1.5734
 9457SOL    HW239831   3.999   2.659  14.977 -0.9127 -1.3312 -0.0926
 9458SOL     OW39832   2.747   3.477   2.413 -0.1347  0.0759 -0.2221
 9458SOL    HW139833   2.757   3.398   2.361  0.6557 -1.0970  1.7065
 9458SOL    HW239834   2.785   3.436   2.491 -0.1859 -1.0360 -0.7866
 9459SOL     OW39835   2.184   1.585  10.348  0.0294  0.0765 -0.1918
 9459SOL    HW139836   2.112   1.528  10.374  0.6934 -0.1135  1.1970
 9459SOL    HW239837   2.256   1.551  10.401 -1.4414 -3.5585 -0.4931
 9460SOL     OW39838   0.910   1.040  14.117 -0.4096  0.2741 -0.2311
 9460SOL    HW139839   0.824   1.000  14.121  0.7852 -1.8781  3.8798
 9460SOL    HW239840   0.894   1.101  14.189  1.0247 -0.8933  1.0808
 9461SOL     OW39841   1.968   2.173   3.635  0.2173 -0.0948 -0.1935
 9461SOL    HW139842   2.025   2.149   3.708 -1.9892 -0.7015  1.2984
 9461SOL    HW239843   1.887   2.205   3.674  2.1268  2.2619  1.8267
 9462SOL     OW39844   3.771   2.844   7.566  0.0893  0.4772  0.0150
 9462SOL    HW139845   3.858   2.813   7.540  0.5447  0.9472  1.0147
 9462SOL    HW239846   3.808   2.908   7.627  0.4005 -1.9934  2.4100
 9463SOL     OW39847   0.438   3.329  15.074  0.3186  0.0510  0.3525
 9463SOL    HW139848   0.424   3.424  15.068 -0.2130 -0.0741 -0.5519
 9463SOL    HW239849   0.493   3.320  15.151 -0.7365 -1.5740  0.9085
 9464SOL     OW39850   0.007   2.217   9.651 -0.2912 -0.1803  0.0787
 9464SOL    HW139851   0.013   2.305   9.687 -0.5714 -0.2343  0.2555
 9464SOL    HW239852   0.019   2.182   9.739  1.5393 -1.5080 -0.7206
 9465SOL     OW39853   4.429   4.322  16.708 -0.6135  0.3228  0.2524
 9465SOL    HW139854   4.487   4.397  16.720 -1.9290  1.3178  0.4289
 9465SOL    HW239855   4.468   4.283  16.630  0.8877 -0.0002  1.1573
 9466SOL     OW39856   1.911   0.417   0.608  0.3083 -0.3029  0.4435
 9466SOL    HW139857   1.929   0.411   0.702  1.1948 -3.1249  0.0786
 9466SOL    HW239858   1.999   0.429   0.574  0.7688 -0.5719  1.5190
 9467SOL     OW39859   2.213   0.868   5.279 -0.3472  0.2354 -0.4807
 9467SOL    HW139860   2.171   0.860   5.365  1.7582 -2.5137  0.2932
 9467SOL    HW239861   2.272   0.943   5.291  0.7823 -0.5208 -1.3428
 9468SOL     OW39862   1.639   4.556   4.612  0.5384  0.2131  0.4585
 9468SOL    HW139863   1.697   4.539   4.686 -1.7664 -1.3346  1.9420
 9468SOL    HW239864   1.562   4.508   4.644  0.6779 -0.9896 -1.0384
 9469SOL     OW39865   3.981   0.172   0.575  0.4890 -0.1599  0.4368
 9469SOL    HW139866   3.907   0.170   0.635  0.0147 -1.2920 -0.1743
 9469SOL    HW239867   3.922   0.169   0.499  2.5944 -0.4838 -1.2145
 9470SOL     OW39868   3.682   2.913  14.939 -0.6730  1.1873  0.4008
 9470SOL    HW139869   3.615   2.876  14.996 -0.3155 -0.5192 -0.2683
 9470SOL    HW239870   3.708   2.993  14.985 -1.5082 -0.0220  2.9717
 9471SOL     OW39871   4.623   3.836  17.359 -0.1622  0.1946 -0.2363
 9471SOL    HW139872   4.543   3.838  17.307 -0.0459 -1.2524 -0.4895
 9471SOL    HW239873   4.598   3.893  17.432 -3.2489 -0.1432 -1.0306
 9472SOL     OW39874   4.722   2.111   9.908  0.5159  0.1879 -0.4126
 9472SOL    HW139875   0.012   2.019   9.931  1.1205  0.5858  0.7783
 9472SOL    HW239876   0.068   2.146   9.962 -0.1565 -1.1604  1.3417
 9473SOL     OW39877   1.078   2.596   4.841  0.3572  0.0636 -0.3857
 9473SOL    HW139878   1.061   2.554   4.756  1.1220 -2.3276  0.6358
 9473SOL    HW239879   1.099   2.687   4.821 -0.0960  0.0463 -0.9614
 9474SOL     OW39880   4.717   3.989   2.266 -0.1725  0.3355 -0.1500
 9474SOL    HW139881   4.651   4.028   2.322 -2.1382 -0.6337 -1.7638
 9474SOL    HW239882   4.687   3.898   2.263  1.1352 -0.0852 -0.8382
 9475SOL     OW39883   1.772   1.090   1.319  0.2891 -0.6267 -0.2903
 9475SOL    HW139884   1.691   1.098   1.269  0.0693 -0.0795  0.1446
 9475SOL    HW239885   1.802   1.010   1.276  2.6569  0.5304 -0.7606
 9476SOL     OW39886   0.596   1.784   6.127  0.1027  0.6223 -0.5001
 9476SOL    HW139887   0.578   1.754   6.038  0.8256 -0.0971 -0.4016
 9476SOL    HW239888   0.663   1.719   6.147 -0.6364 -0.7069 -2.3167
 9477SOL     OW39889   4.212   2.184   7.363  0.4607 -0.2496 -0.2580
 9477SOL    HW139890   4.170   2.152   7.442 -1.4278  1.5054 -0.5527
 9477SOL    HW239891   4.298   2.142   7.367  0.5467 -0.0343  0.1511
 9478SOL     OW39892   4.553   3.184   5.388  0.2118 -0.0642 -0.5525
 9478SOL    HW139893   4.631   3.238   5.402  0.4187 -0.7519  1.0242
 9478SOL    HW239894   4.586   3.096   5.405  0.6602  0.5519  1.7363
 9479SOL     OW39895   4.160   1.918  14.512  0.3634 -0.1462 -0.2977
 9479SOL    HW139896   4.178   1.845  14.452 -0.9450 -0.9433  0.2758
 9479SOL    HW239897   4.078   1.946  14.471  1.4388  0.4307 -2.0518
 9480SOL     OW39898   3.216   2.341  12.084  0.4603  0.1936  0.1459
 9480SOL    HW139899   3.274   2.284  12.134 -0.1921  1.2620  2.1341
 9480SOL    HW239900   3.220   2.289  12.004 -2.9131  0.0134  0.0929
 9481SOL     OW39901   3.101   1.432   7.056 -0.8605  0.7010 -0.1766
 9481SOL    HW139902   3.139   1.471   6.977  1.0596 -1.0345 -0.0965
 9481SOL    HW239903   3.176   1.448   7.113 -0.5874 -0.2748 -0.2668
 9482SOL     OW39904   0.547   2.782   3.647  0.7092 -0.1825 -0.1515
 9482SOL    HW139905   0.619   2.765   3.586 -0.7186  0.1863 -1.9536
 9482SOL    HW239906   0.475   2.775   3.584  0.2075 -0.8056  0.4924
 9483SOL     OW39907   0.592   1.351   3.516 -0.1451 -0.4173 -0.5212
 9483SOL    HW139908   0.515   1.366   3.460 -0.9980  0.0709  0.7863
 9483SOL    HW239909   0.559   1.344   3.605 -0.2657  0.5709 -0.4885
 9484SOL     OW39910   1.170   4.510   6.412  0.1065  0.1551  0.7359
 9484SOL    HW139911   1.262   4.519   6.386  0.6948 -1.2896  2.2628
 9484SOL    HW239912   1.182   4.505   6.507  0.9091 -0.7861  0.5735
 9485SOL     OW39913   2.895   2.840  15.660 -0.2422 -0.3840  0.1459
 9485SOL    HW139914   2.904   2.843  15.565  0.1684 -0.5167  0.1805
 9485SOL    HW239915   2.831   2.909  15.675 -0.3385 -1.1681  3.3262
 9486SOL     OW39916   0.214   2.371   7.902  0.1554  0.0936  0.6306
 9486SOL    HW139917   0.273   2.315   7.853  4.0742  1.2506  3.9658
 9486SOL    HW239918   0.202   2.311   7.975 -0.8273 -0.5254 -0.0548
 9487SOL     OW39919   1.439   2.335   2.671  0.4681 -0.0219  0.6175
 9487SOL    HW139920   1.442   2.254   2.620  0.9124  0.3040  0.1227
 9487SOL    HW239921   1.507   2.309   2.733  0.1429 -1.5881  0.3264
 9488SOL     OW39922   2.949   3.822  15.516 -0.6629  0.9965  0.2956
 9488SOL    HW139923   3.025   3.873  15.488 -0.9580  1.4648  0.3503
 9488SOL    HW239924   3.002   3.743  15.531  1.4073  2.3739  0.3648
 9489SOL     OW39925   3.968   0.660  16.159 -0.2616 -0.3910 -0.1237
 9489SOL    HW139926   3.894   0.600  16.143 -1.4253  1.4732 -1.6880
 9489SOL    HW239927   3.963   0.662  16.254  0.2984  0.7223 -0.1190
 9490SOL     OW39928   4.298   2.799  10.071  0.3332  0.5148 -0.0983
 9490SOL    HW139929   4.352   2.818  10.148  0.7734  0.6072 -0.4356
 9490SOL    HW239930   4.338   2.849  10.000 -0.1418  1.0380 -0.0037
 9491SOL     OW39931   2.137   4.035   1.295 -0.6868 -0.3494 -0.0448
 9491SOL    HW139932   2.150   3.968   1.362  1.8175  1.1542  0.9737
 9491SOL    HW239933   2.223   4.029   1.255 -0.6596  0.2182 -0.0710
 9492SOL     OW39934   0.475   2.379   3.036 -0.7975  0.3521 -0.3021
 9492SOL    HW139935   0.489   2.423   2.953 -1.4778  0.1015 -0.5469
 9492SOL    HW239936   0.564   2.353   3.061 -0.0822  0.8956 -2.2875
 9493SOL     OW39937   1.797   0.166   7.074 -0.2512  0.1174  0.1938
 9493SOL    HW139938   1.886   0.152   7.044 -0.4181 -0.0363 -0.2343
 9493SOL    HW239939   1.751   0.119   7.004 -2.3452  1.2007  0.8490
 9494SOL     OW39940   0.238   4.214   0.296  0.5596  0.0697  0.1300
 9494SOL    HW139941   0.303   4.153   0.261 -0.8245 -2.6693  2.3525
 9494SOL    HW239942   0.174   4.156   0.338  0.2847  1.0592  1.0776
 9495SOL     OW39943   2.613   3.062  15.430 -0.2250 -0.2859  0.5862
 9495SOL    HW139944   2.643   3.069  15.521  1.1917 -1.8739  0.2542
 9495SOL    HW239945   2.621   3.152  15.400 -1.6788  0.2609  1.8609
 9496SOL     OW39946   3.615   0.116   1.951  0.2223 -0.0580 -0.1332
 9496SOL    HW139947   3.661   0.045   1.995 -2.0328 -0.6747  1.2718
 9496SOL    HW239948   3.667   0.190   1.984  1.1893 -0.3642 -0.9914
 9497SOL     OW39949   1.338   0.649   2.370 -0.1181 -0.5954 -0.0160
 9497SOL    HW139950   1.432   0.667   2.375  0.3928 -2.6835 -2.7202
 9497SOL    HW239951   1.292   0.733   2.375  0.0130 -0.4394 -1.7755
 9498SOL     OW39952   2.095   4.060   7.327  0.6117  0.5804  0.0535
 9498SOL    HW139953   2.151   4.047   7.404 -0.2024 -0.0667  0.5415
 9498SOL    HW239954   2.027   3.994   7.344  0.0233  0.6899 -1.9063
 9499SOL     OW39955   1.637   2.435   8.330 -0.1691  0.3567  0.2903
 9499SOL    HW139956   1.613   2.499   8.397  0.4213  1.3766 -0.4646
 9499SOL    HW239957   1.567   2.370   8.337  0.5931 -0.3777  1.1084
 9500SOL     OW39958   2.465   2.174   3.961 -0.2701  0.9465  0.1302
 9500SOL    HW139959   2.504   2.142   3.880  0.7508 -0.4136  1.1565
 9500SOL    HW239960   2.524   2.247   3.980 -0.3953  1.6375 -2.1580
 9501SOL     OW39961   0.602   4.396   6.454 -0.1085  0.0302 -0.2096
 9501SOL    HW139962   0.637   4.312   6.485  2.0750  0.9079 -0.3506
 9501SOL    HW239963   0.511   4.367   6.442 -0.4259  1.0675 -0.2619
 9502SOL     OW39964   0.079   0.091  17.128 -0.6442 -0.6788  0.3023
 9502SOL    HW139965   0.080   4.720  17.138 -0.9264 -0.8722 -1.6334
 9502SOL    HW239966   0.142   0.126  17.192  1.9144 -1.4488 -1.8076
 9503SOL     OW39967   1.107   1.952   9.609  0.0113 -0.2282 -0.1839
 9503SOL    HW139968   1.119   1.915   9.697  3.2571  3.0659  0.7554
 9503SOL    HW239969   1.122   2.045   9.628 -0.0162 -0.0336 -1.1025
 9504SOL     OW39970   2.855   3.713   4.317  0.2596 -0.1382 -0.2672
 9504SOL    HW139971   2.907   3.661   4.379  0.8796 -0.9452 -1.4633
 9504SOL    HW239972   2.776   3.723   4.369  0.3246  2.9898 -0.7944
 9505SOL     OW39973   2.765   3.660   1.618 -0.4987  0.7747 -0.2892
 9505SOL    HW139974   2.780   3.594   1.550  0.8112  2.0451 -1.2292
 9505SOL    HW239975   2.669   3.665   1.619 -0.5364 -0.0205 -0.0615
 9506SOL     OW39976   2.019   4.320  10.912 -0.4869  0.2658  0.5052
 9506SOL    HW139977   2.041   4.403  10.870 -1.8530  0.4421  0.1480
 9506SOL    HW239978   1.961   4.282  10.845  1.5963  0.4010 -1.3584
 9507SOL     OW39979   3.096   1.429   1.193 -0.7659  0.4426  0.4552
 9507SOL    HW139980   3.048   1.507   1.220  0.4470  1.2576  0.2775
 9507SOL    HW239981   3.183   1.464   1.171 -0.2077 -0.7109  0.8196
 9508SOL     OW39982   0.639   0.472   6.736  0.4350 -0.4141  0.3103
 9508SOL    HW139983   0.645   0.429   6.821  0.4987 -1.1875 -0.0753
 9508SOL    HW239984   0.598   0.557   6.751 -1.6476 -1.5879  1.2771
 9509SOL     OW39985   4.694   0.803   3.184  1.0066  0.2539 -0.4266
 9509SOL    HW139986   0.049   0.852   3.161  0.6899 -0.0750 -2.2072
 9509SOL    HW239987   0.005   0.714   3.189 -1.1835 -0.5825  0.2545
 9510SOL     OW39988   0.768   1.501   7.389 -0.5790 -0.1912 -0.3360
 9510SOL    HW139989   0.852   1.543   7.371 -1.1167  1.2836  0.6188
 9510SOL    HW239990   0.722   1.510   7.306 -0.8153 -0.3167 -0.2182
 9511SOL     OW39991   1.197   3.834   8.791  0.1497  0.1124  0.1340
 9511SOL    HW139992   1.171   3.742   8.786  0.0617  0.2951 -3.0571
 9511SOL    HW239993   1.278   3.826   8.740  2.7709 -1.2487  4.5496
 9512SOL     OW39994   2.300   3.223   9.640  0.0854 -0.6988 -0.1045
 9512SOL    HW139995   2.294   3.317   9.622  1.8691 -0.5441  0.1106
 9512SOL    HW239996   2.319   3.191   9.552 -0.9660  1.8613 -1.2597
 9513SOL     OW39997   1.987   1.442  16.096 -0.0546  0.0813  0.1444
 9513SOL    HW139998   2.016   1.447  16.005  0.8413 -1.4772  0.3352
 9513SOL    HW239999   1.966   1.535  16.107 -0.9307 -0.0770 -0.1145
 9514SOL     OW40000   4.167   3.146   3.877  0.1417 -0.4854 -0.3245
 9514SOL    HW140001   4.115   3.083   3.928 -0.2912  2.1353  2.4416
 9514SOL    HW240002   4.253   3.125   3.913  0.5474  3.3192  0.8749
 9515SOL     OW40003   2.030   1.351   3.714 -0.1475  0.4285 -0.4468
 9515SOL    HW140004   2.090   1.284   3.747  0.2042  0.8081 -0.3166
 9515SOL    HW240005   1.974   1.352   3.792 -1.4686 -1.7880 -1.3486
 9516SOL     OW40006   0.256   1.798  13.611  0.1474 -0.4091  0.4433
 9516SOL    HW140007   0.305   1.723  13.578 -1.4823  0.2162 -3.3729
 9516SOL    HW240008   0.327   1.850  13.649  0.6725 -1.8045  1.3833
 9517SOL     OW40009   0.947   4.610   3.229  0.2619 -0.2796  0.1994
 9517SOL    HW140010   0.970   4.689   3.279  0.4679  1.3068 -2.4138
 9517SOL    HW240011   0.895   4.640   3.155  1.6619 -0.4073 -0.8325
 9518SOL     OW40012   0.620   0.203   1.460  0.3601 -0.0469 -0.0169
 9518SOL    HW140013   0.534   0.161   1.454 -0.2889  0.9664  2.0400
 9518SOL    HW240014   0.639   0.213   1.554 -3.4889  0.0875  0.7418
 9519SOL     OW40015   0.900   3.895   0.885  0.4629  0.0247 -0.1807
 9519SOL    HW140016   0.853   3.902   0.802  0.4153  1.3577 -0.0310
 9519SOL    HW240017   0.826   3.877   0.943  0.1196 -0.3971 -0.7549
 9520SOL     OW40018   2.781   3.991   6.946  0.1044  0.4110 -0.1551
 9520SOL    HW140019   2.784   4.054   7.018  1.0616 -0.9138  0.9676
 9520SOL    HW240020   2.697   3.949   6.964  0.7196 -0.5981  0.3761
 9521SOL     OW40021   0.235   3.416   6.831 -0.3283 -0.0243  0.3813
 9521SOL    HW140022   0.215   3.408   6.924  0.3461 -0.8092  0.4610
 9521SOL    HW240023   0.330   3.406   6.841 -0.2912  2.1605  2.0696
 9522SOL     OW40024   1.099   2.089   8.562 -0.1322 -0.3823 -0.9323
 9522SOL    HW140025   1.046   2.143   8.504 -0.0743  0.4589 -0.2170
 9522SOL    HW240026   1.041   2.072   8.636 -1.4618  3.0061 -1.1976
 9523SOL     OW40027   2.861   3.967   5.554  0.1039  0.1432  0.3605
 9523SOL    HW140028   2.922   3.907   5.511 -1.5117  0.0166 -1.7793
 9523SOL    HW240029   2.908   3.983   5.635  0.1857  3.2675 -0.3167
 9524SOL     OW40030   0.108   4.295  10.043 -0.2556  0.1814  0.1555
 9524SOL    HW140031   0.012   4.293  10.033 -0.2407  1.1484 -0.1987
 9524SOL    HW240032   0.144   4.305   9.955 -0.5416 -1.5159 -0.1568
 9525SOL     OW40033   1.741   4.588  10.385 -0.3407 -0.1947 -0.1296
 9525SOL    HW140034   1.747   4.682  10.369  0.2481 -0.2917 -0.4613
 9525SOL    HW240035   1.645   4.583  10.386 -0.2448 -1.4511  1.8606
 9526SOL     OW40036   1.336   0.638   1.340  0.5000  0.5808  0.1049
 9526SOL    HW140037   1.291   0.704   1.393  0.2124 -0.1554  0.7664
 9526SOL    HW240038   1.428   0.663   1.335  1.0676 -1.3391  1.2513
 9527SOL     OW40039   3.121   1.759   1.860 -0.4356 -0.0263 -0.0393
 9527SOL    HW140040   3.038   1.797   1.887 -1.0445 -0.4579 -1.2744
 9527SOL    HW240041   3.082   1.701   1.794  1.1213  0.5805 -1.4982
 9528SOL     OW40042   0.115   1.553   2.394  0.0121  0.4966 -0.4379
 9528SOL    HW140043   0.099   1.550   2.300  0.1575  1.0967 -0.4847
 9528SOL    HW240044   0.174   1.628   2.395  1.3767 -0.5742 -1.3762
 9529SOL     OW40045   4.110   1.266   0.858  0.6655 -0.5651 -0.3755
 9529SOL    HW140046   4.161   1.339   0.823  0.6294 -0.0992  0.5319
 9529SOL    HW240047   4.116   1.280   0.953 -0.5147 -0.3056 -0.3446
 9530SOL     OW40048   0.424   2.698   2.460  0.3269 -0.3284  0.0296
 9530SOL    HW140049   0.375   2.628   2.502  0.1013 -0.8275 -1.0800
 9530SOL    HW240050   0.489   2.728   2.523  0.4814  1.3230 -0.9102
 9531SOL     OW40051   0.234   0.716   0.224  0.7463 -0.1173 -0.1787
 9531SOL    HW140052   0.260   0.734   0.314 -1.1282 -1.1723  0.5892
 9531SOL    HW240053   0.183   0.796   0.211 -1.6667 -1.4734  0.9114
 9532SOL     OW40054   0.767   0.200  11.228 -0.3118 -0.4602  0.1046
 9532SOL    HW140055   0.780   0.287  11.264  1.0432 -0.6191  0.0165
 9532SOL    HW240056   0.857   0.168  11.238 -0.1872 -0.5260 -1.1920
 9533SOL     OW40057   1.357   2.475   3.227  0.0246  0.0923  0.6384
 9533SOL    HW140058   1.310   2.393   3.242  1.7014 -1.1142 -0.8485
 9533SOL    HW240059   1.317   2.532   3.293 -1.0674  0.8922 -0.7021
 9534SOL     OW40060   3.520   3.320  11.552  0.0049 -0.1406  0.6136
 9534SOL    HW140061   3.490   3.351  11.466 -1.8042 -0.5590  1.1076
 9534SOL    HW240062   3.588   3.256  11.530  0.6368  0.9618 -0.6128
 9535SOL     OW40063   0.650   4.461  12.473 -0.2300  0.4624  0.2473
 9535SOL    HW140064   0.575   4.520  12.481 -1.3866 -0.7558 -1.4577
 9535SOL    HW240065   0.688   4.450  12.560 -0.5785  0.9399  0.4555
 9536SOL     OW40066   3.930   1.330   7.630 -0.2113  0.2200  0.1763
 9536SOL    HW140067   3.912   1.283   7.548  0.8763  0.0895  0.0190
 9536SOL    HW240068   3.862   1.396   7.614 -1.4091 -0.8937  0.6100
 9537SOL     OW40069   1.070   4.603   2.555 -0.2342 -0.0336 -0.0589
 9537SOL    HW140070   1.154   4.579   2.517 -0.1328  0.8111 -0.3789
 9537SOL    HW240071   1.046   4.676   2.498 -0.2811  2.0281  2.5954
 9538SOL     OW40072   3.540   2.343  10.619  0.1461  0.1219  0.3324
 9538SOL    HW140073   3.500   2.283  10.682  1.0838 -0.7208  0.1317
 9538SOL    HW240074   3.573   2.283  10.552 -1.1225 -0.3463  0.1262
 9539SOL     OW40075   4.454   4.334   0.875  0.1751 -0.0564  0.8912
 9539SOL    HW140076   4.411   4.398   0.820 -1.0529 -3.0446 -1.5885
 9539SOL    HW240077   4.537   4.309   0.835  0.2934  2.6197 -0.4630
 9540SOL     OW40078   4.672   4.536  11.282 -0.0603 -0.0290  0.0490
 9540SOL    HW140079   4.661   4.554  11.189  2.5825  2.1204  0.1706
 9540SOL    HW240080   0.020   4.596  11.301 -0.2839  0.3962 -0.4440
 9541SOL     OW40081   0.113   3.138  15.179  0.1486 -0.4064  0.1898
 9541SOL    HW140082   0.111   3.058  15.231  0.8873 -1.1408 -0.9060
 9541SOL    HW240083   0.031   3.139  15.130  1.1571 -0.8560 -1.4922
 9542SOL     OW40084   2.248   3.442   7.509  0.0355 -0.0164  0.3453
 9542SOL    HW140085   2.340   3.418   7.498  0.1324  0.3335  0.4267
 9542SOL    HW240086   2.266   3.526   7.550  0.4710  0.6083 -1.1228
 9543SOL     OW40087   0.605   1.910  10.359 -0.2149 -0.0210 -0.3601
 9543SOL    HW140088   0.640   1.944  10.277  0.8988  0.0995  0.1543
 9543SOL    HW240089   0.673   1.847  10.382 -0.5965 -0.6989 -1.1045
 9544SOL     OW40090   2.582   4.330   3.504 -0.1815 -0.0164 -0.4602
 9544SOL    HW140091   2.624   4.398   3.556 -0.5322 -0.0632 -0.1145
 9544SOL    HW240092   2.490   4.339   3.530  0.7801  1.3949  2.3217
 9545SOL     OW40093   4.012   3.842   4.567  0.8183  0.4578 -0.0783
 9545SOL    HW140094   4.001   3.914   4.505  0.8978  1.1671  0.7187
 9545SOL    HW240095   4.050   3.889   4.641 -0.6180 -1.8277  2.1151
 9546SOL     OW40096   1.383   2.460   0.107 -0.5626  0.4620  0.6091
 9546SOL    HW140097   1.321   2.512   0.055 -0.7366 -0.2504  0.1146
 9546SOL    HW240098   1.401   2.389   0.045 -2.0338  2.3135 -1.9710
 9547SOL     OW40099   2.797   0.598   6.364 -0.3621 -0.0187  0.5297
 9547SOL    HW140100   2.771   0.673   6.310 -1.1647 -0.9532 -0.3768
 9547SOL    HW240101   2.757   0.525   6.316  2.6649 -2.4667  1.6869
 9548SOL     OW40102   0.686   0.533   0.886  0.0383  0.2574  0.1749
 9548SOL    HW140103   0.725   0.578   0.961 -1.0600  1.1006  0.2497
 9548SOL    HW240104   0.766   0.500   0.845 -0.9542 -1.1196 -0.6541
 9549SOL     OW40105   3.957   1.891   3.182 -0.3224  0.3945 -0.3369
 9549SOL    HW140106   3.869   1.929   3.192 -0.4124  0.6423 -2.2239
 9549SOL    HW240107   4.021   1.961   3.188 -1.4938  1.5779 -1.7008
 9550SOL     OW40108   4.064   1.706   5.635  0.1951  0.0015  0.4397
 9550SOL    HW140109   4.077   1.777   5.572 -0.5297 -0.1850  0.0818
 9550SOL    HW240110   4.113   1.734   5.712  0.8951  2.8945 -1.0327
 9551SOL     OW40111   3.273   0.839  14.680  0.7378  0.5336 -0.1542
 9551SOL    HW140112   3.243   0.764  14.629 -2.2471  1.1673  0.6648
 9551SOL    HW240113   3.196   0.896  14.688  2.6630  3.1378  0.0906
 9552SOL     OW40114   1.878   0.081  15.828 -0.0871  0.5437  0.0743
 9552SOL    HW140115   1.970   0.090  15.804 -0.3018  2.1049 -0.1700
 9552SOL    HW240116   1.844   0.031  15.754  2.4294 -0.4116 -0.4431
 9553SOL     OW40117   0.047   1.539   3.176 -0.3014  0.0126 -0.3529
 9553SOL    HW140118   4.679   1.517   3.167  0.0196 -0.6239 -2.0289
 9553SOL    HW240119   0.087   1.480   3.112 -0.9191 -0.6168 -0.1545
 9554SOL     OW40120   3.649   4.410   4.897 -0.1930 -0.4396  0.3049
 9554SOL    HW140121   3.741   4.404   4.869  0.1750  1.4170  1.0587
 9554SOL    HW240122   3.640   4.339   4.960 -2.7089 -0.3896 -0.0016
 9555SOL     OW40123   2.956   2.034   8.233  0.0764  0.1191  0.0412
 9555SOL    HW140124   2.970   1.996   8.320 -0.8340  3.0051  1.4554
 9555SOL    HW240125   2.970   2.128   8.249  0.7000  0.2432 -1.2723
 9556SOL     OW40126   1.097   3.541   0.110  0.0794 -0.4903  0.4434
 9556SOL    HW140127   1.024   3.595   0.078  1.0295  0.6459  0.2052
 9556SOL    HW240128   1.142   3.583   0.183 -0.3592 -0.9062  0.9612
 9557SOL     OW40129   4.116   3.969   5.773  0.6175 -0.5611 -0.2532
 9557SOL    HW140130   4.080   4.056   5.790  2.0664 -0.3251  1.5461
 9557SOL    HW240131   4.072   3.928   5.847  0.2167 -0.2637 -0.3259
 9558SOL     OW40132   3.055   0.893   0.223 -0.3440 -0.7398 -0.3154
 9558SOL    HW140133   2.972   0.936   0.243  0.7939  1.5585 -0.5159
 9558SOL    HW240134   3.022   0.859   0.139 -0.1541  0.4009 -0.8499
 9559SOL     OW40135   0.973   3.491   2.202 -0.2792  0.3445 -0.0552
 9559SOL    HW140136   0.991   3.578   2.166 -0.1341  1.3664  2.4768
 9559SOL    HW240137   1.020   3.441   2.136 -1.5524  0.1689 -0.8207
 9560SOL     OW40138   2.587   4.331   0.427 -0.3302 -0.2957  0.5414
 9560SOL    HW140139   2.516   4.377   0.383 -0.8200 -0.5195  1.0868
 9560SOL    HW240140   2.651   4.307   0.360 -1.1330  2.9694 -1.3854
 9561SOL     OW40141   2.080   2.886   8.478 -0.2957  0.1616  0.0787
 9561SOL    HW140142   2.173   2.881   8.457 -0.5401  0.9837 -1.1599
 9561SOL    HW240143   2.079   2.912   8.570 -0.1916 -1.0685  0.4235
 9562SOL     OW40144   4.081   3.123   6.109  0.1806 -0.2153  0.1524
 9562SOL    HW140145   4.152   3.152   6.167  1.2255 -0.2927 -1.0897
 9562SOL    HW240146   4.037   3.205   6.086  2.9675  0.1667 -3.6713
 9563SOL     OW40147   0.119   1.603   8.424  0.1796  0.5933 -0.1505
 9563SOL    HW140148   0.034   1.601   8.468  1.2802 -2.0806  1.8744
 9563SOL    HW240149   0.160   1.524   8.459  0.2633  1.1222  0.9410
 9564SOL     OW40150   3.366   1.399   2.694  0.1562 -0.0974 -0.2635
 9564SOL    HW140151   3.278   1.366   2.712  0.6223 -0.8708  0.5583
 9564SOL    HW240152   3.408   1.315   2.677 -1.4625 -1.0597  0.4876
 9565SOL     OW40153   4.313   0.601   6.187 -0.5296 -0.6912  0.3949
 9565SOL    HW140154   4.292   0.665   6.256 -0.1329 -1.1964  0.9815
 9565SOL    HW240155   4.293   0.517   6.229  0.9739 -0.3823  1.7072
   4.72397   4.72397  17.69754
