Membrane in water
40155
    1TCq1    O1    1   3.845   4.481  11.123  0.2075 -0.2892 -0.9134
    1TCq1    C1    2   3.719   4.499  11.169  0.4155 -0.1033  0.0617
    1TCq1    O2    3   3.626   4.420  11.161  0.6661  0.6563  0.6544
    1TCq1    C2    4   3.716   4.629  11.243 -0.0390  0.0137  0.1954
    1TCq1    C3    5   3.754   0.020  11.175  0.3254  0.7945 -0.0871
    1TCq1    C4    6   3.698   0.140  11.210  0.2407 -0.2439  0.0946
    1TCq1    C5    7   3.623   0.151  11.326 -0.1985  0.5132  0.3858
    1TCq1    C6    8   3.590   0.036  11.394  0.1477 -0.5825 -0.2279
    1TCq1    C7    9   3.634   4.636  11.355  0.1504  0.2850  0.3286
    1TCq1    C8   10   3.491   0.040  11.508 -0.0720  0.4894  0.3353
    1TCq1    O4   11   3.405   0.128  11.511  0.0684 -0.0054 -0.0318
    1TCq1    C9   12   3.712   0.260  11.129  0.4552 -0.0232  0.3497
    1TCq1    O5   13   3.751   0.236  11.013  0.0739 -0.2562 -1.2647
    1TCq1    O6   14   3.660   0.367  11.176  0.1038 -0.0599  0.5719
    1TCq1    H1   15   3.915   4.543  11.157 -0.7206  0.5376 -0.5023
    1TCq1    H2   16   3.818   0.033  11.089 -0.1508  3.1047 -0.0835
    1TCq1    H3   17   3.572   0.239  11.363 -2.1995  0.0309 -1.2403
    1TCq1    H4   18   3.593   4.546  11.399 -1.0754  0.8585  0.3718
    2MPD2     C   19   3.285   4.547  11.926 -0.5037 -0.1417 -0.1926
    2MPD2    C1   20   3.240   4.658  11.858  0.3735  0.3779 -0.1988
    2MPD2    C2   21   3.309   4.696  11.742 -0.2056 -0.2035  0.9636
    2MPD2    C3   22   3.420   4.621  11.704 -0.3359  0.0256  0.3714
    2MPD2    C4   23   3.467   4.515  11.772 -0.4079  0.1078  0.0061
    2MPD2    C5   24   3.394   4.476  11.883  0.2923  0.2752  0.2750
    2MPD2     H   25   3.275   0.055  11.677 -0.3865  0.9861  2.5451
    2MPD2    H1   26   3.549   4.455  11.735 -0.7522 -1.6829  2.1338
    2MPD2    H2   27   3.229   4.502  12.008  3.4187  0.4557  2.8090
    2MPD2    H3   28   3.419   4.384  11.935 -1.4591  0.3899  1.3153
    2MPD2     N   29   3.507   4.658  11.601  0.4036 -0.0441  0.0526
    2MPD2    H5   30   3.593   4.607  11.583  0.4851  0.8085 -1.9087
    2MPD2    N1   31   3.131   0.014  11.905 -1.1024  0.0367  0.5168
    2MPD2    H7   32   3.115   0.094  11.844 -0.2701  0.0319  0.2883
    3TCq1    O1   33   2.625   0.511  10.765  0.5703  0.3953  0.1506
    3TCq1    C1   34   2.542   0.559  10.859 -0.8529  0.3447 -0.2439
    3TCq1    O2   35   2.483   0.486  10.937  0.2557  0.2551 -0.0353
    3TCq1    C2   36   2.489   0.686  10.804 -0.5082  0.5162  0.6540
    3TCq1    C3   37   2.580   0.769  10.734  1.0123  0.3651  0.3723
    3TCq1    C4   38   2.539   0.902  10.721  0.0620  0.1776  0.4207
    3TCq1    C5   39   2.431   0.958  10.782  0.5356 -0.4119  0.3878
    3TCq1    C6   40   2.352   0.873  10.852  0.0506  0.3701 -0.0408
    3TCq1    C7   41   2.388   0.741  10.873 -0.4418 -0.1415 -0.0971
    3TCq1    C8   42   2.246   0.919  10.944  0.1284 -0.3570 -0.1583
    3TCq1    O4   43   2.170   0.839  10.997  0.4041 -0.4750 -0.6457
    3TCq1    C9   44   2.621   1.000  10.650  0.0308  1.3024  0.7689
    3TCq1    O5   45   2.693   0.949  10.562  0.4482 -1.0263 -0.5175
    3TCq1    O6   46   2.636   1.120  10.698 -0.7550 -0.1165  0.1167
    3TCq1    H1   47   2.632   0.566  10.684 -2.4039  0.2301 -0.2097
    3TCq1    H2   48   2.671   0.737  10.686 -0.2576 -2.3836 -0.2054
    3TCq1    H3   49   2.404   1.062  10.771  1.5343 -0.2118 -0.1545
    3TCq1    H4   50   2.327   0.677  10.936 -0.9078  0.5104  0.1162
    4MPD2     C   51   2.012   1.286  11.219  0.7720  0.8488  0.4321
    4MPD2    C1   52   2.078   1.349  11.118 -0.0475  0.0594  0.1853
    4MPD2    C2   53   2.141   1.276  11.024 -0.1199  0.2877 -0.0501
    4MPD2    C3   54   2.141   1.133  11.028 -0.6293 -0.0371  0.4601
    4MPD2    C4   55   2.074   1.074  11.131 -0.2998 -0.5863  0.0054
    4MPD2    C5   56   1.999   1.150  11.216  0.2794  0.2792  0.2101
    4MPD2     H   57   2.194   1.331  10.947 -0.0926 -0.4494 -0.5570
    4MPD2    H1   58   2.063   0.966  11.128  1.1121 -0.7267 -0.2081
    4MPD2    H2   59   1.951   1.339  11.291  0.8702 -0.3580  1.3894
    4MPD2    H3   60   1.934   1.096  11.285 -0.6039 -1.4397 -1.9735
    4MPD2     N   61   2.222   1.056  10.935 -0.2266 -0.5984 -0.4978
    4MPD2    H5   62   2.272   1.106  10.862 -1.5072  0.7863 -0.4238
    4MPD2    N1   63   2.092   1.487  11.110 -0.5591 -0.4567 -0.4334
    4MPD2    H7   64   2.147   1.522  11.032 -1.4471 -4.6366 -2.9414
    5TCq1    O1   65   2.258   3.271  11.132 -0.3149  0.3923 -0.1997
    5TCq1    C1   66   2.340   3.214  11.037  0.9016  0.3492 -0.6264
    5TCq1    O2   67   2.457   3.197  11.036 -0.0592  0.4654 -0.1642
    5TCq1    C2   68   2.242   3.169  10.935  0.1870  0.0389  0.2241
    5TCq1    C3   69   2.107   3.163  10.963 -0.2539 -0.3885 -0.0570
    5TCq1    C4   70   2.034   3.077  10.882 -0.3418 -0.5570  0.2951
    5TCq1    C5   71   2.093   3.006  10.778  0.2509 -0.1955 -0.6816
    5TCq1    C6   72   2.223   3.025  10.744  0.0562  0.1958  0.0904
    5TCq1    C7   73   2.299   3.101  10.826 -0.0671 -0.0311 -0.8530
    5TCq1    C8   74   2.282   2.939  10.637 -0.7864  0.3663 -0.4883
    5TCq1    O4   75   2.401   2.901  10.643 -0.0764  0.1337  0.7112
    5TCq1    C9   76   1.893   3.065  10.921 -0.3441  0.2792 -0.9956
    5TCq1    O5   77   1.813   3.016  10.840  0.0213  0.3465 -0.4005
    5TCq1    O6   78   1.858   3.134  11.023  0.3166 -0.1569  0.1008
    5TCq1    H1   79   2.178   3.311  11.092 -1.4435 -0.1473  1.5657
    5TCq1    H2   80   2.056   3.187  11.055  0.7810  0.5660  0.2601
    5TCq1    H3   81   2.037   2.926  10.731  0.9148 -0.2960 -1.3025
    5TCq1    H4   82   2.400   3.118  10.792  0.4582 -1.1782  0.1595
    6MPD2     C   83   2.079   2.810  10.366 -0.4207 -0.6232 -0.7448
    6MPD2    C1   84   2.200   2.831  10.434 -0.3664  0.5147  0.2482
    6MPD2    C2   85   2.315   2.758  10.399 -0.9087  0.4736 -0.2104
    6MPD2    C3   86   2.307   2.665  10.301  0.0931  0.1938  0.1183
    6MPD2    C4   87   2.189   2.640  10.233  0.0721  0.1145 -0.7443
    6MPD2    C5   88   2.075   2.705  10.270 -0.0870 -0.5672 -0.5468
    6MPD2     H   89   2.413   2.774  10.442  0.4099 -2.6601 -1.9990
    6MPD2    H1   90   2.182   2.569  10.151 -1.3151  0.2881 -0.7627
    6MPD2    H2   91   1.984   2.852  10.395  0.1328 -0.4896  0.8688
    6MPD2    H3   92   1.986   2.673  10.216 -1.2447  0.4284  0.7858
    6MPD2     N   93   2.429   2.609  10.260 -0.3270  0.1818  0.2931
    6MPD2    H5   94   2.505   2.629  10.324 -0.6891  1.7263  0.2425
    6MPD2    N1   95   2.187   2.918  10.541  0.4122 -0.4216 -0.1115
    6MPD2    H7   96   2.100   2.970  10.543  0.9923  0.5612 -0.5135
    7TCq1    O1   97   4.648   1.451  13.334 -0.0637 -0.1185 -0.3928
    7TCq1    C1   98   4.657   1.533  13.233 -0.0746 -0.1434 -0.0706
    7TCq1    O2   99   4.579   1.535  13.134  0.0069 -0.6113  0.1826
    7TCq1    C2  100   4.697   1.652  13.306 -0.1934 -0.0860  0.2837
    7TCq1    C3  101   4.629   1.768  13.287 -0.2844 -0.6355 -0.4055
    7TCq1    C4  102   4.683   1.879  13.339  0.1459 -0.5120 -0.5400
    7TCq1    C5  103   0.084   1.880  13.399  0.9097 -1.1190 -0.3442
    7TCq1    C6  104   0.148   1.756  13.415  0.0312  0.2321  0.2893
    7TCq1    C7  105   0.091   1.642  13.370  0.0100  0.1888 -0.1124
    7TCq1    C8  106   0.255   1.736  13.522  0.4894 -0.4236 -0.2971
    7TCq1    O4  107   0.288   1.621  13.550 -0.3237 -0.1316  0.9487
    7TCq1    C9  108   4.612   2.006  13.316 -0.8519 -0.8140  0.0354
    7TCq1    O5  109   4.549   2.012  13.208 -0.1779 -0.0801 -0.0908
    7TCq1    O6  110   4.636   2.097  13.400 -0.8417 -0.2200 -0.4407
    7TCq1    H1  111   4.692   1.489  13.413 -0.3060  4.3236 -2.4153
    7TCq1    H2  112   4.534   1.776  13.235 -0.5332 -2.4936 -0.2194
    7TCq1    H3  113   0.133   1.967  13.443  0.2343 -1.8368  1.8363
    7TCq1    H4  114   0.141   1.546  13.381 -1.0960 -0.4312 -0.4395
    8MPD2     C  115   0.565   1.900  13.877 -0.0044  0.0007  0.2713
    8MPD2    C1  116   0.505   1.782  13.870  0.3468 -0.0555 -0.1012
    8MPD2    C2  117   0.429   1.758  13.758 -0.1381 -0.7972  0.5538
    8MPD2    C3  118   0.399   1.868  13.675  0.5267  0.4968 -0.0085
    8MPD2    C4  119   0.441   1.990  13.706  0.9421  0.7263  0.0441
    8MPD2    C5  120   0.536   2.010  13.805 -0.4504  0.1398 -0.2869
    8MPD2     H  121   0.383   1.661  13.752  1.0585 -1.3725  0.5643
    8MPD2    H1  122   0.421   2.064  13.630  0.6340  0.2932 -0.2963
    8MPD2    H2  123   0.646   1.916  13.948 -0.7003 -1.3918  1.3784
    8MPD2    H3  124   0.590   2.103  13.822 -0.6542  0.4361 -1.2443
    8MPD2     N  125   0.304   1.854  13.567  0.2433  0.3415 -0.2736
    8MPD2    H5  126   0.272   1.935  13.515  0.5432  1.3451  1.0900
    8MPD2    N1  127   0.539   1.688  13.969  0.5452  0.2569 -0.8125
    8MPD2    H7  128   0.596   1.730  14.042  2.2651 -0.2555 -1.8449
    9TCq1    O1  129   2.592   1.355  10.742 -0.0349  0.0734 -0.0999
    9TCq1    C1  130   2.641   1.449  10.660  0.2089 -0.1844  0.1477
    9TCq1    O2  131   2.629   1.569  10.674 -0.1250 -0.6263 -0.2985
    9TCq1    C2  132   2.769   1.393  10.619  0.0390 -0.8446  0.2401
    9TCq1    C3  133   2.824   1.453  10.514 -0.0387  0.1135  0.0566
    9TCq1    C4  134   2.959   1.451  10.502  0.6910  0.3174 -0.3366
    9TCq1    C5  135   3.038   1.389  10.592 -0.5461  0.0602  0.0246
    9TCq1    C6  136   2.980   1.325  10.694 -0.3702  0.5118 -0.8169
    9TCq1    C7  137   2.846   1.326  10.714 -0.0330 -0.0663 -0.3403
    9TCq1    C8  138   3.071   1.257  10.786 -0.1035  0.2846  0.3478
    9TCq1    O4  139   3.162   1.201  10.728 -0.2695 -0.1145 -0.2424
    9TCq1    C9  140   3.017   1.520  10.388 -0.3097 -0.5677  0.7097
    9TCq1    O5  141   3.139   1.505  10.376  0.2870  0.2239  0.3785
    9TCq1    O6  142   2.943   1.544  10.290 -0.0680 -0.1107 -0.2373
    9TCq1    H1  143   2.621   1.264  10.722  1.0968  0.6232 -0.9696
    9TCq1    H2  144   2.769   1.515  10.443  0.9977  2.8596  1.6411
    9TCq1    H3  145   3.145   1.394  10.579 -0.6678  2.6889  0.0292
    9TCq1    H4  146   2.807   1.282  10.805 -0.0824  0.5704 -0.0527
   10MPD2     C  147   3.206   1.097  11.001  0.2964 -0.1950  0.4670
   10MPD2    C1  148   3.083   1.162  11.009 -0.9218  0.1619 -0.8864
   10MPD2    C2  149   3.002   1.160  11.126  0.6198  0.1002  0.1980
   10MPD2    C3  150   3.052   1.101  11.244 -0.0011  0.2736 -0.0763
   10MPD2    C4  151   3.180   1.049  11.236 -0.0348 -0.1773  0.6761
   10MPD2    C5  152   3.251   1.047  11.120  0.6185 -0.2372  0.1195
   10MPD2     H  153   2.907   1.212  11.130  0.0245 -0.9389 -0.4764
   10MPD2    H1  154   3.224   0.993  11.317  0.8147  1.3366  1.2594
   10MPD2    H2  155   3.258   1.077  10.908  0.5463 -0.8269  0.7435
   10MPD2    H3  156   3.351   1.003  11.127  0.6446 -0.2874 -0.5455
   10MPD2     N  157   2.978   1.088  11.359 -0.5542  0.0035 -0.0006
   10MPD2    H5  158   3.036   1.057  11.436 -1.1458  0.2628  0.5508
   10MPD2    N1  159   3.020   1.238  10.909  0.2718 -0.0423  0.2003
   10MPD2    H7  160   2.928   1.278  10.926 -0.1738 -1.7304  1.8132
   11TCq1    O1  161   3.420   1.769  14.448  0.6155  0.7057  0.6210
   11TCq1    C1  162   3.338   1.715  14.534 -0.1533 -0.0748  0.4068
   11TCq1    O2  163   3.250   1.777  14.596  0.5630  0.1238  0.6830
   11TCq1    C2  164   3.314   1.584  14.472 -0.0593  0.3176 -0.3397
   11TCq1    C3  165   3.418   1.496  14.456  0.3032  0.0530  0.1180
   11TCq1    C4  166   3.393   1.365  14.421 -0.1269 -0.5022 -0.1481
   11TCq1    C5  167   3.267   1.311  14.408  0.0744 -0.3470 -0.0675
   11TCq1    C6  168   3.165   1.405  14.430 -0.3134  1.2324  0.6906
   11TCq1    C7  169   3.187   1.542  14.462  0.5871  0.0269  0.3338
   11TCq1    C8  170   3.022   1.382  14.399 -0.2199 -0.2908  0.5737
   11TCq1    O4  171   2.939   1.470  14.422  0.4122 -0.2837 -0.2615
   11TCq1    C9  172   3.495   1.270  14.412  0.0141 -0.1131 -0.2805
   11TCq1    O5  173   3.467   1.154  14.383 -0.1933  0.2403  0.3344
   11TCq1    O6  174   3.604   1.310  14.464 -0.4869  0.2800  0.2095
   11TCq1    H1  175   3.467   1.722  14.376  0.3042 -0.9290  1.4876
   11TCq1    H2  176   3.520   1.528  14.473 -0.0309  1.5008 -0.5383
   11TCq1    H3  177   3.254   1.213  14.364 -0.7401  0.7325 -2.2450
   11TCq1    H4  178   3.109   1.617  14.454  0.0831 -0.5838 -0.4972
   12MPD2     C  179   2.772   1.288  14.257 -0.1024 -0.4945 -0.9744
   12MPD2    C1  180   2.883   1.211  14.281 -0.1621 -0.1692  0.3193
   12MPD2    C2  181   2.893   1.081  14.239 -0.0247 -0.4677  0.4739
   12MPD2    C3  182   2.790   1.023  14.176  0.3314  1.7930 -0.8404
   12MPD2    C4  183   2.671   1.096  14.154  0.5973  0.5502  0.8640
   12MPD2    C5  184   2.661   1.230  14.195 -0.2171 -0.1279  0.1761
   12MPD2     H  185   2.988   1.028  14.250 -1.3290 -2.4341  2.2314
   12MPD2    H1  186   2.594   1.051  14.092 -1.1928  1.4237  2.4417
   12MPD2    H2  187   2.766   1.395  14.276 -2.6248 -0.9711  0.8900
   12MPD2    H3  188   2.573   1.291  14.179  1.3179  1.4707 -2.0846
   12MPD2     N  189   2.801   0.898  14.107 -0.0362  0.0764 -0.2714
   12MPD2    H5  190   2.716   0.855  14.071  1.0455 -1.8657 -0.5428
   12MPD2    N1  191   3.002   1.258  14.344 -0.6195  0.1251 -0.0691
   12MPD2    H7  192   3.080   1.194  14.347  2.5409  3.9288 -0.7328
   13TCq1    O1  193   3.310   1.344  10.280 -0.3527 -0.1736 -0.0488
   13TCq1    C1  194   3.332   1.220  10.312 -0.2277  0.0506  0.7910
   13TCq1    O2  195   3.437   1.171  10.337 -0.3413  0.2077 -0.0411
   13TCq1    C2  196   3.205   1.162  10.346 -0.2451 -0.0699 -0.2226
   13TCq1    C3  197   3.090   1.186  10.274 -0.3736 -0.5863 -0.0720
   13TCq1    C4  198   2.976   1.118  10.313 -0.0327 -0.2572 -0.3777
   13TCq1    C5  199   2.969   1.035  10.421  0.3192 -0.0298  0.3068
   13TCq1    C6  200   3.089   1.007  10.475  0.1205  0.3652  0.3732
   13TCq1    C7  201   3.205   1.068  10.442 -0.2372  0.3094  0.3872
   13TCq1    C8  202   3.089   0.925  10.595  0.4225 -0.4802  0.0604
   13TCq1    O4  203   3.193   0.866  10.622  0.2568  0.0147 -0.1073
   13TCq1    C9  204   2.856   1.144  10.237  0.1400 -0.6586 -0.2276
   13TCq1    O5  205   2.843   1.246  10.166 -0.2530  0.8601  0.7268
   13TCq1    O6  206   2.764   1.059  10.246  0.3397 -0.3723 -0.4171
   13TCq1    H1  207   3.224   1.386  10.299  0.9934  3.6306 -2.3666
   13TCq1    H2  208   3.086   1.257  10.191 -0.0395 -1.6103 -0.9589
   13TCq1    H3  209   2.876   0.982  10.441 -0.5943  1.0858 -0.9796
   13TCq1    H4  210   3.300   1.060  10.493 -1.1665  2.1385  2.3918
   14MPD2     C  211   2.994   0.729  10.799  0.5788  0.5293 -0.1664
   14MPD2    C1  212   2.945   0.855  10.787 -0.1125 -0.4601 -0.2764
   14MPD2    C2  213   2.838   0.892  10.872  0.4592  0.0438 -0.2862
   14MPD2    C3  214   2.787   0.813  10.972  0.0019 -0.8137  0.5397
   14MPD2    C4  215   2.844   0.691  10.980 -0.0926 -0.6137  0.4997
   14MPD2    C5  216   2.948   0.648  10.895  0.2600  0.7399  0.5010
   14MPD2     H  217   2.811   0.997  10.867 -0.5214 -0.2775 -1.9730
   14MPD2    H1  218   2.801   0.619  11.048  0.8774 -0.0853  1.6769
   14MPD2    H2  219   3.067   0.689  10.730  0.6462  2.1803 -1.0718
   14MPD2    H3  220   2.978   0.546  10.914  1.2474  0.8031 -0.7611
   14MPD2     N  221   2.686   0.857  11.059 -0.1610  0.2488 -0.2247
   14MPD2    H5  222   2.645   0.945  11.029 -0.3623  0.2823  0.1405
   14MPD2    N1  223   2.979   0.942  10.679  0.3807  0.3333 -0.3140
   14MPD2    H7  224   2.895   0.991  10.651  0.4167  1.1430  0.9853
   15TCq1    O1  225   4.441   0.181   2.105  0.4351 -1.0673 -0.3948
   15TCq1    C1  226   4.312   0.230   2.093  0.1671  0.0962  0.3582
   15TCq1    O2  227   4.276   0.349   2.094  0.0088 -0.4677 -0.0096
   15TCq1    C2  228   4.221   0.108   2.106  0.1699  0.1136  0.2657
   15TCq1    C3  229   4.108   0.126   2.181 -0.1913 -0.1624 -0.5105
   15TCq1    C4  230   4.036   0.017   2.230 -1.0418 -0.2063 -0.3708
   15TCq1    C5  231   4.083   4.608   2.206 -0.1767  0.6632 -0.0686
   15TCq1    C6  232   4.197   4.594   2.130 -0.0131  0.6127  0.5646
   15TCq1    C7  233   4.266   4.700   2.068 -0.9731 -0.3467  0.2299
   15TCq1    C8  234   4.267   4.462   2.129 -0.1929 -0.0143 -0.2234
   15TCq1    O4  235   4.376   4.467   2.072  0.3380  0.4530 -0.1012
   15TCq1    C9  236   3.910   0.037   2.296  0.5146 -0.0312  0.0252
   15TCq1    O5  237   3.896   0.155   2.327  0.2899 -0.4988  0.4207
   15TCq1    O6  238   3.851   4.663   2.348  0.1208  0.2175 -0.1446
   15TCq1    H1  239   4.462   0.086   2.117  0.3410 -1.2065 -1.2995
   15TCq1    H2  240   4.086   0.223   2.225  3.0261  1.3201 -2.1212
   15TCq1    H3  241   4.030   4.525   2.251 -0.1568  1.2295  0.9989
   15TCq1    H4  242   4.358   4.689   2.013 -0.3611 -1.3498  1.4501
   16MPD2     C  243   4.170   4.124   2.258 -0.8452  0.6342 -0.4873
   16MPD2    C1  244   4.246   4.219   2.190 -0.2161  0.3008 -0.0176
   16MPD2    C2  245   4.348   4.180   2.107 -0.2031 -0.2683  0.1962
   16MPD2    C3  246   4.377   4.047   2.097  0.0123  0.7010  0.3318
   16MPD2    C4  247   4.305   3.956   2.168 -0.4063 -0.3290 -0.1306
   16MPD2    C5  248   4.202   3.992   2.255  0.1196  0.3097  0.1593
   16MPD2     H  249   4.413   4.250   2.055 -0.1148 -0.7796 -0.3885
   16MPD2    H1  250   4.341   3.854   2.169  0.9931  0.1514 -0.8991
   16MPD2    H2  251   4.080   4.163   2.303  0.2162  1.3110  1.0544
   16MPD2    H3  252   4.136   3.927   2.313  2.2820 -1.4517  0.6347
   16MPD2     N  253   4.488   4.005   2.018 -1.3482  0.0129 -0.2333
   16MPD2    H5  254   4.538   4.079   1.970 -2.4767  1.2224  0.4503
   16MPD2    N1  255   4.200   4.355   2.190  0.1315  0.1712 -0.2344
   16MPD2    H7  256   4.113   4.372   2.241 -0.3385 -0.7256 -0.7323
   17TCq1    O1  257   2.460   4.358  11.810 -0.1478 -0.8248 -0.1033
   17TCq1    C1  258   2.584   4.335  11.857  0.4398 -0.2281 -0.0093
   17TCq1    O2  259   2.623   4.222  11.885  0.3759 -0.9196 -0.3400
   17TCq1    C2  260   2.673   4.439  11.828  0.2845  0.3192 -0.7418
   17TCq1    C3  261   2.636   4.557  11.764  0.5068 -0.1203 -0.0938
   17TCq1    C4  262   2.738   4.634  11.719  0.0317 -1.0372 -0.2309
   17TCq1    C5  263   2.873   4.602  11.739 -0.3941 -0.1415  1.0068
   17TCq1    C6  264   2.898   4.483  11.792 -0.0705 -0.0797  0.7610
   17TCq1    C7  265   2.799   4.402  11.844  0.6586 -0.6543  0.0870
   17TCq1    C8  266   3.019   4.406  11.744 -0.2149  0.2373 -0.3811
   17TCq1    O4  267   3.034   4.296  11.788  0.1956  0.2635 -0.2564
   17TCq1    C9  268   2.698   0.027  11.640  0.6175  0.1745 -0.5641
   17TCq1    O5  269   2.574   0.040  11.632 -0.4751 -0.3238  0.3245
   17TCq1    O6  270   2.791   0.095  11.587 -0.1367 -0.1644 -0.2531
   17TCq1    H1  271   2.437   4.452  11.794  0.3806 -0.3186  2.1643
   17TCq1    H2  272   2.533   4.579  11.740  0.6801  0.7441 -0.0836
   17TCq1    H3  273   2.952   4.665  11.699  0.8140 -3.8083 -2.3250
   17TCq1    H4  274   2.826   4.306  11.886  1.6244 -1.3044 -2.0796
   18MPD2     C  275   3.270   4.304  11.617  1.1026 -0.7482 -0.0042
   18MPD2    C1  276   3.188   4.406  11.568 -0.3218  0.4927  0.3899
   18MPD2    C2  277   3.215   4.448  11.440  0.0337  0.3713  0.2676
   18MPD2    C3  278   3.330   4.410  11.372  0.6565  1.0477  0.2282
   18MPD2    C4  279   3.416   4.313  11.426 -0.2337 -0.1020  0.0305
   18MPD2    C5  280   3.376   4.264  11.550  0.7126  0.3663 -0.0396
   18MPD2     H  281   3.152   4.526  11.399 -0.5964 -0.1070  0.3190
   18MPD2    H1  282   3.500   4.273  11.370  0.5283  1.0202  0.3763
   18MPD2    H2  283   3.261   4.262  11.717  1.0466 -0.5971  0.0549
   18MPD2    H3  284   3.445   4.187  11.584 -0.2829 -0.4442  0.1289
   18MPD2     N  285   3.363   4.470  11.248  0.0065  0.3906 -0.1096
   18MPD2    H5  286   3.444   4.431  11.201  0.6591 -0.0590  1.3589
   18MPD2    N1  287   3.074   4.456  11.633  0.2733  0.6027  0.0637
   18MPD2    H7  288   3.020   4.530  11.589 -1.0377 -1.5456 -1.9496
   19TMC2    C1  289   0.290   0.183  13.700  1.3439  0.0968 -0.3084
   19TMC2    C2  290   0.353   0.203  13.582  0.9695  0.2218 -0.0189
   19TMC2    C3  291   0.289   0.161  13.477  0.5779 -0.3693 -0.1295
   19TMC2    C4  292   0.155   0.165  13.706 -0.0013 -0.0126 -0.2663
   19TMC2    C5  293   0.096   0.108  13.596  0.9734 -0.1659  0.1166
   19TMC2    C6  294   0.164   0.108  13.476  0.1862 -0.2564 -0.2346
   19TMC2     C  295   0.365   0.225  13.813  0.2843  0.3476  0.0522
   19TMC2     O  296   0.486   0.236  13.793  0.0984 -0.1529  0.5166
   19TMC2     H  297   0.461   0.220  13.578  0.6468  2.7273  1.6994
   19TMC2    H1  298   0.104   0.149  13.801  0.6951  0.2390  0.1524
   19TMC2    H2  299   0.109   0.077  13.387 -1.0128 -1.0262  0.7700
   19TMC2    C7  300   4.675   0.069  13.613  0.1129  0.2658 -0.1153
   19TMC2    C8  301   0.325   0.200  13.344  0.9797  0.3310  0.2093
   19TMC2    O1  302   4.624   0.110  13.717 -0.5935 -0.3188 -0.1059
   19TMC2    O2  303   0.259   0.172  13.245  0.2142  0.4227 -0.1015
   19TMC2    O5  304   0.404   0.311  13.351  0.2667  0.6358 -0.2180
   19TMC2    H5  305   0.434   0.335  13.441 -0.7972 -0.6991  0.4825
   20MPD2     C  306   0.454   0.431  14.004  0.6658 -0.0108  0.2256
   20MPD2    C1  307   0.344   0.349  14.025 -0.8408  0.6532 -0.3676
   20MPD2    C2  308   0.285   0.366  14.149  0.1081 -0.4152 -0.4811
   20MPD2    C3  309   0.338   0.448  14.244 -0.4932  0.3880 -0.1665
   20MPD2    C4  310   0.452   0.521  14.223 -0.0309  0.0750  0.3760
   20MPD2    C5  311   0.510   0.514  14.096  0.2515 -0.2141 -0.3404
   20MPD2     H  312   0.204   0.301  14.179 -1.5637  1.4303 -1.0485
   20MPD2    H1  313   0.488   0.583  14.304 -1.2023 -0.3606  1.2342
   20MPD2    H2  314   0.503   0.432  13.907 -1.2794 -0.4444 -0.7771
   20MPD2    H3  315   0.597   0.575  14.073 -0.9704  1.1328 -1.3667
   20MPD2     N  316   0.272   0.467  14.369  0.0612  0.0752 -0.2938
   20MPD2    H5  317   0.306   0.533  14.438  0.3727 -0.5569  0.1556
   20MPD2    N1  318   0.291   0.264  13.923 -0.1873 -1.0083 -0.0793
   20MPD2    H7  319   0.196   0.233  13.942 -0.4027  0.7721  1.7191
   21MPD2     C  320   1.932   1.451  14.740  0.5915 -0.4286  0.2165
   21MPD2    C1  321   1.969   1.318  14.762  0.4488 -0.4337 -0.0549
   21MPD2    C2  322   1.892   1.246  14.849 -0.3979  0.4398  0.3677
   21MPD2    C3  323   1.763   1.290  14.886  0.1299 -0.1245 -0.6089
   21MPD2    C4  324   1.723   1.419  14.859  0.2623  0.3459 -0.1199
   21MPD2    C5  325   1.811   1.501  14.791  0.3366  0.1966 -0.3086
   21MPD2     H  326   1.927   1.146  14.870 -0.5511  0.4718  0.7822
   21MPD2    H1  327   1.628   1.454  14.896  0.3696  0.2340  0.2606
   21MPD2    H2  328   1.988   1.512  14.670 -0.7087 -0.1572 -0.6035
   21MPD2    H3  329   1.785   1.604  14.773  0.2126  0.6110  2.2193
   21MPD2     N  330   1.676   1.214  14.969 -0.3880 -0.0807  0.5277
   21MPD2    H5  331   1.581   1.244  14.987 -0.9510 -1.0393 -0.9340
   21MPD2    N1  332   2.093   1.261  14.713  0.8464  0.1254  0.2521
   21MPD2    H7  333   2.115   1.166  14.742  0.7535 -0.3452 -1.1939
   22TCq2    C1  334   1.711   1.108  15.039 -0.2078  0.3235  0.1301
   22TCq2    O2  335   1.821   1.063  15.070 -0.1248 -0.0923 -0.3759
   22TCq2    C2  336   1.594   1.049  15.097 -0.7982  0.4199 -0.3477
   22TCq2    C3  337   1.608   0.959  15.193  0.4104 -0.4535 -0.4182
   22TCq2    C4  338   1.500   0.895  15.241 -0.2343  0.1352 -0.3749
   22TCq2    C5  339   1.371   0.920  15.203 -0.1587  0.2018 -0.2840
   22TCq2    C6  340   1.361   0.998  15.085 -0.2878  0.0473  0.0244
   22TCq2    C7  341   1.475   1.066  15.038  0.2830  0.3042 -0.4394
   22TCq2    C8  342   1.229   1.008  15.029  0.9027  0.0031 -0.3036
   22TCq2    O4  343   1.147   0.928  15.067  0.4786  0.1991 -0.6903
   22TCq2    C9  344   1.513   0.803  15.348  0.6345 -0.4488  0.9120
   22TCq2    O5  345   1.407   0.767  15.409 -0.2473  0.1096  0.7754
   22TCq2    O6  346   1.627   0.756  15.370 -0.3243 -0.1877 -0.8318
   22TCq2    H2  347   1.708   0.938  15.227  0.2482  0.2065  0.4657
   22TCq2    H3  348   1.285   0.871  15.247 -1.3671  1.5134 -1.1914
   22TCq2    H4  349   1.465   1.110  14.940  1.2353 -0.0456 -0.6940
   23MPD2     C  350   3.693   2.604  15.362  1.0280  0.4261  0.4240
   23MPD2    C1  351   3.602   2.499  15.350 -0.0284 -0.2614  0.1216
   23MPD2    C2  352   3.490   2.510  15.271  0.4760 -0.2581  0.5767
   23MPD2    C3  353   3.462   2.624  15.202 -0.5392  0.1433 -0.3363
   23MPD2    C4  354   3.554   2.729  15.212 -1.1215 -0.3864  0.1459
   23MPD2    C5  355   3.668   2.715  15.291 -0.5986 -0.6250  0.3325
   23MPD2     H  356   3.423   2.425  15.264 -0.1899  0.1956  1.4183
   23MPD2    H1  357   3.541   2.816  15.148 -0.6987 -0.8644 -0.5801
   23MPD2    H2  358   3.793   2.599  15.402  0.2976 -1.0053  2.1026
   23MPD2    H3  359   3.737   2.799  15.297 -0.8730 -0.1434 -3.5868
   23MPD2     N  360   3.346   2.654  15.119 -0.0229 -0.6916 -0.3989
   23MPD2    H5  361   3.317   2.747  15.089  1.6304  0.2390  0.8881
   23MPD2    N1  362   3.629   2.375  15.416 -0.2207  0.6805  0.2511
   23MPD2    H7  363   3.569   2.297  15.394 -1.3385  0.9797  2.3222
   24TCq2    C1  364   3.260   2.553  15.077 -0.4048 -0.5102 -0.2843
   24TCq2    O2  365   3.270   2.431  15.084 -0.3208 -0.2206  0.4098
   24TCq2    C2  366   3.155   2.604  14.989 -0.6756 -0.2180  0.1993
   24TCq2    C3  367   3.085   2.718  15.027 -0.1154 -0.3956 -0.7543
   24TCq2    C4  368   2.966   2.742  14.968  0.3167 -0.5224  0.0651
   24TCq2    C5  369   2.911   2.656  14.879  0.0446  0.3114 -0.8921
   24TCq2    C6  370   2.991   2.548  14.835 -0.3688 -0.2929 -0.6389
   24TCq2    C7  371   3.106   2.516  14.897  0.7253  0.0434  0.1865
   24TCq2    C8  372   2.922   2.435  14.770  0.2879 -0.6600 -0.7757
   24TCq2    O4  373   2.955   2.323  14.813 -0.1576  0.4185  0.4917
   24TCq2    C9  374   2.878   2.845  15.022 -0.5083 -0.0706  0.2513
   24TCq2    O5  375   2.771   2.865  14.964 -0.1071 -0.2992 -0.1928
   24TCq2    O6  376   2.925   2.909  15.123 -0.1830  0.3892  0.0361
   24TCq2    H2  377   3.128   2.775  15.109 -0.9854  0.7886 -1.1254
   24TCq2    H3  378   2.808   2.675  14.851 -0.4726  0.0062  0.7833
   24TCq2    H4  379   3.165   2.428  14.873  1.3885  0.6163 -0.2923
   25TMC2    C1  380   2.715   3.390  11.890 -0.1877 -0.6498 -0.1476
   25TMC2    C2  381   2.824   3.355  11.975 -0.5932  0.1573 -0.1603
   25TMC2    C3  382   2.866   3.451  12.068 -0.4591  0.1843 -0.4800
   25TMC2    C4  383   2.657   3.511  11.884 -1.1120 -0.2546  0.3414
   25TMC2    C5  384   2.711   3.608  11.972  0.3118  0.3797  0.5256
   25TMC2    C6  385   2.807   3.571  12.066  0.4704  0.4565  0.3714
   25TMC2     C  386   2.646   3.274  11.832  0.2318  0.1536 -0.1039
   25TMC2     O  387   2.694   3.163  11.834  0.8321 -0.3232  0.2131
   25TMC2     H  388   2.867   3.256  11.984 -1.7318 -0.2686  0.6141
   25TMC2    H1  389   2.581   3.526  11.807 -1.0071  2.1546  0.7137
   25TMC2    H2  390   2.848   3.654  12.122  1.1757 -1.5769  2.8935
   25TMC2    C7  391   2.621   3.715  12.021  1.1921  0.2985  0.4114
   25TMC2    C8  392   2.947   3.410  12.168 -0.4849 -0.2612 -1.1833
   25TMC2    O1  393   2.607   3.723  12.140  0.3005  0.0221  0.2490
   25TMC2    O2  394   2.960   3.290  12.198 -0.3575  0.7579  0.5492
   25TMC2    O5  395   3.005   3.517  12.222  0.1936  0.8898 -0.4050
   25TMC2    H5  396   2.989   3.605  12.183 -1.1191  0.9589  0.2984
   26MPD2     C  397   2.313   3.140  11.480 -0.6238  0.0968 -0.3939
   26MPD2    C1  398   2.258   3.246  11.545  0.5618  0.5074  0.2794
   26MPD2    C2  399   2.340   3.311  11.636  0.2881  0.2676  0.2489
   26MPD2    C3  400   2.460   3.252  11.671  0.3497 -0.1476  0.6275
   26MPD2    C4  401   2.504   3.131  11.621 -0.0832 -0.5315 -0.0838
   26MPD2    C5  402   2.435   3.084  11.515 -0.4568 -0.2506 -0.0529
   26MPD2     H  403   2.303   3.393  11.696  0.4918  1.1894 -0.8970
   26MPD2    H1  404   2.599   3.083  11.642 -0.2953 -0.5844  0.7608
   26MPD2    H2  405   2.254   3.093  11.402 -2.3037  1.2769  0.1701
   26MPD2    H3  406   2.478   3.000  11.462  1.4914  0.6423  0.1469
   26MPD2     N  407   2.527   3.315  11.771 -0.5303  0.2254  0.1432
   26MPD2    H5  408   2.504   3.412  11.787  0.2944  0.6906 -1.5603
   26MPD2    N1  409   2.140   3.296  11.498 -0.0013 -0.2058  0.4528
   26MPD2    H7  410   2.082   3.245  11.433 -1.9121  1.1711  1.0659
   27TMC2    C1  411   0.971   1.192  11.947 -0.1261 -0.5809  0.1117
   27TMC2    C2  412   1.091   1.196  11.888 -0.5213 -0.7892 -0.0700
   27TMC2    C3  413   1.129   1.318  11.836  0.8069 -0.4495 -0.3746
   27TMC2    C4  414   0.881   1.288  11.938  0.3756 -0.0068  0.2092
   27TMC2    C5  415   0.922   1.410  11.897 -0.0272  0.4567 -0.8530
   27TMC2    C6  416   1.049   1.427  11.848  0.9388  0.5221  0.1795
   27TMC2     C  417   0.953   1.105  12.060  0.4011  0.1144  0.6616
   27TMC2     O  418   1.000   0.992  12.073 -0.6268 -0.4734 -0.0689
   27TMC2     H  419   1.165   1.125  11.925 -0.3119 -0.5978 -0.1196
   27TMC2    H1  420   0.777   1.263  11.957 -0.1145  1.5210 -0.4674
   27TMC2    H2  421   1.077   1.527  11.816 -0.2187  0.2914 -1.5622
   27TMC2    C7  422   0.890   1.493  12.012 -0.1110 -0.5986  0.2252
   27TMC2    C8  423   1.266   1.340  11.868  0.3287  0.4938 -0.1246
   27TMC2    O1  424   0.839   1.431  12.103  0.0782  0.0693  0.3541
   27TMC2    O2  425   1.313   1.379  11.973 -0.1193  0.6602  0.1399
   27TMC2    O5  426   1.341   1.255  11.791  0.1500 -0.6050  0.0228
   27TMC2    H5  427   1.294   1.236  11.707  1.1736  0.6936 -0.8486
   28MPD2     C  428   0.814   1.067  12.570  0.0978  0.2691 -0.3571
   28MPD2    C1  429   0.771   1.187  12.523  0.4738  0.0177 -0.2355
   28MPD2    C2  430   0.800   1.218  12.389  0.3066  0.4039 -0.5810
   28MPD2    C3  431   0.858   1.128  12.295  0.4485 -0.4117  0.5976
   28MPD2    C4  432   0.887   1.003  12.342 -0.3254 -0.7254  0.0207
   28MPD2    C5  433   0.870   0.979  12.482  0.1956  0.1314 -0.9719
   28MPD2     H  434   0.752   1.308  12.353  0.9949  0.3510 -1.6567
   28MPD2    H1  435   0.914   0.916  12.283  2.9539 -0.3269  0.9249
   28MPD2    H2  436   0.797   1.048  12.676  2.2840 -0.8963 -0.2220
   28MPD2    H3  437   0.894   0.883  12.527  1.7408  0.7808 -0.3783
   28MPD2     N  438   0.887   1.169  12.156 -0.1764  0.2200 -0.1507
   28MPD2    H5  439   0.872   1.267  12.135 -0.3148  0.0888 -0.6642
   28MPD2    N1  440   0.697   1.274  12.609 -0.1271 -0.3800 -0.2162
   28MPD2    H7  441   0.657   1.228  12.690  0.1839  1.0139  0.7169
   29MPD2     C  442   0.836   3.673  14.378 -0.4787  0.6381 -0.1565
   29MPD2    C1  443   0.951   3.720  14.440  0.2206 -0.2330 -0.1429
   29MPD2    C2  444   0.950   3.847  14.488  0.5450  0.2002  0.8793
   29MPD2    C3  445   0.835   3.922  14.490 -0.0950 -0.2910  0.1081
   29MPD2    C4  446   0.721   3.870  14.431  0.3095 -0.2554 -0.3901
   29MPD2    C5  447   0.719   3.746  14.374 -1.1060 -0.2897  0.9286
   29MPD2     H  448   1.032   3.890  14.544  1.9744 -0.4649 -0.7282
   29MPD2    H1  449   0.634   3.934  14.416 -0.5093 -1.1290  0.5815
   29MPD2    H2  450   0.834   3.581  14.322  0.2259  0.1560  0.6169
   29MPD2    H3  451   0.640   3.701  14.315  1.4765 -0.0997 -2.6597
   29MPD2     N  452   0.823   4.043  14.558 -0.2226 -0.1262 -0.2732
   29MPD2    H5  453   0.725   4.071  14.551  0.1185  0.6232 -1.8471
   29MPD2    N1  454   1.070   3.646  14.455 -0.1292 -0.2366  0.0464
   29MPD2    H7  455   1.157   3.692  14.477  0.0696  0.4716 -2.1806
   30TCq2    C1  456   0.916   4.127  14.609 -0.0061 -0.3854  0.6831
   30TCq2    O2  457   1.039   4.127  14.609  0.1935 -0.6376 -0.0870
   30TCq2    C2  458   0.864   4.252  14.659 -0.0016 -0.8662  0.2622
   30TCq2    C3  459   0.727   4.287  14.642 -0.1385  0.4787  0.5895
   30TCq2    C4  460   0.683   4.419  14.649 -0.0578 -0.7351 -0.8023
   30TCq2    C5  461   0.769   4.517  14.669 -0.6756  0.3041  0.5560
   30TCq2    C6  462   0.903   4.491  14.665 -0.0262 -0.4109  0.0846
   30TCq2    C7  463   0.949   4.364  14.674  0.0295  0.2969  0.0923
   30TCq2    C8  464   1.003   4.596  14.680 -0.0153  0.1591  0.6297
   30TCq2    O4  465   1.114   4.566  14.725 -0.0538  0.4508  0.6443
   30TCq2    C9  466   0.545   4.443  14.650  0.2758 -0.4267 -0.6881
   30TCq2    O5  467   0.519   4.526  14.741  0.4949 -0.8468 -0.7027
   30TCq2    O6  468   0.460   4.355  14.611  0.3860 -0.4967 -0.1328
   30TCq2    H2  469   0.645   4.218  14.631  0.4845 -0.0541 -0.7417
   30TCq2    H3  470   0.738   4.621  14.663 -0.4865  0.2840 -0.7095
   30TCq2    H4  471   1.057   4.355  14.668  0.1599  1.7270  0.1779
   31MPD2     C  472   3.742   3.228  15.319  0.0990  0.6992  0.0886
   31MPD2    C1  473   3.636   3.211  15.231 -0.3010 -0.8604  0.4627
   31MPD2    C2  474   3.536   3.129  15.263  0.2129  0.4541 -0.0235
   31MPD2    C3  475   3.538   3.050  15.376 -0.3547 -0.0009  0.6632
   31MPD2    C4  476   3.650   3.061  15.455 -0.0221 -0.6045 -0.4091
   31MPD2    C5  477   3.747   3.150  15.434 -1.0895  0.7489 -0.1467
   31MPD2     H  478   3.461   3.108  15.187 -0.0682  0.0041  0.3816
   31MPD2    H1  479   3.656   3.009  15.550  0.5203  1.8917  0.9193
   31MPD2    H2  480   3.816   3.305  15.299  0.6672  0.4487  1.2809
   31MPD2    H3  481   3.824   3.164  15.509  2.4187 -2.8325 -3.0723
   31MPD2     N  482   3.444   2.962  15.415 -1.0406 -0.1543  0.1814
   31MPD2    H5  483   3.464   2.916  15.503  0.7915  1.3339  0.5203
   31MPD2    N1  484   3.637   3.294  15.120  0.0506  0.1543  0.6924
   31MPD2    H7  485   3.725   3.345  15.116  0.9185 -0.9871  5.1169
   32TCq2    C1  486   3.320   2.940  15.350 -0.1952 -0.2582  0.0011
   32TCq2    O2  487   3.272   2.986  15.248  0.2622 -0.7506  0.6856
   32TCq2    C2  488   3.234   2.849  15.419  0.1192  0.0073  0.1092
   32TCq2    C3  489   3.103   2.853  15.393  0.7753  0.0386 -0.1489
   32TCq2    C4  490   3.018   2.758  15.449 -0.0962  0.4397  0.4478
   32TCq2    C5  491   3.075   2.650  15.521 -0.0523 -0.1485 -0.4537
   32TCq2    C6  492   3.208   2.649  15.541  0.5930  0.6281 -0.1175
   32TCq2    C7  493   3.293   2.735  15.474 -0.2425  0.0349 -0.3066
   32TCq2    C8  494   3.257   2.537  15.626 -0.5842  0.0331 -0.0904
   32TCq2    O4  495   3.175   2.453  15.661  0.8154  0.1319 -0.2603
   32TCq2    C9  496   2.871   2.779  15.455  0.4794  0.7154 -0.3693
   32TCq2    O5  497   2.793   2.679  15.465 -0.9069  0.4249 -0.0682
   32TCq2    O6  498   2.833   2.890  15.404  0.0971 -0.2643  0.3430
   32TCq2    H2  499   3.049   2.933  15.343 -1.3801 -1.1309  0.2722
   32TCq2    H3  500   3.008   2.597  15.587 -1.5746  1.6226 -0.5720
   32TCq2    H4  501   3.401   2.722  15.475 -0.1106  1.0694 -0.7946
   33MPD2     C  502   3.628   0.444  10.724 -0.5929 -0.0623 -0.1015
   33MPD2    C1  503   3.511   0.371  10.742  0.2580 -0.0028 -0.2832
   33MPD2    C2  504   3.396   0.418  10.671  0.4692 -0.1299  0.0782
   33MPD2    C3  505   3.404   0.525  10.589  0.7562 -0.0205  0.1372
   33MPD2    C4  506   3.521   0.598  10.582 -0.2810  0.1356  1.0456
   33MPD2    C5  507   3.636   0.553  10.652  0.8641  0.9009 -0.3800
   33MPD2     H  508   3.300   0.368  10.680 -0.7284  2.0564 -0.6266
   33MPD2    H1  509   3.540   0.688  10.524 -1.0039 -0.0011  0.5925
   33MPD2    H2  510   3.717   0.417  10.780 -0.9766  2.2456  1.6322
   33MPD2    H3  511   3.723   0.619  10.651  1.8528 -0.3743  1.8763
   33MPD2     N  512   3.294   0.569  10.512 -0.3264  0.2575 -0.3067
   33MPD2    H5  513   3.313   0.658  10.469 -0.1954  1.0186  1.3188
   33MPD2    N1  514   3.518   0.250  10.809 -0.2791 -0.3043  0.8530
   33MPD2    H7  515   3.608   0.214  10.839 -0.4050 -0.8513  0.5805
   34TCq2    C1  516   3.169   0.519  10.504  0.1442  1.1774  0.0746
   34TCq2    O2  517   3.114   0.417  10.549 -0.3924  0.0050  0.1683
   34TCq2    C2  518   3.094   0.613  10.423 -0.0181  0.1152  0.3393
   34TCq2    C3  519   2.963   0.625  10.453  0.0079 -0.9103 -0.0014
   34TCq2    C4  520   2.872   0.693  10.378  0.5959  0.1466  0.7389
   34TCq2    C5  521   2.918   0.746  10.261  0.3374 -0.0340 -0.0637
   34TCq2    C6  522   3.052   0.728  10.227  0.4622  0.1844  0.0942
   34TCq2    C7  523   3.140   0.657  10.304  0.0825  0.5808 -0.7951
   34TCq2    C8  524   3.104   0.807  10.120 -0.5277  0.4567  0.3123
   34TCq2    O4  525   3.225   0.811  10.106 -0.1436 -0.1068 -0.3678
   34TCq2    C9  526   2.730   0.690  10.414  0.1039 -0.5151  1.0785
   34TCq2    O5  527   2.694   0.604  10.499 -0.4698 -0.3401  0.6182
   34TCq2    O6  528   2.650   0.722  10.320  0.0067  0.3712  0.1857
   34TCq2    H2  529   2.923   0.573  10.539  0.6525  0.0186  0.8649
   34TCq2    H3  530   2.847   0.811  10.211  0.1357 -0.4759 -0.3522
   34TCq2    H4  531   3.241   0.630  10.273  0.0341  0.3938 -0.7923
   35MPD2     C  532   0.619   2.109  11.812  0.5932 -0.4166  0.5117
   35MPD2    C1  533   0.573   1.980  11.841 -0.0436  0.4286  0.1202
   35MPD2    C2  534   0.486   1.914  11.750  0.1212 -0.5596 -0.5890
   35MPD2    C3  535   0.449   1.980  11.636  0.8876  0.4761  0.4338
   35MPD2    C4  536   0.509   2.105  11.602  0.5992  0.3925  0.5023
   35MPD2    C5  537   0.587   2.166  11.696 -0.2408 -0.5656  0.0941
   35MPD2     H  538   0.428   1.828  11.781  1.8445 -2.5762 -2.8336
   35MPD2    H1  539   0.487   2.162  11.512 -1.5793 -0.4805  0.4989
   35MPD2    H2  540   0.686   2.156  11.883  0.3028  2.0714 -0.8855
   35MPD2    H3  541   0.618   2.268  11.675 -1.6431  0.6626  4.1443
   35MPD2     N  542   0.354   1.912  11.560  0.6455  0.4101 -0.2573
   35MPD2    H5  543   0.332   1.819  11.593  1.2643  1.1131  2.1743
   35MPD2    N1  544   0.608   1.931  11.970  0.3847  0.0611 -0.0942
   35MPD2    H7  545   0.651   1.995  12.035 -1.3966  0.1602  1.0094
   36TCq2    C1  546   0.298   1.960  11.445  0.1069  1.2600 -0.2706
   36TCq2    O2  547   0.331   2.055  11.374 -0.4922  0.2129  0.0024
   36TCq2    C2  548   0.184   1.880  11.404  0.4087 -0.0074  0.1293
   36TCq2    C3  549   0.173   1.867  11.267  0.0480 -0.3675  0.1300
   36TCq2    C4  550   0.074   1.786  11.218 -0.5438  0.2908 -0.4833
   36TCq2    C5  551   4.719   1.715  11.311 -0.1600 -0.3512  0.1183
   36TCq2    C6  552   0.014   1.727  11.445  0.2700 -0.0953 -0.2283
   36TCq2    C7  553   0.106   1.820  11.496  0.0457  0.1480  0.3533
   36TCq2    C8  554   4.658   1.642  11.530  0.6216 -0.2363  0.2366
   36TCq2    O4  555   4.629   1.529  11.495  0.3792 -0.1419 -0.1265
   36TCq2    C9  556   0.050   1.780  11.072  0.4004 -0.1999 -0.2517
   36TCq2    O5  557   0.107   1.871  11.004 -0.3490  0.6201 -0.7934
   36TCq2    O6  558   4.685   1.703  11.025  0.6368 -0.2048  0.6039
   36TCq2    H2  559   0.240   1.926  11.204 -0.8475 -1.7964 -2.1778
   36TCq2    H3  560   4.638   1.650  11.281 -0.4162 -0.6265  1.4215
   36TCq2    H4  561   0.111   1.838  11.603 -2.3679 -1.2767  0.7059
   37TMC2    C1  562   2.037   1.767  11.897  0.6212  0.9734  0.5338
   37TMC2    C2  563   2.023   1.818  11.770  0.2964 -0.2491 -0.7309
   37TMC2    C3  564   2.131   1.835  11.695 -0.0967 -0.3201 -0.2193
   37TMC2    C4  565   2.161   1.747  11.948 -0.7913 -0.1528  0.1683
   37TMC2    C5  566   2.268   1.772  11.867 -0.5965  0.4932 -0.8744
   37TMC2    C6  567   2.254   1.821  11.737 -0.3468 -0.0511  0.0522
   37TMC2     C  568   1.912   1.760  11.980 -0.3149 -0.4009 -0.0678
   37TMC2     O  569   1.809   1.816  11.940 -0.0668 -0.0664  0.1441
   37TMC2     H  570   1.930   1.852  11.726  0.0601 -1.8461 -1.4457
   37TMC2    H1  571   2.169   1.695  12.042  1.2724 -0.7554 -0.3364
   37TMC2    H2  572   2.336   1.849  11.672 -1.2981  1.0335 -0.6625
   37TMC2    C7  573   2.401   1.768  11.925  0.0776 -0.4339 -0.1740
   37TMC2    C8  574   2.113   1.881  11.552  0.3505 -0.6502  0.3260
   37TMC2    O1  575   2.411   1.793  12.044 -0.2533 -0.2280 -0.1312
   37TMC2    O2  576   2.007   1.918  11.505  0.0400  0.0375 -0.3716
   37TMC2    O5  577   2.224   1.851  11.478  0.2278 -0.7624 -0.0725
   37TMC2    H5  578   2.294   1.795  11.519  0.1783 -0.8788 -0.1469
   38MPD2     C  579   1.702   1.640  12.424  0.1725  0.0918 -0.2805
   38MPD2    C1  580   1.838   1.594  12.415  0.3080  0.2679 -0.3589
   38MPD2    C2  581   1.906   1.604  12.300  0.2565  0.5543 -0.3825
   38MPD2    C3  582   1.852   1.673  12.192 -0.0576 -0.3829  0.1976
   38MPD2    C4  583   1.719   1.707  12.201 -0.8340  0.4970 -0.9670
   38MPD2    C5  584   1.646   1.691  12.315 -0.1688  0.2815 -0.0438
   38MPD2     H  585   2.009   1.572  12.303 -0.4046 -1.4542  1.0931
   38MPD2    H1  586   1.667   1.752  12.118 -1.9366  0.4438 -0.3142
   38MPD2    H2  587   1.654   1.637  12.522 -3.5002  1.2658 -2.0455
   38MPD2    H3  588   1.542   1.722  12.306  0.2784  1.0702 -2.4009
   38MPD2     N  589   1.934   1.680  12.084  0.2289  0.4352  0.2837
   38MPD2    H5  590   2.026   1.636  12.089  0.3612  0.7225  0.3489
   38MPD2    N1  591   1.910   1.561  12.533 -0.1135 -0.0921  0.1723
   38MPD2    H7  592   2.008   1.544  12.514  0.0888  1.2727 -0.0270
   39MPD2     C  593   0.445   3.305   2.036 -0.8278  0.0882 -0.3799
   39MPD2    C1  594   0.360   3.410   2.056  0.2553  0.1424 -0.4524
   39MPD2    C2  595   0.232   3.406   2.013 -0.4661  0.0344  0.4540
   39MPD2    C3  596   0.182   3.298   1.954  0.5845 -0.0908  0.2317
   39MPD2    C4  597   0.268   3.193   1.929 -0.3027  0.1695 -0.6102
   39MPD2    C5  598   0.397   3.193   1.967  0.0732 -0.1042  0.3578
   39MPD2     H  599   0.165   3.490   2.026 -1.0687 -0.7294  2.3577
   39MPD2    H1  600   0.227   3.104   1.881 -0.7567  0.4253 -0.6937
   39MPD2    H2  601   0.550   3.315   2.063 -1.0651 -0.4705  0.7224
   39MPD2    H3  602   0.469   3.120   1.933  0.0864  0.4254 -0.7585
   39MPD2     N  603   0.046   3.284   1.925  0.2559 -0.7653  0.1876
   39MPD2    H5  604   0.036   3.216   1.850 -2.4767  1.0302 -1.0407
   39MPD2    N1  605   0.416   3.526   2.101 -0.2140  0.4749 -0.0341
   39MPD2    H7  606   0.516   3.531   2.113 -0.3341  2.2423  0.2358
   40TCq2    C1  607   0.356   3.636   2.140 -0.2762 -0.0915  0.7547
   40TCq2    O2  608   0.243   3.654   2.181  0.0129  0.1249  0.0447
   40TCq2    C2  609   0.449   3.752   2.139  0.2100  1.0158  0.8915
   40TCq2    C3  610   0.425   3.842   2.238  0.9864  0.1384 -0.6049
   40TCq2    C4  611   0.506   3.954   2.244  0.2086  0.1260  0.3935
   40TCq2    C5  612   0.598   3.976   2.144  0.3194  0.1383  0.3725
   40TCq2    C6  613   0.622   3.880   2.046 -0.4489  0.5645  0.1171
   40TCq2    C7  614   0.547   3.764   2.046 -0.6790 -0.1721  0.4884
   40TCq2    C8  615   0.745   3.883   1.965  0.6594 -0.1796 -1.0037
   40TCq2    O4  616   0.771   3.796   1.884 -1.2133  0.0745  0.6858
   40TCq2    C9  617   0.475   4.055   2.347  0.3050  0.1116 -0.0656
   40TCq2    O5  618   0.538   4.168   2.349  0.7808 -0.1353  0.4261
   40TCq2    O6  619   0.374   4.028   2.413  0.4351 -0.0924 -0.7542
   40TCq2    H2  620   0.346   3.825   2.311  0.1321  1.5570 -1.2171
   40TCq2    H3  621   0.644   4.074   2.144  1.8301 -0.5812 -2.6330
   40TCq2    H4  622   0.561   3.694   1.964  3.4823  1.6389 -0.3418
   41TMC2    C1  623   4.394   1.902  12.917 -0.1015  0.2134 -0.2183
   41TMC2    C2  624   4.433   2.026  12.952 -0.0786  0.3965 -1.2251
   41TMC2    C3  625   4.524   2.094  12.871 -0.1974  0.5925 -0.4475
   41TMC2    C4  626   4.431   1.849  12.797  1.0316 -0.1734  0.0514
   41TMC2    C5  627   4.524   1.916  12.722  0.2810 -0.1100  0.2889
   41TMC2    C6  628   4.577   2.034  12.761 -0.5056  0.3212  1.2831
   41TMC2     C  629   4.304   1.832  13.003 -0.5611  0.0514  0.3164
   41TMC2     O  630   4.215   1.761  12.961 -0.0088 -0.2709  0.3183
   41TMC2     H  631   4.381   2.076  13.033  0.3572  2.0728 -1.9797
   41TMC2    H1  632   4.379   1.757  12.777 -2.8957  1.8068  1.1071
   41TMC2    H2  633   4.647   2.084  12.696 -0.3054 -0.8608  0.6000
   41TMC2    C7  634   4.519   1.902  12.581 -0.0051 -0.3727  0.4547
   41TMC2    C8  635   4.600   2.209  12.922  0.0508  0.6167  0.5490
   41TMC2    O1  636   4.538   2.002  12.514  0.9591 -0.0627 -0.1294
   41TMC2    O2  637   4.642   2.301  12.848 -0.8384  0.5548 -0.3612
   41TMC2    O5  638   4.583   2.209  13.060 -0.7735  0.7264 -0.3438
   41TMC2    H5  639   4.570   2.121  13.100 -4.8386  0.8267 -1.3786
   42MPD2     C  640   4.158   1.711  13.253  0.3266  0.3905  0.0197
   42MPD2    C1  641   4.250   1.817  13.251 -1.1612  0.0888 -0.3143
   42MPD2    C2  642   4.283   1.879  13.373  0.7164  0.4249 -0.0365
   42MPD2    C3  643   4.205   1.862  13.490 -1.2052  0.4296  0.3251
   42MPD2    C4  644   4.121   1.761  13.482  0.3580 -0.5473  0.7275
   42MPD2    C5  645   4.104   1.684  13.376  0.4128  0.2282 -0.3948
   42MPD2     H  646   4.377   1.933  13.377  0.0996  1.5142 -0.0271
   42MPD2    H1  647   4.053   1.755  13.567 -0.1932  0.1513  0.3429
   42MPD2    H2  648   4.132   1.648  13.169  0.9944 -0.1111  0.1863
   42MPD2    H3  649   4.035   1.600  13.375  1.0000 -0.2371 -1.1185
   42MPD2     N  650   4.218   1.931  13.614 -0.1095  0.2580  0.0728
   42MPD2    H5  651   4.156   1.903  13.689  0.0741  0.1205  0.1717
   42MPD2    N1  652   4.326   1.861  13.139 -0.1986 -0.5394  0.7481
   42MPD2    H7  653   4.403   1.924  13.160  0.8620 -2.0343  1.2982
   43MPD2     C  654   1.319   0.317   0.834 -0.4456 -0.0013  0.5279
   43MPD2    C1  655   1.311   0.204   0.918  0.3540  0.1406 -0.6456
   43MPD2    C2  656   1.238   0.203   1.028  0.0958  0.1008  0.1745
   43MPD2    C3  657   1.181   0.327   1.062 -0.2655 -0.4291  0.5533
   43MPD2    C4  658   1.180   0.435   0.977 -0.0687 -0.1426 -0.2552
   43MPD2    C5  659   1.246   0.430   0.865  0.4095 -0.3184 -0.3241
   43MPD2     H  660   1.229   0.116   1.092 -0.5226 -2.1105 -2.9272
   43MPD2    H1  661   1.124   0.527   0.994 -1.7779 -1.0586 -0.9216
   43MPD2    H2  662   1.378   0.317   0.744  2.4753 -1.3883  2.4299
   43MPD2    H3  663   1.240   0.513   0.795 -0.8303  0.1832  0.3874
   43MPD2     N  664   1.111   0.346   1.185 -0.0877 -0.3884 -0.2570
   43MPD2    H5  665   1.052   0.428   1.198 -1.1962 -1.0743 -0.9289
   43MPD2    N1  666   1.385   0.086   0.897  0.0491  0.3530  0.4750
   43MPD2    H7  667   1.376   0.017   0.971  2.4139 -0.0924  0.3426
   44TCq2    C1  668   0.932   0.640   1.533  1.4123 -0.0657 -0.2027
   44TCq2    O2  669   1.021   0.724   1.512  0.4178  0.0004 -0.4669
   44TCq2    C2  670   0.972   0.492   1.531 -0.3492  0.9078  0.2379
   44TCq2    C3  671   0.923   0.410   1.636 -0.7537 -0.2497 -0.4804
   44TCq2    C4  672   0.949   0.277   1.624  0.7882  0.3721  0.4511
   44TCq2    C5  673   1.016   0.234   1.521 -0.2734 -0.1077  0.6960
   44TCq2    C6  674   1.055   0.320   1.414  0.1193 -0.3473  0.1828
   44TCq2    C7  675   1.019   0.451   1.414  0.1612  0.6503  0.2229
   44TCq2    C8  676   1.116   0.260   1.297 -0.3841  0.4763 -0.3368
   44TCq2    O4  677   1.177   0.154   1.312  0.3175 -0.1953  0.2293
   44TCq2    C9  678   0.897   0.179   1.720  0.2051 -0.3352 -0.4836
   44TCq2    O5  679   0.903   0.055   1.695 -0.1340  0.1870 -0.3153
   44TCq2    O6  680   0.821   0.231   1.806  0.1395 -0.1236  0.1430
   44TCq2    H2  681   0.873   0.454   1.721  0.2602  0.1167 -0.0774
   44TCq2    H3  682   1.039   0.129   1.525 -0.1297 -0.2063 -2.6906
   44TCq2    H4  683   1.051   0.530   1.347  2.4450  1.0678  1.7966
   45TMC2    C1  684   1.022   3.259   9.475  0.4815 -0.0113  0.0913
   45TMC2    C2  685   0.912   3.310   9.416  0.4442 -0.1878  0.3232
   45TMC2    C3  686   0.915   3.441   9.378  0.1358  0.2433 -0.1528
   45TMC2    C4  687   1.136   3.343   9.492 -0.1805  0.1675  0.2331
   45TMC2    C5  688   1.141   3.467   9.436  0.3231  0.1258 -0.3339
   45TMC2    C6  689   1.028   3.519   9.376 -0.0202  0.1716 -0.0235
   45TMC2     C  690   1.034   3.132   9.556 -0.8450 -0.2502  0.0743
   45TMC2     O  691   1.122   3.126   9.640 -0.2420  0.0296 -0.4543
   45TMC2     H  692   0.827   3.242   9.417 -1.7277  2.5588  0.3499
   45TMC2    H1  693   1.229   3.295   9.521 -0.1186 -0.4423 -0.9382
   45TMC2    H2  694   1.029   3.621   9.341  0.2444  0.3788  0.5841
   45TMC2    C7  695   1.259   3.551   9.456  0.1521  0.5984  0.3315
   45TMC2    C8  696   0.791   3.522   9.357  0.5123  0.0643 -0.2422
   45TMC2    O1  697   1.255   3.657   9.393 -0.1538 -0.1560 -0.2272
   45TMC2    O2  698   0.788   3.626   9.298 -0.1730 -0.6686 -0.1318
   45TMC2    O5  699   0.679   3.464   9.408 -0.4667 -0.0786 -0.1730
   45TMC2    H5  700   0.706   3.387   9.463 -0.9003  0.3666  0.6656
   46MPD2     C  701   1.025   2.856   9.644 -0.3488  0.0935  0.1125
   46MPD2    C1  702   0.933   2.913   9.554 -0.1194 -0.7634  0.1940
   46MPD2    C2  703   0.836   2.834   9.504 -0.0020  0.3346  0.5456
   46MPD2    C3  704   0.826   2.701   9.527  0.2659 -0.3705 -0.2642
   46MPD2    C4  705   0.918   2.650   9.614 -0.5684  0.2491  0.2313
   46MPD2    C5  706   1.011   2.727   9.676  0.1269  0.2798  0.6414
   46MPD2     H  707   0.757   2.880   9.445 -1.0753  0.6991  2.2369
   46MPD2    H1  708   0.906   2.547   9.644  0.6983 -0.4928 -1.8352
   46MPD2    H2  709   1.106   2.918   9.681  0.2930 -1.1913  0.8992
   46MPD2    H3  710   1.086   2.682   9.740  0.5012  1.7958  1.2411
   46MPD2     N  711   0.713   2.633   9.484  0.2753 -0.2903 -0.4275
   46MPD2    H5  712   0.644   2.703   9.458 -1.8853 -1.1338  3.0933
   46MPD2    N1  713   0.942   3.050   9.516  0.3449  0.7114 -0.2907
   46MPD2    H7  714   0.874   3.095   9.456 -1.3698 -1.3605  0.0552
   47TMC2    C1  715   3.835   3.104   9.194 -0.2207 -0.0109 -0.4390
   47TMC2    C2  716   3.841   3.016   9.094 -0.1271  1.2665  1.2879
   47TMC2    C3  717   3.799   3.044   8.972  0.6771 -0.4727  0.0535
   47TMC2    C4  718   3.778   3.230   9.172  0.2392 -0.8067  0.2231
   47TMC2    C5  719   3.722   3.250   9.048  0.5911  0.3475  0.0304
   47TMC2    C6  720   3.746   3.163   8.939  0.0308 -1.1261 -0.5562
   47TMC2     C  721   3.905   3.085   9.316 -0.2754  0.4876 -0.0500
   47TMC2     O  722   3.932   3.191   9.373 -0.1387 -0.2650 -0.7209
   47TMC2     H  723   3.886   2.918   9.110 -2.8393  0.1408  2.0052
   47TMC2    H1  724   3.770   3.296   9.258 -0.6966 -1.8025  0.9025
   47TMC2    H2  725   3.724   3.187   8.835 -1.2301  1.0107  0.2126
   47TMC2    C7  726   3.672   3.376   9.016  0.8934  0.3721  0.0652
   47TMC2    C8  727   3.813   2.941   8.874 -0.3171  0.0200 -0.1024
   47TMC2    O1  728   3.655   3.402   8.897 -1.2755  0.0273  0.5418
   47TMC2    O2  729   3.872   2.836   8.897 -0.3052 -0.2929  0.5098
   47TMC2    O5  730   3.707   2.952   8.794  0.3330 -0.3738  0.1971
   47TMC2    H5  731   3.686   3.043   8.764  1.2403  0.0378  0.8348
   48MPD2     C  732   4.094   2.989   9.532 -0.5558  0.2005  0.0754
   48MPD2    C1  733   4.023   2.908   9.446  0.1185 -0.4958  1.0246
   48MPD2    C2  734   4.041   2.774   9.460  0.3864 -0.5739  0.3889
   48MPD2    C3  735   4.128   2.721   9.556  0.4360 -0.3659  0.0055
   48MPD2    C4  736   4.182   2.810   9.648 -0.3130  0.3616  0.4085
   48MPD2    C5  737   4.166   2.941   9.636 -0.2527  0.3335 -0.3984
   48MPD2     H  738   3.992   2.701   9.396  1.0749  0.3360 -1.1780
   48MPD2    H1  739   4.225   2.767   9.738  2.1919  1.9098 -0.0720
   48MPD2    H2  740   4.079   3.097   9.529  2.3312  0.5414 -1.8177
   48MPD2    H3  741   4.208   3.002   9.715 -0.1796  1.6379 -1.4403
   48MPD2     N  742   4.144   2.579   9.561 -0.3365 -0.8034 -0.3553
   48MPD2    H5  743   4.086   2.526   9.498 -0.6122 -1.8407  0.7657
   48MPD2    N1  744   3.941   2.952   9.341 -0.4174 -0.0796  0.3552
   48MPD2    H7  745   3.882   2.892   9.284 -1.1151 -2.0171  3.1013
   49MPD2     C  746   1.224   0.218   9.699  0.8828 -0.0032 -0.3528
   49MPD2    C1  747   1.267   0.123   9.787  0.2915 -0.5526  0.4686
   49MPD2    C2  748   1.359   0.148   9.891 -0.1626 -0.0897  0.5154
   49MPD2    C3  749   1.406   0.274   9.910  0.1615  0.1643 -0.0534
   49MPD2    C4  750   1.371   0.372   9.824  0.2495 -0.6532 -0.8083
   49MPD2    C5  751   1.281   0.339   9.717  0.3117  0.5063  0.5737
   49MPD2     H  752   1.393   0.071   9.958 -2.0743 -0.3824  1.1386
   49MPD2    H1  753   1.404   0.475   9.835 -0.2372 -0.3532 -2.2613
   49MPD2    H2  754   1.148   0.204   9.624  1.7362 -1.3899 -0.9573
   49MPD2    H3  755   1.247   0.420   9.653  3.3765  0.4333 -1.1720
   49MPD2     N  756   1.496   0.300  10.008  0.3576  0.4229 -0.0483
   49MPD2    H5  757   1.530   0.395  10.003 -0.6493  0.8043  0.4934
   49MPD2    N1  758   1.211   4.710   9.800 -0.2657  0.0904 -0.1104
   49MPD2    H7  759   1.250   4.649   9.871 -1.1324 -0.8439 -0.4484
   50TCq2    C1  760   1.115   4.656   9.712 -0.1183 -0.1301  0.2617
   50TCq2    O2  761   1.057   4.715   9.624 -0.1827  0.2678 -0.0428
   50TCq2    C2  762   1.067   4.525   9.744  0.3370 -0.4650  0.5089
   50TCq2    C3  763   0.947   4.489   9.686  0.0285  0.5801  0.1524
   50TCq2    C4  764   0.913   4.363   9.684  0.2119 -0.1827 -0.0054
   50TCq2    C5  765   0.993   4.269   9.750 -0.0963  0.2803 -0.6877
   50TCq2    C6  766   1.106   4.311   9.816 -0.7911 -0.2907 -0.1822
   50TCq2    C7  767   1.145   4.439   9.813  0.5475  0.1271 -0.4511
   50TCq2    C8  768   1.181   4.222   9.915 -0.1681  0.4732 -0.0740
   50TCq2    O4  769   1.268   4.264   9.988  0.0751  0.1723  0.0924
   50TCq2    C9  770   0.790   4.324   9.626  0.8626 -0.8392  0.1306
   50TCq2    O5  771   0.741   4.405   9.550 -1.0613 -0.0617  0.1131
   50TCq2    O6  772   0.762   4.200   9.631  0.4740 -0.0557 -0.1229
   50TCq2    H2  773   0.890   4.569   9.640  0.6291  1.1737  0.4365
   50TCq2    H3  774   0.969   4.163   9.755 -0.2473  0.2509 -2.1866
   50TCq2    H4  775   1.238   4.460   9.864 -0.5858 -0.0177  1.6864
   51MPD2     C  776   1.345   3.776   1.622 -0.0958 -0.2146  0.3981
   51MPD2    C1  777   1.436   3.733   1.529  0.4190 -0.5545 -0.1734
   51MPD2    C2  778   1.566   3.711   1.560  0.0011 -0.0387 -0.2533
   51MPD2    C3  779   1.608   3.743   1.687  0.0346  0.0444  0.1608
   51MPD2    C4  780   1.516   3.795   1.782 -0.1560  0.4683  0.3275
   51MPD2    C5  781   1.387   3.799   1.746 -0.0547  0.7050 -0.7817
   51MPD2     H  782   1.634   3.677   1.483 -0.2065 -3.1191  0.8919
   51MPD2    H1  783   1.546   3.809   1.885 -0.2581 -0.1096  0.4369
   51MPD2    H2  784   1.248   3.818   1.597 -0.0374 -0.4299 -0.1854
   51MPD2    H3  785   1.310   3.846   1.806  0.7291  0.7867  0.1635
   51MPD2     N  786   1.749   3.730   1.724 -0.0494  0.8586 -0.0287
   51MPD2    H5  787   1.772   3.778   1.811 -1.8654 -0.4177  1.1598
   51MPD2    N1  788   1.403   3.705   1.392 -0.3701 -0.2030  0.3158
   51MPD2    H7  789   1.470   3.681   1.320 -0.6614 -0.7348  0.2148
   52TCq2    C1  790   1.845   3.656   1.653  0.5227  0.3944 -0.0033
   52TCq2    O2  791   1.820   3.588   1.558  0.0016  0.1691  0.1612
   52TCq2    C2  792   1.977   3.668   1.718 -0.3182 -0.2990  0.6757
   52TCq2    C3  793   2.060   3.568   1.687  0.4045  0.9935  0.3443
   52TCq2    C4  794   2.190   3.579   1.741  0.1904 -0.0482  0.3722
   52TCq2    C5  795   2.229   3.676   1.829 -0.4575  0.4398 -0.4650
   52TCq2    C6  796   2.139   3.776   1.847  0.1290  0.1734 -1.1042
   52TCq2    C7  797   2.013   3.774   1.792 -1.5123 -0.2321 -0.5305
   52TCq2    C8  798   2.191   3.888   1.924  0.1839  0.2998  0.2932
   52TCq2    O4  799   2.308   3.898   1.943  0.6102  0.2861  0.1065
   52TCq2    C9  800   2.289   3.475   1.707 -0.0502 -0.5439  0.5336
   52TCq2    O5  801   2.405   3.485   1.749  0.0679 -0.1193  1.2138
   52TCq2    O6  802   2.248   3.376   1.641 -0.3991  0.1112  0.0105
   52TCq2    H2  803   2.034   3.483   1.627  2.2607  1.3352 -0.9339
   52TCq2    H3  804   2.332   3.677   1.866 -1.3202 -2.2977  2.0415
   52TCq2    H4  805   1.947   3.860   1.791 -4.5001 -2.5504 -0.4505
   53TMC2    C1  806   2.992   1.892  12.316 -0.2948  0.1301 -0.2150
   53TMC2    C2  807   3.077   1.812  12.387  0.2699 -0.3724  1.2927
   53TMC2    C3  808   3.027   1.769  12.510  0.0329 -0.1037 -0.1801
   53TMC2    C4  809   2.868   1.922  12.361 -0.2796  0.4241  0.8548
   53TMC2    C5  810   2.824   1.882  12.488  0.4592 -0.3507 -0.4539
   53TMC2    C6  811   2.902   1.806  12.564  0.8634 -0.2279 -0.0180
   53TMC2     C  812   2.992   1.838  12.184  0.4123 -0.3547  0.0566
   53TMC2     O  813   3.087   1.843  12.108 -0.4581 -0.0950 -0.2592
   53TMC2     H  814   3.181   1.805  12.358 -0.5233 -0.1553 -1.5718
   53TMC2    H1  815   2.806   1.995  12.310  0.2415 -0.5355 -1.1597
   53TMC2    H2  816   2.879   1.775  12.665  2.8166  0.1485  0.5363
   53TMC2    C7  817   2.682   1.888  12.514  0.1175  0.7341  0.2339
   53TMC2    C8  818   3.124   1.700  12.595 -0.3104  0.6976  0.3482
   53TMC2    O1  819   2.614   1.866  12.416  0.1698  0.1695 -0.8330
   53TMC2    O2  820   3.117   1.691  12.715 -0.3978 -0.1014 -0.2454
   53TMC2    O5  821   3.219   1.642  12.525 -0.2825  0.0812 -0.4745
   53TMC2    H5  822   3.218   1.645  12.427 -0.9600 -0.6725 -0.4889
   54MPD2     C  823   2.916   1.721  11.921 -0.5855  0.0229  0.1096
   54MPD2    C1  824   2.824   1.773  12.016  0.3457 -0.1738  0.0715
   54MPD2    C2  825   2.687   1.780  11.992  0.3773  0.1383 -0.7791
   54MPD2    C3  826   2.638   1.729  11.869  0.8514  0.2604 -0.3033
   54MPD2    C4  827   2.724   1.678  11.772  0.1318  0.5627 -0.3327
   54MPD2    C5  828   2.859   1.670  11.809 -0.9417  0.5242  0.0962
   54MPD2     H  829   2.621   1.799  12.076 -1.1833  1.0111 -2.1850
   54MPD2    H1  830   2.689   1.656  11.671 -0.3540 -0.1150 -0.0159
   54MPD2    H2  831   3.023   1.708  11.933 -0.4913  0.1106 -0.6511
   54MPD2    H3  832   2.925   1.625  11.735 -0.0084  0.7194  0.8167
   54MPD2     N  833   2.502   1.739  11.838  0.0947 -0.2967  0.0878
   54MPD2    H5  834   2.472   1.722  11.742 -1.4112 -1.1921  0.7180
   54MPD2    N1  835   2.866   1.812  12.147 -0.2264 -0.1609 -0.1585
   54MPD2    H7  836   2.794   1.839  12.213  1.5559  0.6157  1.4569
   55MPD2     C  837   2.971   0.349   1.186  0.9139  0.4683 -0.3236
   55MPD2    C1  838   2.976   0.214   1.179 -0.4939  0.1231  0.5006
   55MPD2    C2  839   2.880   0.154   1.106 -0.1970 -0.3333 -0.3339
   55MPD2    C3  840   2.769   0.223   1.049  0.1345 -0.4720  0.3945
   55MPD2    C4  841   2.770   0.360   1.062  0.2694  0.0463  0.3057
   55MPD2    C5  842   2.874   0.420   1.125  0.1386 -0.1628  0.1518
   55MPD2     H  843   2.871   0.046   1.098  1.5936 -0.4474 -0.7595
   55MPD2    H1  844   2.682   0.417   1.033  1.7374  0.4898 -3.3226
   55MPD2    H2  845   3.048   0.409   1.233  0.9575 -0.1491  0.4006
   55MPD2    H3  846   2.869   0.527   1.142 -2.0822 -0.0673 -1.1516
   55MPD2     N  847   2.665   0.146   0.987 -0.0058 -0.0633 -0.0387
   55MPD2    H5  848   2.683   0.047   0.992 -1.2125 -0.3385 -1.1540
   55MPD2    N1  849   3.077   0.151   1.251 -0.2945 -0.5642  0.1282
   55MPD2    H7  850   3.138   0.197   1.318 -0.6623 -1.3713  1.0277
   56TCq2    C1  851   3.101   0.015   1.248  0.4803 -0.2977 -0.1616
   56TCq2    O2  852   3.054   4.657   1.168  0.0745 -0.0515 -0.2050
   56TCq2    C2  853   3.168   4.688   1.366  0.1124 -0.1230 -0.0886
   56TCq2    C3  854   3.188   0.050   1.471 -1.1049 -0.3934  0.5102
   56TCq2    C4  855   3.260   0.002   1.579 -0.1294  0.0622  0.1164
   56TCq2    C5  856   3.303   4.592   1.584 -0.4136 -0.4081  0.4933
   56TCq2    C6  857   3.271   4.508   1.484  0.5127 -0.5956 -0.6349
   56TCq2    C7  858   3.216   4.561   1.370  0.6045 -0.4964  0.1436
   56TCq2    C8  859   3.330   4.370   1.467 -0.4623  0.5051  0.0696
   56TCq2    O4  860   3.424   4.334   1.539 -0.6011  0.5142  0.2951
   56TCq2    C9  861   3.303   0.090   1.681  0.0325  0.4535  0.7196
   56TCq2    O5  862   3.290   0.212   1.660 -0.0057  0.0401  0.5449
   56TCq2    O6  863   3.383   0.045   1.767 -0.4143  0.1284  1.2727
   56TCq2    H2  864   3.148   0.149   1.487  2.7760  1.0260  1.5400
   56TCq2    H3  865   3.367   4.559   1.665 -0.1685 -0.3014  0.3442
   56TCq2    H4  866   3.194   4.504   1.280 -2.1456  0.5547  0.1564
   57TMC2    C1  867   2.207   1.183  13.508  0.2018  0.3469 -0.0331
   57TMC2    C2  868   2.268   1.301  13.462 -0.0067  0.6531  0.2387
   57TMC2    C3  869   2.291   1.310  13.323 -0.7886  0.1253  0.5469
   57TMC2    C4  870   2.201   1.064  13.438  0.0726 -0.4208 -0.2453
   57TMC2    C5  871   2.222   1.075  13.300  0.2816  0.0049 -0.3628
   57TMC2    C6  872   2.261   1.194  13.245  0.1773 -0.1048  0.2823
   57TMC2     C  873   2.153   1.187  13.638  0.0600  0.0581 -0.0822
   57TMC2     O  874   2.160   1.294  13.690 -0.1338 -0.3549  0.2911
   57TMC2     H  875   2.281   1.393  13.518  0.1698  0.2162  0.9089
   57TMC2    H1  876   2.183   0.965  13.477  2.6436  0.2701  2.7438
   57TMC2    H2  877   2.261   1.202  13.137 -0.0184 -0.7276  0.2368
   57TMC2    C7  878   2.197   0.956  13.217  0.5525 -0.3321  0.7709
   57TMC2    C8  879   2.236   1.421  13.257  0.2526 -0.0236  0.3387
   57TMC2    O1  880   2.096   0.897  13.254  0.0788  0.2837 -0.2265
   57TMC2    O2  881   2.125   1.397  13.214 -0.1294 -0.1472  0.7181
   57TMC2    O5  882   2.254   1.529  13.340 -0.3344  0.5446  0.4733
   57TMC2    H5  883   2.350   1.528  13.360 -0.6199  1.0976  1.9142
   58MPD2     C  884   1.929   0.983  14.061  0.2224  0.2747  0.1323
   58MPD2    C1  885   2.009   1.096  14.053 -0.5595 -0.2411  0.0404
   58MPD2    C2  886   2.063   1.121  13.928 -0.4031  0.4798 -0.2096
   58MPD2    C3  887   2.046   1.038  13.819  0.0718  1.2257 -0.0468
   58MPD2    C4  888   1.981   0.916  13.833 -0.7345  0.7527  0.2941
   58MPD2    C5  889   1.916   0.896  13.952 -0.5391 -0.7852  0.3865
   58MPD2     H  890   2.114   1.216  13.918  0.0214  0.2481 -0.2351
   58MPD2    H1  891   1.971   0.845  13.752  0.2233  0.0649  0.7723
   58MPD2    H2  892   1.894   0.953  14.159 -0.5990 -0.7703 -0.4756
   58MPD2    H3  893   1.868   0.799  13.953  2.6785 -2.3587  0.9248
   58MPD2     N  894   2.092   1.066  13.685 -0.3091 -0.0350  0.9579
   58MPD2    H5  895   2.066   0.998  13.615 -0.4899 -0.4289  1.4096
   58MPD2    N1  896   2.031   1.181  14.157 -0.3337 -1.0571 -0.6037
   58MPD2    H7  897   2.074   1.271  14.141 -0.6437 -1.0685 -1.5177
   59MPD2     C  898   0.140   1.130  13.288  0.1291  0.2658 -0.6567
   59MPD2    C1  899   0.253   1.093  13.218  0.5227  0.7876  0.3323
   59MPD2    C2  900   0.385   1.101  13.269 -0.1213 -0.0286  0.5339
   59MPD2    C3  901   0.403   1.186  13.384  1.2126 -0.1678 -0.3697
   59MPD2    C4  902   0.287   1.243  13.439  0.0884  0.5174 -0.3495
   59MPD2    C5  903   0.164   1.197  13.401 -0.2967 -0.4157 -0.0955
   59MPD2     H  904   0.466   1.057  13.213  0.0913  0.2377  0.6300
   59MPD2    H1  905   0.300   1.305  13.527  0.3148  0.4355 -0.3236
   59MPD2    H2  906   0.036   1.115  13.262  0.4379 -0.7587 -1.3077
   59MPD2    H3  907   0.081   1.242  13.454  1.6787  0.0309  2.6462
   59MPD2     N  908   0.528   1.228  13.429  0.4935  0.4095 -0.8298
   59MPD2    H5  909   0.528   1.300  13.500 -0.3550  1.7813 -2.2046
   59MPD2    N1  910   0.236   1.025  13.097  0.3642 -0.5429  0.3307
   59MPD2    H7  911   0.139   0.995  13.087 -0.6435  2.7228  0.2184
   60TCq2    C1  912   0.328   1.015  13.000  0.1781  0.0519  0.4429
   60TCq2    O2  913   0.412   1.100  12.967  0.4561  0.6344 -0.2636
   60TCq2    C2  914   0.276   0.936  12.894  0.0767  0.4289  0.1460
   60TCq2    C3  915   0.168   0.853  12.927 -0.3370  0.3364  0.0465
   60TCq2    C4  916   0.101   0.787  12.822  0.2883 -0.7770 -0.4066
   60TCq2    C5  917   0.128   0.816  12.690 -0.2118  0.0820  0.5208
   60TCq2    C6  918   0.235   0.900  12.662 -1.3815 -0.9554  0.5187
   60TCq2    C7  919   0.314   0.948  12.763  0.5640  0.8893  0.4870
   60TCq2    C8  920   0.271   0.910  12.520  0.0602  0.5601  0.2291
   60TCq2    O4  921   0.265   0.816  12.444 -0.1136 -0.2965 -0.1539
   60TCq2    C9  922   4.719   0.691  12.851 -0.1664  0.6673  0.3980
   60TCq2    O5  923   4.675   0.687  12.969 -0.5988 -0.2629 -0.5414
   60TCq2    O6  924   4.689   0.620  12.751 -0.6625 -0.1015  0.3289
   60TCq2    H2  925   0.155   0.819  13.029  1.9725  1.5170  0.7272
   60TCq2    H3  926   0.071   0.777  12.606  1.2299 -0.9249  0.0223
   60TCq2    H4  927   0.406   1.003  12.744  0.5274  0.9205  0.4015
   61MPD2     C  928   4.109   2.630  15.076  0.6415  0.1215  0.4901
   61MPD2    C1  929   4.195   2.737  15.121  0.0372 -0.6756 -0.9006
   61MPD2    C2  930   4.300   2.777  15.041  0.4594 -0.0362 -0.2160
   61MPD2    C3  931   4.319   2.720  14.917 -0.8582 -1.1294 -0.3096
   61MPD2    C4  932   4.233   2.622  14.867  0.4742  0.6658 -0.1669
   61MPD2    C5  933   4.130   2.582  14.950  0.8565 -0.3873  0.2072
   61MPD2     H  934   4.354   2.868  15.067  2.4963 -0.8822 -1.4793
   61MPD2    H1  935   4.237   2.580  14.767 -1.0765 -0.2920  0.1658
   61MPD2    H2  936   4.025   2.595  15.135  2.1464 -1.9104  1.4330
   61MPD2    H3  937   4.058   2.505  14.924 -0.0458  0.6639 -0.3820
   61MPD2     N  938   4.417   2.748  14.822 -0.0412 -0.4526 -0.0853
   61MPD2    H5  939   4.407   2.704  14.731  0.0214 -1.7557  0.5284
   61MPD2    N1  940   4.166   2.804  15.245  0.9889 -0.0510  0.0464
   61MPD2    H7  941   4.226   2.884  15.257  1.6235 -0.4850 -0.1920
   62TCq2    C1  942   4.078   2.770  15.342  0.0197 -0.3504 -0.1882
   62TCq2    O2  943   4.019   2.664  15.353 -0.6021 -1.2195 -0.1889
   62TCq2    C2  944   4.050   2.862  15.451 -0.0573 -0.6661 -0.2461
   62TCq2    C3  945   3.961   2.821  15.545 -0.5963 -0.3048  0.0140
   62TCq2    C4  946   3.935   2.909  15.646  0.9770 -0.2895 -0.2877
   62TCq2    C5  947   4.013   3.018  15.664 -0.5087 -0.3767  0.1134
   62TCq2    C6  948   4.086   3.058  15.557  0.0704  0.6597 -0.6657
   62TCq2    C7  949   4.098   2.987  15.444  0.1701 -0.1050 -0.0413
   62TCq2    C8  950   4.198   3.143  15.583 -0.9427  0.3847  0.0370
   62TCq2    O4  951   4.230   3.209  15.488 -0.1428 -0.2882  0.7185
   62TCq2    C9  952   3.834   2.881  15.746  0.4343 -0.3065 -0.1311
   62TCq2    O5  953   3.750   2.796  15.713 -0.1152  0.1330  0.5593
   62TCq2    O6  954   3.842   2.940  15.860  0.2651 -0.0827  0.2200
   62TCq2    H2  955   3.918   2.721  15.554  0.6583 -0.7205  1.4177
   62TCq2    H3  956   3.989   3.089  15.742 -0.1408  0.8565 -0.8918
   62TCq2    H4  957   4.158   3.023  15.362  1.6456 -2.4789 -0.0013
   63TMC2    C1  958   3.550   2.263  10.218  0.6883  0.1349 -0.1730
   63TMC2    C2  959   3.415   2.243  10.193  0.0474  0.0049  0.1393
   63TMC2    C3  960   3.348   2.325  10.104  0.4044  0.0572  0.2633
   63TMC2    C4  961   3.618   2.363  10.169 -0.3581  0.0365  0.3879
   63TMC2    C5  962   3.548   2.454  10.090 -0.0006  0.3429 -0.9264
   63TMC2    C6  963   3.412   2.438  10.049 -0.2273 -0.1357  0.4583
   63TMC2     C  964   3.636   2.148  10.242  0.3746 -0.2589 -0.1785
   63TMC2     O  965   3.724   2.160  10.322 -0.2656 -0.0224  0.1800
   63TMC2     H  966   3.371   2.148  10.223 -2.9685  1.3514 -0.0065
   63TMC2    H1  967   3.724   2.370  10.190 -0.2190 -0.7607 -0.0839
   63TMC2    H2  968   3.364   2.509   9.983  0.4992  0.0812  0.1667
   63TMC2    C7  969   3.608   2.585  10.067  0.9771 -0.8946 -0.2105
   63TMC2    C8  970   3.202   2.313  10.103 -0.4176 -0.3568 -0.5754
   63TMC2    O1  971   3.540   2.654   9.999 -0.3323 -0.3191 -0.1980
   63TMC2    O2  972   3.139   2.257  10.193  0.2965 -0.1704  0.0810
   63TMC2    O5  973   3.163   2.324   9.977 -0.1234 -0.1192  0.4016
   63TMC2    H5  974   3.235   2.336   9.912  0.3695  0.7205  1.1077
   64MPD2     C  975   3.757   1.669  10.127  0.4769 -0.4139 -0.1454
   64MPD2    C1  976   3.777   1.738  10.242 -0.3758  0.1006  0.3392
   64MPD2    C2  977   3.731   1.867  10.248  0.0069  0.6296 -0.5234
   64MPD2    C3  978   3.652   1.923  10.141  0.9192  0.3809  0.5271
   64MPD2    C4  979   3.632   1.850  10.031 -0.2353 -0.7119 -0.2538
   64MPD2    C5  980   3.690   1.726  10.024  0.0485  0.0463  0.1412
   64MPD2     H  981   3.747   1.930  10.334  0.5906  2.4898 -1.9926
   64MPD2    H1  982   3.577   1.886   9.945 -0.8673 -0.4601  0.2546
   64MPD2    H2  983   3.788   1.568  10.107  1.1235 -0.2994  0.2902
   64MPD2    H3  984   3.673   1.676   9.929  2.6706 -3.4531  1.5157
   64MPD2     N  985   3.609   2.055  10.145 -0.6033 -0.1014  0.0874
   64MPD2    H5  986   3.541   2.083  10.075  0.0030  2.8304  0.6594
   64MPD2    N1  987   3.855   1.682  10.345  0.0849  0.5612 -0.1698
   64MPD2    H7  988   3.841   1.739  10.428  1.2891  2.1334 -1.0393
   65MPD2     C  989   0.523   2.009  15.913  0.0365 -0.3814  0.0692
   65MPD2    C1  990   0.522   2.033  15.780 -0.5939 -0.4116 -0.0785
   65MPD2    C2  991   0.520   1.929  15.694  0.5442 -0.4224  0.0343
   65MPD2    C3  992   0.522   1.802  15.742  0.0568 -0.2120 -1.0254
   65MPD2    C4  993   0.511   1.783  15.878 -0.4481 -0.3992  0.1590
   65MPD2    C5  994   0.516   1.889  15.964 -0.7067  0.2936 -0.5015
   65MPD2     H  995   0.522   1.947  15.587 -3.6005  0.2855  0.0960
   65MPD2    H1  996   0.505   1.685  15.923  0.7738 -1.1612 -1.3763
   65MPD2    H2  997   0.532   2.091  15.983 -1.0856 -0.9227  0.8408
   65MPD2    H3  998   0.524   1.875  16.071 -0.8483  0.8277 -0.4212
   65MPD2     N  999   0.513   1.679  15.665  0.2598  0.7612  0.5620
   65MPD2    H5 1000   0.507   1.595  15.722 -1.1294 -0.2467 -1.1037
   65MPD2    N1 1001   0.534   2.172  15.734  0.1278 -0.6298 -0.0925
   65MPD2    H7 1002   0.562   2.192  15.639 -2.1567 -0.9067 -0.7991
   66TCq2    C1 1003   0.511   2.282  15.805 -0.4331  0.4638 -0.4215
   66TCq2    O2 1004   0.429   2.293  15.896 -0.2283  0.7221 -0.3120
   66TCq2    C2 1005   0.546   2.403  15.742 -0.1999  0.7158 -0.8031
   66TCq2    C3 1006   0.629   2.398  15.630 -0.1629  0.4151  0.3616
   66TCq2    C4 1007   0.609   2.506  15.540 -0.0856  0.1279 -0.0178
   66TCq2    C5 1008   0.522   2.605  15.556 -0.0618 -0.0036  0.0914
   66TCq2    C6 1009   0.440   2.602  15.668 -0.0373  0.1599 -0.5471
   66TCq2    C7 1010   0.454   2.504  15.767  0.8399 -0.0656 -0.4268
   66TCq2    C8 1011   0.328   2.694  15.670 -1.2691 -0.3550  0.3258
   66TCq2    O4 1012   0.341   2.788  15.594  0.5238  0.6645  0.3096
   66TCq2    C9 1013   0.663   2.491  15.410  0.2599 -0.5922  0.1872
   66TCq2    O5 1014   0.639   2.576  15.322 -0.3134  0.0959 -0.3401
   66TCq2    O6 1015   0.703   2.376  15.375 -0.5355 -0.6362  0.2708
   66TCq2    H2 1016   0.694   2.320  15.595  0.5605  0.7596  0.9351
   66TCq2    H3 1017   0.503   2.675  15.475 -0.8482 -0.4650 -0.1243
   66TCq2    H4 1018   0.390   2.497  15.853 -1.8687 -2.4499 -2.6444
   67MPD2     C 1019   0.457   2.119  14.217 -0.0668 -0.0166 -0.2154
   67MPD2    C1 1020   0.448   2.030  14.318  0.3090  0.0340 -0.0985
   67MPD2    C2 1021   0.383   1.905  14.295 -0.4860 -0.3055 -0.2543
   67MPD2    C3 1022   0.330   1.880  14.169 -0.2764 -0.4857  0.0659
   67MPD2    C4 1023   0.327   1.976  14.077  0.6441  0.3175 -0.8663
   67MPD2    C5 1024   0.394   2.089  14.096 -0.1110 -0.4714  1.2189
   67MPD2     H 1025   0.375   1.838  14.380 -0.3539 -1.4907 -1.1717
   67MPD2    H1 1026   0.275   1.956  13.985  0.6546  0.5885 -0.9308
   67MPD2    H2 1027   0.520   2.207  14.228  0.8715 -0.6450 -0.6148
   67MPD2    H3 1028   0.391   2.162  14.017  0.1283 -1.7420  0.0469
   67MPD2     N 1029   0.257   1.764  14.143  0.2804 -0.0330  0.0807
   67MPD2    H5 1030   0.199   1.756  14.060 -0.3099 -0.4785  0.5299
   67MPD2    N1 1031   0.491   2.051  14.452  0.4779 -0.0454 -0.3508
   67MPD2    H7 1032   0.468   1.985  14.525  2.2083  0.8415  1.0012
   68TCq2    C1 1033   0.572   2.158  14.492  0.6820  0.6503 -0.4624
   68TCq2    O2 1034   0.613   2.251  14.424 -0.6027 -0.2576  0.3993
   68TCq2    C2 1035   0.624   2.130  14.623 -0.3321 -0.0041 -0.3987
   68TCq2    C3 1036   0.685   2.240  14.691 -0.4942 -0.3238  0.5945
   68TCq2    C4 1037   0.711   2.217  14.821 -0.2258 -0.0743  0.5464
   68TCq2    C5 1038   0.694   2.091  14.877 -0.2458 -0.5617 -0.5900
   68TCq2    C6 1039   0.647   1.987  14.802 -0.3100  0.4393 -0.3239
   68TCq2    C7 1040   0.618   2.000  14.668  0.2822  0.1074 -1.3079
   68TCq2    C8 1041   0.648   1.848  14.849  0.1653  0.7786 -0.5956
   68TCq2    O4 1042   0.571   1.773  14.798 -0.0906  0.2760 -0.0926
   68TCq2    C9 1043   0.776   2.321  14.898 -0.0511  0.8328  0.3817
   68TCq2    O5 1044   0.824   2.294  15.009 -0.0017 -0.0411 -0.0954
   68TCq2    O6 1045   0.754   2.439  14.858 -0.0380  0.5326  0.5289
   68TCq2    H2 1046   0.692   2.338  14.645  0.6295  0.0535  1.5763
   68TCq2    H3 1047   0.707   2.069  14.982  1.5787 -1.0625 -0.9265
   68TCq2    H4 1048   0.581   1.916  14.612  0.5666  1.2157 -3.1508
   69TMC2    C1 1049   2.065   2.489  12.015 -0.1855 -0.4315 -0.1467
   69TMC2    C2 1050   1.936   2.446  11.990  0.3415  0.4879  0.1962
   69TMC2    C3 1051   1.909   2.438  11.854 -0.1967  0.1213  0.0402
   69TMC2    C4 1052   2.155   2.522  11.922  0.4123 -0.0461 -0.3343
   69TMC2    C5 1053   2.125   2.508  11.788  0.1462  0.7903  0.2124
   69TMC2    C6 1054   2.002   2.458  11.755 -0.2568 -0.1955  0.1030
   69TMC2     C 1055   2.117   2.452  12.146  0.7204 -0.5294 -0.4807
   69TMC2     O 1056   2.034   2.430  12.229  0.0056  0.0467  0.2843
   69TMC2     H 1057   1.868   2.399  12.060 -0.5858 -2.6666 -2.8862
   69TMC2    H1 1058   2.251   2.568  11.943 -0.2032  1.4300 -0.7773
   69TMC2    H2 1059   1.966   2.451  11.653  0.4408 -1.6809 -0.0439
   69TMC2    C7 1060   2.230   2.524  11.694 -0.2384 -0.5872  1.0966
   69TMC2    C8 1061   1.787   2.375  11.825 -0.6631 -0.3594  0.4634
   69TMC2    O1 1062   2.337   2.485  11.737 -0.4110  0.2324  0.4685
   69TMC2    O2 1063   1.673   2.406  11.859  0.0758 -0.1051  0.0286
   69TMC2    O5 1064   1.796   2.292  11.722 -0.2952 -0.3854  0.0831
   69TMC2    H5 1065   1.884   2.248  11.716 -0.4464 -0.4983 -1.2559
   70MPD2     C 1066   2.445   2.306  12.222 -0.2115  0.2670  0.1712
   70MPD2    C1 1067   2.315   2.353  12.249  0.8422 -1.2742 -0.1325
   70MPD2    C2 1068   2.264   2.318  12.375  0.0640  0.0858  0.1426
   70MPD2    C3 1069   2.337   2.258  12.470 -0.1610  0.3795  0.6403
   70MPD2    C4 1070   2.466   2.217  12.444 -0.4863 -0.0708 -0.4400
   70MPD2    C5 1071   2.516   2.244  12.320 -0.4257  0.4739 -0.3918
   70MPD2     H 1072   2.162   2.343  12.399  0.1667  1.9576 -1.3139
   70MPD2    H1 1073   2.534   2.169  12.514 -0.7112 -1.4630 -1.1851
   70MPD2    H2 1074   2.504   2.322  12.133 -0.4408 -1.7660 -0.3481
   70MPD2    H3 1075   2.619   2.219  12.299 -0.3181  1.7263 -1.4144
   70MPD2     N 1076   2.292   2.240  12.603 -0.0424 -0.2651 -0.2403
   70MPD2    H5 1077   2.365   2.222  12.672 -0.5384 -0.7288  0.1677
   70MPD2    N1 1078   2.247   2.416  12.145  0.8459 -0.0282 -0.6311
   70MPD2    H7 1079   2.303   2.426  12.061 -0.1519  1.1465 -1.1593
   71TMC2    C1 1080   4.073   3.170   2.102 -0.3813  0.0489 -0.3835
   71TMC2    C2 1081   4.134   3.141   2.214 -0.7618 -0.2073 -0.3532
   71TMC2    C3 1082   4.064   3.183   2.326 -0.4124  0.8848 -0.2413
   71TMC2    C4 1083   3.960   3.248   2.092  0.0987 -0.0416 -0.0966
   71TMC2    C5 1084   3.902   3.292   2.204  0.2039  0.7444  0.3371
   71TMC2    C6 1085   3.955   3.267   2.323  0.8844 -0.5501  0.5509
   71TMC2     C 1086   4.134   3.111   1.980  0.9752  0.1436 -0.1288
   71TMC2     O 1087   4.252   3.080   1.983  0.3898  0.1130 -0.0121
   71TMC2     H 1088   4.222   3.078   2.209 -0.7402 -0.1408 -0.8797
   71TMC2    H1 1089   3.921   3.273   1.993  0.0314 -2.9496 -0.8071
   71TMC2    H2 1090   3.911   3.292   2.419  0.7918  4.1840 -0.7363
   71TMC2    C7 1091   3.762   3.341   2.205  0.1855  0.6442 -0.2109
   71TMC2    C8 1092   4.121   3.156   2.460 -0.4934  0.7170 -0.2905
   71TMC2    O1 1093   3.713   3.370   2.310 -0.3399  0.4870  0.2756
   71TMC2    O2 1094   4.051   3.151   2.564  0.0042 -0.5173 -0.1859
   71TMC2    O5 1095   4.253   3.142   2.443 -0.0141  0.1290  0.2704
   71TMC2    H5 1096   4.289   3.181   2.360  1.5490  0.7988  1.2548
   72MPD2     C 1097   4.157   2.870   1.528  0.4540  0.0960  0.0698
   72MPD2    C1 1098   4.253   2.934   1.604  0.2035 -0.3416 -0.0415
   72MPD2    C2 1099   4.220   3.010   1.715  0.1606  0.5793  0.2239
   72MPD2    C3 1100   4.088   3.020   1.757  0.5618 -0.0570 -0.3874
   72MPD2    C4 1101   3.994   2.966   1.682  0.1154 -0.0041 -0.1622
   72MPD2    C5 1102   4.027   2.888   1.570  0.3910 -1.3622  0.2668
   72MPD2     H 1103   4.305   3.047   1.771 -0.2440 -1.9586  2.5211
   72MPD2    H1 1104   3.890   2.987   1.702 -0.1652 -1.6502  0.1449
   72MPD2    H2 1105   4.178   2.800   1.448  1.1878  0.4220 -0.0239
   72MPD2    H3 1106   3.950   2.843   1.509  1.2477 -1.0838 -1.0460
   72MPD2     N 1107   4.046   3.090   1.874  0.5528  0.5909 -0.4628
   72MPD2    H5 1108   3.947   3.084   1.897  0.6011  1.0328 -0.1435
   72MPD2    N1 1109   4.392   2.928   1.568  0.1369 -0.1084 -0.4550
   72MPD2    H7 1110   4.466   2.967   1.625  1.1987 -1.4240 -0.9368
   73TMC2    C1 1111   0.183   4.637  14.145 -0.2976  0.6184  0.6567
   73TMC2    C2 1112   0.129   4.529  14.215  0.6932 -0.2549 -0.6274
   73TMC2    C3 1113   0.190   4.478  14.324  0.0815 -0.6860  0.4031
   73TMC2    C4 1114   0.301   4.692  14.184  0.1689  0.7314 -0.1080
   73TMC2    C5 1115   0.367   4.634  14.288  0.2232 -0.4088  0.4159
   73TMC2    C6 1116   0.308   4.534  14.359  0.2436 -0.0829 -0.2658
   73TMC2     C 1117   0.187   4.619  13.998 -0.0507 -0.7894  0.2453
   73TMC2     O 1118   0.287   4.672  13.947  0.4091 -0.5493  0.1363
   73TMC2     H 1119   0.030   4.494  14.187 -0.1190  0.8291  0.8735
   73TMC2    H1 1120   0.333   0.066  14.142 -0.6197  0.0319 -2.2907
   73TMC2    H2 1121   0.346   4.496  14.453  1.6792  0.0178 -0.8047
   73TMC2    C7 1122   0.499   4.600  14.247  0.6357  0.2239 -0.2659
   73TMC2    C8 1123   0.108   4.472  14.445 -0.1590  0.1016  0.3842
   73TMC2    O1 1124   0.573   4.555  14.334 -0.1858  0.0303 -0.1060
   73TMC2    O2 1125   0.135   4.536  14.546  0.1147  0.0399  0.3710
   73TMC2    O5 1126   4.707   4.438  14.401 -0.4399  0.2308 -0.2245
   73TMC2    H5 1127   4.718   4.382  14.321  2.1621  1.1450 -0.5020
   74MPD2     C 1128   0.066   4.402  13.548  0.1979  0.8786  0.0619
   74MPD2    C1 1129   0.181   4.467  13.589 -0.5411 -0.1391  1.0839
   74MPD2    C2 1130   0.186   4.520  13.719 -0.1078 -0.3636  0.0659
   74MPD2    C3 1131   0.074   4.504  13.800 -0.1962 -0.1060  0.3653
   74MPD2    C4 1132   4.687   4.440  13.757  0.7329 -0.6071  0.5831
   74MPD2    C5 1133   4.678   4.389  13.629 -0.1852 -0.4021  0.4954
   74MPD2     H 1134   0.278   4.563  13.754 -0.1023 -0.3593  0.0463
   74MPD2    H1 1135   4.598   4.425  13.818 -1.1190  0.4861 -1.8360
   74MPD2    H2 1136   0.067   4.374  13.443  1.1429  1.2597 -0.0360
   74MPD2    H3 1137   4.592   4.334  13.594 -0.1467  0.2666 -0.6361
   74MPD2     N 1138   0.083   4.550  13.936  0.0210 -0.1414  0.3241
   74MPD2    H5 1139   0.001   4.541  13.996 -1.0621 -1.2929 -1.3176
   74MPD2    N1 1140   0.300   4.474  13.508 -0.0341 -0.8387  0.0075
   74MPD2    H7 1141   0.292   4.410  13.430 -0.3069 -1.3843  0.4781
   75TCq2    C1 1142   0.265   1.646  14.217  0.0862  0.6952  0.5828
   75TCq2    O2 1143   0.347   1.627  14.308  0.3751  0.5966  0.3106
   75TCq2    C2 1144   0.189   1.530  14.168  0.0659 -0.4792 -0.1900
   75TCq2    C3 1145   0.224   1.412  14.220 -0.1925 -0.1906  0.0091
   75TCq2    C4 1146   0.167   1.297  14.171  0.1130  0.4259  0.5962
   75TCq2    C5 1147   0.062   1.299  14.090 -0.0329 -0.3314  0.1469
   75TCq2    C6 1148   0.019   1.424  14.052  0.3708 -0.5270 -0.1729
   75TCq2    C7 1149   0.084   1.537  14.079  0.7150  0.1514 -0.2077
   75TCq2    C8 1150   4.626   1.432  13.965 -1.0029  0.2416 -0.1402
   75TCq2    O4 1151   4.602   1.345  13.880  0.0972 -0.2310 -0.4972
   75TCq2    C9 1152   0.222   1.173  14.214 -0.1574 -0.6627  0.1978
   75TCq2    O5 1153   0.219   1.076  14.137 -0.9025 -0.5932  0.3949
   75TCq2    O6 1154   0.253   1.180  14.337 -0.0214 -0.0404 -0.2325
   75TCq2    H2 1155   0.309   1.411  14.288  0.6838  2.6903 -1.0294
   75TCq2    H3 1156   0.006   1.207  14.073  2.1516 -1.7800  0.8693
   75TCq2    H4 1157   0.056   1.636  14.043  2.9838  1.0168  0.3541
   76MPD2     C 1158   2.765   1.626  11.394 -0.1949 -0.4945  0.0632
   76MPD2    C1 1159   2.863   1.690  11.320  0.0602 -0.2374  0.3040
   76MPD2    C2 1160   2.993   1.635  11.312 -0.0113 -0.1510 -0.1983
   76MPD2    C3 1161   3.013   1.508  11.367  0.5374  0.0441 -0.1775
   76MPD2    C4 1162   2.916   1.447  11.448 -0.4119 -0.1751  0.2496
   76MPD2    C5 1163   2.789   1.509  11.451 -0.1076  0.2350 -0.4538
   76MPD2     H 1164   3.074   1.688  11.264 -0.7576  0.1461 -1.1309
   76MPD2    H1 1165   2.931   1.362  11.513  1.2910 -0.0302  0.0275
   76MPD2    H2 1166   2.666   1.667  11.412 -0.2994 -1.3296  1.3936
   76MPD2    H3 1167   2.708   1.466  11.509  1.0092 -1.6878 -0.3281
   76MPD2     N 1168   3.137   1.451  11.386 -1.2699 -0.4239 -0.4126
   76MPD2    H5 1169   3.141   1.380  11.458 -0.5721 -0.6103 -0.6331
   76MPD2    N1 1170   2.836   1.811  11.254 -0.1061 -0.6531  0.7966
   76MPD2    H7 1171   2.916   1.854  11.208  0.3234  0.0952  2.2418
   77TCq2    C1 1172   3.250   1.486  11.320  0.0609  1.0102 -0.3049
   77TCq2    O2 1173   3.261   1.568  11.228  0.0137  0.2532 -0.2978
   77TCq2    C2 1174   3.357   1.406  11.358  0.4036 -0.6744 -0.1902
   77TCq2    C3 1175   3.481   1.466  11.349  0.6914  0.0448  0.0755
   77TCq2    C4 1176   3.580   1.433  11.440  0.2390 -0.3953 -0.0026
   77TCq2    C5 1177   3.569   1.332  11.536  0.1246  0.1223 -0.3439
   77TCq2    C6 1178   3.445   1.275  11.542  0.0122 -0.1554 -0.8789
   77TCq2    C7 1179   3.339   1.313  11.459  1.1399 -0.7473  0.0112
   77TCq2    C8 1180   3.411   1.187  11.657 -0.0787 -0.4862  0.1919
   77TCq2    O4 1181   3.303   1.129  11.648  0.1922  0.4274  0.1373
   77TCq2    C9 1182   3.707   1.492  11.404 -0.8323 -0.3831 -0.0947
   77TCq2    O5 1183   3.817   1.427  11.419  0.0449  0.0560 -0.1727
   77TCq2    O6 1184   3.708   1.590  11.328  1.1184 -0.4136 -0.2932
   77TCq2    H2 1185   3.502   1.538  11.271 -1.5948  2.0384  1.2951
   77TCq2    H3 1186   3.657   1.290  11.583 -0.0424  0.1759  0.0098
   77TCq2    H4 1187   3.241   1.273  11.482 -0.4756  1.5327 -2.8352
   78MPD1     C 1188   0.588   3.404   2.520 -0.8493 -0.7436 -0.2738
   78MPD1    C1 1189   0.599   3.283   2.456 -0.2149 -0.8430 -0.1875
   78MPD1    C2 1190   0.486   3.231   2.395 -0.3128  0.0793 -0.0846
   78MPD1    C3 1191   0.376   3.312   2.382  0.1780  0.5057 -0.0968
   78MPD1    C4 1192   0.379   3.444   2.418  0.2135 -0.2100  0.6108
   78MPD1    C5 1193   0.487   3.491   2.487 -0.2371  0.1327 -0.7431
   78MPD1     H 1194   0.485   3.130   2.355  0.9446  0.5931 -1.4187
   78MPD1    H1 1195   0.305   3.522   2.400 -0.9589 -1.7508 -1.2301
   78MPD1    H2 1196   0.657   3.445   2.593 -2.6710  0.5685  0.7179
   78MPD1    H3 1197   0.487   3.592   2.526 -1.6028  0.1714 -0.8524
   78MPD1     N 1198   0.251   3.269   2.334 -0.2207  0.1261  0.1793
   78MPD1    H5 1199   0.171   3.330   2.321  0.9268  1.3836 -1.0157
   78MPD1    N1 1200   0.696   3.193   2.516 -0.2221 -0.4085 -0.4316
   78MPD1    H6 1201   0.785   3.239   2.536 -0.2129 -0.7430  0.2782
   78MPD1    H7 1202   0.720   3.121   2.448 -0.0846 -0.1200 -0.6915
   79TCq2    C1 1203   0.227   3.140   2.303 -0.0145  0.4194  0.4244
   79TCq2    O2 1204   0.290   3.032   2.310 -0.6969 -0.4476  0.0706
   79TCq2    C2 1205   0.090   3.121   2.261 -0.6481  0.4856  0.1104
   79TCq2    C3 1206   4.711   3.194   2.329  0.3475  0.7940 -0.0938
   79TCq2    C4 1207   4.589   3.200   2.268  0.3430 -0.4611 -0.1986
   79TCq2    C5 1208   4.553   3.112   2.166  0.0039 -0.5541 -0.2278
   79TCq2    C6 1209   4.650   3.024   2.115  0.2591  0.1348  0.3637
   79TCq2    C7 1210   0.062   3.028   2.165 -0.1304 -0.3202 -0.8680
   79TCq2    C8 1211   4.623   2.947   1.991  0.2511 -0.0617 -0.4936
   79TCq2    O4 1212   4.721   2.905   1.930  0.0774 -0.0402  0.5190
   79TCq2    C9 1213   4.489   3.292   2.317  0.2185 -0.4772 -0.3396
   79TCq2    O5 1214   4.377   3.282   2.270 -0.1157 -0.3767 -0.6606
   79TCq2    O6 1215   4.526   3.378   2.405  0.1028 -0.7957 -0.4603
   79TCq2    H2 1216   0.011   3.253   2.417  0.1133 -0.8292  1.0492
   79TCq2    H3 1217   4.452   3.108   2.127 -0.8060  2.4737  1.5036
   79TCq2    H4 1218   0.139   2.975   2.111  0.7281 -0.7765  0.7796
   80MPD2     C 1219   2.832   1.506  12.714 -0.5369 -0.0886  0.1795
   80MPD2    C1 1220   2.735   1.466  12.631 -0.3292 -0.0239 -0.8059
   80MPD2    C2 1221   2.602   1.475  12.665 -0.0000 -0.2262 -0.1246
   80MPD2    C3 1222   2.568   1.543  12.778  0.1808  0.0339 -0.3472
   80MPD2    C4 1223   2.668   1.586  12.868 -0.0767  0.0332  0.4429
   80MPD2    C5 1224   2.799   1.552  12.838 -0.1062 -0.3102  0.0599
   80MPD2     H 1225   2.527   1.447  12.592 -0.6534  0.1531  0.3925
   80MPD2    H1 1226   2.657   1.616  12.971  2.0784 -0.4990  0.8234
   80MPD2    H2 1227   2.939   1.494  12.701 -1.0052 -1.8996 -1.9766
   80MPD2    H3 1228   2.877   1.569  12.911  1.4781  0.3497 -1.7674
   80MPD2     N 1229   2.433   1.578  12.808 -0.1698  0.1918  0.2979
   80MPD2    H5 1230   2.412   1.612  12.901 -2.0495  1.7878 -0.7168
   80MPD2    N1 1231   2.763   1.418  12.502  0.2591  0.3806  0.3393
   80MPD2    H7 1232   2.684   1.413  12.438 -1.0023  0.1635  1.9186
   81TCq2    C1 1233   2.887   1.428  12.441  0.5606 -0.4813 -0.4248
   81TCq2    O2 1234   2.996   1.439  12.492  0.4072 -0.1028 -0.4048
   81TCq2    C2 1235   2.883   1.429  12.296  0.1882 -0.6992 -0.0017
   81TCq2    C3 1236   2.998   1.434  12.231 -0.2980  0.0128 -1.0353
   81TCq2    C4 1237   2.997   1.421  12.097  0.5468  0.1476 -1.0634
   81TCq2    C5 1238   2.879   1.400  12.027 -0.2139 -0.6675 -0.0887
   81TCq2    C6 1239   2.762   1.386  12.094  0.6411 -0.0108 -0.6865
   81TCq2    C7 1240   2.761   1.398  12.232  0.0180 -0.1807  0.5559
   81TCq2    C8 1241   2.664   1.307  12.027  0.2973  0.0210  0.3643
   81TCq2    O4 1242   2.660   1.305  11.905 -0.2883  0.0548  0.4057
   81TCq2    C9 1243   3.120   1.460  12.024  0.8777  0.3057 -0.6316
   81TCq2    O5 1244   3.233   1.454  12.082  0.2009  0.0046 -0.5180
   81TCq2    O6 1245   3.118   1.484  11.901  0.4651 -0.4086  0.3372
   81TCq2    H2 1246   3.091   1.462  12.280 -1.0539 -1.1135  1.0270
   81TCq2    H3 1247   2.882   1.414  11.919 -0.5302 -0.4095 -0.0637
   81TCq2    H4 1248   2.662   1.430  12.263 -1.7075 -2.4983 -2.5080
   82MPD2     C 1249   4.687   1.035  10.815 -0.3578 -1.0627 -0.0360
   82MPD2    C1 1250   0.096   1.093  10.792  0.0444  0.9616  0.1203
   82MPD2    C2 1251   0.186   1.085  10.897 -0.3227  0.2545  0.0463
   82MPD2    C3 1252   0.145   1.031  11.021  0.0829  0.1280 -1.0305
   82MPD2    C4 1253   0.018   0.974  11.032  0.4050  0.4829  0.8611
   82MPD2    C5 1254   4.655   0.962  10.932 -0.3421 -0.4091  0.2745
   82MPD2     H 1255   0.287   1.124  10.886 -1.5015  2.9972 -0.9333
   82MPD2    H1 1256   4.709   0.923  11.123  0.8032 -0.7733  0.3013
   82MPD2    H2 1257   4.623   1.029  10.728 -1.0558  1.1346  0.3066
   82MPD2    H3 1258   4.556   0.917  10.940 -1.4834  2.0230 -0.2051
   82MPD2     N 1259   0.210   1.064  11.143 -0.3442 -0.3040 -0.1467
   82MPD2    H5 1260   0.169   1.026  11.227 -0.2836  1.7269  0.8035
   82MPD2    N1 1261   0.124   1.139  10.661  0.2648  0.0990 -0.5398
   82MPD2    H7 1262   0.041   1.144  10.604  0.7440 -0.0775 -1.2495
   83TCq2    C1 1263   0.334   1.130  11.155 -0.1167 -0.4607 -0.5501
   83TCq2    O2 1264   0.426   1.146  11.076  0.0271  0.4221 -0.0888
   83TCq2    C2 1265   0.364   1.163  11.293  0.3368 -0.2841 -0.0436
   83TCq2    C3 1266   0.264   1.201  11.381  0.3448 -0.1457 -0.1853
   83TCq2    C4 1267   0.297   1.267  11.497  0.3269 -0.4888 -0.0637
   83TCq2    C5 1268   0.424   1.287  11.533 -0.1737  0.1756 -0.0795
   83TCq2    C6 1269   0.521   1.253  11.444 -0.1126 -0.4043 -0.4164
   83TCq2    C7 1270   0.492   1.195  11.321  0.0364 -0.2470 -0.6451
   83TCq2    C8 1271   0.640   1.211  11.504  0.1998 -0.0282  0.4032
   83TCq2    O4 1272   0.745   1.218  11.437 -0.4126 -0.4677  0.4046
   83TCq2    C9 1273   0.189   1.303  11.589 -0.3365  0.1878 -0.4108
   83TCq2    O5 1274   0.219   1.383  11.680 -0.0433  0.2152  0.4195
   83TCq2    O6 1275   0.077   1.252  11.572 -0.5148 -0.4184 -0.2316
   83TCq2    H2 1276   0.158   1.186  11.362  0.4629  0.0818 -1.0306
   83TCq2    H3 1277   0.449   1.325  11.631 -0.1640  1.0622 -0.4239
   83TCq2    H4 1278   0.572   1.170  11.253  0.0541  0.4770 -0.8868
   84TCq2    C1 1279   1.506   0.233  10.128 -0.0709 -0.3342 -0.1989
   84TCq2    O2 1280   1.466   0.122  10.167 -0.3910  0.3027 -0.1733
   84TCq2    C2 1281   1.585   0.311  10.220 -0.2113 -0.9238  0.3833
   84TCq2    C3 1282   1.649   0.419  10.166 -0.6272  0.4919  0.2244
   84TCq2    C4 1283   1.682   0.515  10.257  0.5303 -0.2052 -0.2235
   84TCq2    C5 1284   1.655   0.505  10.388 -0.4083  0.3465 -0.5609
   84TCq2    C6 1285   1.583   0.395  10.435 -0.1948  0.3916  0.1407
   84TCq2    C7 1286   1.546   0.296  10.351 -0.1965  0.5754 -0.3746
   84TCq2    C8 1287   1.559   0.381  10.581  0.0507  0.1424 -0.7589
   84TCq2    O4 1288   1.577   0.486  10.640 -0.3822  0.1169 -0.0308
   84TCq2    C9 1289   1.764   0.623  10.214  0.1164  0.4473 -0.9586
   84TCq2    O5 1290   1.842   0.670  10.303 -0.5831  0.6907  0.4308
   84TCq2    O6 1291   1.756   0.663  10.098  0.5362 -0.0901 -0.3221
   84TCq2    H2 1292   1.686   0.427  10.065 -1.9872  0.8812 -0.2428
   84TCq2    H3 1293   1.684   0.588  10.451 -1.9108 -0.1157  0.7379
   84TCq2    H4 1294   1.505   0.200  10.383  0.0053  0.5522 -0.1887
   85MPD2     C 1295   1.763   2.612  16.307 -0.3520  0.3429 -0.0492
   85MPD2    C1 1296   1.895   2.633  16.263 -0.3898 -0.5368  0.0280
   85MPD2    C2 1297   1.919   2.758  16.203  0.0543 -0.6609 -0.4385
   85MPD2    C3 1298   1.827   2.861  16.206  0.0786  0.2540 -0.3574
   85MPD2    C4 1299   1.700   2.833  16.255  0.7146 -0.0727 -0.7305
   85MPD2    C5 1300   1.665   2.709  16.307  0.8078 -0.6142 -0.4743
   85MPD2     H 1301   2.018   2.782  16.166 -0.2301  1.8211  0.4059
   85MPD2    H1 1302   1.628   2.913  16.263 -0.3037 -1.0019 -0.6046
   85MPD2    H2 1303   1.735   2.512  16.338 -2.6590  0.5483 -1.4847
   85MPD2    H3 1304   1.568   2.680  16.346  0.4491 -1.7496 -2.2445
   85MPD2     N 1305   1.861   2.988  16.156  0.5489  0.6051  0.1162
   85MPD2    H5 1306   1.955   3.000  16.121  0.7692 -1.6358 -0.0953
   85MPD2    N1 1307   1.980   2.526  16.267  0.0539 -0.7822  0.2216
   85MPD2    H7 1308   1.938   2.445  16.312 -0.2153 -1.1537 -0.6975
   86TCq2    C1 1309   1.774   3.098  16.157 -0.7340  0.6091 -0.2251
   86TCq2    O2 1310   1.654   3.106  16.169 -0.1561  0.1048 -0.1347
   86TCq2    C2 1311   1.834   3.231  16.133  1.0138  0.4969 -0.0261
   86TCq2    C3 1312   1.751   3.327  16.079 -0.0701 -0.2876  0.1461
   86TCq2    C4 1313   1.802   3.440  16.029 -0.4064  0.0429  0.1957
   86TCq2    C5 1314   1.936   3.448  16.006  0.0718 -0.2801 -0.3095
   86TCq2    C6 1315   2.020   3.354  16.054  0.4352 -0.0934 -0.1960
   86TCq2    C7 1316   1.968   3.250  16.118 -0.4760  0.3654 -0.9748
   86TCq2    C8 1317   2.164   3.364  16.023  0.0805 -0.4093 -0.3957
   86TCq2    O4 1318   2.238   3.300  16.098  0.2887  0.0411  0.5282
   86TCq2    C9 1319   1.715   3.525  15.954  0.3918 -0.2064 -0.3275
   86TCq2    O5 1320   1.621   3.472  15.894  0.2296  0.6087 -0.3085
   86TCq2    O6 1321   1.767   3.623  15.902 -0.1109  0.3709 -0.1312
   86TCq2    H2 1322   1.643   3.323  16.087 -0.1606  3.1591  0.3901
   86TCq2    H3 1323   1.974   3.537  15.958  0.4325 -0.3236 -0.0955
   86TCq2    H4 1324   2.033   3.170  16.152  1.7044  2.0588 -1.1674
   87MPD2     C 1325   3.655   0.934   0.947  0.7397  0.1548  0.4244
   87MPD2    C1 1326   3.640   1.067   0.919 -0.9341  0.6877 -0.1144
   87MPD2    C2 1327   3.525   1.101   0.860 -0.1518  0.3009 -0.9816
   87MPD2    C3 1328   3.423   1.009   0.828 -0.6307  0.5091 -0.5688
   87MPD2    C4 1329   3.443   0.874   0.855 -0.3589 -0.6147 -0.4885
   87MPD2    C5 1330   3.561   0.843   0.914  0.6895  0.5070  0.2377
   87MPD2     H 1331   3.515   1.198   0.813 -1.2528  0.5248 -0.2999
   87MPD2    H1 1332   3.373   0.794   0.835  0.2013 -0.9632 -1.0308
   87MPD2    H2 1333   3.748   0.891   0.982  0.3301 -1.5093 -0.5041
   87MPD2    H3 1334   3.577   0.743   0.952 -1.3106  0.0719 -0.0513
   87MPD2     N 1335   3.316   1.050   0.754 -0.3520 -0.0735  0.5122
   87MPD2    H5 1336   3.265   0.971   0.715 -1.3381  0.7310  0.1663
   87MPD2    N1 1337   3.753   1.146   0.916 -0.6774 -0.0520 -0.5948
   87MPD2    H7 1338   3.839   1.092   0.923 -1.2041 -0.9646 -1.0484
   88TCq2    C1 1339   3.754   1.285   0.894  0.3184 -0.0376  0.6779
   88TCq2    O2 1340   3.666   1.366   0.903  0.2220  0.3615  0.2655
   88TCq2    C2 1341   3.882   1.343   0.854  0.2638 -0.0790 -0.2168
   88TCq2    C3 1342   3.910   1.472   0.896  0.9985  0.2927  0.3290
   88TCq2    C4 1343   4.032   1.524   0.875 -0.3790 -0.8466  0.1451
   88TCq2    C5 1344   4.134   1.448   0.817  0.1432  0.3764  0.2375
   88TCq2    C6 1345   4.105   1.316   0.791  0.1751  0.0183 -0.0670
   88TCq2    C7 1346   3.978   1.265   0.796 -0.3960  0.3896  0.6081
   88TCq2    C8 1347   4.210   1.245   0.713 -0.8168 -0.0146  0.0724
   88TCq2    O4 1348   4.306   1.301   0.671 -0.2827 -0.2932 -0.3609
   88TCq2    C9 1349   4.067   1.663   0.917 -0.7512 -0.6018  0.5113
   88TCq2    O5 1350   3.984   1.727   0.985 -0.3769  0.1401 -0.5096
   88TCq2    O6 1351   4.190   1.696   0.907 -0.4121 -0.4486 -0.2893
   88TCq2    H2 1352   3.833   1.540   0.932  1.2613  0.5068  0.4922
   88TCq2    H3 1353   4.229   1.496   0.799  0.4431 -0.7302 -1.1371
   88TCq2    H4 1354   3.961   1.168   0.751 -1.2654  1.3388 -1.1064
   89MPD2     C 1355   0.999   3.963   1.859  0.3628  0.2134 -0.0796
   89MPD2    C1 1356   0.926   4.043   1.948  0.3826 -0.3707  0.1975
   89MPD2    C2 1357   0.981   4.161   1.984  0.2440  0.1306 -0.4306
   89MPD2    C3 1358   1.081   4.221   1.908 -0.1810 -0.5656 -0.7963
   89MPD2    C4 1359   1.143   4.148   1.806 -0.2535 -0.0489 -0.1905
   89MPD2    C5 1360   1.106   4.014   1.793 -0.7288  0.0518 -0.3025
   89MPD2     H 1361   0.926   4.215   2.060  0.9012 -0.1023  0.2095
   89MPD2    H1 1362   1.218   4.190   1.739  1.5234 -0.5595  1.4794
   89MPD2    H2 1363   0.983   3.861   1.828  1.0203  0.9626 -2.8886
   89MPD2    H3 1364   1.159   3.953   1.721  1.0548  0.1497  0.9169
   89MPD2     N 1365   1.109   4.361   1.928 -0.3884 -0.0490 -0.2103
   89MPD2    H5 1366   1.057   4.408   2.001  0.2230 -0.9672  0.8050
   89MPD2    N1 1367   0.816   3.990   2.009  0.1520  0.2750  0.5248
   89MPD2    H7 1368   0.770   4.052   2.076  1.6939 -0.4772  2.2704
   90TCq2    C1 1369   1.184   4.449   1.848 -0.3946 -0.2383 -0.1828
   90TCq2    O2 1370   1.239   4.436   1.738 -0.3040  0.5160  0.1302
   90TCq2    C2 1371   1.211   4.568   1.932 -0.2231  0.0634  0.0418
   90TCq2    C3 1372   1.203   4.565   2.071  0.6061 -0.1410  0.2298
   90TCq2    C4 1373   1.222   4.680   2.135 -0.5872 -0.0431  0.4127
   90TCq2    C5 1374   1.237   0.074   2.069 -0.3126  0.2306 -0.4752
   90TCq2    C6 1375   1.252   0.075   1.935  0.0200 -0.2808 -0.4736
   90TCq2    C7 1376   1.224   4.686   1.862  0.1997  0.0734  0.3231
   90TCq2    C8 1377   1.247   0.206   1.872 -0.3161 -0.5627 -0.0376
   90TCq2    O4 1378   1.186   0.293   1.929  0.3875  0.3071 -0.0045
   90TCq2    C9 1379   1.224   4.672   2.280  0.2641  0.0861 -0.2227
   90TCq2    O5 1380   1.293   0.046   2.339 -0.0973  0.0052 -0.5426
   90TCq2    O6 1381   1.154   4.584   2.337 -0.2309  0.3473  0.1352
   90TCq2    H2 1382   1.211   4.473   2.128 -2.5473 -0.2111  0.5240
   90TCq2    H3 1383   1.242   0.165   2.127  0.2832  0.4711 -0.8968
   90TCq2    H4 1384   1.242   4.680   1.755  1.3155  0.5041  0.4931
   91TMC2    C1 1385   2.711   3.830  16.473 -0.6018  0.6344  0.4266
   91TMC2    C2 1386   2.758   3.803  16.602 -0.3064 -0.2176 -0.1699
   91TMC2    C3 1387   2.664   3.799  16.709  0.0876 -0.4077  0.7025
   91TMC2    C4 1388   2.581   3.845  16.447  0.3599  0.6764 -0.5535
   91TMC2    C5 1389   2.495   3.838  16.553  0.1041  0.1370 -0.5933
   91TMC2    C6 1390   2.532   3.798  16.679  0.7926 -0.1748 -0.6453
   91TMC2     C 1391   2.812   3.822  16.371  0.9274  0.0586  0.1250
   91TMC2     O 1392   2.771   3.796  16.258 -0.1099 -0.0513 -0.3312
   91TMC2     H 1393   2.861   3.816  16.635 -0.0220 -4.2536  0.6157
   91TMC2    H1 1394   2.549   3.869  16.347 -2.1832  0.8068  0.2882
   91TMC2    H2 1395   2.464   3.809  16.763 -0.5815  0.6977 -1.8621
   91TMC2    C7 1396   2.356   3.853  16.533  0.6188 -0.8052 -0.6180
   91TMC2    C8 1397   2.721   3.772  16.842 -0.2087  0.1684  0.5778
   91TMC2    O1 1398   2.284   3.803  16.622 -0.2165 -0.2051  0.3897
   91TMC2    O2 1399   2.839   3.792  16.862 -0.2811 -0.0955  0.3858
   91TMC2    O5 1400   2.640   3.706  16.931 -0.0292  0.2321  0.2868
   91TMC2    H5 1401   2.565   3.670  16.879  1.0404  1.2928 -1.9532
   92MPD2     C 1402   3.059   3.776  16.200 -0.0935  0.5656 -0.1455
   92MPD2    C1 1403   3.055   3.821  16.336  0.0404 -0.2007 -0.0006
   92MPD2    C2 1404   3.173   3.832  16.403 -0.4185  0.0621  0.0578
   92MPD2    C3 1405   3.293   3.804  16.344 -0.5662 -0.0954  0.2677
   92MPD2    C4 1406   3.284   3.752  16.217 -0.0863  0.1041  0.3725
   92MPD2    C5 1407   3.172   3.742  16.141 -0.1527 -0.3523  0.6813
   92MPD2     H 1408   3.175   3.862  16.508 -2.0169  1.7682 -0.4042
   92MPD2    H1 1409   3.377   3.726  16.166  1.6979  2.1352  2.5931
   92MPD2    H2 1410   2.966   3.750  16.151 -0.3493 -0.2862  0.7915
   92MPD2    H3 1411   3.174   3.710  16.037  0.4897  1.2719  0.2003
   92MPD2     N 1412   3.416   3.817  16.419  0.0259 -0.0214 -0.7337
   92MPD2    H5 1413   3.406   3.854  16.513 -3.1072 -1.6251 -0.4247
   92MPD2    N1 1414   2.941   3.840  16.418  0.1264  0.4110  0.2501
   92MPD2    H7 1415   2.958   3.870  16.513 -0.1241 -3.3317  1.4758
   93MPD2     C 1416   4.695   4.119  13.413 -0.0142 -0.3019  0.0252
   93MPD2    C1 1417   4.630   4.082  13.536 -0.6691  0.4862 -0.4759
   93MPD2    C2 1418   4.493   4.079  13.544  0.2578 -0.1612 -0.0839
   93MPD2    C3 1419   4.415   4.124  13.440 -0.0974 -0.4878  0.1223
   93MPD2    C4 1420   4.482   4.156  13.324 -0.1238 -0.2450 -0.0631
   93MPD2    C5 1421   4.620   4.149  13.304  0.2230 -0.1517 -0.3869
   93MPD2     H 1422   4.448   4.058  13.641  2.2564 -0.0553  0.8765
   93MPD2    H1 1423   4.421   4.181  13.238 -1.2038 -0.6850  0.5754
   93MPD2    H2 1424   0.081   4.107  13.398  0.1255 -0.4149  1.1034
   93MPD2    H3 1425   4.656   4.171  13.204 -1.1127 -1.3633 -1.1411
   93MPD2     N 1426   4.277   4.131  13.434 -0.6112  0.3967  0.2011
   93MPD2    H5 1427   4.226   4.164  13.352  0.2824  3.0158  0.7033
   93MPD2    N1 1428   4.701   4.051  13.654 -0.5379 -0.0477  0.1967
   93MPD2    H7 1429   4.660   4.025  13.742 -0.2722 -4.9028 -1.1450
   94TCq2    C1 1430   0.110   4.088  13.678  0.6299  0.0171 -0.3404
   94TCq2    O2 1431   0.194   4.113  13.592  0.6391 -0.2455  0.7459
   94TCq2    C2 1432   0.145   4.119  13.817  1.1063  0.7321  0.0590
   94TCq2    C3 1433   0.049   4.143  13.903  0.4242 -0.1819  0.6342
   94TCq2    C4 1434   0.087   4.188  14.029 -0.2372 -0.3004 -0.1846
   94TCq2    C5 1435   0.218   4.190  14.065  0.4552  0.5025  0.6835
   94TCq2    C6 1436   0.314   4.166  13.973  0.3155 -0.6825 -0.3077
   94TCq2    C7 1437   0.278   4.150  13.845 -0.2158 -0.4677 -0.1240
   94TCq2    C8 1438   0.452   4.141  14.006 -0.6947 -0.2917  0.5838
   94TCq2    O4 1439   0.515   4.096  13.916 -0.6243  0.0156  0.2547
   94TCq2    C9 1440   4.704   4.226  14.122 -0.3476 -0.5898  0.0286
   94TCq2    O5 1441   4.586   4.224  14.080  0.9241 -0.3314  0.0748
   94TCq2    O6 1442   0.007   4.243  14.248 -0.1315  0.1757 -0.1514
   94TCq2    H2 1443   4.665   4.157  13.885  0.9107  0.3731 -1.7743
   94TCq2    H3 1444   0.239   4.199  14.171  0.8190 -0.6501  0.7074
   94TCq2    H4 1445   0.356   4.121  13.775  0.6564  0.1183  0.6070
   95TMC2    C1 1446   4.491   0.981  15.865 -0.3617 -0.6350 -0.4609
   95TMC2    C2 1447   4.470   0.860  15.924 -0.7395  0.2086  0.3811
   95TMC2    C3 1448   4.408   0.856  16.043  0.2148  0.7441 -0.4240
   95TMC2    C4 1449   4.436   1.095  15.922 -0.8374 -0.3598  0.0854
   95TMC2    C5 1450   4.380   1.085  16.050  0.2932 -0.2657 -0.3560
   95TMC2    C6 1451   4.357   0.961  16.111  0.1747 -0.0599 -0.0261
   95TMC2     C 1452   4.587   1.001  15.753  0.0123 -0.8595 -0.7154
   95TMC2     O 1453   4.597   1.115  15.713  0.2371 -0.4238 -0.3400
   95TMC2     H 1454   4.523   0.773  15.887  0.1252  0.5511  0.8215
   95TMC2    H1 1455   4.469   1.188  15.878 -0.2333 -0.0259  1.2466
   95TMC2    H2 1456   4.326   0.957  16.214  0.9964 -0.4148  0.2027
   95TMC2    C7 1457   4.326   1.201  16.115 -0.5408  0.6059 -0.1686
   95TMC2    C8 1458   4.439   0.745  16.127  0.3069  0.6042  0.5130
   95TMC2    O1 1459   4.268   1.178  16.218 -0.4372 -0.2400  0.4076
   95TMC2    O2 1460   4.539   0.671  16.106 -0.5716  0.2514  0.3229
   95TMC2    O5 1461   4.324   0.711  16.192  0.0790 -0.6729  0.3856
   95TMC2    H5 1462   4.258   0.779  16.169  0.5666 -0.2911  0.1105
   96MPD2     C 1463   0.265   0.890  15.478  0.1722 -0.1677 -0.3347
   96MPD2    C1 1464   0.226   1.010  15.520 -0.3059 -0.2957  0.3274
   96MPD2    C2 1465   0.110   1.016  15.598 -0.1208 -0.2723  0.1129
   96MPD2    C3 1466   0.050   0.892  15.646  0.1911  0.5105 -0.7952
   96MPD2    C4 1467   0.101   0.771  15.604  0.9032  0.4833  0.0456
   96MPD2    C5 1468   0.208   0.776  15.514  0.5439 -0.8007 -0.4884
   96MPD2     H 1469   0.079   1.114  15.631 -1.2054 -1.5549  2.9825
   96MPD2    H1 1470   0.070   0.675  15.642  1.9246 -0.2852 -1.0554
   96MPD2    H2 1471   0.351   0.884  15.412  0.8646 -0.6675  0.6047
   96MPD2    H3 1472   0.257   0.683  15.486 -1.7515 -2.5444  1.2834
   96MPD2     N 1473   4.653   0.891  15.719 -0.4454  0.2896 -0.1878
   96MPD2    H5 1474   4.616   0.806  15.760 -0.5472  0.2709 -0.3178
   96MPD2    N1 1475   0.293   1.120  15.467 -0.1563  0.0894 -0.1359
   96MPD2    H7 1476   0.366   1.104  15.399 -0.4796 -0.3077 -0.3881
   97MPD2     C 1477   0.816   3.144   0.191  0.3697  0.7240 -0.0651
   97MPD2    C1 1478   0.907   3.223   0.259  0.0047 -0.3148  0.3077
   97MPD2    C2 1479   1.019   3.272   0.191  0.0973 -0.4508  0.0606
   97MPD2    C3 1480   1.036   3.236   0.058 -0.5052 -0.4961 -0.5401
   97MPD2    C4 1481   0.948   3.154  17.680 -0.3074 -0.0759 -0.0124
   97MPD2    C5 1482   0.833   3.121   0.056  0.4733 -0.2642 -0.4390
   97MPD2     H 1483   1.086   3.339   0.243  1.9502  0.0480 -2.9718
   97MPD2    H1 1484   0.962   3.118  17.578 -1.2322  1.5429 -0.7032
   97MPD2    H2 1485   0.723   3.112   0.238 -0.1298 -1.0670 -2.2624
   97MPD2    H3 1486   0.762   3.056   0.006  1.4093 -0.4574 -1.5189
   97MPD2     N 1487   1.146   3.276  17.666  0.7662 -0.7544 -0.3322
   97MPD2    H5 1488   1.141   3.235  17.574  1.0595  0.8173 -1.0548
   97MPD2    N1 1489   0.875   3.255   0.400 -0.4159  0.2516 -0.0788
   97MPD2    H7 1490   0.787   3.216   0.433  0.1501  0.9809  2.3058
   98TCq2    C1 1491   1.250   3.355   0.019 -0.0442  0.3968 -1.2613
   98TCq2    O2 1492   1.262   3.427   0.117 -0.1185 -0.2267 -0.0276
   98TCq2    C2 1493   1.354   3.353  17.607 -0.2814  0.5968  0.6424
   98TCq2    C3 1494   1.359   3.242  17.527  0.5053 -0.3885 -0.1650
   98TCq2    C4 1495   1.444   3.246  17.420 -0.6001 -0.0978  0.6281
   98TCq2    C5 1496   1.536   3.351  17.411  0.4555  0.4283  0.8023
   98TCq2    C6 1497   1.531   3.457  17.492  0.5288 -0.1939 -0.8920
   98TCq2    C7 1498   1.433   3.457  17.587  0.1472 -0.1038  0.1022
   98TCq2    C8 1499   1.634   3.560  17.490  0.2854  0.0089 -1.0537
   98TCq2    O4 1500   1.647   3.635  17.585 -0.1955 -0.0969 -0.1866
   98TCq2    C9 1501   1.457   3.142  17.329 -0.0694  0.7838  0.2437
   98TCq2    O5 1502   1.386   3.044  17.339 -0.3630  0.0890 -0.4586
   98TCq2    O6 1503   1.536   3.161  17.234 -0.0755 -0.4101 -0.0266
   98TCq2    H2 1504   1.318   3.143  17.549 -0.5419 -0.1693 -1.0944
   98TCq2    H3 1505   1.620   3.345  17.343 -0.1873  2.6364 -0.2002
   98TCq2    H4 1506   1.425   3.543  17.653 -0.5412  1.5958 -2.2278
   99MPD2     C 1507   0.628   1.048   1.607  0.1577 -0.5046  0.3507
   99MPD2    C1 1508   0.550   0.934   1.569  0.1034  0.2160 -0.2370
   99MPD2    C2 1509   0.600   0.807   1.555  0.2870  0.0775  0.0667
   99MPD2    C3 1510   0.738   0.790   1.571 -0.0100  0.2579  0.4751
   99MPD2    C4 1511   0.814   0.905   1.604  0.4205  0.1261 -0.1144
   99MPD2    C5 1512   0.763   1.027   1.613  0.4742  0.0154 -0.2013
   99MPD2     H 1513   0.538   0.721   1.531  2.0500 -1.2786  0.4098
   99MPD2    H1 1514   0.921   0.894   1.620  0.5201  0.4571 -0.5533
   99MPD2    H2 1515   0.589   1.149   1.614  1.2436 -0.3063  3.2328
   99MPD2    H3 1516   0.827   1.114   1.628 -0.2250  0.5983 -0.6039
   99MPD2     N 1517   0.798   0.658   1.559  0.0332 -0.7271  0.0007
   99MPD2    H5 1518   0.736   0.578   1.551 -2.1188  1.1359 -1.8645
   99MPD2    N1 1519   0.410   0.941   1.576  0.7666 -0.1130 -0.5397
   99MPD2    H7 1520   0.357   0.859   1.548  1.2567 -0.3528 -0.7690
  100TCq2    C1 1521   0.344   1.053   1.613 -0.1373 -0.2956  0.1253
  100TCq2    O2 1522   0.374   1.153   1.679 -0.6199 -0.1269 -0.0653
  100TCq2    C2 1523   0.201   1.042   1.587 -0.1437 -0.5612 -0.9994
  100TCq2    C3 1524   0.149   0.967   1.488  0.0761  0.2754 -0.0294
  100TCq2    C4 1525   0.015   0.959   1.466  0.2143 -0.2492 -0.7571
  100TCq2    C5 1526   4.653   1.037   1.545 -0.2428 -0.4192 -0.0627
  100TCq2    C6 1527   4.710   1.106   1.647  0.5021 -0.0498 -0.4130
  100TCq2    C7 1528   0.123   1.108   1.675 -0.7707 -0.0813  1.1499
  100TCq2    C8 1529   4.629   1.153   1.752 -0.9252 -0.1033 -0.7291
  100TCq2    O4 1530   4.648   1.261   1.807 -0.0987 -0.3009  0.3873
  100TCq2    C9 1531   4.666   0.883   1.369 -0.8847  0.4673  0.1519
  100TCq2    O5 1532   0.020   0.827   1.287 -0.0744  0.4811  0.5543
  100TCq2    O6 1533   4.543   0.875   1.365 -0.0858 -0.0069 -0.5996
  100TCq2    H2 1534   0.212   0.902   1.427  0.1023  1.7964 -1.6180
  100TCq2    H3 1535   4.545   1.025   1.540 -0.2009  0.1904 -2.4797
  100TCq2    H4 1536   0.157   1.182   1.746  0.4428  0.1018  0.3708
  101MPD2     C 1537   1.253   1.717  12.925 -0.1345  0.0773  0.1762
  101MPD2    C1 1538   1.147   1.783  12.981 -0.2463  0.4656 -0.1625
  101MPD2    C2 1539   1.082   1.739  13.092  0.0437  0.3434 -0.2616
  101MPD2    C3 1540   1.128   1.612  13.139 -0.7629  0.0444  0.2063
  101MPD2    C4 1541   1.229   1.543  13.080 -0.3424  0.1279  0.1672
  101MPD2    C5 1542   1.298   1.599  12.979  0.4960 -0.9044  0.6529
  101MPD2     H 1543   1.003   1.780  13.153 -0.9774 -1.8212 -0.1174
  101MPD2    H1 1544   1.256   1.440  13.102  2.1907  1.0098  1.0787
  101MPD2    H2 1545   1.300   1.758  12.837  1.3420 -0.5360  0.6842
  101MPD2    H3 1546   1.381   1.545  12.935  1.0702  1.1849 -0.8191
  101MPD2     N 1547   1.055   1.558  13.244 -0.2157  0.2911 -0.2631
  101MPD2    H5 1548   1.001   1.614  13.310 -3.0255 -1.0598 -1.4442
  101MPD2    N1 1549   1.099   1.898  12.914 -0.4434 -0.7630  0.0630
  101MPD2    H7 1550   1.146   1.926  12.829 -0.9118  0.3385  0.1611
  102TCq2    C1 1551   1.195   2.213  12.621  0.2019 -0.5249  0.6301
  102TCq2    O2 1552   1.308   2.189  12.659 -0.5886 -0.3986  0.7989
  102TCq2    C2 1553   1.081   2.210  12.708 -0.6582  0.2383 -0.0697
  102TCq2    C3 1554   0.963   2.270  12.667  0.3367  0.2097  0.6796
  102TCq2    C4 1555   0.850   2.241  12.736 -0.0342  0.0069  0.6629
  102TCq2    C5 1556   0.852   2.142  12.841  0.1412  0.7909 -0.4369
  102TCq2    C6 1557   0.976   2.089  12.869 -0.2410  0.2530 -0.6244
  102TCq2    C7 1558   1.091   2.128  12.813  0.4382  0.0722  0.0513
  102TCq2    C8 1559   0.985   1.968  12.943 -0.6342  0.0353  0.0088
  102TCq2    O4 1560   0.899   1.950  13.029  0.6422  0.2603  0.3469
  102TCq2    C9 1561   0.725   2.300  12.710 -0.0337 -0.0927  0.2313
  102TCq2    O5 1562   0.627   2.231  12.743  0.6637  0.3290  0.3196
  102TCq2    O6 1563   0.724   2.404  12.638  0.4667 -0.1752  0.6170
  102TCq2    H2 1564   0.955   2.354  12.599  1.9464  1.1447  1.6321
  102TCq2    H3 1565   0.766   2.110  12.898  0.1468  0.7484 -0.4516
  102TCq2    H4 1566   1.190   2.099  12.844 -0.3108 -0.6242  1.8087
  103TMC2    C1 1567   3.846   1.202  12.330 -0.5955 -0.2625 -0.2266
  103TMC2    C2 1568   3.847   1.103  12.425 -0.0331 -0.1821 -0.7598
  103TMC2    C3 1569   3.922   1.117  12.540 -0.2455 -0.1107 -0.3417
  103TMC2    C4 1570   3.921   1.313  12.340 -0.7452  0.4466 -0.1144
  103TMC2    C5 1571   4.015   1.319  12.448  0.2789  0.1945 -0.5926
  103TMC2    C6 1572   4.018   1.215  12.535  0.3840  0.3399 -0.9873
  103TMC2     C 1573   3.773   1.179  12.204  0.3644  1.1224  0.8734
  103TMC2     O 1574   3.798   1.262  12.114  0.0716  0.5380 -0.0606
  103TMC2     H 1575   3.792   1.013  12.402  0.3146  0.0507 -2.4935
  103TMC2    H1 1576   3.908   1.398  12.274  1.1179 -1.3200 -2.7534
  103TMC2    H2 1577   4.083   1.237  12.619 -0.5520  0.0294 -0.1811
  103TMC2    C7 1578   4.124   1.419  12.460 -0.5192  0.1757 -0.1110
  103TMC2    C8 1579   3.938   1.007  12.635 -0.7000 -0.4376  0.0918
  103TMC2    O1 1580   4.174   1.432  12.569 -0.0470  0.5705 -0.6350
  103TMC2    O2 1581   4.052   0.968  12.654  0.4175  0.2989 -0.4130
  103TMC2    O5 1582   3.829   0.931  12.634 -0.1411  0.4677 -0.0122
  103TMC2    H5 1583   3.743   0.977  12.640  1.1271  2.5419  2.1564
  104MPD2     C 1584   3.501   0.949  12.105 -0.3937 -0.5801 -0.3571
  104MPD2    C1 1585   3.588   1.056  12.095 -0.1794 -0.0865 -0.4047
  104MPD2    C2 1586   3.581   1.128  11.978  0.1478  0.2848 -1.1762
  104MPD2    C3 1587   3.492   1.110  11.877 -0.1989 -0.6727 -0.3442
  104MPD2    C4 1588   3.403   1.006  11.890  0.2586  0.5547 -0.9350
  104MPD2    C5 1589   3.411   0.926  12.003 -0.0386 -0.2385  0.2057
  104MPD2     H 1590   3.650   1.209  11.956  2.9655 -2.0990 -1.1619
  104MPD2    H1 1591   3.333   0.979  11.812 -1.0173  1.5590 -0.1471
  104MPD2    H2 1592   3.491   0.872  12.180 -2.1650 -2.1725 -2.2132
  104MPD2    H3 1593   3.338   0.847  12.016 -0.8995  0.4551 -0.4438
  104MPD2     N 1594   3.501   1.192  11.758 -0.2593  0.2160  0.2815
  104MPD2    H5 1595   3.571   1.265  11.756  0.7178 -0.7455 -0.7101
  104MPD2    N1 1596   3.690   1.074  12.198  0.5454 -0.5545  0.5682
  104MPD2    H7 1597   3.677   1.010  12.276  1.4993 -1.1326  0.2433
  105MPD2     C 1598   0.679   0.990  17.352  0.2534 -0.1340 -0.5689
  105MPD2    C1 1599   0.580   1.079  17.325  0.0360  0.3275 -0.2150
  105MPD2    C2 1600   0.473   1.083  17.412 -0.2080 -0.0038 -0.0488
  105MPD2    C3 1601   0.457   0.990  17.513  0.4309  0.0482 -0.8340
  105MPD2    C4 1602   0.554   0.893  17.530 -0.4606 -0.5561 -0.1516
  105MPD2    C5 1603   0.673   0.911  17.463 -0.4489 -0.1538  0.4638
  105MPD2     H 1604   0.411   1.172  17.402  0.0978  0.2015 -0.1352
  105MPD2    H1 1605   0.544   0.810  17.598  2.4125 -1.4173 -0.7882
  105MPD2    H2 1606   0.777   1.007  17.310  1.2486 -0.1371  1.7370
  105MPD2    H3 1607   0.754   0.843  17.485 -1.3163 -1.6246 -0.8322
  105MPD2     N 1608   0.336   0.999  17.590 -0.5965 -0.5945 -0.2246
  105MPD2    H5 1609   0.280   1.084  17.589  0.2821  0.0097  0.4461
  105MPD2    N1 1610   0.584   1.177  17.220 -0.2269  0.1022 -0.4779
  105MPD2    H7 1611   0.518   1.254  17.227  1.4911  1.6272 -0.9086
  106TCq2    C1 1612   0.283   0.922   0.004  0.4471  0.3231 -0.3149
  106TCq2    O2 1613   0.349   0.842   0.064 -0.4655  0.0723  0.4716
  106TCq2    C2 1614   0.151   0.966   0.048 -0.2289  0.3373  0.5357
  106TCq2    C3 1615   0.079   1.054  17.653  0.2294  0.7717  0.3979
  106TCq2    C4 1616   4.683   1.105   0.019 -0.0151 -0.9276 -0.7316
  106TCq2    C5 1617   4.649   1.075   0.148 -0.0371 -0.2768 -0.6634
  106TCq2    C6 1618   4.716   0.980   0.226  0.1252 -0.3065 -0.4967
  106TCq2    C7 1619   0.108   0.927   0.175 -0.0132 -0.3062  0.0886
  106TCq2    C8 1620   4.630   0.907   0.331 -0.4054 -1.3198 -0.3720
  106TCq2    O4 1621   4.664   0.796   0.374 -0.4238  0.1056  0.2213
  106TCq2    C9 1622   4.587   1.177  17.625 -0.1953  0.1994 -0.7633
  106TCq2    O5 1623   4.463   1.163  17.648 -0.3631  0.2676  0.0115
  106TCq2    O6 1624   4.631   1.242  17.528  0.0698 -0.2036 -0.0138
  106TCq2    H2 1625   0.102   1.087  17.552  1.1684  0.2654  0.4499
  106TCq2    H3 1626   4.552   1.111   0.181  0.5204 -0.3009  1.0044
  106TCq2    H4 1627   0.169   0.844   0.209 -0.0357 -1.4167 -2.5436
  107TMC2    C1 1628   1.647   0.566  11.490 -0.2985  0.1973  0.7533
  107TMC2    C2 1629   1.699   0.679  11.435  0.2818  0.1080  0.1389
  107TMC2    C3 1630   1.743   0.663  11.308  0.3083 -0.3783 -0.7008
  107TMC2    C4 1631   1.657   0.442  11.433 -0.3826 -0.1248  0.5020
  107TMC2    C5 1632   1.707   0.432  11.307  0.1909 -0.4548 -0.4015
  107TMC2    C6 1633   1.749   0.541  11.243  0.1402 -0.3937  0.0548
  107TMC2     C 1634   1.592   0.580  11.621  0.5591  0.6236  0.2683
  107TMC2     O 1635   1.552   0.483  11.684  0.0350 -0.1250 -0.5700
  107TMC2     H 1636   1.712   0.778  11.476  1.3119 -0.3426  0.9159
  107TMC2    H1 1637   1.612   0.357  11.483  0.6161 -1.2606 -0.5657
  107TMC2    H2 1638   1.808   0.527  11.153  0.3979 -0.1441  0.1842
  107TMC2    C7 1639   1.659   0.313  11.232 -0.1219  0.5052 -0.3585
  107TMC2    C8 1640   1.833   0.767  11.272 -0.1377  0.2487  0.5002
  107TMC2    O1 1641   1.640   0.216  11.304 -0.2506  0.5591  0.1986
  107TMC2    O2 1642   1.865   0.861  11.342  0.1513 -0.2239 -0.0416
  107TMC2    O5 1643   1.871   0.763  11.143 -0.1833 -0.6920 -0.4848
  107TMC2    H5 1644   1.806   0.724  11.081 -2.3959 -0.5969  1.7781
  108MPD2     C 1645   1.376   0.866  11.721 -0.6725 -0.2387 -0.6504
  108MPD2    C1 1646   1.448   0.749  11.734 -0.0914  0.4241 -0.1416
  108MPD2    C2 1647   1.449   0.682  11.856  0.0891 -0.4073  0.7585
  108MPD2    C3 1648   1.377   0.734  11.961 -0.0224 -0.3730 -0.3704
  108MPD2    C4 1649   1.300   0.849  11.942 -0.4174  0.7326  0.0496
  108MPD2    C5 1650   1.297   0.913  11.817 -0.1398  0.2152  0.6011
  108MPD2     H 1651   1.511   0.594  11.867  0.3290 -0.6055 -2.2004
  108MPD2    H1 1652   1.241   0.888  12.024 -0.2802 -1.0545  1.0065
  108MPD2    H2 1653   1.368   0.917  11.625  0.7479  0.1524 -0.5473
  108MPD2    H3 1654   1.241   1.005  11.810  0.2830  0.4588  0.4527
  108MPD2     N 1655   1.379   0.675  12.090  0.3695 -0.1204 -0.1174
  108MPD2    H5 1656   1.330   0.732  12.158 -2.4190 -0.6918 -1.6539
  108MPD2    N1 1657   1.537   0.707  11.632  0.5300  0.0962  0.3753
  108MPD2    H7 1658   1.552   0.772  11.556 -0.9310 -0.9026 -0.7530
  109MPD2     C 1659   0.515   2.120   1.734 -0.1494 -0.6408  0.1050
  109MPD2    C1 1660   0.487   2.205   1.628 -0.1676  0.7553 -0.0619
  109MPD2    C2 1661   0.584   2.293   1.583 -0.2006 -0.4939 -0.5045
  109MPD2    C3 1662   0.704   2.294   1.650  0.2875 -0.0844  0.4833
  109MPD2    C4 1663   0.737   2.203   1.748  0.4145  0.4209 -0.7633
  109MPD2    C5 1664   0.641   2.121   1.790  0.4577  0.3466  0.5676
  109MPD2     H 1665   0.577   2.372   1.510  0.8316  0.8159  0.8005
  109MPD2    H1 1666   0.832   2.202   1.799  1.0610 -0.5721 -1.9886
  109MPD2    H2 1667   0.448   2.046   1.777 -0.9029 -0.1140 -0.1550
  109MPD2    H3 1668   0.667   2.043   1.861 -0.1891 -0.0155  0.4078
  109MPD2     N 1669   0.798   2.382   1.585 -0.7431 -0.4400  0.0709
  109MPD2    H5 1670   0.765   2.424   1.498 -0.3509  2.4520  1.3217
  109MPD2    N1 1671   0.355   2.220   1.582  0.3037 -0.5323  0.1204
  109MPD2    H7 1672   0.279   2.172   1.629  0.5857  0.3225  1.4536
  110TCq2    C1 1673   0.927   2.409   1.623  0.4149 -0.5080  0.6372
  110TCq2    O2 1674   0.987   2.362   1.719 -0.2314 -0.2173 -0.3300
  110TCq2    C2 1675   0.985   2.521   1.551  0.3898  0.1702 -0.4841
  110TCq2    C3 1676   1.093   2.578   1.617 -0.3386 -0.1988 -0.0934
  110TCq2    C4 1677   1.122   2.707   1.581 -0.1352  0.4817  0.4190
  110TCq2    C5 1678   1.067   2.769   1.472  0.2717 -0.5568  0.6017
  110TCq2    C6 1679   0.966   2.708   1.410  0.1647 -0.4159  0.4527
  110TCq2    C7 1680   0.923   2.583   1.443 -0.5801  0.4533 -0.0951
  110TCq2    C8 1681   0.908   2.773   1.289  0.3697  0.6597 -0.0027
  110TCq2    O4 1682   0.924   2.894   1.279  0.0309  0.0532 -0.5471
  110TCq2    C9 1683   1.218   2.785   1.653 -0.1395 -0.5014  0.1243
  110TCq2    O5 1684   1.311   2.722   1.714  0.4645  0.1209  0.3270
  110TCq2    O6 1685   1.227   2.909   1.634 -0.4054 -0.4777 -0.0817
  110TCq2    H2 1686   1.151   2.524   1.691 -0.0410  1.0514  0.5830
  110TCq2    H3 1687   1.092   2.870   1.444 -0.0761 -0.7632 -0.4431
  110TCq2    H4 1688   0.852   2.529   1.381 -1.1409  1.1141 -0.0240
  111TMC2    C1 1689   2.007   2.368  11.238  0.5303  0.7593  0.2664
  111TMC2    C2 1690   2.100   2.336  11.138  0.4648 -0.1213  0.2026
  111TMC2    C3 1691   2.204   2.260  11.172 -0.4761 -0.0885  0.3467
  111TMC2    C4 1692   2.020   2.337  11.370 -0.3767  0.2827  0.7446
  111TMC2    C5 1693   2.130   2.262  11.398 -0.9678 -0.5800 -0.7886
  111TMC2    C6 1694   2.226   2.230  11.304 -0.5329  0.2910 -0.4196
  111TMC2     C 1695   1.897   2.450  11.195 -0.0531 -0.5218 -0.2450
  111TMC2     O 1696   1.888   2.476  11.076 -0.3164  0.0213  0.0334
  111TMC2     H 1697   2.090   2.380  11.040  0.0897  0.5027  0.5258
  111TMC2    H1 1698   1.950   2.357  11.450 -1.8509 -1.4737 -0.1041
  111TMC2    H2 1699   2.323   2.186  11.327  0.6738  4.0696  1.6197
  111TMC2    C7 1700   2.142   2.216  11.535  0.2232  0.2800 -0.1441
  111TMC2    C8 1701   2.317   2.270  11.084  0.0548  0.6187 -0.2563
  111TMC2    O1 1702   2.039   2.200  11.599 -0.1450 -0.2907  0.4835
  111TMC2    O2 1703   2.331   2.351  10.993  0.6271  0.0902  0.0372
  111TMC2    O5 1704   2.388   2.159  11.087 -0.1229  0.1477  0.4231
  111TMC2    H5 1705   2.382   2.091  11.157 -1.5523  0.9591  1.0858
  112MPD2     C 1706   1.413   2.589  11.292  0.2389 -0.4051 -0.8815
  112MPD2    C1 1707   1.487   2.607  11.177 -0.3589 -0.6590  0.1749
  112MPD2    C2 1708   1.625   2.586  11.174  0.2865  0.7034 -0.4001
  112MPD2    C3 1709   1.692   2.547  11.293  0.2307  0.7839  0.3531
  112MPD2    C4 1710   1.609   2.535  11.410 -0.3521  0.0194 -0.0955
  112MPD2    C5 1711   1.472   2.557  11.410  0.0494 -0.6440  0.0192
  112MPD2     H 1712   1.674   2.583  11.077 -0.5827  0.5742 -0.8430
  112MPD2    H1 1713   1.652   2.486  11.497 -0.5414 -0.2069 -0.1298
  112MPD2    H2 1714   1.308   2.613  11.303  0.6334  0.8223  0.2201
  112MPD2    H3 1715   1.416   2.535  11.500 -1.4399  0.9046 -0.5239
  112MPD2     N 1716   1.822   2.497  11.303 -0.6074 -0.0375  0.3327
  112MPD2    H5 1717   1.855   2.472  11.396  2.1934  0.2707 -0.5574
  112MPD2    N1 1718   1.432   2.650  11.052 -0.1992 -0.0492 -0.2641
  112MPD2    H7 1719   1.504   2.639  10.981  0.0045 -1.4499  0.1574
  113MPD2     C 1720   3.891   0.367   1.541 -0.4931 -0.4532  0.5249
  113MPD2    C1 1721   3.781   0.389   1.464 -0.3548  0.0055  0.4029
  113MPD2    C2 1722   3.736   0.282   1.393  0.1043 -0.1025  0.7990
  113MPD2    C3 1723   3.782   0.152   1.407  0.3074 -0.4701 -0.2410
  113MPD2    C4 1724   3.888   0.135   1.495 -0.3874 -0.0613  0.1128
  113MPD2    C5 1725   3.943   0.242   1.554  0.3187  0.2245 -0.1526
  113MPD2     H 1726   3.660   0.295   1.316  0.4891 -2.4469  0.0320
  113MPD2    H1 1727   3.927   0.038   1.525  1.9898  0.8736  0.0228
  113MPD2    H2 1728   3.948   0.447   1.587 -1.5105  0.5993 -0.0382
  113MPD2    H3 1729   4.031   0.218   1.613  0.1724 -1.2579 -0.5418
  113MPD2     N 1730   3.725   0.036   1.345  0.0069  0.1238 -0.1874
  113MPD2    H5 1731   3.756   4.669   1.383  0.3203 -0.5681 -2.0246
  113MPD2    N1 1732   3.723   0.514   1.432 -0.0138  0.3429  0.2564
  113MPD2    H7 1733   3.645   0.514   1.367 -0.2614  3.4609  0.5253
  114TCq2    C1 1734   3.638   0.038   1.244 -0.1862 -0.1423  0.6489
  114TCq2    O2 1735   3.585   0.132   1.191 -0.1647 -0.1387 -0.1885
  114TCq2    C2 1736   3.598   4.627   1.207  0.2274  0.8085  0.8677
  114TCq2    C3 1737   3.510   4.621   1.103 -0.0750 -0.0454  1.3202
  114TCq2    C4 1738   3.461   4.497   1.066 -0.1956  0.1091  0.0180
  114TCq2    C5 1739   3.506   4.384   1.128 -0.0960 -0.4819  0.0409
  114TCq2    C6 1740   3.599   4.400   1.230 -0.2266 -0.1195  0.0279
  114TCq2    C7 1741   3.650   4.515   1.273  0.3576 -1.1772 -0.1048
  114TCq2    C8 1742   3.667   4.278   1.274 -0.0863 -0.2930  0.1391
  114TCq2    O4 1743   3.664   4.188   1.193 -0.1376 -0.3366 -0.0754
  114TCq2    C9 1744   3.351   4.479   0.969 -0.3435  1.6399 -0.2260
  114TCq2    O5 1745   3.297   4.365   0.962 -0.1020 -0.1113  0.6099
  114TCq2    O6 1746   3.310   4.581   0.904 -0.0232  0.3059 -0.4882
  114TCq2    H2 1747   3.474   4.701   1.041 -0.1719 -1.9057 -1.0169
  114TCq2    H3 1748   3.465   4.287   1.105 -1.2341  0.4249 -1.7587
  114TCq2    H4 1749   3.715   4.509   1.360  0.6865  0.5506 -0.2341
  115TMC2    C1 1750   0.070   2.810   0.447 -0.5238  0.4065 -0.8515
  115TMC2    C2 1751   0.195   2.804   0.404  0.4568 -0.5388 -0.4482
  115TMC2    C3 1752   0.269   2.919   0.389 -0.2315  0.0879  0.7934
  115TMC2    C4 1753   0.012   2.933   0.475  0.1689 -0.4607 -0.1329
  115TMC2    C5 1754   0.087   3.041   0.448 -0.7463 -0.8703  0.0005
  115TMC2    C6 1755   0.218   3.039   0.410 -0.2269 -0.3739  0.0124
  115TMC2     C 1756   4.711   2.693   0.406  0.7087  0.4497 -1.2482
  115TMC2     O 1757   0.050   2.617   0.330 -0.2043 -0.6648 -0.2627
  115TMC2     H 1758   0.239   2.707   0.387 -0.9019 -1.2334 -0.0375
  115TMC2    H1 1759   4.629   2.937   0.505 -0.3611 -1.2600 -1.8854
  115TMC2    H2 1760   0.275   3.128   0.388  0.4772 -0.7877  0.1439
  115TMC2    C7 1761   0.033   3.166   0.483  0.2939 -0.2237 -0.7705
  115TMC2    C8 1762   0.399   2.913   0.332  0.3798  0.1876  0.0277
  115TMC2    O1 1763   4.663   3.164   0.559 -0.3270  0.3313 -0.2884
  115TMC2    O2 1764   0.445   3.014   0.283  0.4225  0.1266 -0.1911
  115TMC2    O5 1765   0.467   2.841   0.429 -0.6729 -0.4920 -0.0186
  115TMC2    H5 1766   0.419   2.765   0.469 -0.2265 -0.4274  0.6513
  116MPD2     C 1767   4.270   2.513   0.244  0.0467 -0.6574 -0.1669
  116MPD2    C1 1768   4.394   2.493   0.192 -0.1777  0.3021  0.3134
  116MPD2    C2 1769   4.499   2.542   0.262  0.8736  0.4161 -1.0334
  116MPD2    C3 1770   4.481   2.620   0.375 -0.4648  0.3982  0.2527
  116MPD2    C4 1771   4.354   2.638   0.425 -0.0615 -0.0846  0.2003
  116MPD2    C5 1772   4.248   2.585   0.362 -0.5460 -0.5317 -0.3839
  116MPD2     H 1773   4.601   2.522   0.229  0.5598  0.1319 -1.8237
  116MPD2    H1 1774   4.349   2.701   0.513 -1.7959  0.1691 -0.0821
  116MPD2    H2 1775   4.186   2.466   0.192 -0.4961  0.0463  0.0770
  116MPD2    H3 1776   4.145   2.606   0.387 -0.1309  0.9117  0.1191
  116MPD2     N 1777   4.579   2.692   0.441  0.2252 -0.1732 -0.6702
  116MPD2    H5 1778   4.553   2.742   0.526 -0.7172 -2.3458  0.3084
  116MPD2    N1 1779   4.404   2.425   0.066 -0.0724  0.2039  0.1590
  116MPD2    H7 1780   4.323   2.382   0.022  0.4213 -1.1055  0.5337
  117TMC2    C1 1781   3.828   0.156  13.824 -0.2879  0.3653 -0.4004
  117TMC2    C2 1782   3.830   0.197  13.954 -0.2907 -0.5566 -0.2277
  117TMC2    C3 1783   3.951   0.199  14.018 -0.6860 -0.1610 -0.0438
  117TMC2    C4 1784   3.942   0.108  13.767  0.7124  0.0930  0.8047
  117TMC2    C5 1785   4.057   0.104  13.840  0.5901  0.0364 -0.1556
  117TMC2    C6 1786   4.064   0.144  13.969 -0.5820  0.3292  0.1565
  117TMC2     C 1787   3.705   0.125  13.761 -0.3044  0.3071  0.4056
  117TMC2     O 1788   3.704   0.026  13.690  0.3015  0.2608 -0.6737
  117TMC2     H 1789   3.741   0.234  14.002  1.0544  0.5686  1.3958
  117TMC2    H1 1790   3.939   0.087  13.660  0.7781  0.3223  0.7591
  117TMC2    H2 1791   4.150   0.161  14.033 -1.0870 -0.2696  0.9874
  117TMC2    C7 1792   4.177   0.077  13.765  0.5875  0.6887  0.4064
  117TMC2    C8 1793   3.953   0.230  14.162  0.1703  0.0107  0.0778
  117TMC2    O1 1794   4.277   0.129  13.809 -0.3729 -0.1630  0.8041
  117TMC2    O2 1795   4.040   0.294  14.220 -0.2943 -0.3423  0.1430
  117TMC2    O5 1796   3.856   0.159  14.218  0.3516  0.5217  0.3008
  117TMC2    H5 1797   3.809   0.100  14.155  0.0924  2.0477 -0.9353
  118MPD2     C 1798   4.233   4.554  13.493  0.4168  0.3980  0.0378
  118MPD2    C1 1799   4.267   4.647  13.594  0.3148  0.5796 -0.0796
  118MPD2    C2 1800   4.399   4.703  13.591  0.2080  0.8139  0.2071
  118MPD2    C3 1801   4.501   4.648  13.519  0.1880  0.3180 -0.1530
  118MPD2    C4 1802   4.463   4.556  13.421  0.1076 -0.0126 -0.2361
  118MPD2    C5 1803   4.333   4.501  13.422  0.5664 -0.3288 -1.1517
  118MPD2     H 1804   4.422   0.072  13.647  0.3770  0.3072  0.9387
  118MPD2    H1 1805   4.542   4.523  13.355 -0.1301  0.1128 -0.5852
  118MPD2    H2 1806   4.132   4.515  13.485  0.7828 -0.6259  0.3646
  118MPD2    H3 1807   4.304   4.424  13.351 -0.3576 -1.3323  0.3102
  118MPD2     N 1808   4.629   4.701  13.521 -0.7391 -0.2165 -0.5879
  118MPD2    H5 1809   4.698   4.669  13.454  1.0572 -2.3800  2.3260
  118MPD2    N1 1810   4.165   4.701  13.672 -0.5066 -0.2899  0.3473
  118MPD2    H7 1811   4.072   4.664  13.654 -1.0054 -0.8092  3.9603
  119MPD2     C 1812   2.261   1.653  14.056 -0.0706 -0.2195 -0.6487
  119MPD2    C1 1813   2.138   1.634  14.106  0.0287  0.8075 -0.3380
  119MPD2    C2 1814   2.041   1.563  14.036 -0.3765  1.0438 -0.5577
  119MPD2    C3 1815   2.069   1.518  13.911  0.2133 -0.5327 -0.1196
  119MPD2    C4 1816   2.192   1.545  13.852 -0.3728 -0.5934  0.5344
  119MPD2    C5 1817   2.290   1.616  13.926 -0.3795  0.1825  0.7447
  119MPD2     H 1818   1.937   1.555  14.066 -0.5226  1.1185 -1.0507
  119MPD2    H1 1819   2.216   1.521  13.749 -1.3823  1.9044 -0.2799
  119MPD2    H2 1820   2.344   1.693  14.113 -0.4611 -1.3780  0.7641
  119MPD2    H3 1821   2.385   1.645  13.882 -0.9863  1.0686  0.0150
  119MPD2     N 1822   1.973   1.441  13.834  0.4082  0.4152  0.0343
  119MPD2    H5 1823   2.000   1.408  13.742  3.5925 -0.7166  1.3702
  119MPD2    N1 1824   2.113   1.693  14.238  0.1496  0.2405 -0.2414
  119MPD2    H7 1825   2.185   1.756  14.271  1.9384 -1.8941 -0.1053
  120TCq2    C1 1826   1.854   1.390  13.871  0.0343  0.6165  0.6214
  120TCq2    O2 1827   1.796   1.386  13.981  0.0726  0.1076  0.3337
  120TCq2    C2 1828   1.797   1.319  13.762 -0.3916  0.0529 -0.1999
  120TCq2    C3 1829   1.813   1.364  13.635  0.4154 -0.3115  0.4048
  120TCq2    C4 1830   1.758   1.283  13.539 -0.6286 -0.3851  0.2285
  120TCq2    C5 1831   1.684   1.170  13.567  0.7033 -0.8481  0.0117
  120TCq2    C6 1832   1.689   1.126  13.696 -0.0609  0.6082 -1.0053
  120TCq2    C7 1833   1.740   1.205  13.797 -0.2813  0.1635 -0.1777
  120TCq2    C8 1834   1.608   1.005  13.714 -0.9156  0.7387 -0.5050
  120TCq2    O4 1835   1.570   0.947  13.615  0.1746 -0.8969 -0.2723
  120TCq2    C9 1836   1.764   1.327  13.397 -0.2823  0.6060  0.0402
  120TCq2    O5 1837   1.809   1.441  13.366 -0.1019  0.3908  0.4798
  120TCq2    O6 1838   1.703   1.250  13.317 -0.0232  0.2230  0.6590
  120TCq2    H2 1839   1.855   1.461  13.611 -1.6084  0.0130 -1.8784
  120TCq2    H3 1840   1.629   1.117  13.490  1.1649  0.4408 -1.2115
  120TCq2    H4 1841   1.750   1.167  13.898 -0.8187  1.9581  0.5386
  121TMC2    C1 1842   3.789   3.095  14.727  0.1703 -0.6380 -0.0817
  121TMC2    C2 1843   3.868   3.052  14.828 -0.1625  0.3983 -0.4635
  121TMC2    C3 1844   3.812   2.952  14.902 -0.7824 -0.5328  0.7848
  121TMC2    C4 1845   3.664   3.057  14.703 -0.4549 -0.1107  0.3156
  121TMC2    C5 1846   3.603   2.982  14.801  0.4223  0.1585  0.4915
  121TMC2    C6 1847   3.683   2.918  14.891 -0.1362  0.2165  0.3848
  121TMC2     C 1848   3.843   3.196  14.640  0.5399  0.3058 -0.1223
  121TMC2     O 1849   3.944   3.254  14.684  0.6389 -0.0006  0.2332
  121TMC2     H 1850   3.975   3.070  14.834 -0.1881  0.4138 -0.0338
  121TMC2    H1 1851   3.600   3.122  14.644 -0.6061 -0.7162 -0.1836
  121TMC2    H2 1852   3.649   2.835  14.952  1.2716 -0.5826  0.0596
  121TMC2    C7 1853   3.481   2.900  14.767 -0.3428  0.7316 -0.7248
  121TMC2    C8 1854   3.868   2.913  15.027  0.3867  0.9962 -0.4821
  121TMC2    O1 1855   3.431   2.840  14.865  0.2273 -0.1034 -0.5761
  121TMC2    O2 1856   3.941   2.979  15.093  0.6855 -0.1025  0.4462
  121TMC2    O5 1857   3.848   2.782  15.040  0.3742 -0.2796  0.2881
  121TMC2    H5 1858   3.821   2.733  14.960  0.7874 -0.2849  0.1505
  122MPD2     C 1859   3.864   3.396  14.430  0.3545 -0.5390  0.4539
  122MPD2    C1 1860   3.819   3.271  14.405  0.1631 -0.5659 -0.2102
  122MPD2    C2 1861   3.784   3.235  14.274 -0.1865  0.3670 -0.2362
  122MPD2    C3 1862   3.801   3.332  14.167  0.5556 -0.4055 -0.3291
  122MPD2    C4 1863   3.866   3.448  14.196 -0.6542 -0.3512 -0.2268
  122MPD2    C5 1864   3.890   3.481  14.327 -0.9583 -0.0744  0.0115
  122MPD2     H 1865   3.739   3.138  14.252  0.7108  0.1852 -1.2909
  122MPD2    H1 1866   3.869   3.529  14.125 -1.1854 -2.0636 -2.2144
  122MPD2    H2 1867   3.902   3.432  14.525  0.3099 -0.7723  0.5602
  122MPD2    H3 1868   3.925   3.582  14.346  3.1155 -1.7289  1.0601
  122MPD2     N 1869   3.759   3.313  14.038 -0.1367 -0.2301  0.0634
  122MPD2    H5 1870   3.791   3.381  13.970  1.1558  1.1838  2.0839
  122MPD2    N1 1871   3.794   3.187  14.512 -0.1022 -0.8482 -0.0171
  122MPD2    H7 1872   3.726   3.112  14.502  0.2696 -0.9400 -1.7472
  123MPD2     C 1873   1.762   1.096  10.620  0.6233 -0.0309 -0.0575
  123MPD2    C1 1874   1.699   1.079  10.500  0.6595  0.9327 -0.0260
  123MPD2    C2 1875   1.744   1.146  10.386  0.2927 -0.4242 -0.4529
  123MPD2    C3 1876   1.873   1.207  10.396 -0.3037 -0.7396 -0.8679
  123MPD2    C4 1877   1.933   1.215  10.524 -0.5358  0.1369 -0.0585
  123MPD2    C5 1878   1.877   1.159  10.636 -0.0733  0.5393 -0.3218
  123MPD2     H 1879   1.694   1.143  10.291 -0.6389 -0.6912  0.0497
  123MPD2    H1 1880   2.020   1.271  10.555  2.1721 -2.1549 -3.4952
  123MPD2    H2 1881   1.710   1.055  10.706  0.5637 -1.1149 -0.6032
  123MPD2    H3 1882   1.919   1.181  10.734  0.2879 -1.2241 -0.0865
  123MPD2     N 1883   1.919   1.272  10.280  0.2404 -0.3692  0.0782
  123MPD2    H5 1884   1.863   1.271  10.196  0.4054 -0.1860 -0.0324
  123MPD2    N1 1885   1.572   1.019  10.503  0.5586 -0.0966  0.3704
  123MPD2    H7 1886   1.536   1.016  10.598  0.4037  0.1760  0.3207
  124TCq2    C1 1887   2.046   1.323  10.265 -0.4859 -0.1524  0.0833
  124TCq2    O2 1888   2.142   1.311  10.340  0.1011 -0.7470  0.4114
  124TCq2    C2 1889   2.065   1.394  10.143 -0.0776  0.4615  0.5290
  124TCq2    C3 1890   2.183   1.443  10.116  0.1192  0.0794  0.3260
  124TCq2    C4 1891   2.203   1.514  10.003  0.1450  0.1410 -0.7689
  124TCq2    C5 1892   2.098   1.553   9.926  0.6552  0.1898  0.5219
  124TCq2    C6 1893   1.977   1.503   9.960 -0.2667  0.5856 -0.3767
  124TCq2    C7 1894   1.953   1.427  10.067 -0.1471 -0.6346  0.6018
  124TCq2    C8 1895   1.860   1.545   9.876 -0.2954 -0.5185  0.2623
  124TCq2    O4 1896   1.878   1.641   9.807 -0.1726  0.5305 -0.0756
  124TCq2    C9 1897   2.335   1.548   9.964 -0.2646 -0.2591 -0.1404
  124TCq2    O5 1898   2.351   1.636   9.880 -0.0653  0.0512  0.7364
  124TCq2    O6 1899   2.424   1.463  10.000 -0.0484 -0.6010  0.3294
  124TCq2    H2 1900   2.272   1.404  10.164 -1.4431 -0.0507  3.1097
  124TCq2    H3 1901   2.109   1.605   9.832  0.6727 -1.3061 -0.3112
  124TCq2    H4 1902   1.852   1.411  10.102  0.7130 -1.0632  2.8748
  125TMC2    C1 1903   3.552   4.048   8.525  0.0703 -0.5478 -0.6162
  125TMC2    C2 1904   3.511   4.180   8.518 -0.2964  0.3279 -0.2006
  125TMC2    C3 1905   3.510   4.260   8.630 -0.1976  0.3080 -0.8456
  125TMC2    C4 1906   3.581   3.988   8.645  0.1236 -0.7796  0.2902
  125TMC2    C5 1907   3.587   4.072   8.751 -0.5649  1.3091 -0.6110
  125TMC2    C6 1908   3.556   4.206   8.748 -0.3682  0.2017  0.0496
  125TMC2     C 1909   3.563   3.973   8.401 -0.3784 -0.0854 -1.0594
  125TMC2     O 1910   3.539   4.043   8.306 -0.4384 -1.0386  0.9017
  125TMC2     H 1911   3.480   4.223   8.424 -1.1275 -1.9206 -0.9452
  125TMC2    H1 1912   3.582   3.883   8.669  0.3656 -1.1915 -1.5858
  125TMC2    H2 1913   3.577   4.266   8.836  1.1262  1.6526 -1.2963
  125TMC2    C7 1914   3.561   4.026   8.886 -0.7714  0.3404  0.1395
  125TMC2    C8 1915   3.507   4.399   8.609 -0.2394  0.3090 -0.0647
  125TMC2    O1 1916   3.509   4.103   8.970 -0.5587 -0.1293  0.0289
  125TMC2    O2 1917   3.557   4.448   8.512 -0.0887 -0.3924  0.1752
  125TMC2    O5 1918   3.516   4.460   8.732  0.3932  0.1489  0.2189
  125TMC2    H5 1919   3.474   4.417   8.810 -1.1357  2.6439  0.7589
  126MPD1     C 1920   3.610   3.564   8.101 -0.7529 -0.0686  0.8756
  126MPD1    C1 1921   3.605   3.523   8.234  0.0804  0.0570  0.0464
  126MPD1    C2 1922   3.589   3.623   8.329 -0.8285 -0.0240  0.1866
  126MPD1    C3 1923   3.594   3.759   8.297  0.1852 -0.0340 -0.0062
  126MPD1    C4 1924   3.618   3.789   8.167  0.9271  0.2848  0.2164
  126MPD1    C5 1925   3.615   3.693   8.074  0.8882  0.3687  0.1796
  126MPD1     H 1926   3.568   3.586   8.428 -2.9168 -1.1561 -0.6819
  126MPD1    H1 1927   3.641   3.892   8.142  0.7063  0.5404  1.0556
  126MPD1    H2 1928   3.611   3.491   8.021 -0.9650  0.0849  0.7319
  126MPD1    H3 1929   3.623   3.710   7.968 -0.7141 -2.0990 -0.3207
  126MPD1     N 1930   3.574   3.843   8.411  0.1046 -0.1862  0.0029
  126MPD1    H5 1931   3.572   3.796   8.501  0.9217 -0.9468 -0.3788
  126MPD1    N1 1932   3.587   3.390   8.268  0.1901 -0.0592 -0.3079
  126MPD1    H6 1933   3.617   3.388   8.365  1.7722 -0.8226 -0.8144
  126MPD1    H7 1934   3.648   3.335   8.208  1.4640 -0.8156  1.7063
  127MPD2     C 1935   3.556   1.828   9.392  0.2665 -0.0340  0.1106
  127MPD2    C1 1936   3.636   1.772   9.487 -0.0713 -0.4753 -0.4655
  127MPD2    C2 1937   3.751   1.835   9.527  0.2970 -0.4110 -0.2968
  127MPD2    C3 1938   3.792   1.957   9.475  0.3815 -0.2910 -0.1409
  127MPD2    C4 1939   3.716   2.008   9.365 -0.3182  0.3233 -0.8909
  127MPD2    C5 1940   3.598   1.943   9.330  0.5880  0.1618 -0.1441
  127MPD2     H 1941   3.799   1.806   9.619 -0.5589 -0.2523  0.1983
  127MPD2    H1 1942   3.731   2.106   9.321  2.8295  0.5327  0.6278
  127MPD2    H2 1943   3.457   1.789   9.373 -0.0153  0.2816  0.9402
  127MPD2    H3 1944   3.542   1.996   9.254 -1.9579 -0.8676  1.0258
  127MPD2     N 1945   3.899   2.015   9.537  0.2893 -0.4308 -0.6225
  127MPD2    H5 1946   3.943   1.964   9.613 -0.2012  0.1770  0.0756
  127MPD2    N1 1947   3.594   1.647   9.543  0.6655 -0.5279 -0.0383
  127MPD2    H7 1948   3.500   1.613   9.525  0.7591 -1.6002  1.5535
  128TCq2    C1 1949   3.667   1.575   9.630  0.7847 -0.4799  0.1267
  128TCq2    O2 1950   3.789   1.579   9.647 -0.8882  0.1742 -0.8534
  128TCq2    C2 1951   3.592   1.487   9.726 -0.3299  0.4847 -0.5330
  128TCq2    C3 1952   3.675   1.416   9.805  0.2385  0.4445  0.2081
  128TCq2    C4 1953   3.623   1.349   9.908  0.4366 -0.0851 -0.1706
  128TCq2    C5 1954   3.487   1.347   9.932 -0.0279  0.1463  0.0725
  128TCq2    C6 1955   3.409   1.421   9.843 -0.2041 -0.2359 -0.3400
  128TCq2    C7 1956   3.456   1.491   9.736  0.2802 -0.1643  0.0066
  128TCq2    C8 1957   3.275   1.369   9.823  0.2981 -0.4288  0.1533
  128TCq2    O4 1958   3.193   1.433   9.762 -0.2932  0.4803  0.0536
  128TCq2    C9 1959   3.717   1.299  10.009  0.3223 -0.2481 -0.8288
  128TCq2    O5 1960   3.673   1.240  10.110 -0.0450  0.4237 -0.5071
  128TCq2    O6 1961   3.837   1.326   9.981  0.0951 -0.3236  0.2480
  128TCq2    H2 1962   3.783   1.408   9.796  0.1748  1.2580 -1.2645
  128TCq2    H3 1963   3.458   1.285  10.016  0.5269  0.8680  0.8064
  128TCq2    H4 1964   3.387   1.540   9.669  0.5092  0.2716  0.0860
  129MPD2     C 1965   1.198   3.028   0.676  0.0311  0.1092  0.1350
  129MPD2    C1 1966   1.180   3.048   0.815  0.0483 -0.1428 -0.1573
  129MPD2    C2 1967   1.162   3.179   0.851 -0.3889 -0.4323 -1.1234
  129MPD2    C3 1968   1.174   3.288   0.769  0.2662 -0.1286  0.3588
  129MPD2    C4 1969   1.198   3.269   0.635  0.3126  0.0601  0.4912
  129MPD2    C5 1970   1.218   3.138   0.594  0.5934  0.7195  0.1402
  129MPD2     H 1971   1.127   3.182   0.953  1.0612 -1.3499 -0.5998
  129MPD2    H1 1972   1.217   3.346   0.561  0.5546 -0.0064  0.4832
  129MPD2    H2 1973   1.207   2.928   0.637  1.5940  0.0724  0.5919
  129MPD2    H3 1974   1.246   3.111   0.493 -2.9360  0.2955 -0.7145
  129MPD2     N 1975   1.173   3.416   0.830 -0.3520  0.2111 -0.4701
  129MPD2    H5 1976   1.192   3.491   0.765 -0.3832  1.0313  0.4546
  129MPD2    N1 1977   1.167   2.957   0.921 -0.1996 -0.4337  0.0290
  129MPD2    H7 1978   1.156   2.988   1.018 -0.1653  0.9841 -0.4205
  130TCq2    C1 1979   1.201   2.823   0.899  0.2079  0.0936  0.1633
  130TCq2    O2 1980   1.179   2.752   0.802 -0.0829  0.5514 -0.6684
  130TCq2    C2 1981   1.238   2.750   1.018  0.7271  0.0607 -0.1296
  130TCq2    C3 1982   1.331   2.809   1.090  0.3517 -0.3721  0.6087
  130TCq2    C4 1983   1.394   2.744   1.191  0.0365  0.1670 -0.3778
  130TCq2    C5 1984   1.352   2.625   1.228 -0.0472  0.3894  0.4923
  130TCq2    C6 1985   1.251   2.559   1.155  0.0003 -0.2409 -0.0638
  130TCq2    C7 1986   1.194   2.620   1.051  0.5692 -0.0333 -0.4867
  130TCq2    C8 1987   1.176   2.453   1.209 -0.3331 -0.4408 -0.3047
  130TCq2    O4 1988   1.060   2.442   1.166  0.4596  0.0992  0.0976
  130TCq2    C9 1989   1.505   2.813   1.260  0.0135  0.4421  0.1671
  130TCq2    O5 1990   1.526   2.776   1.379  0.0961  0.5064  0.0930
  130TCq2    O6 1991   1.555   2.911   1.203  0.1957  0.0765  0.2505
  130TCq2    H2 1992   1.365   2.907   1.059 -2.5976  0.6334  0.6281
  130TCq2    H3 1993   1.392   2.582   1.319  0.8781  0.7833  0.2720
  130TCq2    H4 1994   1.107   2.577   1.003 -0.1229 -1.1781  1.8280
  131MPD2     C 1995   0.985   1.310   9.823 -0.2624 -0.3396  0.6274
  131MPD2    C1 1996   1.085   1.360   9.906  0.2285 -0.3370 -0.0885
  131MPD2    C2 1997   1.112   1.292  10.024 -0.4829  0.3944  0.6811
  131MPD2    C3 1998   1.043   1.169  10.050  0.2026  0.0549 -0.3463
  131MPD2    C4 1999   0.957   1.119   9.954  0.2450 -0.9210  0.3560
  131MPD2    C5 2000   0.920   1.194   9.846 -0.5498 -0.7701 -0.1109
  131MPD2     H 2001   1.179   1.323  10.104 -1.1268  0.6091  1.1340
  131MPD2    H1 2002   0.903   1.026   9.966  0.3631 -0.9659  0.5380
  131MPD2    H2 2003   0.950   1.359   9.733  0.1240  2.2712  1.9003
  131MPD2    H3 2004   0.838   1.157   9.785  0.1967 -1.9592 -0.3834
  131MPD2     N 2005   1.075   1.111  10.178  0.3532  0.3531 -0.1781
  131MPD2    H5 2006   1.130   1.171  10.238  1.4365  0.8934 -1.6936
  131MPD2    N1 2007   1.144   1.487   9.874  0.3266  0.1560  0.5813
  131MPD2    H7 2008   1.118   1.533   9.787 -0.1508  0.8485  1.0929
  132TCq2    C1 2009   1.171   1.967   9.725 -0.0447 -0.6966  0.6459
  132TCq2    O2 2010   1.090   1.906   9.657 -0.2489 -0.0148  0.3809
  132TCq2    C2 2011   1.251   1.892   9.821  0.1795  0.0773 -0.6176
  132TCq2    C3 2012   1.377   1.936   9.856  0.8316 -0.8622 -0.3600
  132TCq2    C4 2013   1.450   1.854   9.939  0.0597 -0.0059 -0.6390
  132TCq2    C5 2014   1.412   1.725   9.953  0.6493 -0.6403 -0.0760
  132TCq2    C6 2015   1.297   1.677   9.901 -0.2532 -0.8514 -0.0195
  132TCq2    C7 2016   1.214   1.763   9.839 -0.2539 -0.3845  0.0494
  132TCq2    C8 2017   1.252   1.550   9.944  0.0107  0.4992 -0.4453
  132TCq2    O4 2018   1.322   1.490  10.027 -0.2655 -0.5495  0.0345
  132TCq2    C9 2019   1.582   1.886   9.991 -0.6268 -0.5291  0.7130
  132TCq2    O5 2020   1.619   2.008   9.974  0.8878  0.8952  0.1209
  132TCq2    O6 2021   1.634   1.812  10.078 -0.2906 -0.5398  0.4033
  132TCq2    H2 2022   1.432   2.026   9.828 -1.7371  0.7275 -0.3294
  132TCq2    H3 2023   1.486   1.655   9.990  0.3955 -1.5222 -1.2473
  132TCq2    H4 2024   1.117   1.734   9.799 -1.8447  3.1697  1.2440
  133MPD2     C 2025   4.714   3.058   9.156 -0.1413  0.3608  0.7977
  133MPD2    C1 2026   0.111   3.071   9.230  0.3555 -0.3151 -0.3993
  133MPD2    C2 2027   0.185   2.956   9.254 -1.0408 -0.1841  1.0158
  133MPD2    C3 2028   0.135   2.837   9.221 -1.0321  0.2550 -0.6781
  133MPD2    C4 2029   0.011   2.827   9.156 -0.4821 -0.1386  0.3841
  133MPD2    C5 2030   4.659   2.938   9.122  0.2460  0.1314  0.4278
  133MPD2     H 2031   0.281   2.956   9.304  0.4307  1.1687 -1.7581
  133MPD2    H1 2032   4.689   2.730   9.134 -1.0244 -0.0003  0.8418
  133MPD2    H2 2033   4.654   3.146   9.135 -2.1480 -1.3005 -0.3172
  133MPD2    H3 2034   4.569   2.936   9.060  0.0059  1.0800  0.7550
  133MPD2     N 2035   0.197   2.714   9.262 -0.1255 -0.3015 -0.1536
  133MPD2    H5 2036   0.148   2.628   9.242  0.9883 -1.4755  2.2156
  133MPD2    N1 2037   0.155   3.202   9.265 -0.1564 -0.2709 -0.2387
  133MPD2    H7 2038   0.092   3.276   9.236  1.7181  1.2269 -0.5260
  134TCq2    C1 2039   0.276   3.228   9.330  0.4022 -0.1514  0.3378
  134TCq2    O2 2040   0.363   3.159   9.387  0.2988  0.2346 -0.1593
  134TCq2    C2 2041   0.299   3.367   9.352 -1.0533  0.0807  0.9452
  134TCq2    C3 2042   0.250   3.460   9.260  0.3944  0.3878  0.2405
  134TCq2    C4 2043   0.275   3.591   9.277  0.2439 -0.1374  0.5388
  134TCq2    C5 2044   0.326   3.632   9.398  0.2533 -0.0527 -0.3111
  134TCq2    C6 2045   0.384   3.542   9.485 -0.6556 -0.3060 -0.0745
  134TCq2    C7 2046   0.362   3.404   9.468 -0.0297  0.0856  0.3316
  134TCq2    C8 2047   0.442   3.589   9.611 -0.1507  0.3947 -0.0560
  134TCq2    O4 2048   0.463   3.708   9.615 -0.3936 -0.3603  0.0031
  134TCq2    C9 2049   0.222   3.684   9.176 -0.0167 -0.3837 -0.1021
  134TCq2    O5 2050   0.197   3.637   9.061  0.1729  0.1887  0.9955
  134TCq2    O6 2051   0.191   3.797   9.220 -0.4437  0.2645  0.4978
  134TCq2    H2 2052   0.194   3.432   9.172 -0.0481 -0.8627  0.9270
  134TCq2    H3 2053   0.331   3.739   9.414 -0.6367  0.2440 -1.9622
  134TCq2    H4 2054   0.416   3.325   9.519  1.3042  2.0259  1.9326
  135MPD2     C 2055   3.287   4.226   9.681  0.1157  0.1572  0.4999
  135MPD2    C1 2056   3.338   4.096   9.690 -0.2053 -0.4427  0.6722
  135MPD2    C2 2057   3.452   4.061   9.624 -0.3364  1.2079 -0.0074
  135MPD2    C3 2058   3.519   4.154   9.547  0.0000 -0.5717  1.0671
  135MPD2    C4 2059   3.471   4.283   9.544  0.6695 -0.3494  0.1394
  135MPD2    C5 2060   3.347   4.317   9.604 -0.2522  0.6380  0.0809
  135MPD2     H 2061   3.482   3.957   9.623  1.4964  1.7496 -0.5247
  135MPD2    H1 2062   3.521   4.358   9.485 -1.8006  0.0275 -1.4438
  135MPD2    H2 2063   3.191   4.244   9.728 -0.8894 -3.3273 -0.2204
  135MPD2    H3 2064   3.295   4.411   9.595  1.1666  1.3768 -0.4439
  135MPD2     N 2065   3.630   4.130   9.460  0.1629 -0.2476 -0.5095
  135MPD2    H5 2066   3.666   4.200   9.396 -0.9689  0.6827 -0.1299
  135MPD2    N1 2067   3.273   3.990   9.759 -0.2039  0.0742  0.5758
  135MPD2    H7 2068   3.320   3.901   9.744 -1.5159 -0.8160  1.7659
  136TCq2    C1 2069   3.158   3.995   9.828  0.1726  0.1791  0.6164
  136TCq2    O2 2070   3.089   4.090   9.864 -0.0155 -0.4909  0.2851
  136TCq2    C2 2071   3.120   3.861   9.885  0.0142  0.6919 -0.7310
  136TCq2    C3 2072   3.183   3.743   9.842 -0.1971  0.0008  0.4852
  136TCq2    C4 2073   3.178   3.630   9.914 -0.4631 -0.5138 -0.1156
  136TCq2    C5 2074   3.093   3.631  10.023 -1.0946 -0.0863  0.0150
  136TCq2    C6 2075   3.017   3.737  10.054 -0.0747  0.4670  0.2378
  136TCq2    C7 2076   3.026   3.856   9.987  0.1150 -0.5770  1.0353
  136TCq2    C8 2077   2.886   3.715  10.112 -0.3293  0.3345 -0.0670
  136TCq2    O4 2078   2.813   3.812  10.119  0.0358 -0.4485  0.1754
  136TCq2    C9 2079   3.229   3.508   9.854  0.1254  0.2253  0.3720
  136TCq2    O5 2080   3.213   3.399   9.920 -0.1790  0.2925  0.3019
  136TCq2    O6 2081   3.274   3.524   9.738  0.0223 -0.3938  0.5521
  136TCq2    H2 2082   3.262   3.744   9.769 -0.9857 -0.3617 -0.3688
  136TCq2    H3 2083   3.098   3.541  10.083  0.6635 -1.0301 -1.5240
  136TCq2    H4 2084   2.971   3.943  10.022 -2.5388 -1.2297 -1.4578
  137MPD2     C 2085   2.185   2.800   9.232 -0.1756  0.4164  0.4524
  137MPD2    C1 2086   2.252   2.739   9.123 -0.6062 -0.5349  0.1452
  137MPD2    C2 2087   2.375   2.682   9.143  0.4032 -0.3685  0.6427
  137MPD2    C3 2088   2.446   2.690   9.258  0.1750 -0.3084 -0.5030
  137MPD2    C4 2089   2.381   2.750   9.367  0.3002  0.7066  0.2629
  137MPD2    C5 2090   2.255   2.802   9.351  0.1574 -0.0024  0.0113
  137MPD2     H 2091   2.431   2.633   9.064  0.8687 -2.5246  2.3117
  137MPD2    H1 2092   2.415   2.756   9.470  1.7153  0.4732 -0.1849
  137MPD2    H2 2093   2.090   2.848   9.214 -0.1045 -0.0518 -1.1687
  137MPD2    H3 2094   2.201   2.852   9.431  0.4503  1.0881 -0.4831
  137MPD2     N 2095   2.570   2.627   9.264 -0.1554  0.7114 -0.3888
  137MPD2    H5 2096   2.618   2.595   9.181  1.2744  2.2630 -0.1568
  137MPD2    N1 2097   2.188   2.715   9.000 -0.1912 -0.0142 -0.4670
  137MPD2    H7 2098   2.095   2.755   8.994 -0.9492 -1.6463  0.4927
  138TCq2    C1 2099   2.248   2.668   8.880  0.5615  0.1029 -0.0378
  138TCq2    O2 2100   2.364   2.642   8.861  0.7662  0.1480  0.1768
  138TCq2    C2 2101   2.158   2.684   8.773  0.2835 -0.1055 -1.1245
  138TCq2    C3 2102   2.210   2.720   8.650  0.2949 -0.3232  0.3353
  138TCq2    C4 2103   2.133   2.745   8.545  0.0236  0.3409  0.2880
  138TCq2    C5 2104   1.994   2.749   8.560 -0.1907 -0.4088 -0.0153
  138TCq2    C6 2105   1.945   2.731   8.683 -0.2245 -0.0705  0.8728
  138TCq2    C7 2106   2.021   2.682   8.784  0.2209 -0.7035 -0.2136
  138TCq2    C8 2107   1.799   2.741   8.702  0.3666 -0.6472  0.1605
  138TCq2    O4 2108   1.726   2.750   8.607  0.0055  0.6612  0.5333
  138TCq2    C9 2109   2.186   2.772   8.413 -0.3376 -0.0003 -0.0346
  138TCq2    O5 2110   2.311   2.757   8.395 -0.6162 -0.3099 -0.0633
  138TCq2    O6 2111   2.108   2.779   8.319  0.0365  0.4611  0.0517
  138TCq2    H2 2112   2.318   2.720   8.638  0.2409 -0.0075 -0.1595
  138TCq2    H3 2113   1.932   2.782   8.478 -0.0749  0.5433  0.2758
  138TCq2    H4 2114   1.981   2.655   8.881  0.4916  1.5176  0.5186
  139TMC2    C1 2115   2.971   0.879  13.559 -0.7900 -0.1395 -0.1912
  139TMC2    C2 2116   2.860   0.849  13.486 -0.6075 -0.3202 -0.2171
  139TMC2    C3 2117   2.738   0.917  13.516  0.1689  0.0046 -0.2986
  139TMC2    C4 2118   2.970   0.959  13.664 -0.2507  0.0337  0.0747
  139TMC2    C5 2119   2.853   1.016  13.699  0.7586 -0.9034  0.3002
  139TMC2    C6 2120   2.743   1.004  13.620 -0.5410  0.6924  0.2005
  139TMC2     C 2121   3.084   0.791  13.537  0.3704  0.2249  0.3395
  139TMC2     O 2122   3.061   0.703  13.453 -0.1714  0.4657  0.9578
  139TMC2     H 2123   2.867   0.783  13.400 -0.5874 -0.2559 -0.2639
  139TMC2    H1 2124   3.060   0.982  13.719 -2.0117  0.4310  2.7653
  139TMC2    H2 2125   2.654   1.057  13.652 -2.1440 -0.9184 -1.5650
  139TMC2    C7 2126   2.859   1.141  13.777  0.2252  0.1989 -0.3945
  139TMC2    C8 2127   2.632   0.928  13.410 -0.4798  0.4948 -0.7112
  139TMC2    O1 2128   2.757   1.205  13.766 -0.9104  0.0576 -0.1697
  139TMC2    O2 2129   2.511   0.927  13.423  0.7211  0.2976 -0.0129
  139TMC2    O5 2130   2.695   0.909  13.288 -0.3884 -0.0831  0.4606
  139TMC2    H5 2131   2.793   0.911  13.282 -0.2961 -1.6697  1.4695
  140MPD2     C 2132   3.378   0.737  13.740  0.2876 -0.2862 -0.3711
  140MPD2    C1 2133   3.303   0.731  13.623  0.3843  1.1385  1.0500
  140MPD2    C2 2134   3.354   0.662  13.512 -0.5205  0.0627 -0.5605
  140MPD2    C3 2135   3.468   0.588  13.524  1.1742 -0.2198  0.6359
  140MPD2    C4 2136   3.540   0.589  13.638  0.2919  0.1448  0.1037
  140MPD2    C5 2137   3.491   0.670  13.742  0.5133 -0.0439  0.1174
  140MPD2     H 2138   3.292   0.660  13.423 -0.3779  0.2717 -0.6627
  140MPD2    H1 2139   3.638   0.543  13.643  1.4852  2.5149 -1.8818
  140MPD2    H2 2140   3.350   0.795  13.827  0.1008  0.6153 -1.0247
  140MPD2    H3 2141   3.544   0.674  13.837 -0.2816 -1.5772  0.6174
  140MPD2     N 2142   3.503   0.517  13.408  0.4448 -0.2673 -0.1910
  140MPD2    H5 2143   3.451   0.532  13.322  1.7244  0.9513 -0.7441
  140MPD2    N1 2144   3.176   0.789  13.637  0.1189  0.2770  0.0648
  140MPD2    H7 2145   3.167   0.843  13.722 -2.1544  1.4176 -0.9135
  141TCq2    C1 2146   4.287   2.051  13.629  0.2625  0.6987  0.1751
  141TCq2    O2 2147   4.336   2.122  13.546  0.0877 -0.2269  0.1283
  141TCq2    C2 2148   4.273   2.102  13.763 -0.0339  0.0291 -0.1740
  141TCq2    C3 2149   4.163   2.059  13.837 -0.2696  0.0711 -0.0606
  141TCq2    C4 2150   4.169   2.067  13.976 -0.4756 -0.4953 -0.1461
  141TCq2    C5 2151   4.266   2.139  14.034  0.4985  0.5634  0.0015
  141TCq2    C6 2152   4.370   2.186  13.956 -0.3369  0.0398 -0.0796
  141TCq2    C7 2153   4.377   2.154  13.825 -0.6296  0.0806  0.0761
  141TCq2    C8 2154   4.494   2.216  14.015  0.1245  0.4154  0.0590
  141TCq2    O4 2155   4.588   2.170  13.950  0.4916  0.8526 -0.5058
  141TCq2    C9 2156   4.082   1.992  14.058  0.5258 -0.4764 -0.4940
  141TCq2    O5 2157   4.110   2.000  14.183 -0.2930 -0.4175  0.2228
  141TCq2    O6 2158   3.971   1.961  14.008  0.6245 -0.2311  0.4278
  141TCq2    H2 2159   4.077   2.005  13.799 -0.2399 -0.8005  1.0970
  141TCq2    H3 2160   4.264   2.153  14.141  0.7112  2.0990 -0.1872
  141TCq2    H4 2161   4.456   2.194  13.763 -0.2039 -0.4373  0.2940
  142MPD2     C 2162   1.226   0.437  10.291 -0.4812  0.1180 -0.3453
  142MPD2    C1 2163   1.140   0.414  10.184 -0.1125 -0.0326  0.2799
  142MPD2    C2 2164   1.131   0.502  10.073  0.1255  0.1964  0.1731
  142MPD2    C3 2165   1.206   0.616  10.072 -0.4345  0.9381  0.2262
  142MPD2    C4 2166   1.289   0.639  10.175 -0.1461 -0.2026  0.4779
  142MPD2    C5 2167   1.299   0.552  10.284 -0.1614  0.5066 -0.3142
  142MPD2     H 2168   1.057   0.486   9.995 -0.3832  0.3386  0.6245
  142MPD2    H1 2169   1.356   0.725  10.174  0.0534 -0.3781 -1.4184
  142MPD2    H2 2170   1.237   0.372  10.377 -0.4503 -0.1966 -0.5871
  142MPD2    H3 2171   1.364   0.574  10.368 -0.3987 -1.8151  0.4707
  142MPD2     N 2172   1.201   0.716   9.973 -0.2493 -1.1581  1.3007
  142MPD2    H5 2173   1.275   0.783   9.993  0.9027 -1.8816 -0.5558
  142MPD2    N1 2174   1.077   0.290  10.192 -0.1826 -0.3755  0.7472
  142MPD2    H7 2175   1.093   0.230  10.272 -2.0997 -2.0943 -0.1322
  143TCq2    C1 2176   1.123   0.718   9.863 -0.0102 -0.0151 -0.1378
  143TCq2    O2 2177   1.030   0.648   9.830 -0.2812  0.1251  0.1867
  143TCq2    C2 2178   1.149   0.833   9.771  0.2064 -0.1794  0.0229
  143TCq2    C3 2179   1.044   0.862   9.690  0.2905 -0.5052 -0.0635
  143TCq2    C4 2180   1.063   0.966   9.608 -0.0235 -0.7142  0.1092
  143TCq2    C5 2181   1.171   1.045   9.617  0.1570  0.2356  0.9940
  143TCq2    C6 2182   1.274   1.010   9.703  0.1050 -0.3974  0.3133
  143TCq2    C7 2183   1.268   0.896   9.776 -0.3797  0.2417  0.5007
  143TCq2    C8 2184   1.389   1.107   9.725 -0.5414  0.3526  0.5228
  143TCq2    O4 2185   1.473   1.067   9.805 -0.1394 -0.0291  0.0415
  143TCq2    C9 2186   0.961   1.008   9.517 -0.6018  0.2590  0.1554
  143TCq2    O5 2187   0.856   0.945   9.524 -0.5265 -0.2542  0.1185
  143TCq2    O6 2188   0.986   1.109   9.446 -0.1585  0.8302  0.4844
  143TCq2    H2 2189   0.951   0.807   9.688 -0.0584  0.1381 -1.4814
  143TCq2    H3 2190   1.179   1.127   9.546 -2.4132  0.6074  1.1241
  143TCq2    H4 2191   1.348   0.857   9.838 -0.7352  1.6135  1.7839
  144MPD2     C 2192   3.970   4.477   1.077  1.1629  0.4792 -0.3765
  144MPD2    C1 2193   3.960   4.341   1.093  0.9246 -0.5945  0.0620
  144MPD2    C2 2194   3.982   4.287   1.220 -0.2076  0.4257 -0.3090
  144MPD2    C3 2195   4.036   4.370   1.320  0.9432 -0.0237  0.3782
  144MPD2    C4 2196   4.047   4.503   1.298 -0.0332  0.5337  0.7719
  144MPD2    C5 2197   4.020   4.554   1.176  0.5108  0.2874  0.6483
  144MPD2     H 2198   3.961   4.181   1.230 -1.5180  0.6280 -0.8812
  144MPD2    H1 2199   4.090   4.570   1.372 -0.3434 -1.7139  2.9748
  144MPD2    H2 2200   3.938   4.526   0.986  0.7467  0.7301 -0.0939
  144MPD2    H3 2201   4.033   4.662   1.171  2.1246  0.0227 -1.1635
  144MPD2     N 2202   4.065   4.324   1.453  0.2723 -0.0380  0.1795
  144MPD2    H5 2203   4.094   4.396   1.517 -0.7301 -0.6461  1.3219
  144MPD2    N1 2204   3.918   4.252   0.988  0.3157 -0.2209 -0.6318
  144MPD2    H7 2205   3.917   4.154   1.013 -3.5191 -0.0182  0.0780
  145TCq2    C1 2206   4.064   4.198   1.493 -0.0909  0.0934  0.4568
  145TCq2    O2 2207   4.081   4.097   1.426 -0.2630  0.1855  0.3369
  145TCq2    C2 2208   4.074   4.179   1.642 -0.0339 -0.0008  0.1727
  145TCq2    C3 2209   4.078   4.049   1.691 -0.6667  0.2799 -0.2351
  145TCq2    C4 2210   4.054   4.035   1.822 -0.6679 -0.4544  0.5109
  145TCq2    C5 2211   4.021   4.143   1.902  0.2747 -0.7259  0.0721
  145TCq2    C6 2212   4.024   4.266   1.851  0.6601 -0.5669 -0.5122
  145TCq2    C7 2213   4.047   4.286   1.716 -0.5595 -0.4324 -0.0367
  145TCq2    C8 2214   3.959   4.375   1.935  0.1511 -0.1391  0.0780
  145TCq2    O4 2215   3.899   4.338   2.032 -0.4784 -0.0143  0.5140
  145TCq2    C9 2216   4.048   3.895   1.872 -0.3116 -0.2307 -0.2995
  145TCq2    O5 2217   3.953   3.863   1.950  0.4684 -0.5045 -0.3419
  145TCq2    O6 2218   4.120   3.810   1.813  0.5882 -0.3321  0.3741
  145TCq2    H2 2219   4.082   3.955   1.638  0.5832 -0.8858  1.9222
  145TCq2    H3 2220   4.013   4.124   2.009 -1.4246  1.4606  0.3413
  145TCq2    H4 2221   4.036   4.389   1.684  1.0395 -0.0457  0.6498
  146TMC2    C1 2222   1.195   3.224  12.297 -0.5690 -0.0574  0.3535
  146TMC2    C2 2223   1.104   3.247  12.204 -0.3041 -0.3530 -0.5169
  146TMC2    C3 2224   1.115   3.193  12.079 -0.1173  0.0343  0.1225
  146TMC2    C4 2225   1.296   3.130  12.270 -0.1719  0.4909 -0.0353
  146TMC2    C5 2226   1.306   3.068  12.147 -0.7741 -0.7056  0.0801
  146TMC2    C6 2227   1.209   3.098  12.051  0.3169  0.1480  0.1034
  146TMC2     C 2228   1.177   3.285  12.435 -0.4524  0.2062  0.4232
  146TMC2     O 2229   1.125   3.393  12.425  0.0356 -0.0120 -0.3098
  146TMC2     H 2230   1.011   3.299  12.227  2.2422  3.3930  1.2200
  146TMC2    H1 2231   1.375   3.119  12.344  1.4484 -1.2499 -2.0189
  146TMC2    H2 2232   1.219   3.054  11.952  0.6721 -2.3791  1.2563
  146TMC2    C7 2233   1.405   2.955  12.134  0.2694 -0.3383 -0.6186
  146TMC2    C8 2234   1.003   3.208  11.987 -0.5874 -0.1767 -0.6521
  146TMC2    O1 2235   1.448   2.939  12.021 -0.0533  0.0619 -0.7063
  146TMC2    O2 2236   0.986   3.120  11.903  0.2214 -0.6209  0.4077
  146TMC2    O5 2237   0.945   3.329  11.980  0.4590 -0.2339 -0.1783
  146TMC2    H5 2238   0.984   3.397  12.038 -0.3980  2.0769 -2.3303
  147MPD2     C 2239   1.766   2.643  12.332 -0.1180  0.3226 -0.0621
  147MPD2    C1 2240   1.706   2.711  12.431 -0.6062 -0.2229  0.5066
  147MPD2    C2 2241   1.601   2.799  12.404  0.3432 -0.2825  0.3696
  147MPD2    C3 2242   1.574   2.830  12.269  0.4722  0.9242  0.3709
  147MPD2    C4 2243   1.652   2.781  12.169  0.3309  0.4376  0.3251
  147MPD2    C5 2244   1.741   2.680  12.201 -0.3125 -0.1768 -0.1097
  147MPD2     H 2245   1.546   2.837  12.489  1.1027 -0.4554  0.9395
  147MPD2    H1 2246   1.633   2.789  12.063  1.3849  2.5355  0.3045
  147MPD2    H2 2247   1.858   2.587  12.345 -0.6476 -0.3618  0.7557
  147MPD2    H3 2248   1.810   2.637  12.129  0.5036  0.7893  0.0878
  147MPD2     N 2249   1.464   2.912  12.252  0.2259 -0.3398 -0.6878
  147MPD2    H5 2250   1.415   2.927  12.340  0.2613 -1.4113 -0.4875
  147MPD2    N1 2251   1.740   2.673  12.561 -0.4868 -0.8490 -0.1973
  147MPD2    H7 2252   1.826   2.620  12.573  0.4480  0.5714 -0.6908
  148MPD2     C 2253   1.366   1.361  11.055 -0.1502 -0.0371  0.0302
  148MPD2    C1 2254   1.383   1.458  10.960 -0.1177 -0.9783  0.7201
  148MPD2    C2 2255   1.285   1.497  10.878 -0.0690  0.0189  0.1754
  148MPD2    C3 2256   1.159   1.439  10.880  0.0209  0.5386  0.5136
  148MPD2    C4 2257   1.148   1.340  10.975  0.4944 -0.4293 -0.1691
  148MPD2    C5 2258   1.244   1.305  11.062 -0.1003  0.7697  0.1125
  148MPD2     H 2259   1.307   1.575  10.806  1.4912 -0.7244 -0.1463
  148MPD2    H1 2260   1.055   1.287  10.981 -0.7488  1.8755  0.8460
  148MPD2    H2 2261   1.438   1.335  11.132  0.4349  0.5096 -0.3344
  148MPD2    H3 2262   1.221   1.219  11.123 -0.9197  1.2864  0.5318
  148MPD2     N 2263   1.059   1.459  10.783  0.1597 -0.2964 -0.1001
  148MPD2    H5 2264   0.979   1.396  10.787  0.4715 -0.7681 -1.6264
  148MPD2    N1 2265   1.510   1.521  10.961  0.7480  0.3876  0.8531
  148MPD2    H7 2266   1.517   1.607  10.908 -0.3443  0.8602  1.4745
  149TCq2    C1 2267   1.628   1.462  11.000  0.1926 -0.2680  0.4738
  149TCq2    O2 2268   1.666   1.352  11.047 -0.4052  0.2082  0.0196
  149TCq2    C2 2269   1.734   1.544  10.963 -0.9807 -0.2211 -0.2166
  149TCq2    C3 2270   1.715   1.682  10.956  0.3707  0.8471  0.2113
  149TCq2    C4 2271   1.791   1.768  10.883  0.4306 -0.1714 -0.7957
  149TCq2    C5 2272   1.870   1.716  10.789 -0.4972 -0.2237  0.3148
  149TCq2    C6 2273   1.888   1.578  10.782  0.0100 -0.9980 -0.1005
  149TCq2    C7 2274   1.824   1.494  10.873  0.3067 -0.4674  0.2162
  149TCq2    C8 2275   2.003   1.524  10.724 -0.0801  0.0439  0.1915
  149TCq2    O4 2276   2.082   1.481  10.811  0.6194  0.0207  0.0261
  149TCq2    C9 2277   1.726   1.892  10.843  0.0480  0.0506 -0.2805
  149TCq2    O5 2278   1.777   1.975  10.761  0.6351  0.0805 -0.4183
  149TCq2    O6 2279   1.610   1.912  10.884 -0.1566 -0.4422 -0.4751
  149TCq2    H2 2280   1.640   1.728  11.019 -1.9851 -1.4782 -0.8509
  149TCq2    H3 2281   1.909   1.790  10.721 -2.2884 -0.1344 -0.6126
  149TCq2    H4 2282   1.855   1.390  10.878 -0.4785 -0.7608 -1.1066
  150MPD2     C 2283   2.882   1.010  12.210  1.1823 -0.6566  0.0616
  150MPD2    C1 2284   2.947   1.052  12.097 -0.5568  0.2891 -0.0614
  150MPD2    C2 2285   3.070   1.112  12.120  0.0148  0.4672 -0.0064
  150MPD2    C3 2286   3.131   1.122  12.242 -0.4979  0.4472  0.0685
  150MPD2    C4 2287   3.062   1.076  12.354  0.5036 -0.9095 -0.0379
  150MPD2    C5 2288   2.931   1.031  12.333 -0.1929 -0.3865  0.3222
  150MPD2     H 2289   3.129   1.142  12.034  1.9807  0.8502  1.4744
  150MPD2    H1 2290   3.104   1.092  12.453 -2.2169 -2.0004  1.2842
  150MPD2    H2 2291   2.778   0.979  12.207  1.0438  0.0770 -2.4597
  150MPD2    H3 2292   2.870   1.019  12.422  0.0817 -0.0524  0.5535
  150MPD2     N 2293   3.257   1.184  12.262 -0.9881  0.1229 -0.5541
  150MPD2    H5 2294   3.292   1.237  12.183  1.1526 -0.3455  0.0773
  150MPD2    N1 2295   2.893   1.028  11.971  0.5068  0.6568 -1.3180
  150MPD2    H7 2296   2.811   0.969  11.974 -0.3312  2.0554  2.8494
  151TCq2    C1 2297   3.320   1.204  12.385 -0.7572 -0.5588  0.3560
  151TCq2    O2 2298   3.296   1.169  12.497  0.0506 -0.2504  0.4890
  151TCq2    C2 2299   3.437   1.284  12.377 -0.6495  0.2754 -0.9089
  151TCq2    C3 2300   3.462   1.352  12.263  0.1404 -0.1768  0.0947
  151TCq2    C4 2301   3.556   1.455  12.266 -0.1064 -0.1724  0.3415
  151TCq2    C5 2302   3.619   1.493  12.381  0.5180 -0.6633 -0.3342
  151TCq2    C6 2303   3.591   1.417  12.493 -0.1962  0.4018  0.1921
  151TCq2    C7 2304   3.505   1.313  12.492  0.0025 -0.6781  0.3903
  151TCq2    C8 2305   3.661   1.458  12.616  0.5651 -0.2541  0.0355
  151TCq2    O4 2306   3.685   1.578  12.627  0.1349  0.2268 -0.3033
  151TCq2    C9 2307   3.590   1.522  12.144  0.1570  0.7532 -0.0713
  151TCq2    O5 2308   3.536   1.485  12.032  0.2197  0.0456  0.1009
  151TCq2    O6 2309   3.650   1.630  12.164 -0.7475 -0.0516  0.2418
  151TCq2    H2 2310   3.415   1.315  12.172  1.7309  1.8454 -1.5691
  151TCq2    H3 2311   3.677   1.584  12.390 -0.6088 -0.2248  2.3466
  151TCq2    H4 2312   3.478   1.252  12.578 -0.7021  2.2318  2.2363
  152MPD2     C 2313   3.093   0.539  12.801 -0.8071  0.5815 -0.5685
  152MPD2    C1 2314   3.034   0.663  12.790 -0.7800  0.4478  0.3056
  152MPD2    C2 2315   2.901   0.677  12.751 -0.8201 -0.3097 -0.1054
  152MPD2    C3 2316   2.825   0.562  12.735  0.1855 -0.4630 -0.5946
  152MPD2    C4 2317   2.881   0.438  12.764  0.2474 -0.2770 -0.7443
  152MPD2    C5 2318   3.012   0.426  12.790  0.0274  0.5395  0.2459
  152MPD2     H 2319   2.865   0.779  12.737 -1.1698 -0.0194  2.9297
  152MPD2    H1 2320   2.819   0.349  12.754  3.0821 -2.1893 -1.4810
  152MPD2    H2 2321   3.197   0.537  12.832 -0.5028 -3.5211 -1.8605
  152MPD2    H3 2322   3.054   0.326  12.794 -2.2700 -0.4216 -0.1272
  152MPD2     N 2323   2.691   0.584  12.689  0.0796 -0.1614 -0.3712
  152MPD2    H5 2324   2.669   0.679  12.660 -0.3884  0.7674  3.0272
  152MPD2    N1 2325   3.124   0.774  12.808  0.6818  0.3411  0.5191
  152MPD2    H7 2326   3.222   0.751  12.797  0.7067  0.4413  0.5270
  153TCq2    C1 2327   3.086   0.901  12.847 -0.1082 -0.5598 -0.7502
  153TCq2    O2 2328   2.991   0.936  12.917 -0.5783 -0.1451 -0.3366
  153TCq2    C2 2329   3.200   0.993  12.836  0.3892 -0.4158  0.1168
  153TCq2    C3 2330   3.300   0.967  12.745  0.1165  0.2587 -0.2257
  153TCq2    C4 2331   3.421   1.032  12.757  0.0003 -0.5696 -0.2171
  153TCq2    C5 2332   3.443   1.125  12.860  0.7201  0.8044 -0.0560
  153TCq2    C6 2333   3.343   1.137  12.952  0.4748 -0.1742  0.1358
  153TCq2    C7 2334   3.225   1.077  12.939  0.2190  0.3366 -0.0244
  153TCq2    C8 2335   3.365   1.234  13.065  0.3769 -0.2608  0.5414
  153TCq2    O4 2336   3.274   1.283  13.127 -0.2659 -0.1325 -0.3691
  153TCq2    C9 2337   3.520   1.009  12.662 -0.4669 -0.1761 -0.0670
  153TCq2    O5 2338   3.627   1.074  12.666  0.0263 -0.1890  0.2600
  153TCq2    O6 2339   3.492   0.916  12.580 -0.2614  0.0036  0.6644
  153TCq2    H2 2340   3.286   0.900  12.661 -1.2735 -1.0647  1.0537
  153TCq2    H3 2341   3.537   1.179  12.863 -0.1082  2.2161  0.4036
  153TCq2    H4 2342   3.152   1.085  13.018 -2.0036  1.0752 -2.1649
  154MPD2     C 2343   3.938   0.055   0.850  0.1366 -0.6020 -0.5861
  154MPD2    C1 2344   3.860   0.153   0.913  0.3971 -0.8091  0.5868
  154MPD2    C2 2345   3.726   0.170   0.879 -0.7346 -0.7116  0.4768
  154MPD2    C3 2346   3.670   0.100   0.777 -0.0904 -0.6764 -0.0904
  154MPD2    C4 2347   3.747   0.014   0.711  0.4665  0.3456 -0.0189
  154MPD2    C5 2348   3.871   4.697   0.755  0.2021 -0.0844  0.1073
  154MPD2     H 2349   3.659   0.219   0.949 -0.9789 -0.4988  0.0938
  154MPD2    H1 2350   3.709   4.669   0.635  1.0728 -0.2946  0.2416
  154MPD2    H2 2351   4.040   0.030   0.876  0.3845  0.4773 -0.5132
  154MPD2    H3 2352   3.923   4.623   0.697 -4.0682 -2.7215 -0.3295
  154MPD2     N 2353   3.530   0.113   0.748 -0.6995  0.2854 -0.1752
  154MPD2    H5 2354   3.475   0.179   0.802 -0.3363  0.5308 -0.1130
  154MPD2    N1 2355   3.917   0.238   1.009  0.1409 -0.4116 -0.2923
  154MPD2    H7 2356   4.015   0.220   1.028  0.3180  0.0006 -0.8112
  155TCq2    C1 2357   3.859   0.349   1.069  0.4348  0.0283 -1.2960
  155TCq2    O2 2358   3.761   0.414   1.042 -0.3731  0.3730 -0.6600
  155TCq2    C2 2359   3.962   0.410   1.146  0.3450  0.3370  0.1073
  155TCq2    C3 2360   3.964   0.548   1.146 -0.3743 -0.3892 -0.5480
  155TCq2    C4 2361   4.059   0.609   1.207 -0.4001 -0.4303 -0.1820
  155TCq2    C5 2362   4.160   0.541   1.270  0.7115  0.3371  0.3759
  155TCq2    C6 2363   4.155   0.405   1.269  0.0825 -0.1383 -0.3990
  155TCq2    C7 2364   4.057   0.331   1.206  0.6135  0.2965 -0.2648
  155TCq2    C8 2365   4.251   0.329   1.352 -0.4636 -0.1175  0.2970
  155TCq2    O4 2366   4.273   0.215   1.321  0.1985  0.2351 -0.5741
  155TCq2    C9 2367   4.066   0.755   1.196  0.0120  0.3117 -0.3795
  155TCq2    O5 2368   4.167   0.810   1.248 -0.3082  0.2190 -0.0087
  155TCq2    O6 2369   3.971   0.823   1.145 -0.1920 -0.7047 -0.2967
  155TCq2    H2 2370   3.886   0.604   1.095  0.5227  0.1365 -1.3433
  155TCq2    H3 2371   4.244   0.585   1.322  0.0484 -0.5640  2.2052
  155TCq2    H4 2372   4.067   0.223   1.207 -0.2833  0.2111 -0.5824
  156MPD2     C 2373   4.059   3.190  12.551  0.0853  0.4716 -0.2873
  156MPD2    C1 2374   4.014   3.171  12.431  0.2725  0.1440  0.9863
  156MPD2    C2 2375   3.899   3.241  12.397  0.3373 -0.1835 -0.3149
  156MPD2    C3 2376   3.846   3.332  12.483  0.3187  0.5972 -0.5445
  156MPD2    C4 2377   3.889   3.348  12.612  0.2291  0.6970  0.2713
  156MPD2    C5 2378   4.002   3.277  12.643  0.0913  0.0819 -0.4838
  156MPD2     H 2379   3.859   3.253  12.297 -0.7508 -1.2925 -0.0079
  156MPD2    H1 2380   3.843   3.414  12.684 -0.6966  0.2362  0.1031
  156MPD2    H2 2381   4.143   3.127  12.579 -1.6725 -0.7013  2.3010
  156MPD2    H3 2382   4.042   3.279  12.743  0.1495  0.1107 -0.5078
  156MPD2     N 2383   3.733   3.394  12.441  0.0145  0.2629 -0.1263
  156MPD2    H5 2384   3.696   3.358  12.353 -0.4814 -0.7855  0.5133
  156MPD2    N1 2385   4.064   3.079  12.344  0.2006 -0.1943  0.3144
  156MPD2    H7 2386   4.020   3.084  12.253 -0.9761 -1.7244  0.7905
  157TCq2    C1 2387   4.149   2.976  12.372  0.5618 -0.3176  0.6440
  157TCq2    O2 2388   4.197   2.939  12.478  0.3803  0.0379  0.4596
  157TCq2    C2 2389   4.174   2.895  12.254 -0.0762 -0.1762  1.0721
  157TCq2    C3 2390   4.192   2.762  12.282 -0.3289 -0.9418  0.0124
  157TCq2    C4 2391   4.122   2.676  12.206 -0.6414  1.0635  0.0037
  157TCq2    C5 2392   4.062   2.723  12.097  0.0491  0.4803  1.1804
  157TCq2    C6 2393   4.062   2.855  12.055 -0.3139  0.1339  0.1414
  157TCq2    C7 2394   4.120   2.946  12.135  0.0697 -0.2976  0.6420
  157TCq2    C8 2395   3.944   2.914  12.000 -0.1607  0.7702 -0.0771
  157TCq2    O4 2396   3.924   3.032  12.027 -0.3248  0.0404 -0.1412
  157TCq2    C9 2397   4.118   2.540  12.244  0.0495  0.5733  0.7945
  157TCq2    O5 2398   4.041   2.469  12.178  0.4723 -0.2639  0.0496
  157TCq2    O6 2399   4.174   2.494  12.348 -0.4935 -0.0073  0.3025
  157TCq2    H2 2400   4.232   2.735  12.379 -1.8868 -0.3482  0.7997
  157TCq2    H3 2401   4.000   2.654  12.040 -0.6700  3.1731 -1.3159
  157TCq2    H4 2402   4.129   3.049  12.104  1.0337 -0.5539  0.0836
  158TMC2    C1 2403   3.648   2.167  13.078 -0.2199  0.7037 -0.4527
  158TMC2    C2 2404   3.709   2.149  12.951  0.5503  0.7358  0.1789
  158TMC2    C3 2405   3.621   2.156  12.840 -0.0676  0.1438 -1.3805
  158TMC2    C4 2406   3.521   2.219  13.094 -0.7168  0.0150  0.7600
  158TMC2    C5 2407   3.450   2.231  12.981  0.3889  0.0082  0.7795
  158TMC2    C6 2408   3.498   2.204  12.858  0.0646  0.9043  0.0703
  158TMC2     C 2409   3.731   2.142  13.194 -0.2623  0.1218  0.7071
  158TMC2     O 2410   3.851   2.135  13.168  0.0228  0.2694  0.3426
  158TMC2     H 2411   3.813   2.128  12.932 -0.4001 -2.9450 -0.8625
  158TMC2    H1 2412   3.482   2.250  13.191 -0.0336 -0.0344  1.0540
  158TMC2    H2 2413   3.441   2.214  12.767  0.5219  1.4663 -0.1479
  158TMC2    C7 2414   3.309   2.268  12.977 -0.7507 -0.4451 -0.3116
  158TMC2    C8 2415   3.666   2.182  12.704 -1.0162  0.2358 -0.0910
  158TMC2    O1 2416   3.266   2.306  12.870  0.2765 -0.1969 -0.1042
  158TMC2    O2 2417   3.645   2.290  12.652  0.0878 -0.4914  0.0241
  158TMC2    O5 2418   3.766   2.096  12.682  0.4818  0.3703  0.1120
  158TMC2    H5 2419   3.764   2.009  12.727  0.3099  0.2210 -0.1800
  159MPD2     C 2420   3.808   2.178  13.693  1.0191 -0.9654 -0.1740
  159MPD2    C1 2421   3.673   2.132  13.678  0.1366  0.1074  0.0241
  159MPD2    C2 2422   3.632   2.110  13.549  0.6241 -0.9094 -0.4472
  159MPD2    C3 2423   3.717   2.131  13.447 -0.0550 -0.1256  0.0686
  159MPD2    C4 2424   3.850   2.144  13.461 -0.1474 -0.0426  0.1864
  159MPD2    C5 2425   3.895   2.164  13.584 -0.5054 -0.6548 -0.0745
  159MPD2     H 2426   3.526   2.095  13.528 -0.4116 -0.3609  4.3155
  159MPD2    H1 2427   3.919   2.151  13.378 -0.9663  0.9111 -0.4154
  159MPD2    H2 2428   3.850   2.195  13.792 -0.6638  0.2495  0.3218
  159MPD2    H3 2429   4.000   2.176  13.610 -0.2925  0.1286 -1.2794
  159MPD2     N 2430   3.664   2.125  13.314 -0.4203 -0.5381 -0.2777
  159MPD2    H5 2431   3.564   2.113  13.312 -0.5276 -0.2082  2.3943
  159MPD2    N1 2432   3.586   2.129  13.790  0.3588 -0.1212  0.5133
  159MPD2    H7 2433   3.623   2.174  13.873  0.6389 -4.3583  2.6717
  160TMC2    C1 2434   2.221   0.046   1.316  0.0657  0.4332  0.1737
  160TMC2    C2 2435   2.111   0.053   1.393  0.4681  1.0790  0.2148
  160TMC2    C3 2436   2.114   4.702   1.512 -0.2465  0.4910 -0.3207
  160TMC2    C4 2437   2.331   4.695   1.350 -0.4162  0.7204  0.4443
  160TMC2    C5 2438   2.330   4.641   1.472  0.0992  0.1565  0.0798
  160TMC2    C6 2439   2.222   4.638   1.554  0.0780 -0.5030 -0.3690
  160TMC2     C 2440   2.220   0.113   1.188 -0.2972  0.5149  0.8577
  160TMC2     O 2441   2.304   0.070   1.111 -0.3134 -0.9074 -0.3567
  160TMC2     H 2442   2.011   0.090   1.371 -0.3031 -2.1369 -1.6630
  160TMC2    H1 2443   2.417   4.691   1.284  1.8120  0.5097  3.3586
  160TMC2    H2 2444   2.225   4.597   1.654 -1.2629 -2.0148 -0.9285
  160TMC2    C7 2445   2.467   4.633   1.532 -0.4434  0.4210 -0.4794
  160TMC2    C8 2446   1.989   4.682   1.582 -0.4036  1.1772 -0.3209
  160TMC2    O1 2447   2.511   4.540   1.599 -0.2015  0.0265  0.4755
  160TMC2    O2 2448   1.902   0.048   1.594  0.3175 -0.2995 -0.0608
  160TMC2    O5 2449   2.001   4.559   1.641  0.3480 -0.5971 -0.1654
  160TMC2    H5 2450   2.065   4.506   1.589 -0.2766 -2.0126  0.4964
  161MPD2     C 2451   2.184   0.280   0.962 -0.4673  0.1158  0.6577
  161MPD2    C1 2452   2.122   0.315   1.080 -0.2047  0.0255 -0.3283
  161MPD2    C2 2453   2.041   0.425   1.079 -0.5870  0.9219  0.2991
  161MPD2    C3 2454   2.042   0.508   0.974  0.3995  0.2479  0.1098
  161MPD2    C4 2455   2.110   0.471   0.862 -0.6212 -0.4519 -0.6192
  161MPD2    C5 2456   2.184   0.362   0.854  0.5130  0.1562  0.1396
  161MPD2     H 2457   1.980   0.452   1.165  0.4102 -0.0046  1.3101
  161MPD2    H1 2458   2.115   0.529   0.771  1.9776 -0.1312 -0.2827
  161MPD2    H2 2459   2.231   0.185   0.942 -2.7124 -0.8144 -0.1523
  161MPD2    H3 2460   2.221   0.328   0.758  1.6830 -0.5385  0.8366
  161MPD2     N 2461   1.978   0.630   0.966 -0.7923 -0.2698 -0.2874
  161MPD2    H5 2462   1.982   0.680   0.878 -2.1915 -0.1209 -0.2670
  161MPD2    N1 2463   2.139   0.228   1.190  0.5800  0.4328 -0.0213
  161MPD2    H7 2464   2.093   0.252   1.278  2.9300  2.8316  0.5527
  162TMC2    C1 2465   0.109   2.281   0.451 -0.2536  0.2857 -0.8310
  162TMC2    C2 2466   0.004   2.267   0.359  0.8781 -0.2671 -0.1327
  162TMC2    C3 2467   4.610   2.209   0.407  0.0497 -1.1515  0.0006
  162TMC2    C4 2468   0.103   2.229   0.577  0.7192 -0.2162  0.4462
  162TMC2    C5 2469   4.705   2.175   0.619 -0.4208 -0.3083 -0.1056
  162TMC2    C6 2470   4.596   2.161   0.534 -0.3827  0.2453  0.6220
  162TMC2     C 2471   0.236   2.300   0.387  0.5733 -0.5155  0.5230
  162TMC2     O 2472   0.334   2.240   0.425  0.5157 -0.4558 -0.1585
  162TMC2     H 2473   0.020   2.313   0.262  0.6026  0.6896  0.2755
  162TMC2    H1 2474   0.186   2.250   0.643  0.4251 -0.1056  0.7785
  162TMC2    H2 2475   4.507   2.108   0.565  0.5082 -2.0963 -0.8191
  162TMC2    C7 2476   4.693   2.137   0.760 -0.0373  0.0344  0.0229
  162TMC2    C8 2477   4.495   2.193   0.323  0.0158  0.2518 -0.1613
  162TMC2    O1 2478   4.581   2.094   0.786  0.3857 -0.1766 -0.2115
  162TMC2    O2 2479   4.386   2.217   0.376  0.4229  0.5157 -0.5818
  162TMC2    O5 2480   4.522   2.069   0.270  0.2819  0.0679 -0.4228
  162TMC2    H5 2481   4.613   2.061   0.233  0.9135 -0.8797  1.3444
  163MPD2     C 2482   0.547   2.519   0.046  0.8910  0.0458 -0.8952
  163MPD2    C1 2483   0.558   2.401   0.111  0.0862  0.4275  1.1958
  163MPD2    C2 2484   0.454   2.367   0.195  0.6811  0.4005  0.3579
  163MPD2    C3 2485   0.344   2.454   0.225 -0.3841 -0.2945  0.2661
  163MPD2    C4 2486   0.340   2.573   0.154  0.1882 -0.0225 -1.0891
  163MPD2    C5 2487   0.440   2.602   0.062  0.6275  0.6250  0.0349
  163MPD2     H 2488   0.450   2.266   0.235  0.2255 -0.2794 -1.4060
  163MPD2    H1 2489   0.255   2.640   0.162 -0.1384 -0.4351 -1.1414
  163MPD2    H2 2490   0.622   2.550  17.662  0.4699  5.2148  0.8897
  163MPD2    H3 2491   0.436   2.690  17.686 -0.4146 -0.0836 -0.8939
  163MPD2     N 2492   0.239   2.419   0.313 -0.6895  0.5648  0.1293
  163MPD2    H5 2493   0.161   2.481   0.330  0.4830  1.7157  1.3595
  163MPD2    N1 2494   0.671   2.308   0.090  0.0020  0.4897  0.3017
  163MPD2    H7 2495   0.729   2.324   0.008  3.9721  1.7009  3.3541
  164TCq2    C1 2496   2.043   1.584  11.188 -0.1634 -0.5754  0.0947
  164TCq2    O2 2497   1.994   1.569  11.304  0.0198 -0.3353  0.1923
  164TCq2    C2 2498   2.087   1.713  11.146 -0.4657  0.2358  0.9127
  164TCq2    C3 2499   2.169   1.725  11.040  0.4703  0.0482  0.8534
  164TCq2    C4 2500   2.183   1.843  10.987  1.1960 -0.0913  0.5576
  164TCq2    C5 2501   2.119   1.953  11.031  0.3704 -0.1900  0.5858
  164TCq2    C6 2502   2.040   1.942  11.143 -0.2286  0.5451  0.3727
  164TCq2    C7 2503   2.021   1.817  11.206  0.8447 -0.2686  0.0439
  164TCq2    C8 2504   1.928   2.035  11.161 -0.3230 -0.3023  0.3284
  164TCq2    O4 2505   1.894   2.096  11.058 -0.1873 -0.2119 -0.0719
  164TCq2    C9 2506   2.285   1.859  10.888 -0.3596 -0.3106 -0.3270
  164TCq2    O5 2507   2.356   1.759  10.857  0.3239 -0.1182 -0.0687
  164TCq2    O6 2508   2.286   1.968  10.820  0.1938 -0.2439  0.6764
  164TCq2    H2 2509   2.228   1.645  10.997 -1.8231 -0.8962 -0.4650
  164TCq2    H3 2510   2.136   2.052  10.989 -0.8964  0.2609  1.1465
  164TCq2    H4 2511   1.952   1.794  11.287 -0.3748 -0.8421 -1.1551
  165MPD2     C 2512   1.990   4.160   2.063 -0.0572  0.1012  0.0513
  165MPD2    C1 2513   2.105   4.087   2.046  0.4459  0.2416  0.6264
  165MPD2    C2 2514   2.220   4.111   2.118 -0.4344 -1.1909 -0.0557
  165MPD2    C3 2515   2.219   4.209   2.219  0.1983 -0.0841  0.0254
  165MPD2    C4 2516   2.106   4.288   2.223 -0.0980 -0.4970  0.2492
  165MPD2    C5 2517   1.998   4.268   2.140  0.9217 -0.4918 -0.5977
  165MPD2     H 2518   2.304   4.043   2.117 -0.0943 -0.7759 -0.0048
  165MPD2    H1 2519   2.112   4.378   2.284  1.4187  0.2282 -0.9994
  165MPD2    H2 2520   1.900   4.148   2.005  1.9809  2.1798 -3.5605
  165MPD2    H3 2521   1.908   4.329   2.149  0.9875 -0.3090 -1.2140
  165MPD2     N 2522   2.327   4.218   2.311  0.4566 -0.6558 -0.1329
  165MPD2    H5 2523   2.316   4.273   2.396 -1.0053  0.4299 -1.0277
  165MPD2    N1 2524   2.090   3.975   1.964 -0.1744  0.6660  0.2843
  165MPD2    H7 2525   1.994   3.957   1.936 -0.3038  0.5799  0.7885
  166TCq2    C1 2526   2.459   4.177   2.290 -0.2072  0.4994  0.2619
  166TCq2    O2 2527   2.507   4.141   2.186  0.0720 -0.4094  0.2062
  166TCq2    C2 2528   2.541   4.174   2.409 -0.0104 -0.4566  0.5480
  166TCq2    C3 2529   2.473   4.170   2.523  0.3535 -0.6267  0.6218
  166TCq2    C4 2530   2.544   4.153   2.637 -0.8297  0.8012  0.1122
  166TCq2    C5 2531   2.683   4.140   2.638  0.3779  0.3612 -0.2066
  166TCq2    C6 2532   2.747   4.160   2.515  0.4663 -0.4834  0.5740
  166TCq2    C7 2533   2.676   4.177   2.400  0.8761 -0.4490 -0.2144
  166TCq2    C8 2534   2.891   4.168   2.503  0.3681  1.4359  0.1775
  166TCq2    O4 2535   2.939   4.163   2.390 -0.2305 -0.7049 -0.0621
  166TCq2    C9 2536   2.470   4.119   2.753  0.5030 -0.1481 -0.2115
  166TCq2    O5 2537   2.350   4.075   2.744  0.8914 -0.3699  0.4263
  166TCq2    O6 2538   2.550   4.094   2.849  0.6148 -0.0834  0.0263
  166TCq2    H2 2539   2.366   4.156   2.534  0.3617 -2.1146 -1.2355
  166TCq2    H3 2540   2.734   4.125   2.733  1.1422 -1.0621 -0.8528
  166TCq2    H4 2541   2.724   4.185   2.304  1.4792 -1.5042 -0.0024
  167TMC2    C1 2542   0.913   1.688  12.698 -0.4410 -0.2368 -0.7613
  167TMC2    C2 2543   0.842   1.720  12.814  0.6661  0.7760  0.0450
  167TMC2    C3 2544   0.847   1.623  12.918 -0.1360 -0.9455 -0.2330
  167TMC2    C4 2545   0.997   1.580  12.693 -0.3094 -0.3602  0.1433
  167TMC2    C5 2546   0.981   1.484  12.789  0.0868  0.4402  0.5203
  167TMC2    C6 2547   0.917   1.509  12.903  0.2072  0.1221 -0.4156
  167TMC2     C 2548   0.914   1.779  12.587  0.6745 -0.5562 -1.2466
  167TMC2     O 2549   0.911   1.899  12.607  0.0870  0.0291  0.2179
  167TMC2     H 2550   0.775   1.805  12.807  1.4017  1.3322 -0.2496
  167TMC2    H1 2551   1.044   1.555  12.599 -0.3760  0.7457 -0.1854
  167TMC2    H2 2552   0.912   1.433  12.980  1.9201  0.7324  0.2965
  167TMC2    C7 2553   1.042   1.347  12.774  0.2218  0.4176 -0.5756
  167TMC2    C8 2554   0.756   1.626  13.025 -0.3923 -0.6415 -0.0404
  167TMC2    O1 2555   1.018   1.265  12.862 -0.1595  0.1694  0.3073
  167TMC2    O2 2556   0.697   1.530  13.066 -0.3589  0.2437  0.5227
  167TMC2    O5 2557   0.740   1.752  13.076  0.3206 -0.5390 -0.1277
  167TMC2    H5 2558   0.808   1.817  13.049  0.4105 -1.8847 -3.1466
  168MPD2     C 2559   0.972   1.889  12.312 -0.1638  0.5702  0.0371
  168MPD2    C1 2560   0.935   1.756  12.340  0.1546 -0.5527  0.0165
  168MPD2    C2 2561   0.923   1.664  12.237  0.1015 -0.1347  0.6121
  168MPD2    C3 2562   0.935   1.714  12.104 -0.0030 -0.2498 -0.2958
  168MPD2    C4 2563   0.976   1.844  12.076 -1.3677  0.2551  0.0024
  168MPD2    C5 2564   0.989   1.928  12.183  0.6376  0.0063  0.3575
  168MPD2     H 2565   0.901   1.560  12.257 -0.2745 -0.0394  0.6977
  168MPD2    H1 2566   0.980   1.873  11.971 -1.1531  1.3631  0.3204
  168MPD2    H2 2567   0.974   1.965  12.388  1.8000 -0.8254  1.3647
  168MPD2    H3 2568   1.016   2.033  12.175  0.9048 -0.2142 -1.8360
  168MPD2     N 2569   0.922   1.624  11.997 -0.1961 -0.0126 -0.1787
  168MPD2    H5 2570   0.943   1.649  11.901  1.2889 -0.7826 -0.0398
  168MPD2    N1 2571   0.909   1.710  12.469  0.8597 -0.3663  0.4026
  168MPD2    H7 2572   0.872   1.616  12.481 -0.3070  0.0542  0.0927
  169MPD1     C 2573   2.741   1.281   8.887 -0.6064  0.1205 -0.2097
  169MPD1    C1 2574   2.869   1.277   8.922 -0.3224  0.1461 -0.0886
  169MPD1    C2 2575   2.909   1.233   9.046  0.1919 -0.1602  0.2522
  169MPD1    C3 2576   2.823   1.186   9.143 -0.9146 -0.5520  0.0042
  169MPD1    C4 2577   2.688   1.185   9.112  0.6865  0.1368  0.0575
  169MPD1    C5 2578   2.651   1.246   8.984 -0.6473 -0.4154 -0.2581
  169MPD1     H 2579   3.017   1.221   9.054  0.4473  1.3804 -0.7773
  169MPD1    H1 2580   2.611   1.147   9.178  1.2079  2.2191  1.8515
  169MPD1    H2 2581   2.710   1.304   8.786  0.0748 -3.0029 -1.1416
  169MPD1    H3 2582   2.545   1.264   8.968 -1.3135 -2.7474  1.5446
  169MPD1     N 2583   2.874   1.129   9.260  0.0663 -0.1236 -0.2019
  169MPD1    H5 2584   2.973   1.144   9.276  0.4152 -0.8838 -1.6858
  169MPD1    N1 2585   2.967   1.329   8.836 -0.3820 -0.1912 -0.5479
  169MPD1    H6 2586   2.938   1.340   8.739 -0.0816  2.8949 -0.2833
  169MPD1    H7 2587   3.065   1.301   8.840 -0.6095 -1.2006 -2.2057
  170MPD1     C 2588   2.762   3.672  13.217 -0.5154  1.0888 -0.4568
  170MPD1    C1 2589   2.646   3.703  13.149 -1.0497 -0.7782 -1.1861
  170MPD1    C2 2590   2.571   3.810  13.216  0.6488 -0.3485  0.2714
  170MPD1    C3 2591   2.606   3.859  13.344  0.3555  0.4817 -0.4925
  170MPD1    C4 2592   2.720   3.809  13.407  0.0333 -0.1007 -0.3666
  170MPD1    C5 2593   2.803   3.714  13.335 -0.9144 -0.9750 -0.6617
  170MPD1     H 2594   2.479   3.835  13.165  2.1534  2.2210 -1.1784
  170MPD1    H1 2595   2.739   3.833  13.511 -0.5708  1.1376 -0.5509
  170MPD1    H2 2596   2.822   3.587  13.187  0.0206  1.6070 -0.8756
  170MPD1    H3 2597   2.890   3.673  13.386 -0.4677 -0.1746 -0.7871
  170MPD1     N 2598   2.531   3.952  13.412 -0.2382 -0.5388 -0.2836
  170MPD1    H5 2599   2.558   3.980  13.506  0.6756  0.7473 -0.9263
  170MPD1    N1 2600   2.628   3.668  13.015 -0.1630 -0.3587 -0.6362
  170MPD1    H6 2601   2.531   3.677  12.985 -0.7711 -0.7822  1.2088
  170MPD1    H7 2602   2.649   3.569  13.004 -0.6519 -0.7116  1.4723
  171MPD1     C 2603   0.566   0.553  15.365  0.0448  0.0478  0.7914
  171MPD1    C1 2604   0.655   0.604  15.454  0.2018  0.1912 -0.2695
  171MPD1    C2 2605   0.768   0.542  15.489 -0.8137 -0.0649  0.3187
  171MPD1    C3 2606   0.792   0.412  15.451 -0.3760  0.1983 -0.3623
  171MPD1    C4 2607   0.713   0.351  15.361 -0.1182 -0.2655 -0.1352
  171MPD1    C5 2608   0.602   0.424  15.304  0.1518 -0.1705 -1.5131
  171MPD1     H 2609   0.847   0.588  15.548  0.6700 -2.1153 -0.0648
  171MPD1    H1 2610   0.742   0.252  15.330  1.1014  0.8055 -2.4294
  171MPD1    H2 2611   0.477   0.607  15.334 -0.6959  0.0112  2.8834
  171MPD1    H3 2612   0.536   0.391  15.225 -0.0965 -0.3977 -1.2092
  171MPD1     N 2613   0.909   0.336  15.491  0.1835  0.1891 -0.0190
  171MPD1    H5 2614   0.906   0.236  15.478  0.9050 -0.2212  2.9913
  171MPD1    N1 2615   0.620   0.728  15.507 -0.2873 -0.2881 -0.2697
  171MPD1    H6 2616   0.695   0.797  15.514  1.2243 -1.8169 -1.3188
  171MPD1    H7 2617   0.547   0.785  15.465 -0.9054 -0.7748  0.1456
  172MPD1     C 2618   4.531   3.759   0.979 -0.1133  0.5526  0.5268
  172MPD1    C1 2619   4.442   3.799   0.878 -0.5878  0.1404  0.3105
  172MPD1    C2 2620   4.387   3.924   0.884  0.5167 -0.0706 -0.8696
  172MPD1    C3 2621   4.398   4.002   1.001 -0.0012  0.0087  0.5783
  172MPD1    C4 2622   4.491   3.966   1.099  0.3408 -0.4706 -1.1075
  172MPD1    C5 2623   4.558   3.849   1.082  0.7061  0.1883  0.1574
  172MPD1     H 2624   4.321   3.957   0.804  0.5898 -1.1962 -1.4043
  172MPD1    H1 2625   4.516   4.030   1.183  0.1941 -1.5426 -0.2582
  172MPD1    H2 2626   4.587   3.667   0.971  0.3887  1.1054 -2.0930
  172MPD1    H3 2627   4.626   3.814   1.159  1.2270 -0.7833 -0.7326
  172MPD1     N 2628   4.335   4.129   1.019  0.3085  0.1668 -0.1286
  172MPD1    H5 2629   4.325   4.161   1.115 -3.7336 -0.7294 -0.2471
  172MPD1    N1 2630   4.441   3.737   0.758  0.0371  0.0709  0.8752
  172MPD1    H6 2631   4.360   3.757   0.699  0.5375  0.1976  0.2424
  172MPD1    H7 2632   4.445   3.635   0.763  0.2218  0.0393  0.0576
  173MPD1     C 2633   1.246   3.714  14.026 -0.5444  0.7612 -0.6388
  173MPD1    C1 2634   1.166   3.759  14.133 -0.1537 -0.2029 -0.5065
  173MPD1    C2 2635   1.232   3.822  14.238 -0.3183 -0.7766 -0.5178
  173MPD1    C3 2636   1.369   3.836  14.237 -0.3934  0.4481  0.0843
  173MPD1    C4 2637   1.440   3.805  14.130  0.1798 -0.3964  0.4134
  173MPD1    C5 2638   1.379   3.737  14.030  0.6862  0.4648  0.4007
  173MPD1     H 2639   1.169   3.882  14.304  0.6435 -0.1150 -0.1916
  173MPD1    H1 2640   1.549   3.812  14.129  0.1709  0.2914  2.4004
  173MPD1    H2 2641   1.200   3.668  13.940 -0.5230 -2.2082  0.9421
  173MPD1    H3 2642   1.432   3.693  13.947 -0.4939  0.6907 -0.4727
  173MPD1     N 2643   1.435   3.899  14.351  0.6085 -0.3436  0.5306
  173MPD1    H5 2644   1.532   3.924  14.337  0.7206 -0.3890  1.2554
  173MPD1    N1 2645   1.028   3.767  14.125  0.0890 -0.0191  0.1612
  173MPD1    H6 2646   0.980   3.758  14.214  1.9927 -1.4036  1.0333
  173MPD1    H7 2647   0.979   3.698  14.067 -1.4658  0.7010  0.6030
  174MPD1     C 2648   1.634   4.689  14.289  0.4939 -1.1718  0.0793
  174MPD1    C1 2649   1.676   4.681  14.418  0.5658 -0.1291  0.3772
  174MPD1    C2 2650   1.678   4.554  14.480 -0.2422  0.4480 -0.2613
  174MPD1    C3 2651   1.644   4.435  14.415  0.3922  0.2367  0.2568
  174MPD1    C4 2652   1.599   4.452  14.285 -0.7375  0.3828  0.9850
  174MPD1    C5 2653   1.596   4.573  14.222  0.4027 -0.3243 -0.0495
  174MPD1     H 2654   1.717   4.546  14.580 -1.9323  3.9239  0.6758
  174MPD1    H1 2655   1.555   4.370  14.229 -0.4598  0.8101  0.1317
  174MPD1    H2 2656   1.629   0.063  14.237  0.7123 -2.7727 -2.8864
  174MPD1    H3 2657   1.557   4.575  14.121 -1.0374 -0.7593  0.4956
  174MPD1     N 2658   1.631   4.308  14.476  0.1186  1.0404 -0.6745
  174MPD1    H5 2659   1.588   4.239  14.416  0.1452 -1.9115  2.7023
  174MPD1    N1 2660   1.697   0.077  14.499 -0.1613  0.1107  0.3718
  174MPD1    H6 2661   1.738   0.160  14.456 -0.2984  0.7128  1.4001
  174MPD1    H7 2662   1.760   0.047  14.573 -1.0341 -1.2659  0.5536
  175MPD1     C 2663   4.362   0.632  15.319 -0.0248 -0.3350 -0.1972
  175MPD1    C1 2664   4.255   0.562  15.373  0.4224  0.0808 -0.4467
  175MPD1    C2 2665   4.271   0.504  15.499  0.0227 -0.5031 -0.3572
  175MPD1    C3 2666   4.386   0.524  15.573  0.1370  0.5064 -0.3505
  175MPD1    C4 2667   4.492   0.594  15.515 -0.1043  0.1558 -0.5735
  175MPD1    C5 2668   4.475   0.646  15.389  0.0097  0.0707  0.4727
  175MPD1     H 2669   4.191   0.446  15.545 -1.8201 -0.6916 -3.8252
  175MPD1    H1 2670   4.588   0.625  15.555 -0.9922  3.2372 -0.8330
  175MPD1    H2 2671   4.355   0.668  15.218 -1.4682 -0.3634 -0.1086
  175MPD1    H3 2672   4.560   0.692  15.340 -0.3153  3.1520  2.7731
  175MPD1     N 2673   4.391   0.473  15.705 -0.1813 -0.5803 -0.7169
  175MPD1    H5 2674   4.318   0.409  15.734  1.2950 -2.0148 -0.1534
  175MPD1    N1 2675   4.154   0.528  15.290 -0.3131  0.0679  0.5797
  175MPD1    H6 2676   4.062   0.506  15.329 -0.5018 -0.8420 -0.3987
  175MPD1    H7 2677   4.141   0.581  15.204 -2.3912  0.9593  1.4147
  176MPD1     C 2678   1.155   1.962  16.131 -0.5892 -0.3345 -0.5343
  176MPD1    C1 2679   1.077   1.889  16.219  0.5678  0.0899 -0.6835
  176MPD1    C2 2680   1.055   1.933  16.346 -0.6230  0.0192 -0.7272
  176MPD1    C3 2681   1.101   2.055  16.388  0.2680 -0.3397  0.2238
  176MPD1    C4 2682   1.173   2.129  16.289  0.4278  0.2763 -0.1535
  176MPD1    C5 2683   1.201   2.082  16.164  0.3322  0.0112 -0.9590
  176MPD1     H 2684   1.004   1.871  16.420 -0.3849 -0.3025 -0.8327
  176MPD1    H1 2685   1.217   2.225  16.312  0.6679  0.0477  0.3395
  176MPD1    H2 2686   1.181   1.921  16.035 -1.6528 -0.4439 -0.7802
  176MPD1    H3 2687   1.253   2.153  16.101  1.9993  0.2086  0.6554
  176MPD1     N 2688   1.061   2.100  16.519  0.1000  0.1652  0.3952
  176MPD1    H5 2689   1.018   2.032  16.580 -0.5036  0.1853 -0.0030
  176MPD1    N1 2690   1.042   1.763  16.175 -0.0874 -0.5925  0.5477
  176MPD1    H6 2691   0.977   1.721  16.240 -0.2036  0.9693  1.4373
  176MPD1    H7 2692   1.022   1.755  16.075 -1.5709  1.4460  0.6929
  177MPD1     C 2693   4.611   1.959  10.239  0.2068  0.4409  0.3936
  177MPD1    C1 2694   4.585   2.091  10.240  0.1269 -0.0236  0.4727
  177MPD1    C2 2695   4.496   2.140  10.154 -0.0048 -0.4147  0.2073
  177MPD1    C3 2696   4.435   2.063  10.052  0.1277  0.5483 -0.1241
  177MPD1    C4 2697   4.479   1.931  10.038 -0.1125 -0.1202  0.7945
  177MPD1    C5 2698   4.564   1.878  10.138  0.2720  0.1440 -0.1524
  177MPD1     H 2699   4.466   2.245  10.158 -3.3631 -1.3307 -0.6522
  177MPD1    H1 2700   4.461   1.865   9.955  1.5858  1.1994 -0.6235
  177MPD1    H2 2701   4.672   1.908  10.313 -0.5624 -2.1344 -0.7426
  177MPD1    H3 2702   4.596   1.774  10.144 -0.6209 -0.2349 -1.9233
  177MPD1     N 2703   4.367   2.136   9.950 -0.5247 -0.2608 -1.0819
  177MPD1    H5 2704   4.345   2.235   9.955 -1.9039 -0.6394  0.1189
  177MPD1    N1 2705   4.625   2.162  10.355  0.1209  0.1156  0.4541
  177MPD1    H6 2706   4.709   2.129  10.402 -1.4615 -3.1736  0.9528
  177MPD1    H7 2707   4.626   2.264  10.351  1.7821 -0.0322 -2.2561
  178MPD1     C 2708   1.522   3.167   0.175 -0.0451  0.3689  0.0495
  178MPD1    C1 2709   1.496   3.064   0.087  0.5076 -0.1970 -0.5160
  178MPD1    C2 2710   1.588   3.039  17.676  0.4955  0.6113 -0.2452
  178MPD1    C3 2711   1.691   3.129  17.649 -0.2241 -0.5116  0.0432
  178MPD1    C4 2712   1.709   3.229   0.056 -0.1952 -0.9762  0.1571
  178MPD1    C5 2713   1.625   3.246   0.163 -0.1320 -0.6172 -0.2808
  178MPD1     H 2714   1.588   2.951  17.613  1.2115  0.7043 -0.3747
  178MPD1    H1 2715   1.785   3.303   0.035 -0.3431 -0.7748  0.3278
  178MPD1    H2 2716   1.448   3.198   0.248 -0.6578  0.0035 -0.4146
  178MPD1    H3 2717   1.639   3.333   0.227  0.9231 -1.1082  0.1462
  178MPD1     N 2718   1.793   3.109  17.550 -0.1245 -0.4162 -0.3770
  178MPD1    H5 2719   1.865   3.180  17.555 -0.5845 -0.1050  1.7908
  178MPD1    N1 2720   1.408   2.969   0.118 -0.7925 -0.2052 -0.1937
  178MPD1    H6 2721   1.380   2.922   0.032  0.0394 -1.2384  0.0961
  178MPD1    H7 2722   1.328   2.992   0.178  0.6668  1.3503  1.1688
  179MPD1     C 2723   1.873   1.686  16.303 -0.5759 -0.2845  1.0238
  179MPD1    C1 2724   1.997   1.661  16.254  0.0511  0.6627 -0.0765
  179MPD1    C2 2725   2.003   1.545  16.184 -0.0000 -0.0266  1.1897
  179MPD1    C3 2726   1.897   1.462  16.160 -0.6736 -0.2153  0.7621
  179MPD1    C4 2727   1.768   1.495  16.206  0.3356  0.1428 -0.7591
  179MPD1    C5 2728   1.760   1.606  16.285  0.2410  0.1863 -0.7280
  179MPD1     H 2729   2.102   1.525  16.144 -0.3265 -1.0347  0.8930
  179MPD1    H1 2730   1.684   1.428  16.210 -0.4973  1.2432  0.2185
  179MPD1    H2 2731   1.856   1.782  16.350  0.0198 -0.2479  1.1635
  179MPD1    H3 2732   1.669   1.633  16.338  2.0071  3.0662  0.8432
  179MPD1     N 2733   1.906   1.340  16.086  0.2219 -0.2634 -0.2384
  179MPD1    H5 2734   1.820   1.293  16.061  0.1711  0.2044 -0.9441
  179MPD1    N1 2735   2.111   1.744  16.290 -0.5265 -0.9445  0.4407
  179MPD1    H6 2736   2.184   1.739  16.219  1.0126  1.7001  1.8210
  179MPD1    H7 2737   2.091   1.844  16.299  1.3897 -0.4092 -1.0769
  180MPD1     C 2738   1.790   2.909  15.503  0.0727  0.0799  0.1281
  180MPD1    C1 2739   1.890   2.875  15.416  0.3532 -0.2273 -0.3537
  180MPD1    C2 2740   1.865   2.823  15.292  0.3037 -0.7842  0.8493
  180MPD1    C3 2741   1.734   2.817  15.253 -0.0821  0.1563  0.0054
  180MPD1    C4 2742   1.634   2.857  15.343  0.4853  0.5379  0.2405
  180MPD1    C5 2743   1.663   2.901  15.465 -0.1533 -0.2066  0.1208
  180MPD1     H 2744   1.943   2.801  15.220  1.6144  0.0837  1.9897
  180MPD1    H1 2745   1.531   2.856  15.310  0.3381  1.0011  0.6971
  180MPD1    H2 2746   1.821   2.946  15.600  2.0309  0.0081 -0.4747
  180MPD1    H3 2747   1.580   2.932  15.527  0.7116 -0.1524  1.2500
  180MPD1     N 2748   1.701   2.757  15.129 -0.2657 -0.2342 -0.9298
  180MPD1    H5 2749   1.777   2.713  15.077  0.3927  0.3954 -0.5097
  180MPD1    N1 2750   2.018   2.914  15.451  0.1058 -0.0727 -0.1077
  180MPD1    H6 2751   2.024   2.887  15.549  1.5522  1.6916  0.2917
  180MPD1    H7 2752   2.093   2.858  15.412  0.0062 -1.4049  1.6156
  181MPD1     C 2753   2.888   3.907  10.573 -0.5490  0.3833  0.3282
  181MPD1    C1 2754   2.947   3.982  10.676 -1.2101  0.0158  0.4746
  181MPD1    C2 2755   3.063   4.057  10.650  0.2942  0.0892  0.2790
  181MPD1    C3 2756   3.128   4.056  10.531  0.3696 -0.5561 -0.2399
  181MPD1    C4 2757   3.076   3.967  10.439  0.7759  0.1633 -0.1317
  181MPD1    C5 2758   2.961   3.899  10.460  0.5128  0.0197 -0.2273
  181MPD1     H 2759   3.102   4.125  10.724  0.9861 -0.1607  0.1502
  181MPD1    H1 2760   3.125   3.948  10.345 -0.3558  0.7957 -0.8453
  181MPD1    H2 2761   2.802   3.841  10.571  0.0079 -0.2767 -1.5839
  181MPD1    H3 2762   2.928   3.842  10.373 -3.4022  2.9564 -0.6292
  181MPD1     N 2763   3.253   4.114  10.507  0.1035 -0.6538 -0.7791
  181MPD1    H5 2764   3.315   4.082  10.433  0.5644  1.8987 -1.5259
  181MPD1    N1 2765   2.894   3.992  10.804  0.1225  0.3032 -0.6042
  181MPD1    H6 2766   2.917   4.080  10.850  1.4802  0.2104 -1.0924
  181MPD1    H7 2767   2.799   3.960  10.823  0.3237 -0.8881 -1.6709
  182MPD1     C 2768   3.542   3.709   2.525 -0.5677  0.0815  0.0686
  182MPD1    C1 2769   3.437   3.788   2.485 -0.5158 -0.9782  0.1366
  182MPD1    C2 2770   3.408   3.823   2.350  0.0723 -0.0400 -0.5384
  182MPD1    C3 2771   3.490   3.768   2.252 -0.0941  0.1047  0.5076
  182MPD1    C4 2772   3.595   3.691   2.295  0.1536 -0.2381 -0.6400
  182MPD1    C5 2773   3.619   3.663   2.425  0.4331 -0.8389  0.8603
  182MPD1     H 2774   3.327   3.893   2.333  0.2613  0.1416 -0.6928
  182MPD1    H1 2775   3.666   3.655   2.221  0.9295 -0.7365  0.3409
  182MPD1    H2 2776   3.550   3.670   2.626 -1.9377  1.8626  0.8601
  182MPD1    H3 2777   3.703   3.603   2.457  3.3682  3.2661  0.8902
  182MPD1     N 2778   3.474   3.793   2.113  0.3750  0.3784 -1.1431
  182MPD1    H5 2779   3.540   3.766   2.041 -0.8026 -3.4538 -0.7689
  182MPD1    N1 2780   3.359   3.834   2.600 -0.2968  0.5534  0.6339
  182MPD1    H6 2781   3.405   3.830   2.690  0.4297  1.4450  0.3094
  182MPD1    H7 2782   3.318   3.927   2.588 -1.2648 -0.3171 -2.9320
  183MPD1     C 2783   0.271   4.384   8.945  0.5601 -0.8078  0.3325
  183MPD1    C1 2784   0.236   4.284   9.036  0.0061 -0.1018 -0.0040
  183MPD1    C2 2785   0.103   4.287   9.086  0.0130 -0.0769 -0.4825
  183MPD1    C3 2786   0.033   4.405   9.080 -0.6448  0.7190 -0.3846
  183MPD1    C4 2787   0.080   4.508   9.004 -0.0863  0.4229  0.0494
  183MPD1    C5 2788   0.194   4.497   8.928 -0.6623  0.4105 -0.4686
  183MPD1     H 2789   0.056   4.202   9.134  1.4689 -0.3839  0.4250
  183MPD1    H1 2790   0.031   4.604   8.989 -0.6359  0.2912  0.9859
  183MPD1    H2 2791   0.362   4.375   8.886  1.3025  0.1652  1.3262
  183MPD1    H3 2792   0.222   4.585   8.871  0.1585 -0.6600 -1.7088
  183MPD1     N 2793   4.632   4.407   9.150 -0.1722 -0.6833 -0.3075
  183MPD1    H5 2794   4.602   4.329   9.206 -1.5492  1.1376  1.4951
  183MPD1    N1 2795   0.304   4.164   9.032  0.3410  0.4401 -0.4808
  183MPD1    H6 2796   0.306   4.122   9.125  0.4802  1.7826  0.1305
  183MPD1    H7 2797   0.399   4.161   8.996  0.3540  0.9765 -0.4889
  184MPD1     C 2798   2.987   1.884  10.096  0.0446  0.3717  0.3433
  184MPD1    C1 2799   3.117   1.898  10.133  0.1118  0.3564 -0.2010
  184MPD1    C2 2800   3.208   1.949  10.039  1.1117  0.1393 -0.4720
  184MPD1    C3 2801   3.164   1.997   9.915 -0.1761  0.6102 -0.3957
  184MPD1    C4 2802   3.032   1.985   9.882 -0.2536  0.1075 -0.6266
  184MPD1    C5 2803   2.944   1.932   9.973  0.0700  0.1321  0.1304
  184MPD1     H 2804   3.314   1.951  10.060  1.2178 -0.8094 -0.9067
  184MPD1    H1 2805   2.995   2.018   9.786 -1.5680 -0.9710 -0.4920
  184MPD1    H2 2806   2.918   1.841  10.168  0.6677  0.1474  0.8050
  184MPD1    H3 2807   2.839   1.923   9.950  0.8780 -0.9333 -3.1425
  184MPD1     N 2808   3.244   2.028   9.807 -0.4076 -0.3530  0.2380
  184MPD1    H5 2809   3.203   2.024   9.714 -2.2605 -1.1187  1.0986
  184MPD1    N1 2810   3.167   1.855  10.257  0.0689 -0.3778 -0.0979
  184MPD1    H6 2811   3.098   1.859  10.333  0.3777  1.4371  0.0864
  184MPD1    H7 2812   3.254   1.905  10.276 -0.1517  0.0176 -0.1153
  185MPD1     C 2813   3.284   2.522   8.917 -0.7202 -0.0403  0.7537
  185MPD1    C1 2814   3.254   2.387   8.949 -0.4457 -0.6511 -0.0498
  185MPD1    C2 2815   3.290   2.331   9.069 -0.1392 -0.3099  1.1445
  185MPD1    C3 2816   3.339   2.418   9.169 -0.3594 -0.5346  0.3829
  185MPD1    C4 2817   3.354   2.550   9.142  0.6054 -0.1535 -0.1462
  185MPD1    C5 2818   3.324   2.600   9.019 -0.0551 -0.2910 -0.1550
  185MPD1     H 2819   3.279   2.227   9.095  0.5073 -0.7859 -0.5248
  185MPD1    H1 2820   3.397   2.614   9.218 -2.1535 -0.0583  1.3396
  185MPD1    H2 2821   3.269   2.567   8.819  2.5178 -2.1576 -0.7438
  185MPD1    H3 2822   3.331   2.707   9.003 -0.3234 -0.2562 -0.0394
  185MPD1     N 2823   3.363   2.382   9.302 -0.8534  0.1018  0.2595
  185MPD1    H5 2824   3.396   2.458   9.362 -1.2248 -1.1279  2.0193
  185MPD1    N1 2825   3.211   2.305   8.845 -0.0196  0.1014 -0.3395
  185MPD1    H6 2826   3.162   2.340   8.764  0.3737 -0.4494 -0.8183
  185MPD1    H7 2827   3.171   2.222   8.889 -0.9589  0.8015  0.1338
  186MPD1     C 2828   2.489   0.994  15.702  0.2407  0.1227 -0.6059
  186MPD1    C1 2829   2.597   1.047  15.764 -0.8313 -0.4620  0.3591
  186MPD1    C2 2830   2.587   1.138  15.871  1.2944 -0.2919  0.1798
  186MPD1    C3 2831   2.460   1.181  15.901 -0.7451  0.1112 -0.1489
  186MPD1    C4 2832   2.348   1.141  15.835  0.6416 -0.4315 -0.4456
  186MPD1    C5 2833   2.362   1.041  15.742 -0.3995 -1.0956 -0.3935
  186MPD1     H 2834   2.679   1.177  15.914  1.4025  1.6283 -1.7977
  186MPD1    H1 2835   2.251   1.181  15.865  1.9428  0.9626  1.9137
  186MPD1    H2 2836   2.492   0.920  15.623  0.6444 -1.7858  1.2009
  186MPD1    H3 2837   2.281   0.985  15.696  0.1341 -0.6916 -1.8100
  186MPD1     N 2838   2.425   1.274  15.998  0.1814 -0.5530  0.4870
  186MPD1    H5 2839   2.330   1.296  16.024  0.7766  0.6676  1.6137
  186MPD1    N1 2840   2.718   0.989  15.736  0.4531 -0.4407  0.6406
  186MPD1    H6 2841   2.713   0.951  15.642  0.0239 -2.8302  1.6131
  186MPD1    H7 2842   2.803   1.046  15.740  0.0911 -0.0016  2.1829
  187MPD1     C 2843   0.398   3.607   0.606  0.6420  0.2945  0.2603
  187MPD1    C1 2844   0.506   3.691   0.592  0.7143 -0.4684  0.0675
  187MPD1    C2 2845   0.596   3.657   0.494 -0.3486  0.5115  0.8264
  187MPD1    C3 2846   0.568   3.571   0.395 -0.6934 -0.5030 -0.0259
  187MPD1    C4 2847   0.458   3.493   0.401 -0.0741  0.0975 -0.9099
  187MPD1    C5 2848   0.367   3.516   0.507  0.0536  0.1737 -0.0566
  187MPD1     H 2849   0.694   3.702   0.500 -0.6148  1.1719  0.2488
  187MPD1    H1 2850   0.435   3.410   0.336 -0.2269 -0.5532 -0.0282
  187MPD1    H2 2851   0.332   3.613   0.691  3.5460 -0.6470  2.5894
  187MPD1    H3 2852   0.280   3.451   0.515  1.0000 -1.4420 -2.9134
  187MPD1     N 2853   0.647   3.546   0.279 -0.0290  0.2739 -0.1837
  187MPD1    H5 2854   0.620   3.476   0.211  1.4443 -0.5674  0.0886
  187MPD1    N1 2855   0.548   3.783   0.684  0.0203 -0.9586  0.2600
  187MPD1    H6 2856   0.610   3.851   0.641  1.0637 -2.1250 -0.0834
  187MPD1    H7 2857   0.475   3.831   0.736 -0.8568  0.0761 -1.9604
  188MPD1     C 2858   1.295   4.046   9.569 -0.2159  0.0467  0.4934
  188MPD1    C1 2859   1.160   4.024   9.531 -0.6100  0.0247 -0.1683
  188MPD1    C2 2860   1.101   3.912   9.590  0.3146 -0.3633 -0.2068
  188MPD1    C3 2861   1.169   3.827   9.678 -0.0464  0.2813 -0.6260
  188MPD1    C4 2862   1.292   3.864   9.721  0.1342 -0.4796 -0.4199
  188MPD1    C5 2863   1.359   3.964   9.661  0.4944  0.5338 -0.1565
  188MPD1     H 2864   1.003   3.888   9.552 -0.7380 -0.0128  2.2975
  188MPD1    H1 2865   1.352   3.791   9.774  0.6321 -0.5881 -1.1327
  188MPD1    H2 2866   1.346   4.134   9.530 -0.7173  1.4576  2.9879
  188MPD1    H3 2867   1.463   3.988   9.680  0.5375  0.4400 -0.2768
  188MPD1     N 2868   1.118   3.705   9.733  0.3751 -0.6682  0.0361
  188MPD1    H5 2869   1.165   3.657   9.809 -0.2948 -0.5374  0.5283
  188MPD1    N1 2870   1.104   4.084   9.409 -0.1916 -0.0567  0.4506
  188MPD1    H6 2871   1.147   4.173   9.386 -2.1722  1.4912  2.6966
  188MPD1    H7 2872   1.003   4.093   9.413 -0.4019 -1.5003 -1.6047
  189MPD1     C 2873   2.969   3.623  17.659 -0.4655  0.7223 -0.1372
  189MPD1    C1 2874   2.879   3.585   0.072 -0.2328 -0.2277  0.1426
  189MPD1    C2 2875   2.749   3.640   0.053 -0.4974  0.0907  0.4567
  189MPD1    C3 2876   2.719   3.744  17.656  0.2518 -0.5939  0.1289
  189MPD1    C4 2877   2.816   3.785  17.567 -0.8436 -0.3465 -0.4709
  189MPD1    C5 2878   2.938   3.720  17.575 -0.3967  0.5618 -0.0395
  189MPD1     H 2879   2.672   3.619   0.127 -0.7969 -0.9400 -0.1420
  189MPD1    H1 2880   2.807   3.867  17.496  0.5588  1.1292  1.0525
  189MPD1    H2 2881   3.067   3.576  17.651 -0.9631  0.3008 -3.4416
  189MPD1    H3 2882   3.007   3.750  17.498  0.2644  1.1055  0.7608
  189MPD1     N 2883   2.589   3.807  17.660  0.3520  0.8173 -0.1307
  189MPD1    H5 2884   2.525   3.756   0.033 -0.6308  3.3805  0.9855
  189MPD1    N1 2885   2.908   3.494   0.175 -0.5284  0.6406 -0.9473
  189MPD1    H6 2886   2.830   3.435   0.200 -2.2894  3.6476  0.6432
  189MPD1    H7 2887   2.995   3.442   0.168 -0.1704  1.0450  0.5293
  190MPD1     C 2888   2.000   1.904  16.004  0.1442 -0.6860 -0.3325
  190MPD1    C1 2889   2.054   1.974  15.893 -0.0951  0.2444 -0.0529
  190MPD1    C2 2890   2.023   2.100  15.875 -0.3381 -0.5292 -0.0981
  190MPD1    C3 2891   1.926   2.165  15.951 -0.3452 -0.3309 -0.3704
  190MPD1    C4 2892   1.869   2.102  16.055  0.2552  0.1982 -0.4367
  190MPD1    C5 2893   1.892   1.966  16.079 -0.9004  0.4854 -0.2890
  190MPD1     H 2894   2.082   2.156  15.803  2.2881 -1.7628  1.0620
  190MPD1    H1 2895   1.784   2.139  16.110 -0.3099 -2.3270  0.3813
  190MPD1    H2 2896   2.028   1.800  16.020  1.3165 -0.3616 -0.2808
  190MPD1    H3 2897   1.841   1.920  16.164  0.6367 -1.6992 -0.5411
  190MPD1     N 2898   1.911   2.304  15.927 -0.3981 -0.1673  0.4201
  190MPD1    H5 2899   1.946   2.336  15.838 -1.5147  3.0819  1.1666
  190MPD1    N1 2900   2.161   1.906  15.829  0.8721 -0.5176  0.6308
  190MPD1    H6 2901   2.138   1.807  15.828 -0.6570 -0.1618  0.3464
  190MPD1    H7 2902   2.157   1.922  15.729  0.6014  1.3036  0.9296
  191MPD1     C 2903   1.063   0.121  12.746 -0.3814  0.5822 -0.6726
  191MPD1    C1 2904   1.193   0.088  12.713  0.3050  0.0724  0.5957
  191MPD1    C2 2905   1.226   0.120  12.584 -1.1692 -0.3856 -0.1054
  191MPD1    C3 2906   1.147   0.200  12.494  0.3136  0.1277  0.0732
  191MPD1    C4 2907   1.026   0.236  12.538  0.1968 -0.0501  0.6456
  191MPD1    C5 2908   0.981   0.191  12.661 -0.9359  0.3068  0.4259
  191MPD1     H 2909   1.324   0.089  12.549 -0.8230 -1.9275  2.2444
  191MPD1    H1 2910   0.953   0.297  12.486 -0.1677 -1.6080 -0.7144
  191MPD1    H2 2911   1.027   0.094  12.844 -0.0512 -0.6740 -0.8977
  191MPD1    H3 2912   0.883   0.223  12.693 -1.0202  0.2826  0.1921
  191MPD1     N 2913   1.193   0.231  12.366  0.0039  0.0146 -0.0494
  191MPD1    H5 2914   1.290   0.214  12.344 -0.3139  1.8721 -2.8545
  191MPD1    N1 2915   1.268   0.005  12.796 -0.5750  0.4309  0.1346
  191MPD1    H6 2916   1.369   0.008  12.786 -0.2378  1.0918  3.6992
  191MPD1    H7 2917   1.262   0.025  12.896 -1.1072 -0.5051  0.2908
  192MPD1     C 2918   1.046   0.716  11.379 -0.4260  0.2777  0.2292
  192MPD1    C1 2919   0.954   0.683  11.474 -0.3540  0.0197  0.0010
  192MPD1    C2 2920   0.998   0.615  11.587 -0.3241  0.1332  0.2351
  192MPD1    C3 2921   1.134   0.586  11.605  0.3682 -0.1069  0.0220
  192MPD1    C4 2922   1.219   0.628  11.502 -0.4407  0.1946 -0.3153
  192MPD1    C5 2923   1.176   0.688  11.387 -0.2746  0.1429  0.0841
  192MPD1     H 2924   0.928   0.565  11.653 -1.9369  0.3161 -1.3369
  192MPD1    H1 2925   1.321   0.589  11.507 -0.7914 -0.8684 -1.3994
  192MPD1    H2 2926   1.014   0.762  11.287  0.5560  0.6352  0.0667
  192MPD1    H3 2927   1.243   0.712  11.306 -2.8569  1.8199 -1.5626
  192MPD1     N 2928   1.187   0.509  11.718  0.1220 -0.1021 -0.1038
  192MPD1    H5 2929   1.288   0.496  11.721  0.1451  0.4482  1.8640
  192MPD1    N1 2930   0.816   0.694  11.447 -0.0355  1.0678 -0.6422
  192MPD1    H6 2931   0.781   0.720  11.539 -1.9772 -1.4295 -0.6628
  192MPD1    H7 2932   0.801   0.772  11.384  1.6938 -0.0692 -2.4661
  193MPD1     C 2933   0.631   4.618  16.728 -0.3575  0.3556 -0.2738
  193MPD1    C1 2934   0.740   4.618  16.641 -0.1628 -0.4223  0.2854
  193MPD1    C2 2935   0.866   4.598  16.686  0.7314 -0.1312  0.3418
  193MPD1    C3 2936   0.888   4.565  16.820 -0.3424 -0.1566 -0.3784
  193MPD1    C4 2937   0.780   4.568  16.907 -1.0779  0.5183 -0.3913
  193MPD1    C5 2938   0.651   4.592  16.860 -0.4027  0.2651 -0.2749
  193MPD1     H 2939   0.956   4.595  16.626  0.4003  1.1695 -0.1996
  193MPD1    H1 2940   0.797   4.545  17.011 -0.9335 -0.0402 -0.5357
  193MPD1    H2 2941   0.529   4.646  16.707 -1.1918 -1.9472  0.7292
  193MPD1    H3 2942   0.562   4.591  16.921  0.0669 -0.1722  0.4022
  193MPD1     N 2943   1.020   4.542  16.870  0.2375  0.4405 -0.5975
  193MPD1    H5 2944   1.041   4.521  16.967  1.9082  0.2172 -1.0144
  193MPD1    N1 2945   0.716   4.658  16.507  0.1308  0.6137  0.1088
  193MPD1    H6 2946   0.631   4.615  16.472  0.7231 -0.6398  0.1996
  193MPD1    H7 2947   0.795   4.647  16.444  1.1413  2.1519  1.1065
  194MPD1     C 2948   3.050   1.990  17.201 -0.0543 -0.2605  0.2638
  194MPD1    C1 2949   2.936   1.947  17.259 -0.0360  0.1915 -0.4590
  194MPD1    C2 2950   2.905   1.812  17.233 -0.6155 -0.6663 -0.1822
  194MPD1    C3 2951   2.982   1.730  17.143  1.2887 -0.3064  0.8294
  194MPD1    C4 2952   3.086   1.790  17.081 -0.5816 -1.5262  0.4431
  194MPD1    C5 2953   3.127   1.919  17.107 -0.4305 -0.0544 -0.3686
  194MPD1     H 2954   2.814   1.779  17.282 -0.9872 -2.6070 -2.2138
  194MPD1    H1 2955   3.134   1.742  16.996 -2.5360 -2.8872  0.1051
  194MPD1    H2 2956   3.071   2.094  17.218  1.2070 -0.9078  2.5719
  194MPD1    H3 2957   3.215   1.966  17.065  1.9479 -2.2972  2.0979
  194MPD1     N 2958   2.957   1.592  17.121 -0.2891 -0.6456  0.4609
  194MPD1    H5 2959   3.020   1.555  17.051  2.1509  0.8047  1.9017
  194MPD1    N1 2960   2.871   2.018  17.361 -0.0717  0.3717  0.2085
  194MPD1    H6 2961   2.878   2.118  17.344 -0.3273  0.1613 -1.1688
  194MPD1    H7 2962   2.774   1.992  17.378 -0.3189 -0.1449 -2.0113
  195MPD1     C 2963   0.101   2.834  17.503 -0.5065  0.0060  0.3119
  195MPD1    C1 2964   0.195   2.754  17.435 -0.2245  0.3406 -0.0856
  195MPD1    C2 2965   0.208   2.621  17.459 -0.7003 -0.1667  0.6249
  195MPD1    C3 2966   0.123   2.566  17.556 -0.3227  0.2455 -0.5087
  195MPD1    C4 2967   0.036   2.651  17.631  0.0325  0.5179 -0.5043
  195MPD1    C5 2968   0.022   2.781  17.595 -1.7265 -0.9543  0.5582
  195MPD1     H 2969   0.262   2.560  17.388 -2.1225  0.1700 -0.7342
  195MPD1    H1 2970   4.692   2.612   0.022  1.5689 -0.1587  0.4563
  195MPD1    H2 2971   0.087   2.934  17.463 -2.4289 -1.3388 -2.4380
  195MPD1    H3 2972   4.669   2.840  17.648  0.7198  3.0473 -0.4698
  195MPD1     N 2973   0.132   2.430  17.590  0.1057  0.7567 -0.3944
  195MPD1    H5 2974   0.075   2.394  17.666 -0.8473  0.2507 -1.3442
  195MPD1    N1 2975   0.260   2.813  17.328  0.5128  0.1030 -0.1475
  195MPD1    H6 2976   0.336   2.747  17.312 -2.0134 -2.6345 -0.7873
  195MPD1    H7 2977   0.196   2.812  17.249 -1.6261 -0.0026  1.5826
  196MPD1     C 2978   0.226   2.907   0.762  0.0263 -0.2195 -0.4224
  196MPD1    C1 2979   0.314   2.847   0.850  0.0378  0.2741 -0.0338
  196MPD1    C2 2980   0.264   2.800   0.972  0.1883 -0.2573 -0.0721
  196MPD1    C3 2981   0.125   2.814   1.003 -0.1271  0.1950  0.3924
  196MPD1    C4 2982   0.048   2.890   0.915 -0.2639  0.3563 -0.1025
  196MPD1    C5 2983   0.095   2.934   0.796 -0.2492  0.4794 -0.0338
  196MPD1     H 2984   0.338   2.761   1.041  0.4289  0.4204  0.0549
  196MPD1    H1 2985   4.667   2.915   0.940 -0.9023 -0.5075 -1.9347
  196MPD1    H2 2986   0.261   2.942   0.666  0.1013 -0.7491 -0.5868
  196MPD1    H3 2987   0.019   2.979   0.732  0.1913 -0.6730 -1.3658
  196MPD1     N 2988   0.073   2.791   1.133  0.0557 -0.0861  0.1339
  196MPD1    H5 2989   4.704   2.835   1.146 -0.7728 -1.1161 -2.1555
  196MPD1    N1 2990   0.450   2.854   0.824  1.0324  0.1524 -0.1598
  196MPD1    H6 2991   0.455   2.817   0.729  0.5680  1.2904 -0.6176
  196MPD1    H7 2992   0.506   2.806   0.895 -1.3065 -2.2592  0.0486
  197MPD1     C 2993   4.203   0.512  17.582 -0.2512  0.0913 -0.1223
  197MPD1    C1 2994   4.100   0.595  17.551  0.5316  0.0124  0.4663
  197MPD1    C2 2995   4.099   0.665  17.435 -0.3367  0.3910  0.1163
  197MPD1    C3 2996   4.213   0.652  17.355  0.8440 -0.5573 -0.5041
  197MPD1    C4 2997   4.325   0.570  17.391 -0.1571  0.5951  0.1869
  197MPD1    C5 2998   4.316   0.506  17.511  0.1406  0.3273  0.0573
  197MPD1     H 2999   4.011   0.718  17.401 -1.0497 -0.4176  0.7050
  197MPD1    H1 3000   4.410   0.555  17.325 -1.6901 -0.0293 -1.6487
  197MPD1    H2 3001   4.194   0.449  17.669 -2.7316  0.3368 -0.1928
  197MPD1    H3 3002   4.393   0.443  17.554 -0.5231 -1.2056 -0.9740
  197MPD1     N 3003   4.223   0.705  17.222  0.0992 -0.2644  0.3796
  197MPD1    H5 3004   4.308   0.685  17.170  0.5249  0.7763  0.6832
  197MPD1    N1 3005   3.983   0.585  17.629  0.1993 -0.0506  0.3536
  197MPD1    H6 3006   3.926   0.670  17.621  0.0302  0.0226  2.2203
  197MPD1    H7 3007   3.994   0.559   0.040  0.2774 -0.5250  0.2142
  198MPD1     C 3008   1.214   4.464  15.816  0.0835 -0.1739  0.2199
  198MPD1    C1 3009   1.267   4.468  15.941 -0.0553 -0.1364 -0.3664
  198MPD1    C2 3010   1.402   4.496  15.947 -0.2301  0.6993 -0.0278
  198MPD1    C3 3011   1.487   4.502  15.836  0.2133  0.4121 -0.2648
  198MPD1    C4 3012   1.430   4.490  15.711  0.4780 -0.3610 -0.2365
  198MPD1    C5 3013   1.298   4.471  15.706 -0.1352 -0.5379 -0.9574
  198MPD1     H 3014   1.454   4.509  16.041  0.9229 -0.2158 -0.5484
  198MPD1    H1 3015   1.484   4.482  15.617  0.2868 -0.1093 -0.3675
  198MPD1    H2 3016   1.106   4.458  15.812  0.0154  1.3977 -0.6610
  198MPD1    H3 3017   1.258   4.462  15.605 -0.4539 -0.7079 -0.8180
  198MPD1     N 3018   1.630   4.515  15.854  0.0525 -0.1767  0.4999
  198MPD1    H5 3019   1.657   4.522  15.952  2.2128 -0.0104 -0.0903
  198MPD1    N1 3020   1.184   4.473  16.058 -0.0570  0.2444  0.0245
  198MPD1    H6 3021   1.099   4.417  16.049 -0.2882  0.4694  0.8413
  198MPD1    H7 3022   1.231   4.434  16.139 -0.1700 -1.1551 -0.5872
  199MPD1     C 3023   4.303   0.477   9.904  0.2530  0.0364  0.3280
  199MPD1    C1 3024   4.193   0.552   9.875  1.0078  0.2234  0.0984
  199MPD1    C2 3025   4.071   0.514   9.931  0.3916  1.2933  0.3976
  199MPD1    C3 3026   4.054   0.403  10.004 -0.4381 -0.3129  0.4307
  199MPD1    C4 3027   4.161   0.319  10.013 -0.6111 -0.0057 -0.0260
  199MPD1    C5 3028   4.285   0.358   9.968 -0.0026 -0.2884 -0.4429
  199MPD1     H 3029   3.987   0.583   9.927  0.3604  1.1973 -0.5084
  199MPD1    H1 3030   4.153   0.221  10.059  1.4620 -0.0961  0.1313
  199MPD1    H2 3031   4.401   0.504   9.867  0.2826  1.5992  1.5558
  199MPD1    H3 3032   4.364   0.299  10.013 -0.5942 -0.7463 -0.0045
  199MPD1     N 3033   3.933   0.352  10.064 -0.3692  0.1460  0.0895
  199MPD1    H5 3034   3.947   0.271  10.124  0.6456 -0.8489 -1.4907
  199MPD1    N1 3035   4.211   0.678   9.822  0.0058 -0.3802 -0.1975
  199MPD1    H6 3036   4.131   0.726   9.782 -1.9859 -2.1443  1.6469
  199MPD1    H7 3037   4.297   0.694   9.769 -0.7681 -1.6405 -1.8061
  200MPD1     C 3038   2.786   0.205  15.217 -0.1656 -0.8251 -1.1526
  200MPD1    C1 3039   2.791   0.337  15.204  0.2345  0.3088  1.0093
  200MPD1    C2 3040   2.841   0.403  15.090  0.4786  0.2562 -0.3729
  200MPD1    C3 3041   2.884   0.323  14.980  0.8910  0.4668  0.6391
  200MPD1    C4 3042   2.889   0.196  15.001  0.1370 -0.4597 -0.2895
  200MPD1    C5 3043   2.838   0.132  15.112 -0.0668 -0.7834  0.9902
  200MPD1     H 3044   2.847   0.511  15.088  2.0816  0.1620 -0.5988
  200MPD1    H1 3045   2.932   0.131  14.926  2.4904  1.7994 -0.8963
  200MPD1    H2 3046   2.750   0.155  15.306 -2.0034 -0.2919 -1.5788
  200MPD1    H3 3047   2.854   0.025  15.119 -0.1484 -0.8905 -0.3932
  200MPD1     N 3048   2.947   0.375  14.864 -0.7835  0.4586 -0.1822
  200MPD1    H5 3049   2.951   0.477  14.859 -1.2217  0.3589 -2.4503
  200MPD1    N1 3050   2.702   0.415  15.282  0.3666 -0.2011 -0.1539
  200MPD1    H6 3051   2.677   0.382  15.375 -0.7373 -1.7257 -0.9960
  200MPD1    H7 3052   2.741   0.509  15.284  1.2689 -0.5687 -0.2145
  201MPD1     C 3053   4.644   3.566  12.694  0.6012  0.2306  0.1878
  201MPD1    C1 3054   4.697   3.685  12.740  0.4944 -0.0384 -0.1517
  201MPD1    C2 3055   0.103   3.684  12.791 -0.3911  0.6086 -0.1180
  201MPD1    C3 3056   0.178   3.574  12.790  0.5686 -0.0386  0.2968
  201MPD1    C4 3057   0.132   3.456  12.733 -0.2770  0.8190  0.8221
  201MPD1    C5 3058   4.721   3.450  12.693  0.6673  0.6379  0.0301
  201MPD1     H 3059   0.140   3.778  12.830  1.1173 -1.2106  2.8191
  201MPD1    H1 3060   0.189   3.365  12.722  0.9936  1.5411  1.3657
  201MPD1    H2 3061   4.541   3.549  12.664  0.3856 -1.7448  2.0840
  201MPD1    H3 3062   4.678   3.358  12.656 -0.8843  2.4818 -2.7206
  201MPD1     N 3063   0.302   3.559  12.857  0.1873 -0.4919  0.5669
  201MPD1    H5 3064   0.344   3.467  12.851  1.9228  0.4347 -1.4196
  201MPD1    N1 3065   4.598   3.784  12.761 -0.2976 -0.4255 -0.7773
  201MPD1    H6 3066   4.526   3.775  12.690 -1.3653  0.7101  0.1548
  201MPD1    H7 3067   4.551   3.780  12.851 -2.6911  2.6255 -1.9065
  202MPD1     C 3068   4.359   3.567   8.931 -0.2501  0.1727  0.3986
  202MPD1    C1 3069   4.413   3.446   8.959  0.1784  0.1481  0.7598
  202MPD1    C2 3070   4.470   3.443   9.085 -0.8317 -0.0873 -0.4871
  202MPD1    C3 3071   4.450   3.540   9.179  0.5980  0.4141  0.5304
  202MPD1    C4 3072   4.386   3.658   9.152  0.0462  0.4444  0.3232
  202MPD1    C5 3073   4.337   3.662   9.024  0.1588 -0.9306  0.7169
  202MPD1     H 3074   4.526   3.355   9.115 -0.8014  0.2010  0.2992
  202MPD1    H1 3075   4.377   3.744   9.217  3.5884  0.0605  1.2771
  202MPD1    H2 3076   4.324   3.592   8.831 -0.2075  1.4566  0.7076
  202MPD1    H3 3077   4.287   3.754   8.995  0.0091 -0.7924  1.4098
  202MPD1     N 3078   4.511   3.537   9.309  0.2279 -0.7024 -0.0137
  202MPD1    H5 3079   4.501   3.621   9.365  0.9387 -0.4907 -0.2114
  202MPD1    N1 3080   4.478   3.373   8.856 -0.6130 -0.1737  0.1807
  202MPD1    H6 3081   4.502   3.275   8.870  0.5706  0.4997  2.8756
  202MPD1    H7 3082   4.437   3.381   8.763  0.0068 -1.4603 -0.1943
  203MPD1     C 3083   3.948   4.416  12.664 -0.4839 -0.2480  0.0601
  203MPD1    C1 3084   3.928   4.383  12.794 -0.0012  0.1820 -0.1172
  203MPD1    C2 3085   3.949   4.252  12.826 -0.2928  0.6487 -0.4803
  203MPD1    C3 3086   3.992   4.157  12.730  0.5565 -0.3821  0.2957
  203MPD1    C4 3087   4.006   4.188  12.599 -0.1286 -0.4533 -0.1115
  203MPD1    C5 3088   3.988   4.323  12.566  0.4054  0.2220 -0.4790
  203MPD1     H 3089   3.943   4.223  12.931 -0.7170 -1.5059 -1.0911
  203MPD1    H1 3090   4.052   4.124  12.524 -0.9585  0.1482 -1.1478
  203MPD1    H2 3091   3.944   4.521  12.635  0.5540 -0.2504 -0.0903
  203MPD1    H3 3092   4.003   4.355  12.464  2.8654  1.4483  0.2559
  203MPD1     N 3093   4.035   4.026  12.774 -0.4873 -0.0095 -0.1386
  203MPD1    H5 3094   4.003   4.009  12.869 -2.9407 -2.8230 -1.4866
  203MPD1    N1 3095   3.916   4.482  12.894 -0.2006  0.4644  0.0400
  203MPD1    H6 3096   3.882   4.576  12.875 -2.4433 -0.6654 -1.6112
  203MPD1    H7 3097   3.864   4.453  12.977 -0.6184  0.4908 -0.2125
  204MPD1     C 3098   2.755   0.194   0.585 -0.0062  0.2585  0.5743
  204MPD1    C1 3099   2.788   0.216   0.450 -0.4012  0.1439  0.0355
  204MPD1    C2 3100   2.853   0.106   0.396 -0.4302  0.2700 -0.0854
  204MPD1    C3 3101   2.910   0.001   0.472 -0.3103  0.4959 -0.3800
  204MPD1    C4 3102   2.895   0.005   0.609 -0.8228 -0.2028  0.3172
  204MPD1    C5 3103   2.808   0.096   0.657  0.3140 -0.0815  0.1458
  204MPD1     H 3104   2.877   0.103   0.290 -0.4087  0.6631 -0.0922
  204MPD1    H1 3105   2.942   4.661   0.682  1.7179  0.0815 -1.0373
  204MPD1    H2 3106   2.684   0.258   0.637  1.1094  1.3603  0.7381
  204MPD1    H3 3107   2.779   0.097   0.761 -0.5012  1.5130 -0.0994
  204MPD1     N 3108   2.975   4.617   0.404 -0.3550  0.0669 -0.4508
  204MPD1    H5 3109   2.972   4.621   0.303  1.3139 -0.8597 -0.5350
  204MPD1    N1 3110   2.718   0.308   0.363  0.2379  0.3011  0.0661
  204MPD1    H6 3111   2.690   0.389   0.417 -0.6517 -0.2151  0.3861
  204MPD1    H7 3112   2.769   0.338   0.280 -0.0514  2.2048  0.5912
  205MPD1     C 3113   3.215   2.974   0.061  0.0737  0.0347 -0.1518
  205MPD1    C1 3114   3.285   2.939   0.173 -0.1109  0.2182  0.1909
  205MPD1    C2 3115   3.385   3.023   0.226 -0.9573 -0.3487 -0.5739
  205MPD1    C3 3116   3.416   3.147   0.171  0.6118 -0.4307 -0.0189
  205MPD1    C4 3117   3.328   3.192   0.075  0.2173 -0.2122  0.2831
  205MPD1    C5 3118   3.237   3.101   0.022 -0.1514 -0.0825  0.3758
  205MPD1     H 3119   3.453   2.982   0.300 -1.2050  0.9336  0.3503
  205MPD1    H1 3120   3.352   3.284   0.025 -2.0166 -0.5953 -1.4744
  205MPD1    H2 3121   3.149   2.903   0.013 -0.5117  1.0537 -0.8460
  205MPD1    H3 3122   3.180   3.132  17.622  0.1118  1.1044  0.6215
  205MPD1     N 3123   3.516   3.240   0.217 -0.2839  0.5175  0.2127
  205MPD1    H5 3124   3.514   3.333   0.176 -0.8830  1.1716  1.7197
  205MPD1    N1 3125   3.269   2.805   0.225  0.6300 -0.0088 -0.6193
  205MPD1    H6 3126   3.175   2.765   0.218  0.6446 -0.3516  1.2589
  205MPD1    H7 3127   3.299   2.793   0.321  0.2121  1.6144 -0.2885
  206MPD1     C 3128   3.421   1.784  16.930  0.1943 -0.3353 -0.6737
  206MPD1    C1 3129   3.402   1.675  16.844 -0.0580 -0.0952 -0.1086
  206MPD1    C2 3130   3.353   1.701  16.715  0.0539 -0.3827  0.5462
  206MPD1    C3 3131   3.357   1.829  16.662 -0.2986  0.0426  0.4772
  206MPD1    C4 3132   3.392   1.933  16.748  0.6013 -0.2223  0.1079
  206MPD1    C5 3133   3.415   1.914  16.885 -0.4077 -0.1665 -0.1152
  206MPD1     H 3134   3.329   1.616  16.652 -0.6260 -0.4551  0.9022
  206MPD1    H1 3135   3.420   2.029  16.708 -1.9654  0.0914 -0.9840
  206MPD1    H2 3136   3.428   1.766  17.036  0.1071  0.8119 -0.4693
  206MPD1    H3 3137   3.455   1.998  16.941  1.6795 -0.1551 -1.6187
  206MPD1     N 3138   3.330   1.863  16.529 -0.2174 -0.4622  0.7038
  206MPD1    H5 3139   3.326   1.962  16.506  0.0407 -0.5023  0.4825
  206MPD1    N1 3140   3.376   1.552  16.905  0.0478 -0.0271  0.3204
  206MPD1    H6 3141   3.437   1.536  16.984  0.6033  1.2416  0.1541
  206MPD1    H7 3142   3.414   1.484  16.840  3.9056  0.4385  2.0718
  207MPD1     C 3143   0.382   4.514   9.732  0.0082  0.1500  0.0753
  207MPD1    C1 3144   0.452   4.410   9.786 -0.3981 -0.4714 -0.1878
  207MPD1    C2 3145   0.572   4.442   9.846  0.1477  0.5376  0.2669
  207MPD1    C3 3146   0.592   4.576   9.894 -0.1442  0.1002  0.1321
  207MPD1    C4 3147   0.507   4.673   9.847 -0.3964 -0.4216 -0.0486
  207MPD1    C5 3148   0.404   4.641   9.765 -0.1591  0.3734  0.6177
  207MPD1     H 3149   0.640   4.362   9.874 -1.1715 -0.7672 -0.2500
  207MPD1    H1 3150   0.521   0.057   9.872 -0.0325 -0.6014  0.5072
  207MPD1    H2 3151   0.297   4.481   9.673  0.3422  1.0252 -0.8937
  207MPD1    H3 3152   0.334   4.715   9.728 -0.0510 -0.2260 -0.7982
  207MPD1     N 3153   0.698   4.615   9.973  0.3528  0.2629 -0.6649
  207MPD1    H5 3154   0.695   4.704  10.022  0.9584  0.0833 -0.3094
  207MPD1    N1 3155   0.420   4.281   9.738 -0.0765  0.0754 -0.6172
  207MPD1    H6 3156   0.319   4.282   9.728  0.0622  1.6976 -1.7475
  207MPD1    H7 3157   0.440   4.206   9.804 -1.0174  1.3222  1.0713
  208MPD1     C 3158   0.200   4.038   1.550  0.6901 -0.2464  0.9838
  208MPD1    C1 3159   0.212   3.916   1.484 -0.1689  0.1143  0.1210
  208MPD1    C2 3160   0.098   3.840   1.468 -0.3218 -0.8040  0.1528
  208MPD1    C3 3161   4.696   3.883   1.508 -0.3101  0.2581 -0.2890
  208MPD1    C4 3162   4.688   4.005   1.577 -0.5813  0.5501  0.1028
  208MPD1    C5 3163   0.080   4.077   1.599  0.0729 -0.1601  0.3215
  208MPD1     H 3164   0.097   3.739   1.431 -3.2248  0.4495 -3.1630
  208MPD1    H1 3165   4.596   4.059   1.593 -0.7040 -0.0225  1.3245
  208MPD1    H2 3166   0.284   4.100   1.580  2.2373 -1.8079 -0.1330
  208MPD1    H3 3167   0.061   4.168   1.655  2.7094  0.4999  0.1401
  208MPD1     N 3168   4.587   3.793   1.493 -0.4688 -0.1580  0.6677
  208MPD1    H5 3169   4.612   3.700   1.459  0.0744 -0.7573  2.7053
  208MPD1    N1 3170   0.338   3.857   1.469 -0.5747 -0.3338 -0.5543
  208MPD1    H6 3171   0.416   3.918   1.444  0.7512 -2.8371 -2.5054
  208MPD1    H7 3172   0.333   3.780   1.403 -1.6566 -0.6890 -0.0563
  209MPD1     C 3173   1.824   4.165  11.533 -0.5387  0.0760 -0.0851
  209MPD1    C1 3174   1.836   4.300  11.525  0.1261  0.3768  0.5805
  209MPD1    C2 3175   1.817   4.369  11.407 -0.3585 -0.3875  0.3106
  209MPD1    C3 3176   1.797   4.304  11.288  0.7831  0.4124  0.4218
  209MPD1    C4 3177   1.806   4.168  11.291 -0.2977 -0.2237  0.7740
  209MPD1    C5 3178   1.811   4.103  11.413  0.5680  0.3508 -0.0871
  209MPD1     H 3179   1.810   4.477  11.416  0.1427 -0.2019 -1.6241
  209MPD1    H1 3180   1.771   4.108  11.207  0.5077  2.1547 -1.2906
  209MPD1    H2 3181   1.827   4.109  11.626 -0.8302  0.1766 -0.0137
  209MPD1    H3 3182   1.799   3.995  11.416 -1.7814  0.5148 -3.5680
  209MPD1     N 3183   1.774   4.377  11.168 -0.1260  0.7037 -0.4075
  209MPD1    H5 3184   1.772   4.474  11.198 -1.9480  0.5378 -0.0168
  209MPD1    N1 3185   1.864   4.375  11.642 -0.3703  0.4050 -0.0777
  209MPD1    H6 3186   1.825   4.345  11.730  1.4231 -2.2739 -0.1971
  209MPD1    H7 3187   1.839   4.474  11.632  0.4140  0.7268  1.1512
  210MPD1     C 3188   2.088   0.440  11.120  0.0942  0.3671 -0.3752
  210MPD1    C1 3189   2.055   0.426  10.987  0.0925 -0.4217  0.3280
  210MPD1    C2 3190   1.985   0.313  10.940 -0.3094 -0.3491 -0.0617
  210MPD1    C3 3191   1.951   0.210  11.027 -1.1864  0.1502  0.2370
  210MPD1    C4 3192   1.983   0.231  11.161 -1.1047  0.3263  0.4064
  210MPD1    C5 3193   2.041   0.342  11.205  0.0269 -0.1632  0.3728
  210MPD1     H 3194   1.973   0.305  10.832  0.3763  0.5701 -0.2024
  210MPD1    H1 3195   1.967   0.147  11.229  1.2852 -0.9404 -0.5988
  210MPD1    H2 3196   2.142   0.528  11.152 -0.9463  0.5331  0.9088
  210MPD1    H3 3197   2.051   0.354  11.312  1.4295  1.5795  0.0355
  210MPD1     N 3198   1.875   0.093  10.993 -0.0981  0.8461  0.5771
  210MPD1    H5 3199   1.861   0.027  11.068 -0.3103  1.8882  1.4673
  210MPD1    N1 3200   2.098   0.535  10.903  0.2067  0.2365  0.2600
  210MPD1    H6 3201   2.115   0.627  10.942  0.2272 -0.4100  1.7553
  210MPD1    H7 3202   2.029   0.539  10.827  0.3446  1.2158  0.1921
  211MPD1     C 3203   4.096   3.376  17.087 -0.0963  0.2176  0.0912
  211MPD1    C1 3204   4.067   3.509  17.119  0.3611 -0.3378  0.3235
  211MPD1    C2 3205   4.016   3.598  17.023  0.6931  0.1854  1.1979
  211MPD1    C3 3206   3.993   3.547  16.893  0.7585  0.5871  0.1170
  211MPD1    C4 3207   4.007   3.412  16.870  0.1652 -0.6520  0.4816
  211MPD1    C5 3208   4.052   3.327  16.965  0.0467  0.1638 -0.1027
  211MPD1     H 3209   4.007   3.705  17.041  1.5175  0.5955 -0.8065
  211MPD1    H1 3210   3.988   3.362  16.776 -0.8014  0.4274  0.1017
  211MPD1    H2 3211   4.138   3.309  17.161 -3.3863  0.2689  1.9632
  211MPD1    H3 3212   4.074   3.223  16.942 -1.4723 -0.1518 -0.1021
  211MPD1     N 3213   3.929   3.634  16.801 -0.1474  0.2276 -0.0426
  211MPD1    H5 3214   3.913   3.726  16.840 -0.7843 -0.7022  1.8776
  211MPD1    N1 3215   4.124   3.550  17.242  0.5965  0.0336 -0.1969
  211MPD1    H6 3216   4.143   3.476  17.309 -2.3805  0.7969  1.4901
  211MPD1    H7 3217   4.064   3.614  17.293  0.0985 -0.0527 -0.6717
  212MPD1     C 3218   3.125   2.320  16.938 -0.2669 -0.0040 -0.4168
  212MPD1    C1 3219   3.019   2.364  17.016  0.6277 -0.0797  0.0455
  212MPD1    C2 3220   2.898   2.293  17.024  0.3365  0.0180  0.3946
  212MPD1    C3 3221   2.891   2.163  16.968 -0.0760 -1.0057  0.5308
  212MPD1    C4 3222   2.999   2.123  16.882  0.0184  0.0964 -0.8658
  212MPD1    C5 3223   3.115   2.196  16.871  0.0197  0.5118  0.7247
  212MPD1     H 3224   2.814   2.342  17.073  1.2941  0.7106  1.3837
  212MPD1    H1 3225   2.991   2.025  16.837  1.1751  0.2924 -1.4986
  212MPD1    H2 3226   3.212   2.383  16.923 -0.4595  0.1920 -0.7173
  212MPD1    H3 3227   3.193   2.157  16.807 -0.8152 -3.8129  2.3567
  212MPD1     N 3228   2.789   2.068  16.988 -0.2288 -0.1122  0.0623
  212MPD1    H5 3229   2.791   1.982  16.934  0.6302 -0.5776  0.8179
  212MPD1    N1 3230   3.038   2.475  17.095  0.0533  0.2180  0.1612
  212MPD1    H6 3231   2.949   2.520  17.113 -0.9955 -2.1293  0.8993
  212MPD1    H7 3232   3.110   2.534  17.055  1.5846 -1.2960  0.6605
  213MPD1     C 3233   1.439   3.776  16.165  0.3053 -0.3808  0.1359
  213MPD1    C1 3234   1.522   3.752  16.057  0.0293 -0.0555  0.6406
  213MPD1    C2 3235   1.448   3.758  15.934  0.0510 -0.4148 -0.4287
  213MPD1    C3 3236   1.316   3.721  15.927  0.0422 -0.0294 -0.1704
  213MPD1    C4 3237   1.245   3.708  16.038 -1.0861 -0.4050  0.4155
  213MPD1    C5 3238   1.306   3.738  16.151 -0.4462 -0.8068 -0.1247
  213MPD1     H 3239   1.502   3.765  15.840 -2.2350 -0.7333 -1.7542
  213MPD1    H1 3240   1.138   3.694  16.041 -1.1148 -0.4172 -0.4732
  213MPD1    H2 3241   1.471   3.788  16.268  0.1184  0.5629  0.0783
  213MPD1    H3 3242   1.235   3.731  16.233  1.6775  0.5659  1.8343
  213MPD1     N 3243   1.262   3.702  15.796 -0.0613 -0.3017  0.0225
  213MPD1    H5 3244   1.320   3.722  15.714  0.5890  0.6349  0.7140
  213MPD1    N1 3245   1.651   3.807  16.073 -0.4760  0.6962  0.3554
  213MPD1    H6 3246   1.695   3.786  16.162  0.5660 -2.3007 -0.8643
  213MPD1    H7 3247   1.718   3.775  16.004 -2.1143  0.1664 -0.9948
  214MPD1     C 3248   0.641   2.936  15.323  0.6082  0.1376  0.2910
  214MPD1    C1 3249   0.748   2.970  15.242  0.1518  0.2726  0.2016
  214MPD1    C2 3250   0.841   3.063  15.289 -0.1398  0.0552 -0.3153
  214MPD1    C3 3251   0.806   3.143  15.393  0.4272 -0.0002  0.2442
  214MPD1    C4 3252   0.690   3.112  15.464 -0.0735 -0.1026  0.7333
  214MPD1    C5 3253   0.610   3.003  15.437  0.2699  0.5152 -0.2691
  214MPD1     H 3254   0.936   3.069  15.238 -0.2624  1.3554 -0.3835
  214MPD1    H1 3255   0.668   3.156  15.560 -0.8682 -0.7213  0.8348
  214MPD1    H2 3256   0.595   2.843  15.293 -1.0843  1.6660 -1.8924
  214MPD1    H3 3257   0.533   2.966  15.503  0.5202  0.4801  0.0044
  214MPD1     N 3258   0.896   3.251  15.412 -0.1897 -0.2116  0.4172
  214MPD1    H5 3259   0.983   3.251  15.359 -0.7602 -4.4365 -0.4745
  214MPD1    N1 3260   0.799   2.880  15.151  0.4310  0.5809  0.3661
  214MPD1    H6 3261   0.855   2.925  15.078 -1.9463  1.6852 -0.7725
  214MPD1    H7 3262   0.729   2.821  15.107  1.3294 -0.7121  0.6560
  215MPD1     C 3263   1.514   3.525  10.618  0.0667 -0.3694 -0.0045
  215MPD1    C1 3264   1.509   3.656  10.579 -0.4205 -0.2965  0.0631
  215MPD1    C2 3265   1.522   3.750  10.681  0.2475 -0.4252 -0.0626
  215MPD1    C3 3266   1.530   3.717  10.812 -0.2288  0.1910  0.0418
  215MPD1    C4 3267   1.519   3.586  10.853 -0.4071 -0.3760  0.4833
  215MPD1    C5 3268   1.522   3.493  10.749  0.5343 -0.0897  0.5697
  215MPD1     H 3269   1.531   3.857  10.664 -0.5238 -0.2756  0.5036
  215MPD1    H1 3270   1.523   3.548  10.954 -1.1368  0.2994  0.7642
  215MPD1    H2 3271   1.516   3.439  10.551 -1.2066  1.5439 -2.5221
  215MPD1    H3 3272   1.521   3.387  10.771  0.7475 -0.0978  0.5424
  215MPD1     N 3273   1.545   3.825  10.900  0.1238  0.1248  0.9076
  215MPD1    H5 3274   1.562   3.917  10.860 -2.2074 -1.1127 -2.8858
  215MPD1    N1 3275   1.503   3.687  10.444  0.3855 -0.0938 -0.2124
  215MPD1    H6 3276   1.458   3.611  10.394  0.6966 -0.1252 -0.4435
  215MPD1    H7 3277   1.456   3.776  10.428  0.1087  0.0829  1.5516
  216MPD1     C 3278   2.257   2.335  17.558 -0.4051 -0.5328  0.6735
  216MPD1    C1 3279   2.359   2.251  17.550  0.1790 -0.3804  0.0904
  216MPD1    C2 3280   2.330   2.110  17.550 -0.6075  0.4459  0.7051
  216MPD1    C3 3281   2.196   2.070  17.559 -0.0523 -1.0466 -0.0591
  216MPD1    C4 3282   2.102   2.163  17.582 -0.3272  0.3436 -0.3141
  216MPD1    C5 3283   2.129   2.294  17.579  0.5236 -0.5510 -0.7611
  216MPD1     H 3284   2.415   2.042  17.550 -0.9164  0.0685  0.2955
  216MPD1    H1 3285   1.996   2.141  17.580 -0.0275 -1.1535  0.6250
  216MPD1    H2 3286   2.275   2.442  17.550 -1.8851 -0.3867 -0.6006
  216MPD1    H3 3287   2.051   2.369  17.586  2.6266  1.5595 -0.1351
  216MPD1     N 3288   2.166   1.928  17.566  0.1808  0.0615 -0.0206
  216MPD1    H5 3289   2.244   1.870  17.538 -1.1173 -2.3707  1.4273
  216MPD1    N1 3290   2.487   2.311  17.524 -0.4776 -0.3827  0.7740
  216MPD1    H6 3291   2.563   2.255  17.563 -0.6634  0.5366  2.4574
  216MPD1    H7 3292   2.499   2.406  17.558  1.3661  0.2490 -1.6459
  217MPD1     C 3293   3.904   4.379   8.560 -0.1324 -0.5309 -0.0383
  217MPD1    C1 3294   3.858   4.424   8.676 -0.0279 -0.1668  0.0921
  217MPD1    C2 3295   3.874   4.359   8.799  0.3196  0.5543  0.3836
  217MPD1    C3 3296   3.912   4.225   8.798  0.4160 -0.0703 -0.4541
  217MPD1    C4 3297   3.942   4.165   8.676  0.3313  1.0605  0.2066
  217MPD1    C5 3298   3.933   4.243   8.560  0.0850 -0.1786  0.0238
  217MPD1     H 3299   3.840   4.403   8.892  2.1163  1.3989  0.6268
  217MPD1    H1 3300   3.969   4.061   8.665 -0.3247  0.6432  2.3951
  217MPD1    H2 3301   3.898   4.434   8.467 -1.2370  1.9335  1.4772
  217MPD1    H3 3302   3.971   4.203   8.467  0.0814 -2.7877  1.1450
  217MPD1     N 3303   3.907   4.139   8.914 -0.0427 -0.1035  0.0653
  217MPD1    H5 3304   3.944   4.045   8.904  2.0784  0.5443  1.7655
  217MPD1    N1 3305   3.811   4.555   8.681 -0.5908  0.2086  0.1513
  217MPD1    H6 3306   3.764   4.588   8.597 -0.1435  0.3753 -0.0358
  217MPD1    H7 3307   3.743   4.571   8.755 -1.1992 -0.9354 -0.1725
  218MPD1     C 3308   0.632   4.609  12.870 -0.9201 -0.0270 -0.0662
  218MPD1    C1 3309   0.604   4.482  12.908  0.5939 -0.3283  0.6655
  218MPD1    C2 3310   0.694   4.384  12.871 -0.0352  0.0152 -0.3705
  218MPD1    C3 3311   0.816   4.420  12.820 -0.1963 -0.1983  0.1400
  218MPD1    C4 3312   0.850   4.554  12.803  0.5061  0.1528 -0.3352
  218MPD1    C5 3313   0.753   4.647  12.822  1.0004  0.7064 -0.7993
  218MPD1     H 3314   0.674   4.277  12.879 -1.3101  0.2746 -0.0769
  218MPD1    H1 3315   0.943   4.582  12.754 -0.2143  1.0149 -1.2300
  218MPD1    H2 3316   0.559   4.689  12.877  0.0399  0.7646  0.9027
  218MPD1    H3 3317   0.772   0.030  12.796  0.5552  1.1268  0.5669
  218MPD1     N 3318   0.918   4.327  12.785 -0.1177 -0.1997  0.4547
  218MPD1    H5 3319   1.003   4.368  12.749 -1.5008  0.1026 -2.4442
  218MPD1    N1 3320   0.469   4.455  12.947  0.4759 -0.2565 -0.2822
  218MPD1    H6 3321   0.435   4.536  12.998  1.3450 -0.6504  0.9372
  218MPD1    H7 3322   0.467   4.372  13.006  1.0250 -0.9936 -1.3098
  219MPD1     C 3323   1.361   4.533  12.116  0.3551 -0.7854  0.3612
  219MPD1    C1 3324   1.436   4.520  12.230  0.2158  0.4593 -0.4815
  219MPD1    C2 3325   1.389   4.444  12.331 -0.5597 -0.1010  0.3163
  219MPD1    C3 3326   1.275   4.374  12.314  0.0024 -0.5793 -0.4700
  219MPD1    C4 3327   1.203   4.378  12.202  0.2132 -0.4355  0.4227
  219MPD1    C5 3328   1.241   4.468  12.116  0.5321  0.2332 -0.0677
  219MPD1     H 3329   1.441   4.442  12.426 -0.5151  0.0446  0.2945
  219MPD1    H1 3330   1.115   4.321  12.176  0.4115 -0.9341  0.8320
  219MPD1    H2 3331   1.384   4.607  12.041 -1.7203 -0.5820 -0.0783
  219MPD1    H3 3332   1.171   4.483  12.035 -1.3992 -1.7230  1.2613
  219MPD1     N 3333   1.230   4.279  12.408 -0.0010  0.3555  0.2435
  219MPD1    H5 3334   1.137   4.240  12.397 -0.1720  1.0348 -0.7955
  219MPD1    N1 3335   1.548   4.600  12.254 -0.0902  0.7142 -0.1189
  219MPD1    H6 3336   1.617   4.602  12.180 -2.3707  2.2241 -2.2176
  219MPD1    H7 3337   1.596   4.582  12.342  2.1969  2.2128 -1.0659
  220MPD1     C 3338   1.041   3.401  10.612  0.0257  0.2652 -0.2420
  220MPD1    C1 3339   1.115   3.514  10.650 -0.4147  0.8426  0.1773
  220MPD1    C2 3340   1.082   3.635  10.595  0.3051 -0.0260  0.7017
  220MPD1    C3 3341   0.998   3.635  10.485 -0.6402 -0.3196  0.5034
  220MPD1    C4 3342   0.932   3.518  10.442 -0.1553 -0.6378  0.4402
  220MPD1    C5 3343   0.942   3.411  10.518  0.5950 -0.1986 -0.0482
  220MPD1     H 3344   1.130   3.721  10.640  1.7309 -0.2499 -0.3825
  220MPD1    H1 3345   0.868   3.514  10.355 -0.3224 -1.6233  0.6151
  220MPD1    H2 3346   1.060   3.303  10.654  0.6381 -0.0306 -1.2195
  220MPD1    H3 3347   0.884   3.321  10.498  3.6207 -2.0806 -0.3735
  220MPD1     N 3348   0.958   3.762  10.438 -0.1746 -0.5894  0.3750
  220MPD1    H5 3349   0.988   3.835  10.502  0.4692 -0.1434 -0.4359
  220MPD1    N1 3350   1.201   3.512  10.761  0.2049 -0.1689 -0.2353
  220MPD1    H6 3351   1.246   3.422  10.776 -2.7228 -1.9828 -2.3526
  220MPD1    H7 3352   1.268   3.588  10.761 -1.6581  1.4705  0.6985
  221MPD1     C 3353   3.504   2.990  17.475  0.0459  0.2710 -0.6083
  221MPD1    C1 3354   3.631   2.933  17.463  0.1837  0.2186 -0.1881
  221MPD1    C2 3355   3.679   2.919  17.336  0.4316 -0.7852 -0.4012
  221MPD1    C3 3356   3.611   2.965  17.228 -0.2119  0.0649 -0.1737
  221MPD1    C4 3357   3.497   3.043  17.246  0.4302 -0.4018 -0.2744
  221MPD1    C5 3358   3.448   3.059  17.372  0.9645 -0.0192  0.5640
  221MPD1     H 3359   3.772   2.867  17.319  0.5663 -1.3103  1.9469
  221MPD1    H1 3360   3.436   3.086  17.168 -0.2074  0.5509  0.7459
  221MPD1    H2 3361   3.466   3.002  17.576 -1.7337  0.5052 -1.3168
  221MPD1    H3 3362   3.354   3.114  17.372  0.1978 -1.3575 -1.1838
  221MPD1     N 3363   3.657   2.950  17.088 -0.4524 -0.4335 -0.1487
  221MPD1    H5 3364   3.612   3.002  17.013 -0.8306 -0.3030  0.1720
  221MPD1    N1 3365   3.685   2.864  17.574 -0.1763 -0.1431  0.5726
  221MPD1    H6 3366   3.784   2.887  17.575 -0.2813  0.5075 -3.5647
  221MPD1    H7 3367   3.654   2.904  17.662  1.2089  3.1039 -0.4097
  222MPD1     C 3368   2.438   2.675  17.089 -0.2054  0.4019 -0.0678
  222MPD1    C1 3369   2.314   2.626  17.063  0.0901  0.4355  0.4061
  222MPD1    C2 3370   2.218   2.623  17.167  0.4167  0.0160 -0.3786
  222MPD1    C3 3371   2.234   2.689  17.291  0.0901 -0.1081  1.6555
  222MPD1    C4 3372   2.365   2.738  17.309 -0.3377  0.2488 -0.2752
  222MPD1    C5 3373   2.464   2.712  17.219 -0.7795 -0.1085  0.2452
  222MPD1     H 3374   2.134   2.557  17.153 -0.8153  1.6154 -0.4487
  222MPD1    H1 3375   2.377   2.788  17.404  2.2079 -0.9236 -0.0008
  222MPD1    H2 3376   2.514   2.675  17.011 -0.3908  0.0146 -0.2502
  222MPD1    H3 3377   2.566   2.734  17.248 -1.2638 -1.2541  2.8384
  222MPD1     N 3378   2.143   2.678  17.403  0.5154 -0.7725 -0.2293
  222MPD1    H5 3379   2.197   2.687  17.488 -0.0849  0.8485 -0.0192
  222MPD1    N1 3380   2.281   2.573  16.939 -0.3765 -0.4230 -0.3590
  222MPD1    H6 3381   2.180   2.572  16.928 -0.1956 -3.1294 -1.8292
  222MPD1    H7 3382   2.309   2.631  16.861 -2.8523  1.1312 -0.0954
  223MPD1     C 3383   1.441   2.215   0.408 -1.0343 -0.4122  0.2676
  223MPD1    C1 3384   1.391   2.341   0.367 -0.1313  0.4511  0.6818
  223MPD1    C2 3385   1.467   2.414   0.278  0.4595  0.2730 -0.8229
  223MPD1    C3 3386   1.581   2.362   0.216  0.3438  0.1631 -0.2980
  223MPD1    C4 3387   1.613   2.234   0.243  0.2370  0.4821 -0.1824
  223MPD1    C5 3388   1.546   2.164   0.339 -0.2353 -0.3179 -0.2624
  223MPD1     H 3389   1.434   2.514   0.252 -0.1173 -0.0147 -1.2236
  223MPD1    H1 3390   1.697   2.190   0.191 -1.3886 -1.9184 -0.7633
  223MPD1    H2 3391   1.395   2.151   0.483  0.0206  0.4761  1.6636
  223MPD1    H3 3392   1.589   2.065   0.354 -1.0321 -0.2972  2.1706
  223MPD1     N 3393   1.656   2.452   0.139  0.4585  0.4002  0.1662
  223MPD1    H5 3394   1.625   2.548   0.141  2.1638  0.9631 -0.6027
  223MPD1    N1 3395   1.280   2.412   0.431  0.6748  0.1729 -0.2509
  223MPD1    H6 3396   1.245   2.478   0.361 -2.9409 -2.1794 -0.6983
  223MPD1    H7 3397   1.207   2.349   0.464  1.8414 -1.6016 -1.0543
  224MPD1     C 3398   4.349   4.298   8.981 -0.4771  0.4694 -0.4749
  224MPD1    C1 3399   4.248   4.355   9.059  0.4537  0.2346  0.1933
  224MPD1    C2 3400   4.225   4.289   9.181 -0.2890  0.7084 -0.4630
  224MPD1    C3 3401   4.293   4.171   9.211 -1.1246  0.1774 -0.5420
  224MPD1    C4 3402   4.396   4.130   9.130 -0.3378 -0.0811 -0.9650
  224MPD1    C5 3403   4.431   4.197   9.016  0.4636 -0.5592 -0.1453
  224MPD1     H 3404   4.154   4.337   9.247  0.2321  0.8630 -0.0194
  224MPD1    H1 3405   4.457   4.042   9.149  2.2701  1.9689  0.1095
  224MPD1    H2 3406   4.370   4.344   8.885 -1.2438 -2.1583 -1.8808
  224MPD1    H3 3407   4.512   4.157   8.957  0.5019 -1.3639  0.4563
  224MPD1     N 3408   4.263   4.099   9.328 -0.0279 -0.6214  0.2765
  224MPD1    H5 3409   4.311   4.009   9.328  0.9588 -0.0893  2.0061
  224MPD1    N1 3410   4.192   4.478   9.027  0.5396 -0.0020 -0.3539
  224MPD1    H6 3411   4.092   4.473   9.046  0.7752  0.5879  1.0562
  224MPD1    H7 3412   4.207   4.505   8.930  0.5107 -2.0017 -0.9118
  225MPD1     C 3413   0.593   0.791  12.910  0.1484 -0.3563  0.2676
  225MPD1    C1 3414   0.542   0.671  12.959  0.3401 -0.0319  0.2806
  225MPD1    C2 3415   0.462   0.590  12.883 -0.1607 -0.4086  0.5658
  225MPD1    C3 3416   0.454   0.618  12.748  0.3276  0.4329 -0.2545
  225MPD1    C4 3417   0.526   0.719  12.693  0.6096 -0.9321  0.4144
  225MPD1    C5 3418   0.589   0.813  12.775  0.0896  0.4817 -0.3412
  225MPD1     H 3419   0.403   0.510  12.928 -0.6201 -0.9934 -1.0677
  225MPD1    H1 3420   0.536   0.725  12.585 -0.1036 -2.1017  0.2842
  225MPD1    H2 3421   0.657   0.856  12.968 -3.1565  1.9970  1.2676
  225MPD1    H3 3422   0.641   0.902  12.741  0.6229  0.9093  1.5898
  225MPD1     N 3423   0.366   0.553  12.662  0.5101  0.6562  0.0080
  225MPD1    H5 3424   0.368   0.585  12.565  0.5259  0.5594 -0.0229
  225MPD1    N1 3425   0.548   0.644  13.096  0.7746  0.4490 -0.0904
  225MPD1    H6 3426   0.551   0.547  13.126 -0.2874  0.3762 -0.2433
  225MPD1    H7 3427   0.631   0.687  13.137  0.9013  3.0217 -3.0761
  226MPD1     C 3428   3.253   0.957   9.120 -0.2205 -0.5347 -0.1274
  226MPD1    C1 3429   3.386   0.972   9.138  0.1311 -0.1335 -0.2957
  226MPD1    C2 3430   3.449   0.880   9.220  0.2667  0.1489 -0.5778
  226MPD1    C3 3431   3.383   0.805   9.314  0.5609  0.1317 -1.1853
  226MPD1    C4 3432   3.253   0.798   9.299  0.1618  0.5804 -0.1014
  226MPD1    C5 3433   3.192   0.863   9.196 -0.3134  0.2692  0.8250
  226MPD1     H 3434   3.556   0.868   9.227  0.2167 -2.2388 -3.8230
  226MPD1    H1 3435   3.194   0.735   9.364 -0.8784  0.4656 -1.1466
  226MPD1    H2 3436   3.204   0.999   9.034 -2.1660  0.4182  1.4507
  226MPD1    H3 3437   3.085   0.853   9.184 -0.0391 -1.2107 -0.4661
  226MPD1     N 3438   3.468   0.741   9.417  0.2075 -0.4128 -0.0816
  226MPD1    H5 3439   3.567   0.758   9.401  0.5443 -1.5818  0.7290
  226MPD1    N1 3440   3.454   1.046   9.040  0.0952  0.3386  0.2428
  226MPD1    H6 3441   3.544   1.085   9.068  0.3191 -0.7333  1.0318
  226MPD1    H7 3442   3.398   1.119   8.997 -1.4213 -0.6834  0.4823
  227MPD1     C 3443   3.271   4.589   9.814  0.6752  0.2999 -0.8107
  227MPD1    C1 3444   3.200   4.705   9.809  0.2952  0.2760 -0.0103
  227MPD1    C2 3445   3.263   0.101   9.796  0.8116  0.9401  0.2006
  227MPD1    C3 3446   3.407   0.112   9.789 -0.0324 -0.2150  0.4053
  227MPD1    C4 3447   3.479   0.000   9.796 -0.3890 -0.4270 -0.5469
  227MPD1    C5 3448   3.410   4.600   9.805  0.0295  0.4411  0.1538
  227MPD1     H 3449   3.196   0.186   9.794 -0.1887  0.1224 -1.4754
  227MPD1    H1 3450   3.587   0.001   9.798 -0.4285  1.5870  1.4038
  227MPD1    H2 3451   3.235   4.487   9.823 -0.7535  1.1842  3.4465
  227MPD1    H3 3452   3.475   4.514   9.811 -0.9298 -0.2048  1.3645
  227MPD1     N 3453   3.459   0.235   9.763 -0.3975  0.3110 -0.4790
  227MPD1    H5 3454   3.387   0.296   9.724  0.1127  2.9768  2.7670
  227MPD1    N1 3455   3.056   4.699   9.832 -0.4505  0.2562  0.7279
  227MPD1    H6 3456   3.014   4.607   9.824  0.0404  0.1851 -1.0287
  227MPD1    H7 3457   3.004   0.049   9.780  2.1209  2.7752  1.5663
  228MPD1     C 3458   2.563   2.542  12.713 -0.1233 -0.4953 -0.0189
  228MPD1    C1 3459   2.478   2.554  12.606  0.7837  0.4925 -0.1601
  228MPD1    C2 3460   2.344   2.580  12.631 -0.0494 -0.3594  0.2075
  228MPD1    C3 3461   2.299   2.588  12.764 -0.2533  0.5113 -0.1034
  228MPD1    C4 3462   2.389   2.567  12.863  0.1683  0.0394 -0.0931
  228MPD1    C5 3463   2.520   2.550  12.842 -0.5406 -0.5013 -0.4393
  228MPD1     H 3464   2.282   2.602  12.544 -1.9471 -2.1564  1.0971
  228MPD1    H1 3465   2.363   2.548  12.967  0.3106  2.2638  0.3501
  228MPD1    H2 3466   2.671   2.545  12.707 -0.0038 -3.3710  0.6406
  228MPD1    H3 3467   2.590   2.534  12.924 -0.0810  1.7199 -0.3933
  228MPD1     N 3468   2.158   2.605  12.786 -0.7441 -0.4159 -0.5979
  228MPD1    H5 3469   2.104   2.606  12.700  1.2195 -1.8418 -1.8466
  228MPD1    N1 3470   2.531   2.576  12.479 -0.0572 -0.4644 -0.0013
  228MPD1    H6 3471   2.626   2.539  12.472  1.1833  2.3917  1.8768
  228MPD1    H7 3472   2.470   2.538  12.406 -0.1353 -1.5540  0.6345
  229MPD1     C 3473   1.165   1.345  15.228 -0.4818  0.3442 -0.3432
  229MPD1    C1 3474   1.234   1.451  15.181  0.0038 -0.1794  0.0831
  229MPD1    C2 3475   1.368   1.466  15.206 -0.6194 -0.6097 -0.2815
  229MPD1    C3 3476   1.433   1.370  15.280 -1.0982 -0.9061  0.1747
  229MPD1    C4 3477   1.360   1.260  15.325 -0.1094  0.0011 -0.3405
  229MPD1    C5 3478   1.228   1.242  15.290 -0.3761 -0.5931  0.8648
  229MPD1     H 3479   1.418   1.543  15.150  1.4440 -1.1217  0.8791
  229MPD1    H1 3480   1.400   1.175  15.379 -0.9883 -1.8348 -2.5605
  229MPD1    H2 3481   1.061   1.337  15.202 -0.4598 -0.0231 -0.3149
  229MPD1    H3 3482   1.179   1.149  15.319  2.0294 -2.1439  0.0068
  229MPD1     N 3483   1.568   1.376  15.312 -0.5642 -0.0146 -0.2728
  229MPD1    H5 3484   1.602   1.304  15.375 -0.6763 -0.4629 -0.7255
  229MPD1    N1 3485   1.175   1.527  15.080  0.0698  0.5776  0.2686
  229MPD1    H6 3486   1.073   1.518  15.075  0.2085 -0.5161 -0.5852
  229MPD1    H7 3487   1.208   1.623  15.079 -0.6342  0.8477  1.7986
  230MPD1     C 3488   2.188   0.668  15.516  0.3897  0.3824 -0.1962
  230MPD1    C1 3489   2.180   0.678  15.379 -0.1643  0.0022  0.4498
  230MPD1    C2 3490   2.138   0.802  15.332 -0.6433 -0.0007  0.0034
  230MPD1    C3 3491   2.074   0.904  15.412 -0.0285  0.0020  0.6704
  230MPD1    C4 3492   2.075   0.876  15.551 -0.4187  0.4395 -0.1926
  230MPD1    C5 3493   2.140   0.766  15.601  0.1265 -0.4764  0.1605
  230MPD1     H 3494   2.135   0.809  15.224 -1.1333  0.8327  0.0746
  230MPD1    H1 3495   2.034   0.945  15.624  0.9115  1.1454 -0.1043
  230MPD1    H2 3496   2.232   0.581  15.564  0.7991  0.4314 -0.4810
  230MPD1    H3 3497   2.133   0.744  15.707 -2.4419  1.4260  0.3999
  230MPD1     N 3498   2.022   1.023  15.350 -0.2908 -0.5857 -0.6786
  230MPD1    H5 3499   2.050   1.047  15.255  0.3718  2.1423  0.1859
  230MPD1    N1 3500   2.247   0.587  15.300  0.5112  0.1955  0.3483
  230MPD1    H6 3501   2.233   0.593  15.199  1.1534 -0.6018  0.2174
  230MPD1    H7 3502   2.225   0.490  15.322 -0.3922  0.5016  0.8084
  231MPD1     C 3503   0.167   3.157  15.597  0.2199 -0.7625 -0.2702
  231MPD1    C1 3504   0.136   3.178  15.467  0.1015 -0.9956  0.6191
  231MPD1    C2 3505   0.236   3.219  15.387 -0.2327  0.2847  0.1824
  231MPD1    C3 3506   0.351   3.267  15.436 -0.2911 -0.1382  0.2011
  231MPD1    C4 3507   0.375   3.273  15.571  0.6748  0.1478  0.0375
  231MPD1    C5 3508   0.285   3.204  15.649  0.4502 -0.8626  0.3950
  231MPD1     H 3509   0.215   3.223  15.281 -0.7427  1.5655  0.3318
  231MPD1    H1 3510   0.461   3.315  15.623  0.6988  0.1320  0.0105
  231MPD1    H2 3511   0.101   3.100  15.662  0.4845 -0.5384  0.1936
  231MPD1    H3 3512   0.296   3.193  15.756  0.7680 -1.7774  0.2682
  231MPD1     N 3513   0.447   3.319  15.342 -0.8578 -0.3740  0.5407
  231MPD1    H5 3514   0.435   3.308  15.242 -1.1689 -2.1257  0.7822
  231MPD1    N1 3515   0.018   3.130  15.412 -0.4159 -0.8697  0.3146
  231MPD1    H6 3516   4.708   3.193  15.338  1.2383  1.1003  1.2670
  231MPD1    H7 3517   4.661   3.117  15.477  0.1921 -0.9303  1.0382
  232MPD1     C 3518   1.977   1.203   1.108  0.3444  0.4666  0.1463
  232MPD1    C1 3519   1.910   1.304   1.044 -0.0848  0.2770  0.8071
  232MPD1    C2 3520   1.896   1.295   0.907  0.3937  0.7952  0.4660
  232MPD1    C3 3521   1.942   1.187   0.831 -0.9295 -0.1849  0.7326
  232MPD1    C4 3522   2.018   1.094   0.903  0.9944 -0.1927  0.8828
  232MPD1    C5 3523   2.021   1.102   1.037  0.1835 -0.1912  1.5145
  232MPD1     H 3524   1.826   1.368   0.869  0.4331 -0.0753 -1.2650
  232MPD1    H1 3525   2.062   1.006   0.858  1.3150  0.6572 -0.4561
  232MPD1    H2 3526   1.997   1.195   1.214  0.6249 -1.9827 -0.0989
  232MPD1    H3 3527   2.078   1.030   1.096  1.3602  1.7020  2.6895
  232MPD1     N 3528   1.911   1.186   0.693 -0.4162  0.1070  0.1290
  232MPD1    H5 3529   1.849   1.262   0.668  0.3324  0.3648 -0.8926
  232MPD1    N1 3530   1.868   1.418   1.112  0.8428  0.4686  0.5680
  232MPD1    H6 3531   1.788   1.465   1.071  1.1560  0.1567 -0.4106
  232MPD1    H7 3532   1.851   1.404   1.211 -1.3781 -0.3503  0.0636
  233MPD1     C 3533   1.685   4.055   1.452  0.3902  0.2449 -0.1171
  233MPD1    C1 3534   1.766   4.124   1.540 -0.0439 -0.2168 -0.1595
  233MPD1    C2 3535   1.894   4.077   1.568 -0.0171 -0.5203 -0.5890
  233MPD1    C3 3536   1.953   3.981   1.479  0.0465  0.5522 -0.1571
  233MPD1    C4 3537   1.874   3.922   1.386  0.2828  0.0505  0.0935
  233MPD1    C5 3538   1.736   3.952   1.371  0.1853 -0.1705  0.1885
  233MPD1     H 3539   1.951   4.127   1.645 -0.7828  0.9857 -0.9944
  233MPD1    H1 3540   1.920   3.849   1.321 -1.4208 -1.0349  0.0856
  233MPD1    H2 3541   1.581   4.085   1.438 -0.1571 -1.5415  0.1218
  233MPD1    H3 3542   1.678   3.902   1.295 -0.2289  1.4715 -0.5851
  233MPD1     N 3543   2.083   3.934   1.494 -0.3641  0.2326 -0.9409
  233MPD1    H5 3544   2.112   3.854   1.440 -0.1384 -0.0006 -0.4735
  233MPD1    N1 3545   1.705   4.227   1.621  0.2621  0.0896 -0.1075
  233MPD1    H6 3546   1.773   4.278   1.679 -0.7886 -1.6269  2.6461
  233MPD1    H7 3547   1.670   4.296   1.556  1.1666  1.7902  1.2106
  234MPD1     C 3548   4.418   2.193   9.432  0.4751 -0.1396  0.2456
  234MPD1    C1 3549   4.529   2.272   9.459  0.5748  0.5426 -0.4016
  234MPD1    C2 3550   4.524   2.406   9.432 -0.0659 -0.2139 -0.0815
  234MPD1    C3 3551   4.424   2.470   9.356 -1.0230 -0.2158  0.4027
  234MPD1    C4 3552   4.325   2.386   9.320  0.0206  0.6415  0.3635
  234MPD1    C5 3553   4.321   2.249   9.357  0.8379 -0.6827  0.1344
  234MPD1     H 3554   4.607   2.466   9.468 -1.1894  1.5568 -0.4378
  234MPD1    H1 3555   4.236   2.423   9.270 -0.0773  2.2845  1.7702
  234MPD1    H2 3556   4.405   2.087   9.452  0.0375  0.2428  1.9420
  234MPD1    H3 3557   4.224   2.203   9.342  1.4705 -1.7775 -0.6120
  234MPD1     N 3558   4.420   2.608   9.329 -0.3495 -0.3012 -0.4991
  234MPD1    H5 3559   4.498   2.663   9.362 -1.3374  1.2040 -0.6391
  234MPD1    N1 3560   4.618   2.222   9.561 -0.4855 -0.0335 -0.3113
  234MPD1    H6 3561   4.710   2.266   9.552 -1.2690  0.9893 -3.4084
  234MPD1    H7 3562   4.641   2.125   9.542  0.5047 -0.3307  2.4219
  235MPD1     C 3563   0.980   0.272  10.728 -0.1639 -0.0476 -0.1000
  235MPD1    C1 3564   0.909   0.325  10.624  0.7783 -0.2489  0.1722
  235MPD1    C2 3565   0.960   0.434  10.557  0.3116 -0.2964  0.1526
  235MPD1    C3 3566   1.062   0.505  10.614 -0.3648  0.6470  0.5469
  235MPD1    C4 3567   1.135   0.452  10.718  0.2060 -0.5849 -0.3576
  235MPD1    C5 3568   1.094   0.331  10.776 -0.2397 -0.0368 -0.6412
  235MPD1     H 3569   0.912   0.470  10.466 -0.9943 -1.7624  0.2565
  235MPD1    H1 3570   1.220   0.498  10.767 -0.1935  1.5803 -1.6976
  235MPD1    H2 3571   0.936   0.184  10.774  0.9779 -0.4150  0.2854
  235MPD1    H3 3572   1.143   0.291  10.864 -0.3876  2.3965  0.5492
  235MPD1     N 3573   1.101   0.626  10.552 -0.1343 -0.3887  0.6297
  235MPD1    H5 3574   1.043   0.656  10.474  1.2306 -4.1681 -1.8352
  235MPD1    N1 3575   0.803   0.255  10.568 -0.5642  0.2538 -0.0978
  235MPD1    H6 3576   0.734   0.307  10.515 -0.2203  0.9144  0.1132
  235MPD1    H7 3577   0.749   0.192  10.628  0.4240 -0.5285 -0.0131
  236MPD1     C 3578   0.999   2.322  10.336  0.3518  0.1645 -0.1789
  236MPD1    C1 3579   0.875   2.268  10.307  0.1022  0.2192  0.1511
  236MPD1    C2 3580   0.853   2.133  10.340 -0.2808 -0.5025  0.2674
  236MPD1    C3 3581   0.955   2.063  10.407 -0.0871  0.1031  0.6817
  236MPD1    C4 3582   1.076   2.125  10.434 -0.4862  0.4011  0.2429
  236MPD1    C5 3583   1.099   2.248  10.388 -0.3161 -0.3909 -0.3526
  236MPD1     H 3584   0.762   2.086  10.306  0.4502 -1.7427  0.0309
  236MPD1    H1 3585   1.149   2.066  10.488  0.8464  2.3301  0.5446
  236MPD1    H2 3586   1.031   2.421  10.307  0.5422  0.2433  0.3105
  236MPD1    H3 3587   1.197   2.292  10.403 -0.2864 -0.1353 -1.3405
  236MPD1     N 3588   0.940   1.930  10.449  0.0749 -0.1576  0.2218
  236MPD1    H5 3589   1.009   1.885  10.508  0.7639 -2.6448 -2.4430
  236MPD1    N1 3590   0.789   2.340  10.225  0.9255  1.1538  0.3268
  236MPD1    H6 3591   0.779   2.438  10.247 -0.2701  0.9892  0.4968
  236MPD1    H7 3592   0.698   2.295  10.223  1.6298 -0.3128  0.7957
  237MPD1     C 3593   0.962   4.319  15.480  0.6072 -0.5168  0.2248
  237MPD1    C1 3594   0.866   4.324  15.382 -0.7772  0.8114  0.4209
  237MPD1    C2 3595   0.738   4.371  15.427 -0.4075  0.1482  0.4096
  237MPD1    C3 3596   0.705   4.401  15.554 -0.4844 -0.5136  0.1439
  237MPD1    C4 3597   0.798   4.393  15.646  0.1401 -0.3462  0.1412
  237MPD1    C5 3598   0.917   4.351  15.607 -0.6556 -0.3263  0.1693
  237MPD1     H 3599   0.662   4.390  15.352  1.1848  0.1754 -1.1773
  237MPD1    H1 3600   0.778   4.427  15.747 -0.3368 -0.8640  0.2204
  237MPD1    H2 3601   1.065   4.286  15.470  0.7314  0.0943 -0.5258
  237MPD1    H3 3602   0.995   4.354  15.683  0.8072 -1.9898 -1.2806
  237MPD1     N 3603   0.586   4.454  15.606 -0.6663  0.1190 -0.2113
  237MPD1    H5 3604   0.580   4.463  15.707  0.0749  0.2116 -0.1742
  237MPD1    N1 3605   0.896   4.321  15.245 -0.4565  0.0517  0.2170
  237MPD1    H6 3606   0.811   4.319  15.189 -0.0372 -2.5546 -0.3453
  237MPD1    H7 3607   0.950   4.237  15.226 -0.0303  0.4448 -0.3003
  238MPD1     C 3608   2.207   3.930  15.424  0.1210  0.4655  0.0797
  238MPD1    C1 3609   2.067   3.926  15.447 -1.0777 -0.3830  0.0587
  238MPD1    C2 3610   2.010   3.804  15.419  0.3547 -0.1474 -0.4433
  238MPD1    C3 3611   2.084   3.693  15.385 -0.4440 -0.3207  0.4267
  238MPD1    C4 3612   2.220   3.695  15.378 -0.3557 -0.7065 -1.3619
  238MPD1    C5 3613   2.279   3.817  15.398  0.0935 -0.6419 -0.0596
  238MPD1     H 3614   1.905   3.786  15.439  0.6383 -0.0479  1.1696
  238MPD1    H1 3615   2.292   3.617  15.358 -0.5766 -1.0609 -0.7700
  238MPD1    H2 3616   2.257   4.025  15.440 -1.0542  0.7653  2.0293
  238MPD1    H3 3617   2.384   3.841  15.387 -0.3683  1.5527  0.2110
  238MPD1     N 3618   2.024   3.568  15.365 -0.2851 -0.1942  0.4018
  238MPD1    H5 3619   2.077   3.501  15.309 -2.4137 -1.6948  0.1816
  238MPD1    N1 3620   1.992   4.041  15.461  0.4894 -0.3171 -0.0066
  238MPD1    H6 3621   1.896   4.030  15.492  0.6640  1.3898  1.1457
  238MPD1    H7 3622   2.044   4.123  15.493  0.8557 -0.0679 -1.2386
  239MPD1     C 3623   2.717   3.801  14.878  0.5765  0.1305  0.1939
  239MPD1    C1 3624   2.819   3.896  14.874 -0.4232  0.1804 -0.7282
  239MPD1    C2 3625   2.813   3.993  14.778  0.6869 -0.3137  0.9735
  239MPD1    C3 3626   2.700   4.002  14.691 -1.1009 -0.8025 -0.1696
  239MPD1    C4 3627   2.602   3.912  14.707 -0.3864  0.0439 -0.4522
  239MPD1    C5 3628   2.604   3.810  14.795 -0.2656  0.5596 -0.3827
  239MPD1     H 3629   2.880   4.078  14.771 -1.0528  0.9126 -0.5953
  239MPD1    H1 3630   2.511   3.925  14.651  0.8852 -1.3942 -2.8207
  239MPD1    H2 3631   2.719   3.709  14.935 -0.6270  1.3121  2.1562
  239MPD1    H3 3632   2.529   3.732  14.790 -0.1612  0.4635 -0.4714
  239MPD1     N 3633   2.681   4.105  14.598  0.6047 -0.2704 -0.3105
  239MPD1    H5 3634   2.599   4.096  14.538  0.9268  1.6627 -1.0522
  239MPD1    N1 3635   2.932   3.865  14.952  0.4588  0.4036 -0.2283
  239MPD1    H6 3636   3.004   3.938  14.954  1.0265 -0.1290 -1.0681
  239MPD1    H7 3637   2.918   3.822  15.042 -1.8630  1.8856  0.1231
  240MPD1     C 3638   2.126   3.867  13.403 -0.0383 -0.2913 -0.1905
  240MPD1    C1 3639   2.036   3.936  13.483 -0.2834 -0.2887 -0.0533
  240MPD1    C2 3640   2.052   3.929  13.626  0.2335  0.9789 -0.4810
  240MPD1    C3 3641   2.169   3.872  13.677  0.2102  0.2431  0.2761
  240MPD1    C4 3642   2.255   3.808  13.595 -0.3150 -0.1427  0.3480
  240MPD1    C5 3643   2.227   3.801  13.461  0.4108  0.3593  0.0565
  240MPD1     H 3644   1.983   3.971  13.698  2.9651  2.8424  1.0430
  240MPD1    H1 3645   2.339   3.750  13.632 -1.2328  1.3320  4.6957
  240MPD1    H2 3646   2.105   3.852  13.298  2.1424  2.3220 -0.9770
  240MPD1    H3 3647   2.314   3.757  13.414  0.2651 -0.9982  1.0298
  240MPD1     N 3648   2.179   3.873  13.819 -0.5945 -0.5119  0.7286
  240MPD1    H5 3649   2.098   3.897  13.874 -0.4051 -1.0087  1.2319
  240MPD1    N1 3650   1.914   3.988  13.433 -0.5528  0.1781  0.5813
  240MPD1    H6 3651   1.890   4.084  13.458 -2.1570  0.0550 -0.5017
  240MPD1    H7 3652   1.926   3.998  13.333 -2.6197 -2.5022  0.0592
  241MPD1     C 3653   2.782   3.257  14.257  0.5715  0.5852 -0.4006
  241MPD1    C1 3654   2.747   3.329  14.366 -0.1932  0.4463 -0.4038
  241MPD1    C2 3655   2.661   3.432  14.340 -0.4147  0.5243 -0.3359
  241MPD1    C3 3656   2.610   3.459  14.217  0.4036 -0.0881 -0.0037
  241MPD1    C4 3657   2.635   3.373  14.115 -0.2400 -0.6305  0.0571
  241MPD1    C5 3658   2.724   3.278  14.135 -0.4189 -0.4393  0.5394
  241MPD1     H 3659   2.640   3.509  14.413  2.6749  0.0421  1.0776
  241MPD1    H1 3660   2.607   3.402  14.014  3.7434 -0.2095 -0.9189
  241MPD1    H2 3661   2.863   3.187  14.271  0.1550  0.1989  0.0961
  241MPD1    H3 3662   2.754   3.219  14.049  2.2829  1.1282  0.4171
  241MPD1     N 3663   2.527   3.568  14.192 -0.3365  0.0647  0.0965
  241MPD1    H5 3664   2.501   3.586  14.096  0.5336 -1.1895 -0.3706
  241MPD1    N1 3665   2.830   3.321  14.486 -0.8365 -0.2632  0.3531
  241MPD1    H6 3666   2.852   3.227  14.518 -0.8979 -0.3042  0.2737
  241MPD1    H7 3667   2.784   3.369  14.563 -0.7211 -0.6988  0.6926
  242MPD1     C 3668   1.405   2.384  15.855 -0.2148  0.1132  0.8777
  242MPD1    C1 3669   1.382   2.414  15.721  0.4328  0.0569  0.1636
  242MPD1    C2 3670   1.415   2.309  15.628 -0.4672  0.5000  0.3467
  242MPD1    C3 3671   1.480   2.199  15.658 -0.1778 -0.4145  0.5720
  242MPD1    C4 3672   1.516   2.178  15.790 -0.0387 -0.4948  0.3241
  242MPD1    C5 3673   1.471   2.268  15.882 -0.1293  0.0967 -0.7131
  242MPD1     H 3674   1.365   2.321  15.532  1.6848 -1.0844 -0.9555
  242MPD1    H1 3675   1.576   2.097  15.829  0.1893 -0.1841  0.6183
  242MPD1    H2 3676   1.370   2.449  15.933 -0.5783  2.8833 -1.5941
  242MPD1    H3 3677   1.480   2.251  15.989  2.4196 -0.4398 -1.0148
  242MPD1     N 3678   1.533   2.110  15.564 -0.5216  0.3975 -0.3442
  242MPD1    H5 3679   1.602   2.043  15.593 -1.5512 -0.6324 -0.2728
  242MPD1    N1 3680   1.302   2.529  15.689  0.3908  0.4374 -0.2406
  242MPD1    H6 3681   1.326   2.559  15.595  0.5132  0.9669 -0.0375
  242MPD1    H7 3682   1.306   2.603  15.758 -0.4178 -1.0521  1.4025
  243MPD1     C 3683   2.057   0.456   0.102 -0.7505  0.4935  0.3478
  243MPD1    C1 3684   2.151   0.422   0.193  0.1327 -0.3839 -0.7534
  243MPD1    C2 3685   2.258   0.349   0.154  0.1045  0.1296  0.1341
  243MPD1    C3 3686   2.286   0.320   0.020 -0.6201 -1.0326  1.1785
  243MPD1    C4 3687   2.200   0.380  17.614 -0.8696  0.9226  0.0678
  243MPD1    C5 3688   2.086   0.440  17.661 -0.1958 -0.1649 -0.8202
  243MPD1     H 3689   2.337   0.311   0.217 -0.9235 -0.7565  0.8984
  243MPD1    H1 3690   2.214   0.366  17.507  0.2470 -1.5583  0.5368
  243MPD1    H2 3691   1.958   0.491   0.132 -1.8462 -1.4369 -0.9805
  243MPD1    H3 3692   2.013   0.471  17.587 -0.0951  0.6578 -0.5830
  243MPD1     N 3693   2.403   0.250  17.668 -0.1350 -0.3474 -0.3475
  243MPD1    H5 3694   2.465   0.216   0.054 -2.3227  0.3903  1.8252
  243MPD1    N1 3695   2.127   0.433   0.337  0.5924 -0.2280 -0.4324
  243MPD1    H6 3696   2.212   0.417   0.391  0.5463  1.1671  0.0434
  243MPD1    H7 3697   2.099   0.526   0.366  4.0292  0.3731  0.9348
  244MPD1     C 3698   2.722   4.347   0.496 -0.6157 -0.7905  0.3817
  244MPD1    C1 3699   2.685   4.478   0.507  0.0643  0.1490  0.4513
  244MPD1    C2 3700   2.657   4.546   0.397 -0.2959  0.0788 -0.2605
  244MPD1    C3 3701   2.689   4.504   0.270  0.0985  0.3842 -0.4574
  244MPD1    C4 3702   2.735   4.376   0.252  0.4070  0.5032  1.1644
  244MPD1    C5 3703   2.751   4.299   0.370 -0.2711 -0.1023 -1.0393
  244MPD1     H 3704   2.618   4.647   0.406  0.9201  0.5198  0.0585
  244MPD1    H1 3705   2.746   4.322   0.158  1.3861  0.6449  1.1926
  244MPD1    H2 3706   2.737   4.281   0.581 -2.7318  0.6743  1.9074
  244MPD1    H3 3707   2.782   4.196   0.357  1.1781  0.3329 -0.9765
  244MPD1     N 3708   2.671   4.590   0.155  0.0083  0.0678  0.4709
  244MPD1    H5 3709   2.625   4.680   0.173  1.1596  0.0518  3.5593
  244MPD1    N1 3710   2.630   4.527   0.621  0.3426 -0.1337 -0.7741
  244MPD1    H6 3711   2.640   4.628   0.632  0.5102  0.0074 -2.1499
  244MPD1    H7 3712   2.679   4.484   0.699 -1.8291 -0.6643  0.3013
  245MPD1     C 3713   0.736   0.698  14.415 -0.6540 -0.6853 -0.2058
  245MPD1    C1 3714   0.697   0.794  14.506 -0.5530  0.0219  0.4115
  245MPD1    C2 3715   0.644   0.910  14.470  0.1475 -0.4625  0.0939
  245MPD1    C3 3716   0.652   0.951  14.331 -0.2285 -0.4000  0.0705
  245MPD1    C4 3717   0.690   0.848  14.237 -0.1201 -0.6973 -0.1242
  245MPD1    C5 3718   0.732   0.727  14.286  0.6538 -0.0499  0.1558
  245MPD1     H 3719   0.612   0.982  14.545 -1.3799 -1.0918  0.0462
  245MPD1    H1 3720   0.695   0.864  14.130 -0.3946  0.9114  0.1091
  245MPD1    H2 3721   0.763   0.599  14.450  1.8570 -0.3383 -1.1763
  245MPD1    H3 3722   0.761   0.657  14.208 -0.7815 -0.1616 -0.2835
  245MPD1     N 3723   0.614   1.088  14.299  0.1672  0.4953  0.3945
  245MPD1    H5 3724   0.575   1.151  14.367  0.2443 -0.2016  1.0781
  245MPD1    N1 3725   0.676   0.742  14.636  0.0522 -0.1692 -0.3086
  245MPD1    H6 3726   0.669   0.815  14.706 -0.3219  2.5126 -3.1244
  245MPD1    H7 3727   0.746   0.673  14.665 -0.1473 -0.4490 -0.4877
  246MPD1     C 3728   0.647   3.475  10.073  0.3851 -0.2025  0.0548
  246MPD1    C1 3729   0.575   3.366  10.029  0.7379 -0.2756  0.3153
  246MPD1    C2 3730   0.516   3.372   9.904  0.0086  0.3935  0.1434
  246MPD1    C3 3731   0.513   3.488   9.831  0.2458  0.1109  0.1868
  246MPD1    C4 3732   0.572   3.603   9.879  0.5027  0.2808  0.1229
  246MPD1    C5 3733   0.637   3.592   9.998 -0.3278  0.6704  0.4280
  246MPD1     H 3734   0.458   3.293   9.858 -0.6286 -1.2341  3.7482
  246MPD1    H1 3735   0.590   3.680   9.805 -1.0350  0.7889  0.2755
  246MPD1    H2 3736   0.709   3.473  10.162  0.5054 -1.5839 -0.0491
  246MPD1    H3 3737   0.691   3.679  10.032 -1.0040  0.6042  1.6639
  246MPD1     N 3738   0.460   3.488   9.702 -0.7306  0.3640 -0.0842
  246MPD1    H5 3739   0.428   3.398   9.670  0.0029  0.1347 -0.1855
  246MPD1    N1 3740   0.590   3.238  10.082  0.3252 -0.2586 -0.3490
  246MPD1    H6 3741   0.524   3.172  10.042 -0.2303 -1.1336  2.0165
  246MPD1    H7 3742   0.589   3.241  10.183  2.9454 -1.8135 -0.2808
  247MPD1     C 3743   4.101   1.656  16.096  0.3687 -0.4350  1.0754
  247MPD1    C1 3744   4.117   1.575  16.203  0.4136 -0.4243  0.4405
  247MPD1    C2 3745   4.178   1.452  16.184 -0.1532  0.9908 -0.1654
  247MPD1    C3 3746   4.248   1.430  16.066 -0.1542 -0.0366  0.3561
  247MPD1    C4 3747   4.240   1.526  15.966 -0.0694  0.0644 -0.3331
  247MPD1    C5 3748   4.171   1.639  15.983 -0.0461 -0.1017  0.0431
  247MPD1     H 3749   4.182   1.385  16.269  2.3158  0.8797 -0.3684
  247MPD1    H1 3750   4.272   1.508  15.864  0.2310 -2.6058  0.2254
  247MPD1    H2 3751   4.038   1.744  16.095  0.5361 -0.3586 -1.9690
  247MPD1    H3 3752   4.154   1.705  15.899 -0.2084 -0.6750 -0.3810
  247MPD1     N 3753   4.319   1.311  16.036  0.1569 -0.1471  0.5182
  247MPD1    H5 3754   4.368   1.313  15.947  1.8038 -0.6424  1.4069
  247MPD1    N1 3755   4.044   1.599  16.318 -0.6445  0.1689  0.1698
  247MPD1    H6 3756   4.010   1.694  16.329  0.3775  0.4678  0.7157
  247MPD1    H7 3757   4.075   1.554  16.403 -0.7828 -0.0456  0.1065
  248MPD1     C 3758   4.532   0.298   1.783 -0.0156  1.1084  0.3343
  248MPD1    C1 3759   4.451   0.401   1.794 -0.5647  0.1865  0.1320
  248MPD1    C2 3760   4.362   0.433   1.688 -0.1916 -0.8486 -0.9170
  248MPD1    C3 3761   4.361   0.355   1.574  0.0321  0.4950  0.3445
  248MPD1    C4 3762   4.447   0.248   1.566  0.3891  0.3327 -0.2451
  248MPD1    C5 3763   4.523   0.215   1.673 -0.1314 -0.1263 -0.8856
  248MPD1     H 3764   4.297   0.518   1.701  0.3773 -0.4076 -0.9488
  248MPD1    H1 3765   4.442   0.185   1.477  1.1763 -1.4359  0.9647
  248MPD1    H2 3766   4.605   0.272   1.859 -1.5673 -1.2998  1.0172
  248MPD1    H3 3767   4.592   0.132   1.660  1.4611  1.1938 -0.9050
  248MPD1     N 3768   4.279   0.396   1.468  0.0952 -0.8417  0.4591
  248MPD1    H5 3769   4.219   0.475   1.491  0.6939 -0.5208  0.9339
  248MPD1    N1 3770   4.461   0.493   1.910 -0.0903  0.2109  0.2340
  248MPD1    H6 3771   4.453   0.443   1.998 -0.6283  0.0281  0.0844
  248MPD1    H7 3772   4.392   0.568   1.912 -1.1683 -0.7608 -0.2677
  249MPD1     C 3773   1.323   3.767  10.085  0.3707 -0.4403 -0.3031
  249MPD1    C1 3774   1.184   3.771  10.087 -0.7364  0.1233  0.1527
  249MPD1    C2 3775   1.117   3.883  10.045 -0.3073 -0.2858 -0.1959
  249MPD1    C3 3776   1.191   3.996  10.010  0.3245  0.6345  0.3644
  249MPD1    C4 3777   1.330   3.996  10.019 -0.4731  0.2793  0.6626
  249MPD1    C5 3778   1.393   3.882  10.065  0.3113  0.2590 -0.1079
  249MPD1     H 3779   1.010   3.868  10.037 -0.1361 -1.8641  0.5456
  249MPD1    H1 3780   1.394   4.078   9.990  1.2971 -0.9731  1.0334
  249MPD1    H2 3781   1.380   3.677  10.104  1.9343  0.7994  0.8622
  249MPD1    H3 3782   1.501   3.879  10.073  0.2571  1.0482  0.9219
  249MPD1     N 3783   1.121   4.098   9.938 -0.2379 -0.0053 -0.3079
  249MPD1    H5 3784   1.031   4.084   9.893  0.7941 -1.2523 -1.9700
  249MPD1    N1 3785   1.109   3.652  10.092  0.0634 -0.7844  0.2028
  249MPD1    H6 3786   1.012   3.676  10.113  0.0798 -0.5592  0.0088
  249MPD1    H7 3787   1.147   3.598  10.170 -3.7938 -1.5167  1.5650
  250MPD2     C 3788   3.021   4.595  13.360 -0.8088  0.4270  0.5241
  250MPD2    C1 3789   2.956   4.638  13.244 -0.2172  0.3841  0.0453
  250MPD2    C2 3790   2.912   4.543  13.157  0.1786 -0.5043 -0.5856
  250MPD2    C3 3791   2.923   4.411  13.190  0.0732  1.0409  0.6540
  250MPD2    C4 3792   2.983   4.371  13.308  0.6534  0.3704 -0.7388
  250MPD2    C5 3793   3.024   4.464  13.397  0.2685  0.1883 -0.6300
  250MPD2     H 3794   2.882   4.583  13.061 -1.3552  2.5447  1.1392
  250MPD2    H1 3795   2.984   4.269  13.344  0.2545  0.5252 -0.2882
  250MPD2    H2 3796   3.066   4.666  13.429 -1.5526  0.7427  0.6894
  250MPD2    H3 3797   3.072   4.439  13.491  0.8837  0.4339 -0.8789
  250MPD2     N 3798   2.889   4.308  13.103 -0.4240  0.2518 -0.0037
  250MPD2    H5 3799   2.893   4.216  13.145  1.1159  1.2880  2.1333
  250MPD2    N1 3800   2.964   0.055  13.213 -0.7835  0.3013 -0.2071
  250MPD2    H7 3801   3.019   0.096  13.288  0.3624  1.8487 -1.9135
  251TMC3    C1 3802   2.914   0.272  13.132 -0.2392 -0.0365 -0.1470
  251TMC3    C2 3803   2.808   0.346  13.100  0.5378 -0.4455  0.6617
  251TMC3    C3 3804   2.827   0.486  13.093 -1.0866 -0.3735  0.5227
  251TMC3    C4 3805   3.033   0.327  13.164  0.1350 -0.2017  0.0617
  251TMC3    C5 3806   3.051   0.466  13.154 -0.5590 -0.3131 -0.0514
  251TMC3    C6 3807   2.944   0.543  13.114  0.0341  0.2453 -0.1946
  251TMC3     C 3808   2.904   0.126  13.114  0.4158  0.6175  0.0617
  251TMC3     O 3809   2.836   0.085  13.020  0.5001 -0.3402  0.3859
  251TMC3     H 3810   2.715   0.295  13.079  1.1828 -0.3129 -2.4981
  251TMC3    H1 3811   3.121   0.265  13.178  0.7452  1.1593  2.3281
  251TMC3    H2 3812   2.962   0.650  13.110 -0.9003  0.3505 -1.3577
  251TMC3    C7 3813   3.190   0.512  13.143  0.1051  0.0137  0.4824
  251TMC3    C8 3814   2.712   0.580  13.086 -0.2070  0.3796 -0.6358
  251TMC3    O1 3815   3.279   0.434  13.108  0.1036 -0.0111 -0.1500
  251TMC3    O2 3816   2.745   0.699  13.077 -1.1185  0.0988 -0.1055
  252TMC3    C1 3817   2.889   1.027   9.467 -0.4101  0.4896  0.9119
  252TMC3    C2 3818   3.009   1.090   9.496 -0.0202  0.2778  0.0087
  252TMC3    C3 3819   3.103   1.015   9.554  0.5980  0.6410  0.7761
  252TMC3    C4 3820   2.872   0.901   9.520  0.8876 -0.6826  0.1154
  252TMC3    C5 3821   2.966   0.834   9.595 -0.2348  0.2029 -0.4802
  252TMC3    C6 3822   3.088   0.889   9.606 -0.2175 -0.1529  0.6163
  252TMC3     C 3823   2.798   1.068   9.355 -0.0489  0.0926  0.5215
  252TMC3     O 3824   2.681   1.026   9.357 -0.5925 -0.7663 -0.1080
  252TMC3     H 3825   3.030   1.193   9.470 -1.0511  0.5777  0.3416
  252TMC3    H1 3826   2.780   0.850   9.497  0.8221 -0.0492 -1.0210
  252TMC3    H2 3827   3.169   0.833   9.651 -0.8363 -0.5851  1.1942
  252TMC3    C7 3828   2.926   0.716   9.666 -0.2356  0.3209  0.4869
  252TMC3    C8 3829   3.237   1.069   9.539 -0.4101 -0.9240  0.2524
  252TMC3    O1 3830   2.805   0.694   9.665 -0.4307  0.6181  0.7417
  252TMC3    O2 3831   3.247   1.155   9.453 -0.2452 -0.6680  0.0649
  253MPD2     C 3832   0.107   0.165  15.756 -0.0710  0.2597  0.9481
  253MPD2    C1 3833   4.693   0.171  15.728  0.4626 -0.3450  0.1122
  253MPD2    C2 3834   4.595   0.130  15.821  0.6735  0.2264 -0.3557
  253MPD2    C3 3835   4.638   0.066  15.937 -0.2830 -0.0761  1.1158
  253MPD2    C4 3836   0.056   0.055  15.956  0.3944 -0.4752  0.1582
  253MPD2    C5 3837   0.151   0.099  15.869  0.6766  0.0868  0.1012
  253MPD2     H 3838   4.490   0.152  15.803 -0.0090 -0.7179  2.5691
  253MPD2    H1 3839   0.094   4.715  16.037  1.1594  0.9371  0.8630
  253MPD2    H2 3840   0.181   0.203  15.687  0.6336 -2.9637 -0.0646
  253MPD2    H3 3841   0.254   0.070  15.887  0.2995 -0.9569  0.5613
  253MPD2     N 3842   4.546   0.001  16.027  0.4431  0.1553 -0.3175
  253MPD2    H5 3843   4.587   4.677  16.108 -2.7980  0.4875  1.5457
  253MPD2    N1 3844   4.643   0.221  15.606 -0.6919 -0.0257 -0.3153
  253MPD2    H7 3845   4.543   0.216  15.587 -0.9292 -1.0912  1.2460
  254TMC3    C1 3846   4.340   4.665  16.130  0.2884 -0.4031  0.6786
  254TMC3    C2 3847   4.218   4.720  16.140  0.2216  0.0001  1.1089
  254TMC3    C3 3848   4.156   4.720  16.259  0.5837 -0.4485 -0.2921
  254TMC3    C4 3849   4.408   4.632  16.247  0.0146 -0.1386  0.4528
  254TMC3    C5 3850   4.339   4.640  16.366 -0.2453 -0.1369 -0.2582
  254TMC3    C6 3851   4.208   4.674  16.379  0.0951 -0.2806 -0.3671
  254TMC3     C 3852   4.410   4.713  16.012 -0.0323 -0.5872  0.5429
  254TMC3     O 3853   4.341   0.037  15.920  0.2623 -0.0847  0.1343
  254TMC3     H 3854   4.173   0.041  16.051  1.5022  0.8764  0.8778
  254TMC3    H1 3855   4.501   4.579  16.230  0.4059  0.5025  0.6126
  254TMC3    H2 3856   4.166   4.657  16.478 -0.9855  0.4418 -0.7098
  254TMC3    C7 3857   4.399   4.574  16.483 -0.5221 -0.3879  0.1967
  254TMC3    C8 3858   4.021   0.045  16.259 -0.3444 -0.5603 -0.4105
  254TMC3    O1 3859   4.322   4.543  16.573 -0.6410 -0.0185  0.3631
  254TMC3    O2 3860   3.969   0.050  16.150 -0.2649  0.0977 -0.1544
  255MPD2     C 3861   2.880   2.750  10.090  0.2443 -0.8084  0.1400
  255MPD2    C1 3862   2.768   2.743  10.015  0.1060 -0.1477  0.0548
  255MPD2    C2 3863   2.769   2.702   9.881  0.4904  0.0207  0.2351
  255MPD2    C3 3864   2.889   2.651   9.832  0.4074 -0.1356  0.3135
  255MPD2    C4 3865   2.999   2.651   9.907  0.2984  0.3626 -0.5617
  255MPD2    C5 3866   2.995   2.700  10.035  0.3206  0.7297  0.4821
  255MPD2     H 3867   2.685   2.700   9.811 -0.0057 -2.3688  0.8948
  255MPD2    H1 3868   3.088   2.608   9.865  0.9192  1.9821 -0.8926
  255MPD2    H2 3869   2.869   2.778  10.194  0.4893  2.3542 -0.6899
  255MPD2    H3 3870   3.086   2.704  10.093  2.0048  0.7510 -2.1754
  255MPD2     N 3871   2.891   2.600   9.701 -0.3138  0.1963 -0.1422
  255MPD2    H5 3872   2.809   2.597   9.641  0.2780 -2.2860 -0.8351
  255MPD2    N1 3873   2.654   2.799  10.074 -0.1451 -0.0431 -0.3497
  255MPD2    H7 3874   2.661   2.835  10.168 -1.8374 -0.1746 -0.1752
  256TMC3    C1 3875   2.432   2.891  10.078 -1.1834  0.7335  0.5553
  256TMC3    C2 3876   2.470   2.986  10.175  0.6110 -0.0615 -0.5231
  256TMC3    C3 3877   2.375   3.066  10.228 -0.7141  0.5794  0.9609
  256TMC3    C4 3878   2.299   2.880  10.031  0.0027 -0.3600  0.0758
  256TMC3    C5 3879   2.210   2.970  10.090  0.0302 -0.0194  0.0285
  256TMC3    C6 3880   2.240   3.057  10.192  0.3854 -0.5884 -0.3038
  256TMC3     C 3881   2.529   2.805  10.013 -0.2138 -0.4035  0.4291
  256TMC3     O 3882   2.485   2.733   9.925 -0.6380 -0.4231 -0.0057
  256TMC3     H 3883   2.572   3.002  10.208  0.0092 -0.3436  1.4412
  256TMC3    H1 3884   2.266   2.799   9.968 -0.9507 -0.6724  0.9814
  256TMC3    H2 3885   2.162   3.126  10.223  2.1173 -0.0804  2.8893
  256TMC3    C7 3886   2.099   2.989   9.997 -0.0101 -0.5788  0.4901
  256TMC3    C8 3887   2.412   3.191  10.292  0.1854 -0.1422 -0.2454
  256TMC3    O1 3888   2.053   2.892   9.933  0.0403 -0.2740 -0.4128
  256TMC3    O2 3889   2.333   3.234  10.370 -0.3216 -0.0287 -0.0637
  257MPD2     C 3890   2.122   0.121  13.151  0.6712  0.0575 -0.1010
  257MPD2    C1 3891   2.133   0.005  13.071  0.6016 -0.7220  0.5881
  257MPD2    C2 3892   2.152   4.600  13.120 -0.2144  0.2196  0.2858
  257MPD2    C3 3893   2.177   4.586  13.257  0.1763 -0.3525 -0.3571
  257MPD2    C4 3894   2.174   4.701  13.337 -0.4583 -0.2236  0.5325
  257MPD2    C5 3895   2.142   0.103  13.286 -0.5694 -0.3802 -0.2384
  257MPD2     H 3896   2.153   4.517  13.050 -0.1042  0.8272 -0.4294
  257MPD2    H1 3897   2.188   4.691  13.444  0.7354 -0.9702  0.3014
  257MPD2    H2 3898   2.103   0.216  13.102  0.7544 -0.4110 -1.0520
  257MPD2    H3 3899   2.143   0.192  13.347  1.8036 -0.9792  0.5691
  257MPD2     N 3900   2.186   4.456  13.311 -0.1464  0.4951 -0.4004
  257MPD2    H5 3901   2.154   4.375  13.258  0.5576  1.9098 -3.0007
  257MPD2    N1 3902   2.114   0.039  12.936 -0.2646 -0.0992  0.1948
  257MPD2    H7 3903   2.120   0.137  12.910 -0.9750 -0.1716 -0.2467
  258TMC3    C1 3904   2.218   4.294  13.480 -0.3366 -0.8389 -0.0091
  258TMC3    C2 3905   2.291   4.211  13.398  0.2568 -0.1137 -0.4419
  258TMC3    C3 3906   2.360   4.112  13.449  0.9779  0.6988  0.0319
  258TMC3    C4 3907   2.239   4.291  13.617 -0.2644  0.1602 -0.4059
  258TMC3    C5 3908   2.322   4.193  13.665  0.6574  0.2068  0.1381
  258TMC3    C6 3909   2.379   4.100  13.584  0.0516 -0.2580  0.3302
  258TMC3     C 3910   2.223   4.433  13.444 -0.7237 -0.4159 -0.3786
  258TMC3     O 3911   2.260   4.507  13.532 -0.3187 -0.0977  0.4513
  258TMC3     H 3912   2.291   4.224  13.290 -0.1586  0.3565 -0.3862
  258TMC3    H1 3913   2.191   4.363  13.683 -2.0877 -2.6594  1.3574
  258TMC3    H2 3914   2.423   4.009  13.622 -2.7306 -1.8149 -0.1902
  258TMC3    C7 3915   2.337   4.170  13.805 -0.0572  1.0155 -0.9064
  258TMC3    C8 3916   2.429   4.026  13.354  0.9799  0.4506 -0.6143
  258TMC3    O1 3917   2.253   4.224  13.872  0.4568  0.7866  0.8642
  258TMC3    O2 3918   2.384   4.027  13.241  0.1195 -0.1672  0.3452
  259MPD2     C 3919   4.700   1.334   0.448 -0.9815  0.1839  0.4454
  259MPD2    C1 3920   0.040   1.227   0.509 -0.3052 -0.0859  0.5276
  259MPD2    C2 3921   0.154   1.172   0.453 -1.1635  0.0131  1.1569
  259MPD2    C3 3922   0.211   1.222   0.342 -0.0588 -0.6207 -0.5505
  259MPD2    C4 3923   0.141   1.324   0.273  0.1350  0.3862  0.3094
  259MPD2    C5 3924   0.033   1.385   0.335  0.5419  0.0430 -0.4337
  259MPD2     H 3925   0.219   1.103   0.505  2.1554  0.4527 -2.4067
  259MPD2    H1 3926   0.184   1.366   0.183  0.6656 -0.2843  0.2446
  259MPD2    H2 3927   4.604   1.375   0.477 -0.9701  0.7232 -0.2911
  259MPD2    H3 3928   4.720   1.483   0.303  1.0198  0.9663  1.8822
  259MPD2     N 3929   0.336   1.171   0.297 -0.5294  0.5872 -0.2823
  259MPD2    H5 3930   0.385   1.106   0.357 -0.5261  2.5230  1.8330
  259MPD2    N1 3931   4.712   1.188   0.636 -0.2116  0.3092  0.4277
  259MPD2    H7 3932   4.641   1.249   0.676 -0.1885  0.6281 -0.0066
  260TMC3    C1 3933   0.530   1.144   0.158  0.8898  0.6215 -0.2740
  260TMC3    C2 3934   0.632   1.223   0.111  0.0518 -0.2544 -0.1350
  260TMC3    C3 3935   0.757   1.173   0.110  0.6409  0.4520 -0.4008
  260TMC3    C4 3936   0.560   1.013   0.184 -0.2062  0.5929  0.6307
  260TMC3    C5 3937   0.683   0.955   0.159  0.2231  0.7014  0.3803
  260TMC3    C6 3938   0.783   1.038   0.123 -0.3495  0.1896 -0.8389
  260TMC3     C 3939   0.395   1.202   0.174 -0.0516  0.7494  0.0135
  260TMC3     O 3940   0.356   1.272   0.086  0.0529 -0.4304  0.3961
  260TMC3     H 3941   0.606   1.327   0.093  0.2659 -0.4417 -1.5108
  260TMC3    H1 3942   0.480   0.949   0.221  0.4325  0.3932  1.6915
  260TMC3    H2 3943   0.880   0.993   0.109 -0.3578  0.5468 -2.0894
  260TMC3    C7 3944   0.701   0.804   0.163  0.1054 -0.0328  0.6116
  260TMC3    C8 3945   0.866   1.271   0.118  0.3520  0.0396  0.9158
  260TMC3    O1 3946   0.815   0.763   0.180 -0.1041 -0.3809 -0.0460
  260TMC3    O2 3947   0.830   1.388   0.101  0.7498 -0.5360  0.4281
  261MPD2     C 3948   2.494   4.184  12.352  0.3554 -0.1608 -0.0258
  261MPD2    C1 3949   2.598   4.242  12.417 -0.8614 -0.8502 -0.1019
  261MPD2    C2 3950   2.654   4.361  12.372  0.0526 -0.0890 -0.0682
  261MPD2    C3 3951   2.604   4.426  12.260  0.3700 -0.1627  0.3272
  261MPD2    C4 3952   2.497   4.367  12.192  0.0183 -0.4491  0.0087
  261MPD2    C5 3953   2.445   4.254  12.240  0.5359  0.3426  0.1097
  261MPD2     H 3954   2.743   4.397  12.423  1.2788 -1.0627 -1.4911
  261MPD2    H1 3955   2.457   4.411  12.101  2.4179  1.3331 -0.1613
  261MPD2    H2 3956   2.442   4.094  12.383  1.5739 -0.2075  1.8781
  261MPD2    H3 3957   2.355   4.216  12.192  1.1620  0.8314 -1.4503
  261MPD2     N 3958   2.666   4.541  12.208  0.0644  1.0432 -0.1340
  261MPD2    H5 3959   2.756   4.563  12.248 -0.3327  1.4939  0.5014
  261MPD2    N1 3960   2.647   4.198  12.548  0.7860 -0.0085 -0.6364
  261MPD2    H7 3961   2.728   4.249  12.581 -0.3982  0.2955  1.8791
  262TMC3    C1 3962   2.712   0.010  12.077 -0.7562 -0.1583  0.0596
  262TMC3    C2 3963   2.672   0.120  12.016  0.4424  0.2070 -0.1950
  262TMC3    C3 3964   2.764   0.204  11.956 -0.6956 -0.8477  0.4603
  262TMC3    C4 3965   2.844   4.690  12.076 -0.6508  0.4146 -0.1184
  262TMC3    C5 3966   2.934   0.058  12.022  0.0422 -0.1026  0.7837
  262TMC3    C6 3967   2.899   0.168  11.949 -0.5793  0.5540 -0.3559
  262TMC3     C 3968   2.615   4.633  12.120  0.7587  0.0588  0.0962
  262TMC3     O 3969   2.504   4.644  12.078 -0.3400  0.2588 -0.1893
  262TMC3     H 3970   2.567   0.147  12.020  0.1188 -0.4669 -3.7554
  262TMC3    H1 3971   2.877   4.590  12.103  1.4617  1.5183  1.3677
  262TMC3    H2 3972   2.976   0.236  11.916  0.2227 -1.5531 -2.8662
  262TMC3    C7 3973   3.068   0.005  12.027  0.2384  0.4161 -0.2107
  262TMC3    C8 3974   2.727   0.320  11.882  0.1949  0.3849  0.5124
  262TMC3    O1 3975   3.103   4.665  12.128 -0.1595  0.4655 -0.0194
  262TMC3    O2 3976   2.815   0.394  11.835  0.3262 -0.6355 -0.5548
  263MPD2     C 3977   3.819   3.420  11.607 -0.4978 -0.0295  0.2756
  263MPD2    C1 3978   3.914   3.518  11.621  0.6705  0.5819  0.2162
  263MPD2    C2 3979   3.898   3.626  11.533 -0.1587  0.3147 -0.2356
  263MPD2    C3 3980   3.820   3.623  11.417 -0.6387  0.3629 -0.2303
  263MPD2    C4 3981   3.738   3.514  11.402 -0.1364  0.0858  0.4744
  263MPD2    C5 3982   3.739   3.413  11.498 -0.2238  0.1285  0.3040
  263MPD2     H 3983   3.973   3.703  11.536  1.5837 -1.3912 -0.0879
  263MPD2    H1 3984   3.684   3.497  11.310 -0.2956 -0.7710  0.7266
  263MPD2    H2 3985   3.808   3.340  11.679  1.9194 -0.5113  0.1038
  263MPD2    H3 3986   3.669   3.331  11.486  0.1212 -0.3880  1.8792
  263MPD2     N 3987   3.816   3.726  11.332  0.9659  0.4042  0.5074
  263MPD2    H5 3988   3.853   3.814  11.368  0.3232  0.6647  0.5396
  263MPD2    N1 3989   4.012   3.514  11.728  0.0038  0.5990 -0.5296
  263MPD2    H7 3990   4.008   3.429  11.783 -1.1698  2.4264  2.1673
  264TMC3    C1 3991   3.747   3.852  11.139  0.7215 -0.1885  0.6938
  264TMC3    C2 3992   3.738   3.957  11.228 -0.0708 -0.2037  0.2750
  264TMC3    C3 3993   3.766   4.079  11.173  0.7823  0.3588  0.7374
  264TMC3    C4 3994   3.781   3.870  11.009  0.0562  0.4050 -0.8445
  264TMC3    C5 3995   3.806   3.997  10.963 -0.2627  0.3683  0.0715
  264TMC3    C6 3996   3.796   4.108  11.046  0.3153 -0.2097 -0.0075
  264TMC3     C 3997   3.763   3.722  11.202 -0.9096 -0.3870  0.5370
  264TMC3     O 3998   3.738   3.623  11.129 -0.1959 -0.0657 -0.3806
  264TMC3     H 3999   3.708   3.941  11.331 -2.0777  3.8149  0.3286
  264TMC3    H1 4000   3.795   3.789  10.939  0.5674  0.0382 -0.3146
  264TMC3    H2 4001   3.789   4.210  11.013  0.6837 -0.3013 -0.3649
  264TMC3    C7 4002   3.926   4.006  10.882  0.0417 -0.8851 -0.3674
  264TMC3    C8 4003   3.833   4.175  11.254 -0.7442  0.4214 -0.1664
  264TMC3    O1 4004   3.960   3.917  10.809  0.2845  0.2065 -0.4986
  264TMC3    O2 4005   3.924   4.219  11.185 -0.3666  0.0592  0.5346
  265MPD2     C 4006   1.227   4.430  15.302  0.0728  0.2179  0.2694
  265MPD2    C1 4007   1.339   4.520  15.318 -0.0838 -0.0342  0.2755
  265MPD2    C2 4008   1.460   4.473  15.263  0.0899  0.3713 -0.7313
  265MPD2    C3 4009   1.466   4.352  15.202  0.0620  0.2401 -0.7481
  265MPD2    C4 4010   1.351   4.278  15.167 -0.4526 -0.1649  0.8720
  265MPD2    C5 4011   1.233   4.314  15.228  1.1138  0.3134 -0.2165
  265MPD2     H 4012   1.551   4.528  15.283 -0.1181  0.4195  0.0604
  265MPD2    H1 4013   1.344   4.194  15.100  1.9441 -0.1902  0.6778
  265MPD2    H2 4014   1.130   4.447  15.347  0.1667  0.2745  0.4475
  265MPD2    H3 4015   1.138   4.266  15.208  1.7376 -1.6720  1.5471
  265MPD2     N 4016   1.587   4.291  15.161  0.1704  0.2790  0.1722
  265MPD2    H5 4017   1.583   4.210  15.099 -0.3296 -0.4030  1.0808
  265MPD2    N1 4018   1.328   4.641  15.393 -0.2360  0.5282  0.8919
  265MPD2    H7 4019   1.417   4.682  15.421 -0.4442 -0.3637  2.8350
  266TMC3    C1 4020   1.228   0.101  15.503 -0.2174  0.6783  0.9346
  266TMC3    C2 4021   1.301   0.086  15.616  0.2886  0.0997 -0.6093
  266TMC3    C3 4022   1.283   0.177  15.721  0.1161 -0.1159  0.5275
  266TMC3    C4 4023   1.128   0.192  15.492 -0.0145  0.4407 -0.5322
  266TMC3    C5 4024   1.105   0.273  15.598 -0.4188 -0.3522  0.7341
  266TMC3    C6 4025   1.177   0.273  15.715  0.0629  0.1683 -0.3571
  266TMC3     C 4026   1.219   4.712  15.420 -0.6805  0.2400  0.4991
  266TMC3     O 4027   1.106   4.694  15.384 -0.3979 -0.3617 -0.1888
  266TMC3     H 4028   1.367   0.001  15.627 -1.1811 -0.7704  1.3916
  266TMC3    H1 4029   1.077   0.198  15.396  1.7986 -2.9933 -1.7160
  266TMC3    H2 4030   1.157   0.351  15.788 -0.3561  0.5264 -0.8581
  266TMC3    C7 4031   1.013   0.379  15.580  0.4350  0.6897 -0.1597
  266TMC3    C8 4032   1.360   0.156  15.843 -0.7256 -0.2807  0.0535
  266TMC3    O1 4033   1.031   0.481  15.641  0.1849 -0.2894 -0.7872
  266TMC3    O2 4034   1.482   0.158  15.841  0.1734 -0.5845  0.0494
  267MPD2     C 4035   2.111   1.432   0.585 -0.3708 -0.6578  0.0712
  267MPD2    C1 4036   2.153   1.366   0.477  0.9042  0.7130  0.0963
  267MPD2    C2 4037   2.103   1.398   0.353  0.2011  0.4771 -0.0116
  267MPD2    C3 4038   2.014   1.500   0.336  1.1408 -0.0230 -0.1564
  267MPD2    C4 4039   1.985   1.573   0.447  0.0654 -0.5662 -0.4213
  267MPD2    C5 4040   2.029   1.535   0.569 -0.0315  0.9374  0.3118
  267MPD2     H 4041   2.150   1.357   0.264  1.9452  0.7689  0.7642
  267MPD2    H1 4042   1.933   1.668   0.444 -0.0817 -0.6398 -0.1007
  267MPD2    H2 4043   2.139   1.401   0.685  0.9123 -0.3691 -0.1936
  267MPD2    H3 4044   2.009   1.608   0.647  2.1538  2.2476 -0.3579
  267MPD2     N 4045   1.958   1.530   0.212  0.3015  0.3403 -0.3840
  267MPD2    H5 4046   1.904   1.615   0.213  1.7775  1.2729  0.9209
  267MPD2    N1 4047   2.254   1.268   0.504  0.5367  0.1330 -0.2817
  267MPD2    H7 4048   2.285   1.267   0.600  0.0836 -0.8562 -0.1400
  268TMC3    C1 4049   2.418   1.106   0.450 -0.3860 -0.4258 -0.4737
  268TMC3    C2 4050   2.519   1.085   0.360  0.4442  0.6178  0.4162
  268TMC3    C3 4051   2.627   1.022   0.407  0.3241 -0.0843  0.3735
  268TMC3    C4 4052   2.407   1.057   0.578  0.0656 -0.1285  0.0449
  268TMC3    C5 4053   2.518   0.984   0.610 -0.5330 -0.0186 -0.3276
  268TMC3    C6 4054   2.634   0.972   0.537  0.4828  0.4815 -0.1611
  268TMC3     C 4055   2.306   1.190   0.408  0.5917  0.2003 -0.0246
  268TMC3     O 4056   2.270   1.181   0.292  0.1984 -0.4001 -0.8518
  268TMC3     H 4057   2.523   1.135   0.263 -1.6541 -0.3932 -0.1943
  268TMC3    H1 4058   2.312   1.035   0.626  0.8480  2.3751  2.7324
  268TMC3    H2 4059   2.714   0.906   0.568  0.9505  1.0558 -0.1349
  268TMC3    C7 4060   2.550   0.952   0.745 -0.1037  0.7163  0.0204
  268TMC3    C8 4061   2.695   0.950   0.309 -0.1493  0.3215 -0.5926
  268TMC3    O1 4062   2.667   0.950   0.778  0.0575 -0.9176  0.0729
  268TMC3    O2 4063   2.739   0.844   0.344  0.3525 -1.0461  0.5160
  269MPD2     C 4064   3.861   0.473  15.632  0.0619  0.4888 -0.2912
  269MPD2    C1 4065   3.720   0.473  15.614 -0.2932  0.2584  0.4428
  269MPD2    C2 4066   3.666   0.586  15.558 -0.5350  0.5509 -0.6172
  269MPD2    C3 4067   3.743   0.697  15.510  0.0626  0.1968 -0.0236
  269MPD2    C4 4068   3.880   0.685  15.516 -0.2299 -0.4353 -0.5650
  269MPD2    C5 4069   3.933   0.572  15.582 -0.2706 -0.6091  0.0070
  269MPD2     H 4070   3.557   0.591  15.558 -0.6432 -1.7111 -1.7285
  269MPD2    H1 4071   3.953   0.751  15.471 -0.1060  0.4531  0.9569
  269MPD2    H2 4072   3.913   0.394  15.684  1.6203  3.3514  2.4715
  269MPD2    H3 4073   4.041   0.561  15.591 -0.0791  0.6196 -0.8056
  269MPD2     N 4074   3.674   0.806  15.462  0.5034  0.3648 -0.0397
  269MPD2    H5 4075   3.573   0.798  15.447  0.6223  0.8004 -1.0668
  269MPD2    N1 4076   3.628   0.376  15.668  0.0262  0.1326 -0.1410
  269MPD2    H7 4077   3.528   0.392  15.658 -0.1034 -1.1627 -0.9390
  270TMC3    C1 4078   3.553   0.187  15.794 -0.2170  0.8176  0.0866
  270TMC3    C2 4079   3.450   0.152  15.715 -0.4351 -0.0770 -0.3270
  270TMC3    C3 4080   3.375   0.043  15.751  0.8667 -0.2071  0.3256
  270TMC3    C4 4081   3.575   0.131  15.915  0.2844 -0.1437  0.4384
  270TMC3    C5 4082   3.495   0.033  15.954 -0.8866 -0.4511  0.3813
  270TMC3    C6 4083   3.396   4.702  15.874  0.7467 -0.0613 -0.6684
  270TMC3     C 4084   3.666   0.273  15.744 -0.0566  0.6682 -0.1936
  270TMC3     O 4085   3.773   0.234  15.782  0.2484  0.0873 -0.1855
  270TMC3     H 4086   3.428   0.206  15.624 -1.7762 -1.9977 -1.1185
  270TMC3    H1 4087   3.655   0.160  15.982  0.2468 -1.7554  1.1935
  270TMC3    H2 4088   3.350   4.610  15.906 -2.8131  2.1617  0.5730
  270TMC3    C7 4089   3.550   4.669  16.051 -0.0154 -0.2578  0.7227
  270TMC3    C8 4090   3.334   4.669  15.651  0.0594  0.4021  0.3143
  270TMC3    O1 4091   3.671   4.658  16.039  0.5103  0.0899  0.2456
  270TMC3    O2 4092   3.273   4.569  15.684 -0.1762 -0.4071  0.1382
  271MPD2     C 4093   3.005   4.605  13.885 -0.6416  0.0630  0.4351
  271MPD2    C1 4094   2.971   4.627  14.015  0.3139 -0.7552 -0.6721
  271MPD2    C2 4095   2.848   4.674  14.051 -0.0685  0.2568 -0.4645
  271MPD2    C3 4096   2.753   4.685  13.957 -0.2112 -0.0480  0.6536
  271MPD2    C4 4097   2.776   4.663  13.828 -0.3095 -0.1137  0.0897
  271MPD2    C5 4098   2.902   4.630  13.792 -0.2167 -0.1134 -0.4647
  271MPD2     H 4099   2.831   4.688  14.157  1.5993 -0.7984 -0.0595
  271MPD2    H1 4100   2.702   4.674  13.750 -2.2604  2.3539  2.2804
  271MPD2    H2 4101   3.098   4.570  13.843 -1.3769 -0.4562 -0.7581
  271MPD2    H3 4102   2.925   4.617  13.686 -1.4056  0.9164 -0.8486
  271MPD2     N 4103   2.621   4.715  13.981 -0.1931  0.3613  0.0106
  271MPD2    H5 4104   2.564   4.695  13.900  1.5254 -3.8143 -0.1538
  271MPD2    N1 4105   3.051   4.599  14.124 -0.3635  0.5435  0.1180
  271MPD2    H7 4106   3.017   4.609  14.219 -1.3136  0.4001 -0.2078
  272TMC3    C1 4107   3.235   4.502  14.240  0.0977  0.1995 -0.4548
  272TMC3    C2 4108   3.374   4.495  14.245  0.2444 -0.2605  0.1467
  272TMC3    C3 4109   3.433   4.455  14.363 -0.5312  0.3160  0.5759
  272TMC3    C4 4110   3.154   4.471  14.348  0.2495  0.2706  0.0882
  272TMC3    C5 4111   3.218   4.459  14.464 -0.1031  0.0736 -0.7173
  272TMC3    C6 4112   3.352   4.451  14.471 -0.6094  0.3830 -0.4748
  272TMC3     C 4113   3.183   4.554  14.114 -0.3974 -0.4089  0.4097
  272TMC3     O 4114   3.259   4.578  14.020  0.4025  0.3025 -0.5955
  272TMC3     H 4115   3.434   4.525  14.160 -1.0133 -0.3891 -0.7866
  272TMC3    H1 4116   3.047   4.481  14.343  0.0579 -1.9489 -0.3637
  272TMC3    H2 4117   3.386   4.438  14.574 -3.5200 -2.2612  0.1305
  272TMC3    C7 4118   3.128   4.487  14.579 -0.4856 -0.5064 -0.9746
  272TMC3    C8 4119   3.577   4.456  14.382  0.3201  0.3525  0.7986
  272TMC3    O1 4120   3.005   4.461  14.578  0.6267  0.0786 -0.3346
  272TMC3    O2 4121   3.650   4.499  14.293  0.4216  0.0487  0.1047
  273MPD2     C 4122   4.370   2.391  11.785  0.0672  0.7247  0.3310
  273MPD2    C1 4123   4.480   2.480  11.784  0.6236  0.2330  0.2631
  273MPD2    C2 4124   4.525   2.520  11.660 -0.1640  0.0082 -0.1496
  273MPD2    C3 4125   4.462   2.472  11.543 -0.4581 -1.4007 -0.1224
  273MPD2    C4 4126   4.366   2.370  11.548  0.6581  0.0038  0.2221
  273MPD2    C5 4127   4.326   2.322  11.673  0.4005  0.5618 -0.4384
  273MPD2     H 4128   4.617   2.578  11.657 -0.7690  1.0033  0.6648
  273MPD2    H1 4129   4.329   2.320  11.458  1.6841 -1.3659  0.5596
  273MPD2    H2 4130   4.330   2.357  11.880  1.0825  0.7823  0.7787
  273MPD2    H3 4131   4.257   2.239  11.679  0.9775  0.1909  1.0378
  273MPD2     N 4132   4.504   2.518  11.414  0.4145  0.4531 -0.3624
  273MPD2    H5 4133   4.465   2.471  11.333  0.0006  0.2674 -0.0542
  273MPD2    N1 4134   4.539   2.532  11.901 -0.1768  0.9223  0.3685
  273MPD2    H7 4135   4.614   2.599  11.894  0.2166  0.7185  2.4758
  274TMC3    C1 4136   4.569   2.687  11.263 -0.5242  0.0206 -0.0007
  274TMC3    C2 4137   4.465   2.646  11.185 -0.0954  0.4188 -0.0008
  274TMC3    C3 4138   4.462   2.696  11.060  0.4631  0.7438  0.4128
  274TMC3    C4 4139   4.653   2.797  11.244  0.6836 -0.0688 -0.3253
  274TMC3    C5 4140   4.624   2.857  11.126  0.5897  0.7881  0.1445
  274TMC3    C6 4141   4.536   2.809  11.038  0.3708 -0.4904 -0.4414
  274TMC3     C 4142   4.574   2.632  11.398 -0.3075  0.0130 -0.0012
  274TMC3     O 4143   4.641   2.699  11.473  0.1627  0.2115 -0.3451
  274TMC3     H 4144   4.403   2.562  11.215  0.9984 -0.0878  0.8647
  274TMC3    H1 4145   4.717   2.846  11.316  0.2767  1.9154 -1.2941
  274TMC3    H2 4146   4.534   2.861  10.943 -3.0719  1.8884  0.9413
  274TMC3    C7 4147   4.646   2.996  11.124 -0.3674 -0.1746 -0.8230
  274TMC3    C8 4148   4.337   2.682  11.002  0.3184  0.0490  0.7168
  274TMC3    O1 4149   4.703   3.046  11.024 -0.2005  1.0331 -0.0856
  274TMC3    O2 4150   4.244   2.648  11.073 -0.6067 -0.4841  0.1367
  275MPD2     C 4151   4.217   1.266  14.167 -0.4651  0.0963 -0.7503
  275MPD2    C1 4152   4.220   1.152  14.244  0.2511 -0.2100 -0.0385
  275MPD2    C2 4153   4.103   1.077  14.241  0.3881 -0.1978  0.0127
  275MPD2    C3 4154   3.987   1.112  14.170 -0.4486 -0.2654 -0.1013
  275MPD2    C4 4155   3.991   1.223  14.089 -0.0183 -0.3181 -0.4533
  275MPD2    C5 4156   4.108   1.298  14.093 -0.1778  0.5484  0.4730
  275MPD2     H 4157   4.112   0.982  14.293  0.1310 -2.3181 -3.7821
  275MPD2    H1 4158   3.913   1.236  14.015 -2.3049 -0.5962  1.9691
  275MPD2    H2 4159   4.291   1.345  14.168  0.7914 -1.1235  0.4402
  275MPD2    H3 4160   4.118   1.386  14.030  1.1309  0.9532  1.2576
  275MPD2     N 4161   3.867   1.036  14.171  0.3048 -0.2274 -0.6780
  275MPD2    H5 4162   3.782   1.080  14.139 -0.0159 -1.8728 -2.1108
  275MPD2    N1 4163   4.339   1.109  14.318 -0.1050 -0.1775  0.0493
  275MPD2    H7 4164   4.330   1.021  14.368 -2.0669 -0.3230 -0.5502
  276TMC3    C1 4165   4.558   1.093  14.384  0.0785  0.1901 -0.3890
  276TMC3    C2 4166   4.516   0.965  14.405 -0.1857 -0.9094 -0.2121
  276TMC3    C3 4167   4.584   0.899  14.504  0.6018 -0.3367  0.3762
  276TMC3    C4 4168   4.657   1.155  14.450  0.1278 -0.6433  0.3121
  276TMC3    C5 4169   4.703   1.089  14.559 -0.1867 -0.0627 -0.6849
  276TMC3    C6 4170   4.677   0.958  14.582  0.1384 -0.2938 -0.4557
  276TMC3     C 4171   4.459   1.172  14.316  0.3130  0.0926  0.8431
  276TMC3     O 4172   4.500   1.274  14.255 -0.4111  0.1026 -0.0263
  276TMC3     H 4173   4.461   0.905  14.334  0.2918 -1.3550 -0.2091
  276TMC3    H1 4174   4.683   1.259  14.434  0.5197 -1.1621 -2.4889
  276TMC3    H2 4175   0.018   0.906  14.653  0.0632 -1.9520 -1.6063
  276TMC3    C7 4176   0.077   1.149  14.652 -0.3412 -0.6331 -0.3138
  276TMC3    C8 4177   4.558   0.755  14.514  0.3907  0.8349  0.4855
  276TMC3    O1 4178   0.079   1.094  14.758  0.5816  0.0540  0.3153
  276TMC3    O2 4179   4.506   0.706  14.415  0.2151 -0.3659  0.3394
  277MPD2     C 4180   1.855   4.341  13.495  0.6170 -0.0802 -0.2979
  277MPD2    C1 4181   1.754   4.264  13.430 -0.4883 -0.1705  0.0985
  277MPD2    C2 4182   1.671   4.183  13.498  0.5010 -0.1604 -0.2661
  277MPD2    C3 4183   1.673   4.175  13.634 -0.4278  0.0387 -0.7101
  277MPD2    C4 4184   1.767   4.254  13.703 -0.0694 -0.1260  0.2584
  277MPD2    C5 4185   1.865   4.325  13.634  0.5807  0.2955  0.1558
  277MPD2     H 4186   1.597   4.129  13.441  0.7993  1.2934 -2.0564
  277MPD2    H1 4187   1.770   4.247  13.812  1.2110 -2.2169  0.0879
  277MPD2    H2 4188   1.929   4.395  13.438  1.2198  1.0558  1.5686
  277MPD2    H3 4189   1.938   4.379  13.692 -0.2793  2.5806 -0.9134
  277MPD2     N 4190   1.560   4.115  13.697 -0.3323  0.0923 -0.1697
  277MPD2    H5 4191   1.486   4.083  13.636  0.0163 -0.0225 -0.5279
  277MPD2    N1 4192   1.725   4.262  13.293  0.0397 -0.6474 -0.1318
  277MPD2    H7 4193   1.652   4.207  13.247 -1.6944  1.0242  0.5902
  278TMC3    C1 4194   1.412   4.040  13.862  0.1365  0.0293  0.3067
  278TMC3    C2 4195   1.367   3.962  13.760  0.1213  0.1350  0.1693
  278TMC3    C3 4196   1.228   3.943  13.766 -0.0285  0.1273  0.5936
  278TMC3    C4 4197   1.338   4.097  13.963  0.5628 -0.4344 -0.5820
  278TMC3    C5 4198   1.199   4.068  13.965 -0.3100 -0.0587 -0.2379
  278TMC3    C6 4199   1.141   3.991  13.864  0.1561  0.3348 -0.2374
  278TMC3     C 4200   1.538   4.114  13.834 -0.1661 -0.1292 -1.4104
  278TMC3     O 4201   1.602   4.163  13.922  0.6312 -0.1921 -0.4314
  278TMC3     H 4202   1.428   3.919  13.681 -0.2699 -0.0553 -0.0284
  278TMC3    H1 4203   1.377   4.154  14.047 -1.2967 -0.4357  0.2839
  278TMC3    H2 4204   1.037   3.959  13.855 -0.2267  0.9586  2.1222
  278TMC3    C7 4205   1.115   4.136  14.069 -0.0244  0.4744  0.3847
  278TMC3    C8 4206   1.183   3.813  13.715 -0.4850 -0.0691  0.1281
  278TMC3    O1 4207   1.170   4.188  14.167 -0.6558  0.1768  0.7327
  278TMC3    O2 4208   1.277   3.730  13.711 -0.4227 -0.5768 -0.1129
  279MPD2     C 4209   0.016   4.172   1.189 -0.7005  0.4801  0.4725
  279MPD2    C1 4210   4.707   4.265   1.089  0.3371  0.7543  0.2436
  279MPD2    C2 4211   0.031   4.245   0.962  0.3324 -0.3287 -0.0658
  279MPD2    C3 4212   0.118   4.141   0.926  0.7550  0.3900  0.5021
  279MPD2    C4 4213   0.144   4.049   1.025  1.1153  0.2437 -0.1297
  279MPD2    C5 4214   0.092   4.065   1.153 -0.2536 -0.4151  0.3656
  279MPD2     H 4215   0.004   4.316   0.885 -2.5851 -0.6337  0.7109
  279MPD2    H1 4216   0.202   3.961   1.000  1.9891  1.0307 -0.8591
  279MPD2    H2 4217   4.707   4.170   1.293  1.2333 -2.0330  1.0045
  279MPD2    H3 4218   0.114   3.993   1.231 -0.2957 -0.2944  0.4890
  279MPD2     N 4219   0.158   4.117   0.797 -0.9427 -0.6060  1.0214
  279MPD2    H5 4220   0.212   4.032   0.784  0.6908  1.0223 -3.0059
  279MPD2    N1 4221   4.618   4.373   1.118  0.2397 -1.0247  0.1010
  279MPD2    H7 4222   4.575   4.363   1.209 -0.0102  1.9084  0.3171
  280TMC3    C1 4223   4.430   4.491   1.039 -0.1747  0.0343  0.7451
  280TMC3    C2 4224   4.364   4.373   1.057  0.3580 -0.0326  0.6728
  280TMC3    C3 4225   4.269   4.337   0.964  0.0392 -0.1840  0.2102
  280TMC3    C4 4226   4.400   4.574   0.940  0.0610 -0.0138  0.3275
  280TMC3    C5 4227   4.303   4.536   0.856 -0.4415  0.0113 -0.2692
  280TMC3    C6 4228   4.228   4.420   0.864  0.3177 -0.4368  0.0877
  280TMC3     C 4229   4.575   4.476   1.036  0.4229  0.4190 -0.3176
  280TMC3     O 4230   4.630   4.529   0.942 -0.0161  0.8254  0.6292
  280TMC3     H 4231   4.375   4.317   1.149 -1.1255 -0.2270  0.7369
  280TMC3    H1 4232   4.453   4.669   0.935 -1.0383  0.5910  0.2037
  280TMC3    H2 4233   4.163   4.392   0.781  0.2101 -0.3897  0.1559
  280TMC3    C7 4234   4.284   4.615   0.739  0.2703 -0.3778  0.2529
  280TMC3    C8 4235   4.256   4.198   0.925  0.1834 -0.0003 -0.6260
  280TMC3    O1 4236   4.178   4.608   0.675 -0.1404  0.2883 -0.8304
  280TMC3    O2 4237   4.236   4.173   0.806  0.6571  0.1455 -0.8173
  281TMC3    C1 4238   3.637   0.417  13.252 -0.4814  0.0488  0.3023
  281TMC3    C2 4239   3.640   0.532  13.171 -0.0664 -0.8810  0.1338
  281TMC3    C3 4240   3.650   0.514  13.035  0.1534  0.1312  0.2112
  281TMC3    C4 4241   3.650   0.295  13.200  0.0211 -0.2210 -0.1693
  281TMC3    C5 4242   3.664   0.283  13.066 -0.0591  0.3010 -0.0618
  281TMC3    C6 4243   3.659   0.390  12.979 -0.0954  0.1999 -0.1517
  281TMC3     C 4244   3.606   0.435  13.390  0.0587 -0.2262  0.2263
  281TMC3     O 4245   3.689   0.391  13.467 -0.6110 -0.1403 -0.1986
  281TMC3     H 4246   3.627   0.630  13.215 -2.1125 -0.2580 -1.7953
  281TMC3    H1 4247   3.649   0.210  13.267  2.3621  0.7396  1.0675
  281TMC3    H2 4248   3.662   0.368  12.873 -0.8269 -1.5924  0.1853
  281TMC3    C7 4249   3.656   0.154  13.008  0.1049 -0.4202  0.1937
  281TMC3    C8 4250   3.675   0.629  12.953  0.1144 -0.8505 -0.4787
  281TMC3    O1 4251   3.608   0.138  12.900 -0.2775 -0.3112  0.0449
  281TMC3    O2 4252   3.750   0.605  12.857  0.4293 -0.3185  0.1817
  282MPD2     C 4253   0.796   1.450  15.125  0.1554 -0.2914  0.1423
  282MPD2    C1 4254   0.812   1.563  15.204 -0.3674  0.2170  0.3152
  282MPD2    C2 4255   0.794   1.690  15.147 -0.2027 -0.2321  0.3349
  282MPD2    C3 4256   0.757   1.707  15.013  0.1368 -0.7716 -0.4246
  282MPD2    C4 4257   0.721   1.592  14.953  0.1825  0.9743 -0.2338
  282MPD2    C5 4258   0.743   1.466  14.998  0.0711  0.0554  0.6005
  282MPD2     H 4259   0.787   1.775  15.214  1.1800  0.7387 -0.7248
  282MPD2    H1 4260   0.678   1.593  14.853 -1.5761 -1.9272  0.4690
  282MPD2    H2 4261   0.806   1.351  15.168 -0.6718 -0.4078  0.0703
  282MPD2    H3 4262   0.706   1.381  14.942  0.4671  0.9958 -1.0741
  282MPD2     N 4263   0.733   1.833  14.953 -0.2118 -0.4863 -0.0953
  282MPD2    H5 4264   0.748   1.916  15.010 -2.8691 -0.9675  1.3146
  282MPD2    N1 4265   0.844   1.558  15.339  0.0205  0.1637 -0.2469
  282MPD2    H7 4266   0.852   1.649  15.383 -0.1362  0.9356 -1.8224
  283TMC3    C1 4267   0.890   1.471  15.556  0.1554  0.4960  0.5745
  283TMC3    C2 4268   0.880   1.598  15.612  0.1403  0.6605 -0.6368
  283TMC3    C3 4269   0.905   1.609  15.746 -0.5406 -0.3040 -0.0905
  283TMC3    C4 4270   0.904   1.363  15.635 -0.1933 -0.1593  0.4731
  283TMC3    C5 4271   0.942   1.385  15.766 -0.0870 -0.3048 -0.4607
  283TMC3    C6 4272   0.944   1.504  15.823  0.2835 -0.0451  0.5617
  283TMC3     C 4273   0.867   1.444  15.412 -0.0706 -0.5354 -0.2593
  283TMC3     O 4274   0.867   1.324  15.371 -1.0483 -0.4650  0.5113
  283TMC3     H 4275   0.849   1.683  15.552 -0.9730  2.0242  1.8803
  283TMC3    H1 4276   0.888   1.267  15.587 -0.7743  0.0182  0.3208
  283TMC3    H2 4277   0.956   1.517  15.930  1.5770 -0.9356  0.5132
  283TMC3    C7 4278   0.885   1.285  15.851  0.5366 -0.0253  0.1894
  283TMC3    C8 4279   0.900   1.735  15.818 -0.3082  0.0325 -0.2346
  283TMC3    O1 4280   0.805   1.327  15.928  0.4266 -0.0978  0.5709
  283TMC3    O2 4281   0.948   1.727  15.929 -0.4305  0.2587  0.6093
  284MPD2     C 4282   4.007   0.849  12.261 -0.1060 -0.2882  0.0979
  284MPD2    C1 4283   3.937   0.822  12.142 -0.2674 -0.1834 -0.4473
  284MPD2    C2 4284   3.853   0.714  12.131  0.8539  0.9879  0.4181
  284MPD2    C3 4285   3.834   0.631  12.239 -0.6361 -0.2430 -0.0010
  284MPD2    C4 4286   3.903   0.646  12.358 -0.8195 -0.5848 -0.2330
  284MPD2    C5 4287   3.987   0.761  12.367 -0.0107 -0.0175  0.0112
  284MPD2     H 4288   3.804   0.695  12.037 -1.3074  0.9990  1.5507
  284MPD2    H1 4289   3.892   0.587  12.448 -0.5919 -0.1139  0.1050
  284MPD2    H2 4290   4.070   0.937  12.268 -0.2665 -0.0302 -1.7144
  284MPD2    H3 4291   4.036   0.782  12.461 -0.4387 -1.0185  0.4636
  284MPD2     N 4292   3.772   0.512  12.205 -0.2845 -0.0841 -0.1006
  284MPD2    H5 4293   3.728   0.509  12.114  1.4799 -0.1573 -0.9487
  284MPD2    N1 4294   3.963   0.896  12.020  0.2894 -0.2221 -0.1361
  284MPD2    H7 4295   3.906   0.870  11.940  0.2852 -0.5661 -0.0233
  285TMC3    C1 4296   4.104   1.017  11.884  0.3093 -0.3627  0.2165
  285TMC3    C2 4297   4.124   0.909  11.791  0.2388 -0.0427 -0.0133
  285TMC3    C3 4298   4.223   0.918  11.693 -0.0231 -0.1569 -0.2466
  285TMC3    C4 4299   4.186   1.129  11.874  0.2835  0.2817  0.2715
  285TMC3    C5 4300   4.283   1.134  11.771 -0.1444 -0.3243  0.5230
  285TMC3    C6 4301   4.298   1.034  11.679  0.0344  0.4468 -0.3330
  285TMC3     C 4302   4.047   1.001  12.014  0.2834 -0.6011  0.7242
  285TMC3     O 4303   4.084   1.078  12.107 -0.4590 -0.3975  0.4161
  285TMC3     H 4304   4.081   0.810  11.806 -0.7992  0.5284  0.7669
  285TMC3    H1 4305   4.155   1.213  11.934  0.7733  0.7158 -0.0785
  285TMC3    H2 4306   4.380   1.042  11.609  1.5026 -0.7355  1.2387
  285TMC3    C7 4307   4.359   1.255  11.757 -0.6598  0.3386  0.4249
  285TMC3    C8 4308   4.258   0.796  11.615 -0.1548 -0.0424 -1.0874
  285TMC3    O1 4309   4.433   1.256  11.661 -0.5851  0.0582  0.1609
  285TMC3    O2 4310   4.192   0.690  11.631 -0.2613  0.1753  0.3197
  286MPD2     C 4311   3.984   3.703   2.412  0.3939 -0.3427  0.0881
  286MPD2    C1 4312   3.975   3.734   2.275  0.2809 -0.4494  0.1724
  286MPD2    C2 4313   4.058   3.660   2.185  0.5436  0.3704  0.1785
  286MPD2    C3 4314   4.138   3.555   2.226  0.2459  0.1850  0.3054
  286MPD2    C4 4315   4.136   3.521   2.356  0.1543 -0.2072 -0.2367
  286MPD2    C5 4316   4.064   3.594   2.447  0.0223  0.3188 -0.6185
  286MPD2     H 4317   4.057   3.689   2.080  0.6818 -0.3861 -0.0302
  286MPD2    H1 4318   4.188   3.432   2.390  0.0201  0.7358  2.3994
  286MPD2    H2 4319   3.932   3.753   2.493  0.9434 -0.3789  0.4622
  286MPD2    H3 4320   4.067   3.567   2.552 -1.3950 -1.7449 -1.1124
  286MPD2     N 4321   4.229   3.479   2.145  0.1652 -0.3190  0.0111
  286MPD2    H5 4322   4.294   3.417   2.192  0.1683 -0.7654 -0.5960
  286MPD2    N1 4323   3.895   3.837   2.224  0.6384  0.0783  0.4066
  286MPD2    H7 4324   3.902   3.851   2.123  0.5406 -0.1965  0.3597
  287TMC3    C1 4325   4.313   3.401   1.938 -0.4270  0.1151 -0.2942
  287TMC3    C2 4326   4.297   3.365   1.805  0.3118  0.0433  1.1924
  287TMC3    C3 4327   4.398   3.299   1.739 -0.2167  0.0307  0.2479
  287TMC3    C4 4328   4.436   3.396   1.989 -0.1702 -0.2265  0.1541
  287TMC3    C5 4329   4.534   3.336   1.919 -0.1960  0.5200 -0.3184
  287TMC3    C6 4330   4.517   3.275   1.802 -0.8087 -0.1435  0.5269
  287TMC3     C 4331   4.214   3.482   2.012  0.1212  0.4814  0.4040
  287TMC3     O 4332   4.117   3.514   1.942  0.4984  0.0553 -0.6924
  287TMC3     H 4333   4.201   3.369   1.753 -0.5060 -3.6479  2.4235
  287TMC3    H1 4334   4.453   3.454   2.079  0.6882 -1.8382  1.0363
  287TMC3    H2 4335   4.599   3.221   1.755 -0.7852  1.2435 -1.0125
  287TMC3    C7 4336   4.664   3.361   1.971 -0.2766 -0.2829 -0.5593
  287TMC3    C8 4337   4.382   3.283   1.598 -0.4067 -0.8148 -0.3664
  287TMC3    O1 4338   4.667   3.447   2.054  0.4375  0.4931 -0.6027
  287TMC3    O2 4339   4.263   3.280   1.560  0.2046  0.0861 -0.4577
  288TMC3    C1 4340   1.630   4.134  14.629 -0.1960  0.1857 -0.0049
  288TMC3    C2 4341   1.628   4.091  14.762  0.1361  0.6380  0.1739
  288TMC3    C3 4342   1.543   3.984  14.793  0.1420 -0.2800 -1.0030
  288TMC3    C4 4343   1.552   4.065  14.532 -0.3439  0.3813 -0.5999
  288TMC3    C5 4344   1.475   3.959  14.565 -0.1691 -0.1109  0.1086
  288TMC3    C6 4345   1.463   3.924  14.697  0.3478 -0.0339 -0.7141
  288TMC3     C 4346   1.670   4.269  14.600  0.1439  0.6776  0.8274
  288TMC3     O 4347   1.714   4.344  14.687  0.4534  0.6605  0.7427
  288TMC3     H 4348   1.663   4.164  14.834 -3.7275  2.0256  0.6131
  288TMC3    H1 4349   1.526   4.108  14.436  0.2068  1.4076 -0.2853
  288TMC3    H2 4350   1.403   3.836  14.719 -1.7363  1.3350 -1.0291
  288TMC3    C7 4351   1.379   3.905  14.478 -0.5268  0.0008  0.2921
  288TMC3    C8 4352   1.508   3.971  14.943 -0.1192 -0.3267  0.1088
  288TMC3    O1 4353   1.284   3.846  14.525  0.5472  0.6398  0.2013
  288TMC3    O2 4354   1.539   4.066  15.019 -0.0678  0.4029  0.2014
  289MPD2     C 4355   1.896   3.821  14.615  0.1094  0.1116 -0.3334
  289MPD2    C1 4356   1.887   3.798  14.485  0.2139 -0.3672  0.4285
  289MPD2    C2 4357   1.766   3.742  14.441  0.3668 -0.0094  0.1595
  289MPD2    C3 4358   1.683   3.672  14.529 -0.3152  0.3826 -0.2932
  289MPD2    C4 4359   1.698   3.693  14.667 -0.7940  0.0211 -0.4247
  289MPD2    C5 4360   1.805   3.769  14.704  0.3598 -0.0683 -0.2228
  289MPD2     H 4361   1.746   3.738  14.334 -1.0206  0.8835  0.3974
  289MPD2    H1 4362   1.630   3.650  14.740 -0.3048 -0.5017 -0.2775
  289MPD2    H2 4363   1.988   3.867  14.649 -0.1175 -0.4341  1.0198
  289MPD2    H3 4364   1.824   3.787  14.809 -6.2053 -1.0207  1.1136
  289MPD2     N 4365   1.569   3.598  14.484  0.0617  0.3528 -0.5071
  289MPD2    H5 4366   1.507   3.564  14.557  2.9368 -2.0531  0.8011
  289MPD2    N1 4367   1.994   3.827  14.398 -0.1318 -0.4145  1.0391
  289MPD2    H7 4368   2.074   3.871  14.442  1.0041  2.6016 -4.0387
  290TMC3    C1 4369   1.418   3.501  14.334 -0.0284 -0.6530 -0.1049
  290TMC3    C2 4370   1.308   3.542  14.390  0.2666  0.8557  0.0093
  290TMC3    C3 4371   1.200   3.456  14.390 -0.6223 -0.0013  0.0140
  290TMC3    C4 4372   1.426   3.387  14.254 -0.0946  0.1321 -0.6279
  290TMC3    C5 4373   1.313   3.301  14.252  0.5108 -0.7850  0.3868
  290TMC3    C6 4374   1.199   3.336  14.323  0.8038 -0.1005 -0.1292
  290TMC3     C 4375   1.543   3.566  14.350 -0.1344  0.7147  0.1790
  290TMC3     O 4376   1.622   3.561  14.254  0.1807  0.0081 -0.7421
  290TMC3     H 4377   1.313   3.632  14.449  1.0117  0.5932  0.3509
  290TMC3    H1 4378   1.520   3.354  14.212  0.9969  0.0515  1.8971
  290TMC3    H2 4379   1.109   3.276  14.313  0.3138  0.7750 -0.9790
  290TMC3    C7 4380   1.319   3.194  14.153  0.6162 -0.1135  0.0308
  290TMC3    C8 4381   1.069   3.510  14.435  0.0177  0.3088  0.5855
  290TMC3    O1 4382   1.387   3.214  14.049  0.1465 -0.1849  0.1926
  290TMC3    O2 4383   0.977   3.432  14.457  0.2184  0.0457  0.1536
  291MPD2     C 4384   0.012   1.751   0.595 -1.4717 -0.0058 -0.1131
  291MPD2    C1 4385   4.667   1.767   0.477  0.5603 -0.2496  0.0487
  291MPD2    C2 4386   0.009   1.838   0.377 -0.6009 -0.1137  0.0600
  291MPD2    C3 4387   0.128   1.903   0.398 -0.3735  0.6265 -0.0966
  291MPD2    C4 4388   0.192   1.886   0.516  0.7633 -0.9421  0.7336
  291MPD2    C5 4389   0.130   1.815   0.620  0.4246 -0.1778  0.0725
  291MPD2     H 4390   4.676   1.849   0.284 -0.7440 -0.1145  0.1443
  291MPD2    H1 4391   0.286   1.935   0.540  1.0310 -1.4836  0.7745
  291MPD2    H2 4392   4.691   1.695   0.678 -0.0656  1.6614  1.7402
  291MPD2    H3 4393   0.176   1.814   0.718  1.4678  0.9998 -0.4102
  291MPD2     N 4394   0.198   1.964   0.294 -0.2664  0.4405  0.5653
  291MPD2    H5 4395   0.294   1.991   0.314  0.3268  0.0346 -1.7076
  291MPD2    N1 4396   4.536   1.718   0.462 -0.3487  0.2351 -0.5936
  291MPD2    H7 4397   4.498   1.703   0.368 -1.5412 -0.2016 -0.0421
  292TMC3    C1 4398   4.318   1.644   0.506 -0.3305  0.3283 -0.6622
  292TMC3    C2 4399   4.195   1.682   0.552  0.4826  0.3107 -0.7780
  292TMC3    C3 4400   4.082   1.615   0.516  0.7032 -0.4829 -0.0407
  292TMC3    C4 4401   4.322   1.535   0.427 -0.1182  0.7523  0.6345
  292TMC3    C5 4402   4.210   1.468   0.393 -0.0390 -0.2682 -0.3521
  292TMC3    C6 4403   4.085   1.516   0.417  1.0813  0.1155 -0.6513
  292TMC3     C 4404   4.447   1.691   0.565 -0.4952  0.2998 -0.7334
  292TMC3     O 4405   4.437   1.767   0.662 -0.1817  0.2682 -0.4448
  292TMC3     H 4406   4.194   1.766   0.621  2.5563  1.2951 -1.9263
  292TMC3    H1 4407   4.413   1.485   0.398 -1.4557 -1.8789  1.0519
  292TMC3    H2 4408   4.001   1.461   0.376  1.1015 -2.0994  2.2166
  292TMC3    C7 4409   4.223   1.354   0.313 -0.2024 -0.0318 -0.4284
  292TMC3    C8 4410   3.956   1.683   0.529  0.7559 -0.4215  0.6515
  292TMC3    O1 4411   4.330   1.342   0.266 -0.3977  0.3465  0.3273
  292TMC3    O2 4412   3.967   1.799   0.566  0.2378 -0.2690  0.3241
  293MPD2     C 4413   2.341   4.454  12.519 -0.2668 -0.3737  0.1261
  293MPD2    C1 4414   2.285   4.358  12.597 -0.3985 -0.5506  0.3155
  293MPD2    C2 4415   2.324   4.355  12.734  0.4886  0.0716 -0.9344
  293MPD2    C3 4416   2.420   4.438  12.784  0.4348  0.3751 -0.1382
  293MPD2    C4 4417   2.472   4.535  12.701 -0.5971 -0.6473 -0.0783
  293MPD2    C5 4418   2.426   4.541  12.578  0.3784  0.2275 -0.0057
  293MPD2     H 4419   2.281   4.285  12.805 -2.2303  2.1798 -0.5043
  293MPD2    H1 4420   2.543   4.610  12.735  0.4738 -0.4572 -2.7504
  293MPD2    H2 4421   2.301   4.462  12.418 -0.7132  1.7111  0.4576
  293MPD2    H3 4422   2.451   4.628  12.519 -0.1426 -0.9321 -1.9137
  293MPD2     N 4423   2.462   4.429  12.923 -0.4583  0.3117 -0.0494
  293MPD2    H5 4424   2.430   4.347  12.974 -2.5114  1.3436  0.3116
  293MPD2    N1 4425   2.189   4.274  12.540 -0.2123 -0.5447 -0.3938
  293MPD2    H7 4426   2.193   4.272  12.439 -0.7113  0.7255 -0.4358
  294TMC3    C1 4427   2.031   4.118  12.495 -0.0517 -0.3392 -0.2912
  294TMC3    C2 4428   1.901   4.080  12.515  0.1260 -0.1806 -0.3036
  294TMC3    C3 4429   1.825   4.023  12.414  0.4011 -0.1961  0.2596
  294TMC3    C4 4430   2.086   4.097  12.373  0.2340 -0.9019  0.4066
  294TMC3    C5 4431   2.005   4.044  12.274  0.8624  0.2752  0.3063
  294TMC3    C6 4432   1.882   4.002  12.289 -0.5184 -0.2709 -0.4316
  294TMC3     C 4433   2.100   4.197  12.601  0.8520  0.9063 -0.3121
  294TMC3     O 4434   2.058   4.197  12.711 -0.0844 -0.2195 -0.0373
  294TMC3     H 4435   1.863   4.064  12.615 -1.5678 -3.0827 -1.4167
  294TMC3    H1 4436   2.188   4.128  12.352 -0.2865  0.3086 -0.3255
  294TMC3    H2 4437   1.822   3.965  12.206  0.4622  0.2665 -1.3736
  294TMC3    C7 4438   2.050   4.044  12.141 -0.4474  0.6842 -0.4932
  294TMC3    C8 4439   1.717   3.944  12.456  0.6834 -0.9418 -1.0143
  294TMC3    O1 4440   1.967   4.070  12.054 -0.6168  0.2469  0.2516
  294TMC3    O2 4441   1.641   3.997  12.537  0.5402 -0.5547 -0.0530
  295MPD2     C 4442   1.962   3.948   0.821  0.0151 -0.4082  1.4531
  295MPD2    C1 4443   1.910   3.820   0.800  0.0441  0.2841 -0.0987
  295MPD2    C2 4444   1.786   3.796   0.859 -0.0500  0.1584 -0.2879
  295MPD2    C3 4445   1.716   3.895   0.929 -0.2484  0.1162 -0.2639
  295MPD2    C4 4446   1.778   4.015   0.956  0.0447  0.0837  0.3238
  295MPD2    C5 4447   1.899   4.045   0.900  0.3965 -0.5443  0.0605
  295MPD2     H 4448   1.742   3.699   0.842  1.2289 -0.9119  2.5332
  295MPD2    H1 4449   1.725   4.099   0.997  1.8767  0.1786  2.4550
  295MPD2    H2 4450   2.064   3.965   0.790 -0.1363  2.2969  2.3829
  295MPD2    H3 4451   1.952   4.139   0.910  1.5899 -1.2255  0.1545
  295MPD2     N 4452   1.583   3.866   0.978 -0.6872  0.2293 -0.0434
  295MPD2    H5 4453   1.540   3.920   1.052 -0.0738 -0.3969  0.7718
  295MPD2    N1 4454   1.975   3.716   0.729 -0.2213 -0.1979 -0.1685
  295MPD2    H7 4455   1.941   3.621   0.736  2.0600 -1.0298 -0.4371
  296TMC3    C1 4456   1.388   3.722   0.995  0.1449 -0.8216 -0.4651
  296TMC3    C2 4457   1.381   3.744   1.130  0.1751 -0.4868  0.0561
  296TMC3    C3 4458   1.275   3.687   1.200 -0.2019 -0.2837 -0.1616
  296TMC3    C4 4459   1.301   3.631   0.928 -0.1893 -0.2508 -0.1994
  296TMC3    C5 4460   1.201   3.572   1.001 -0.3935  0.2725  0.5976
  296TMC3    C6 4461   1.180   3.607   1.135 -0.9449 -0.1662  0.3312
  296TMC3     C 4462   1.507   3.764   0.919 -0.0022 -0.0204  0.7690
  296TMC3     O 4463   1.523   3.710   0.808  0.0499 -0.1951 -0.1520
  296TMC3     H 4464   1.438   3.826   1.173  0.4607 -1.0755  0.7996
  296TMC3    H1 4465   1.327   3.601   0.828  0.5362 -0.7455  0.1365
  296TMC3    H2 4466   1.099   3.559   1.189 -2.7567  1.7857 -0.6599
  296TMC3    C7 4467   1.148   3.447   0.962 -0.0507  0.9141  0.3404
  296TMC3    C8 4468   1.272   3.706   1.341  0.2773  0.1308  0.9628
  296TMC3    O1 4469   1.094   3.379   1.044  0.4730 -0.6645  0.2476
  296TMC3    O2 4470   1.164   3.713   1.402 -0.1216  0.0877  0.1831
  297MPD2     C 4471   0.245   0.252  16.251 -0.2645 -0.1614  0.6155
  297MPD2    C1 4472   0.206   0.373  16.192  0.0340 -0.4562 -0.8120
  297MPD2    C2 4473   0.296   0.468  16.160 -0.3447  0.0589  0.6724
  297MPD2    C3 4474   0.433   0.454  16.199  0.4251  0.0479  0.5646
  297MPD2    C4 4475   0.467   0.338  16.265  0.5467 -0.7577 -0.1877
  297MPD2    C5 4476   0.378   0.243  16.294 -0.1345 -0.1591  0.8508
  297MPD2     H 4477   0.260   0.563  16.121  2.5626  0.6437 -0.6251
  297MPD2    H1 4478   0.569   0.322  16.300  0.5846  0.4430  0.2202
  297MPD2    H2 4479   0.175   0.173  16.277 -1.2443 -0.3864 -2.6951
  297MPD2    H3 4480   0.408   0.159  16.357 -0.0074  0.5212  1.7047
  297MPD2     N 4481   0.512   0.567  16.168 -0.2527 -0.2384  0.5075
  297MPD2    H5 4482   0.458   0.644  16.130 -0.3992 -0.6514 -0.1133
  297MPD2    N1 4483   0.069   0.394  16.152  0.5319 -0.7058 -0.2061
  297MPD2    H7 4484   0.050   0.476  16.095  0.0930 -2.3512 -2.4286
  298TMC3    C1 4485   4.561   0.347  16.116 -0.2672 -0.7131  0.2144
  298TMC3    C2 4486   4.593   0.397  15.996 -0.2317  0.2157  0.1586
  298TMC3    C3 4487   4.481   0.419  15.916 -0.6131  0.1759 -0.7110
  298TMC3    C4 4488   4.437   0.311  16.160 -0.6252  0.5872 -0.4673
  298TMC3    C5 4489   4.325   0.332  16.078  0.5088  0.3847 -0.1005
  298TMC3    C6 4490   4.348   0.388  15.956 -0.3623 -0.0643  0.6284
  298TMC3     C 4491   4.684   0.312  16.186 -0.4316  0.1753  0.2244
  298TMC3     O 4492   4.671   0.239  16.281  0.1183 -0.2225  0.1708
  298TMC3     H 4493   4.685   0.401  15.938 -0.0886 -0.9436  0.2973
  298TMC3    H1 4494   4.436   0.254  16.253  1.1264  1.8776  0.3396
  298TMC3    H2 4495   4.255   0.426  15.913 -0.1146  0.9480  0.9780
  298TMC3    C7 4496   4.202   0.360  16.152  0.0652  0.6575 -0.1075
  298TMC3    C8 4497   4.505   0.485  15.791  1.0352 -0.2627  0.1711
  298TMC3    O1 4498   4.205   0.343  16.275 -0.1185  0.0073  0.1870
  298TMC3    O2 4499   4.610   0.551  15.784 -0.0865  0.3015 -0.0643
  299MPD2     C 4500   0.636   0.644  10.468 -0.2599  0.0832  0.6862
  299MPD2    C1 4501   0.633   0.568  10.583  0.2279 -0.8445 -0.4130
  299MPD2    C2 4502   0.555   0.457  10.599 -0.5209  0.6183 -0.3458
  299MPD2    C3 4503   0.507   0.407  10.481  0.1393  0.1100  1.2885
  299MPD2    C4 4504   0.508   0.476  10.363 -0.2897  0.0802  0.8170
  299MPD2    C5 4505   0.582   0.591  10.352  0.8476  0.6910  0.4183
  299MPD2     H 4506   0.537   0.404  10.692 -1.4707 -1.3046 -1.6213
  299MPD2    H1 4507   0.455   0.445  10.274 -1.4683  1.0807  1.1713
  299MPD2    H2 4508   0.683   0.741  10.460  0.2113 -0.1589  0.5132
  299MPD2    H3 4509   0.586   0.652  10.263  3.5389  2.0351  1.4716
  299MPD2     N 4510   0.430   0.288  10.481  0.5553  0.4493  0.0851
  299MPD2    H5 4511   0.396   0.258  10.390  1.7829  1.4178 -0.6997
  299MPD2    N1 4512   0.696   0.614  10.708  0.2086  0.0506  0.9230
  299MPD2    H7 4513   0.677   0.565  10.794  0.4124  0.1756  1.0402
  300TMC3    C1 4514   0.325   0.081  10.524 -0.6676  0.1368 -0.0119
  300TMC3    C2 4515   0.230   0.107  10.432 -0.1490  0.1744  0.0660
  300TMC3    C3 4516   0.139   0.005  10.426 -0.3124 -0.1500  0.3810
  300TMC3    C4 4517   0.335   4.689  10.597  0.6014  0.2070  0.1351
  300TMC3    C5 4518   0.239   4.591  10.583 -0.5724 -0.1727  0.2447
  300TMC3    C6 4519   0.137   4.615  10.498  0.2319  0.2346  0.7658
  300TMC3     C 4520   0.420   0.188  10.570  0.9094 -0.3532  0.1073
  300TMC3     O 4521   0.487   0.170  10.670 -0.1696  0.4710 -0.3264
  300TMC3     H 4522   0.200   0.201  10.388 -2.5442 -0.3815  0.5064
  300TMC3    H1 4523   0.408   4.680  10.676  0.3027  0.4601  0.4394
  300TMC3    H2 4524   0.052   4.549  10.509  0.7286 -0.4348  0.5898
  300TMC3    C7 4525   0.218   4.514  10.696 -0.0688 -0.0734  0.0649
  300TMC3    C8 4526   0.014   0.066  10.460 -0.2792 -0.3577 -0.1291
  300TMC3    O1 4527   0.304   4.441  10.740  0.3811  0.1729  0.3927
  300TMC3    O2 4528   4.716   0.068  10.579  0.5188 -0.5474  0.0662
  301MPD2     C 4529   1.639   1.520   1.413  0.0249  0.0612  0.0465
  301MPD2    C1 4530   1.532   1.462   1.350  0.0628  0.4014 -0.3509
  301MPD2    C2 4531   1.544   1.327   1.312  0.3728 -0.5675 -0.2040
  301MPD2    C3 4532   1.661   1.253   1.326  0.0467 -0.1600  0.3375
  301MPD2    C4 4533   1.759   1.315   1.395 -0.4252  0.2154 -0.0391
  301MPD2    C5 4534   1.754   1.446   1.431 -0.0231  0.1165 -0.6148
  301MPD2     H 4535   1.457   1.270   1.282  0.1454 -1.1984  1.6566
  301MPD2    H1 4536   1.856   1.270   1.414 -0.1596  0.9050  0.2557
  301MPD2    H2 4537   1.639   1.622   1.450 -0.1060  0.0562  0.0581
  301MPD2    H3 4538   1.838   1.475   1.494 -1.1617  2.6652 -0.2952
  301MPD2     N 4539   1.689   1.120   1.282  0.4774  0.5802 -0.4503
  301MPD2    H5 4540   1.780   1.078   1.298  0.3975  0.2986 -0.7199
  301MPD2    N1 4541   1.414   1.533   1.315  0.5581 -0.2006 -0.2930
  301MPD2    H7 4542   1.345   1.473   1.272  0.3679  1.8885 -2.9525
  302TMC3    C1 4543   1.670   0.975   1.086  0.6804 -0.0903  0.0435
  302TMC3    C2 4544   1.768   0.891   1.124 -0.7253 -0.7864 -0.0901
  302TMC3    C3 4545   1.830   0.809   1.029 -0.0621 -0.9498  0.1774
  302TMC3    C4 4546   1.631   0.983   0.959  0.2482  1.1637  0.4777
  302TMC3    C5 4547   1.693   0.907   0.868 -0.6176 -0.5038  0.3463
  302TMC3    C6 4548   1.781   0.807   0.902 -0.0037  0.3213 -0.7184
  302TMC3     C 4549   1.608   1.069   1.181 -0.3448  0.1194  0.0640
  302TMC3     O 4550   1.498   1.100   1.144 -0.0111  0.2053  0.0031
  302TMC3     H 4551   1.792   0.878   1.229 -0.4990  3.4274  0.3901
  302TMC3    H1 4552   1.547   1.042   0.924  0.4393  1.0014 -0.2354
  302TMC3    H2 4553   1.810   0.735   0.827  0.2622 -0.7770  0.4342
  302TMC3    C7 4554   1.629   0.901   0.731 -0.8220  1.1177  0.5654
  302TMC3    C8 4555   1.904   0.688   1.071  1.0011 -0.7436  0.6855
  302TMC3    O1 4556   1.705   0.881   0.636  0.0220  0.5719  0.4954
  302TMC3    O2 4557   1.911   0.667   1.192  0.0337  0.2525  0.4846
  303MPD2     C 4558   3.003   4.679  11.049  0.0503  0.3177 -0.5066
  303MPD2    C1 4559   2.971   4.543  11.059 -0.3013 -0.5655  1.0828
  303MPD2    C2 4560   2.949   4.466  10.949  0.1459 -0.3973  0.4730
  303MPD2    C3 4561   2.971   4.519  10.821 -0.5585 -0.5407  0.1805
  303MPD2    C4 4562   3.016   4.650  10.810  0.2369 -0.5661  0.2571
  303MPD2    C5 4563   3.020   0.011  10.923 -0.5993 -0.5082 -0.5090
  303MPD2     H 4564   2.926   4.361  10.966  4.3924 -1.3067  0.5222
  303MPD2    H1 4565   3.033   4.693  10.712  1.1017  1.7722  1.4388
  303MPD2    H2 4566   3.024   0.007  11.143  1.2752 -0.0730 -0.5655
  303MPD2    H3 4567   3.035   0.117  10.910 -0.5267 -0.4867 -0.2579
  303MPD2     N 4568   2.950   4.441  10.703 -0.4011  0.5944 -0.6969
  303MPD2    H5 4569   2.992   4.473  10.617  1.0781 -0.1378 -0.2411
  303MPD2    N1 4570   2.942   4.491  11.190 -0.5531 -0.0446 -0.2160
  303MPD2    H7 4571   2.938   4.554  11.269 -1.2105 -0.2206 -0.1020
  304TMC3    C1 4572   2.902   4.325  11.358  0.0846 -0.0707 -0.5996
  304TMC3    C2 4573   2.799   4.393  11.412  0.0024 -0.3508 -0.3199
  304TMC3    C3 4574   2.731   4.334  11.515 -0.8778 -0.0112 -0.1642
  304TMC3    C4 4575   2.939   4.202  11.399  0.5977 -0.4636  0.7112
  304TMC3    C5 4576   2.867   4.142  11.500  0.1859 -0.0781 -0.5583
  304TMC3    C6 4577   2.767   4.210  11.563  0.8448 -0.8349 -0.8096
  304TMC3     C 4578   2.944   4.355  11.222 -0.2339  0.2632  0.2808
  304TMC3     O 4579   2.960   4.254  11.155 -0.0754 -0.0407  0.1892
  304TMC3     H 4580   2.760   4.485  11.370  1.2749 -0.4405 -1.7023
  304TMC3    H1 4581   3.000   4.141  11.334  2.4328  1.7435  0.3629
  304TMC3    H2 4582   2.703   4.165  11.637  0.6652 -1.4997 -1.3750
  304TMC3    C7 4583   2.830   4.005  11.473 -0.2119 -0.2734  0.3269
  304TMC3    C8 4584   2.593   4.346  11.496  0.8642 -0.4453 -0.8290
  304TMC3    O1 4585   2.706   3.987  11.485 -0.6772  0.6434  0.5603
  304TMC3    O2 4586   2.549   4.457  11.487 -0.0391 -0.7240  0.6933
  305MPD2     C 4587   0.955   1.948  13.935 -0.2866 -0.1241  0.1375
  305MPD2    C1 4588   0.949   1.817  13.983  0.3342 -0.5450  0.3380
  305MPD2    C2 4589   0.905   1.711  13.900  0.0327  0.2217  0.6131
  305MPD2    C3 4590   0.882   1.740  13.765 -0.2529 -0.0892 -0.6040
  305MPD2    C4 4591   0.895   1.869  13.715 -0.1518  0.5852 -0.1309
  305MPD2    C5 4592   0.922   1.969  13.806 -0.0308  0.0347 -0.5438
  305MPD2     H 4593   0.911   1.609  13.934 -0.7403 -0.3828 -1.0373
  305MPD2    H1 4594   0.862   1.895  13.616 -1.7706 -1.3073 -0.0789
  305MPD2    H2 4595   0.986   2.034  13.993 -0.8062  0.6229 -0.6929
  305MPD2    H3 4596   0.923   2.069  13.764 -1.7645  0.0841 -0.4952
  305MPD2     N 4597   0.861   1.639  13.673 -0.9561 -0.1233 -0.0495
  305MPD2    H5 4598   0.867   1.676  13.579  1.9330 -1.4470 -0.3801
  305MPD2    N1 4599   1.014   1.799  14.109  0.0279  0.0178  0.0586
  305MPD2    H7 4600   1.073   1.876  14.142 -3.0278  1.5997  1.8489
  306TMC3    C1 4601   1.106   1.675  14.294 -0.7856 -0.2325 -0.0868
  306TMC3    C2 4602   1.083   1.585  14.394  0.3763  0.0448 -0.0199
  306TMC3    C3 4603   1.176   1.566  14.493 -0.3077 -0.3662 -0.5117
  306TMC3    C4 4604   1.229   1.738  14.284 -0.6103  0.0403  0.2074
  306TMC3    C5 4605   1.315   1.719  14.387 -0.3259 -0.3694 -0.7346
  306TMC3    C6 4606   1.297   1.631  14.499  0.5983  0.2518 -0.6350
  306TMC3     C 4607   1.017   1.675  14.182 -0.3289  0.4898  0.6396
  306TMC3     O 4608   0.950   1.571  14.155  0.6703  0.5320 -0.7113
  306TMC3     H 4609   0.991   1.527  14.396  0.2883  0.0901 -2.3569
  306TMC3    H1 4610   1.258   1.790  14.193  1.5564  0.2068  0.9760
  306TMC3    H2 4611   1.378   1.603  14.565 -0.4242  0.8545  0.8562
  306TMC3    C7 4612   1.430   1.797  14.398  0.3987  0.1032  0.2910
  306TMC3    C8 4613   1.155   1.480  14.606 -0.1248 -0.4149 -0.2761
  306TMC3    O1 4614   1.494   1.812  14.295  0.2629  0.0070 -0.4685
  306TMC3    O2 4615   1.244   1.492  14.691  0.0674  0.3248  0.4604
  307MPD2     C 4616   3.384   4.092   1.377 -0.0885  0.0177 -0.0103
  307MPD2    C1 4617   3.266   4.152   1.354 -0.1560  0.8323  0.5476
  307MPD2    C2 4618   3.164   4.074   1.296 -0.5107  0.5993  0.2796
  307MPD2    C3 4619   3.194   3.948   1.253  0.4394 -0.3846  0.0488
  307MPD2    C4 4620   3.318   3.889   1.275  0.1148  0.4175  0.8744
  307MPD2    C5 4621   3.413   3.967   1.335 -0.0492 -1.2136 -0.7555
  307MPD2     H 4622   3.066   4.119   1.285 -0.5539  0.6844  1.0303
  307MPD2    H1 4623   3.346   3.790   1.242  1.3276  1.6124 -1.6930
  307MPD2    H2 4624   3.459   4.155   1.424  0.3110 -0.1448 -0.4346
  307MPD2    H3 4625   3.511   3.925   1.360 -0.4649 -0.5948  1.9814
  307MPD2     N 4626   3.078   3.887   1.193  0.1054  0.1542  0.1984
  307MPD2    H5 4627   2.996   3.944   1.210  0.0198 -0.5721  2.2395
  307MPD2    N1 4628   3.242   4.290   1.395 -0.4005 -0.3213  0.1110
  307MPD2    H7 4629   3.150   4.330   1.378 -0.2323 -0.5989 -1.4773
  308TMC3    C1 4630   2.809   3.779   0.867  0.5164 -0.4806 -0.2948
  308TMC3    C2 4631   2.711   3.844   0.943 -0.3310  0.8759  0.7466
  308TMC3    C3 4632   2.728   3.845   1.079  0.1713  0.3924  0.8510
  308TMC3    C4 4633   2.934   3.740   0.933  0.4188 -0.7572 -0.2695
  308TMC3    C5 4634   2.938   3.750   1.073  0.2182  0.1601 -0.1213
  308TMC3    C6 4635   2.832   3.797   1.149  0.0474  0.7231  0.2223
  308TMC3     C 4636   2.809   3.790   0.720 -0.7992 -0.0254  0.7237
  308TMC3     O 4637   2.917   3.809   0.665  0.0244 -0.6502  0.0304
  308TMC3     H 4638   2.612   3.869   0.907  0.0066  0.9951 -0.1096
  308TMC3    H1 4639   3.024   3.717   0.878 -0.2144 -0.2723 -1.5169
  308TMC3    H2 4640   2.848   3.811   1.256  2.1351 -1.2364  0.1701
  308TMC3    C7 4641   3.066   3.765   1.133  1.0422 -0.2863 -0.3911
  308TMC3    C8 4642   2.634   3.929   1.162 -0.4871 -0.0693  0.1865
  308TMC3    O1 4643   3.161   3.697   1.092  0.0714  0.4294 -0.0979
  308TMC3    O2 4644   2.618   3.897   1.282  0.2238 -0.3032 -0.0446
  309MPD2     C 4645   2.633   4.456  17.234  0.0068  0.5099  0.1582
  309MPD2    C1 4646   2.609   4.551  17.140 -0.3088 -0.2839  0.9515
  309MPD2    C2 4647   2.505   4.639  17.163 -0.1776 -0.1831 -0.4661
  309MPD2    C3 4648   2.422   4.627  17.276 -0.5702  0.6122  0.1286
  309MPD2    C4 4649   2.452   4.525  17.371 -0.2721 -0.0867 -0.1088
  309MPD2    C5 4650   2.558   4.438  17.353  0.8110  0.1299  0.3237
  309MPD2     H 4651   2.495   4.712  17.084 -0.4058  0.9628  0.6168
  309MPD2    H1 4652   2.387   4.520  17.457  0.6641  0.9029  0.6681
  309MPD2    H2 4653   2.719   4.391  17.220  1.4817  2.2724  0.9935
  309MPD2    H3 4654   2.576   4.355  17.420  0.0634  2.0920  2.9598
  309MPD2     N 4655   2.302   4.708  17.284  0.4616 -0.4944  0.4257
  309MPD2    H5 4656   2.246   4.690  17.367  0.1049 -0.5292  0.1758
  309MPD2    N1 4657   2.695   4.576  17.036  0.0822 -0.4287  0.0209
  309MPD2    H7 4658   2.686   4.663  16.984  3.0274 -0.7106 -0.9674
  310TMC3    C1 4659   2.877   4.534  16.886  0.2165 -0.4379 -0.2748
  310TMC3    C2 4660   2.844   4.628  16.790  0.0190  0.2054 -0.3842
  310TMC3    C3 4661   2.944   4.659  16.697 -0.3293 -0.5772  0.3584
  310TMC3    C4 4662   3.001   4.480  16.896 -0.0994  0.2095 -0.2478
  310TMC3    C5 4663   3.097   4.518  16.810  0.5282 -0.1415 -0.2609
  310TMC3    C6 4664   3.074   4.615  16.711 -0.0786 -0.0245  0.3166
  310TMC3     C 4665   2.781   4.481  16.983 -0.0898 -0.2564  0.1639
  310TMC3     O 4666   2.801   4.369  17.028 -0.7109  0.0958  0.2103
  310TMC3     H 4667   2.744   4.670  16.788  0.1583  0.4960 -1.1997
  310TMC3    H1 4668   3.028   4.401  16.966  0.5273  2.4760  2.0617
  310TMC3    H2 4669   3.148   4.620  16.632 -0.7520  1.3491 -0.2302
  310TMC3    C7 4670   3.199   4.421  16.799 -0.4076  0.5636  0.2521
  310TMC3    C8 4671   2.919   0.028  16.590 -0.5358 -0.7430  0.0350
  310TMC3    O1 4672   3.164   4.306  16.812 -0.3177  0.0485 -0.2941
  310TMC3    O2 4673   2.808   0.055  16.551 -0.5215  0.3803  0.1047
  311MPD2     C 4674   4.712   1.152  12.803 -0.6749 -0.2752 -0.1288
  311MPD2    C1 4675   0.034   1.246  12.892  0.3727 -0.5336 -0.2066
  311MPD2    C2 4676   4.673   1.269  13.003  0.3634 -0.2165  1.2615
  311MPD2    C3 4677   4.549   1.202  13.021  0.0724  0.1303  0.1304
  311MPD2    C4 4678   4.514   1.104  12.929 -0.1873  0.8109 -0.7698
  311MPD2    C5 4679   4.598   1.079  12.822 -0.1763  0.1683 -0.4285
  311MPD2     H 4680   4.719   1.330  13.079  2.0770  2.3863 -1.8569
  311MPD2    H1 4681   4.423   1.045  12.929 -0.5805  1.4119  0.5711
  311MPD2    H2 4682   0.044   1.118  12.714  0.8493 -2.1501  1.5136
  311MPD2    H3 4683   4.564   1.007  12.748 -1.3256  0.0347  0.2253
  311MPD2     N 4684   4.468   1.219  13.139  0.2804 -0.1944 -0.2277
  311MPD2    H5 4685   4.499   1.288  13.208 -2.8461  1.1588 -0.1585
  311MPD2    N1 4686   0.142   1.330  12.872 -0.3710  0.8212 -0.2054
  311MPD2    H7 4687   0.167   1.406  12.934 -1.3655  1.5500 -0.7130
  312TMC3    C1 4688   4.285   1.195  13.291  0.9593  0.1485 -0.0626
  312TMC3    C2 4689   4.158   1.138  13.305 -0.4290  0.0918 -0.1619
  312TMC3    C3 4690   4.070   1.196  13.397 -0.7412 -0.2521 -0.5050
  312TMC3    C4 4691   4.321   1.306  13.359  0.0337  0.7119 -0.1683
  312TMC3    C5 4692   4.240   1.345  13.454  0.2881  0.6087 -0.8224
  312TMC3    C6 4693   4.113   1.305  13.474 -0.2635  0.0291  0.2156
  312TMC3     C 4694   4.341   1.165  13.156  0.0629  0.3919  1.1415
  312TMC3     O 4695   4.268   1.095  13.088 -0.4485 -0.2182 -0.5609
  312TMC3     H 4696   4.134   1.046  13.253 -0.4589  0.3171 -0.5452
  312TMC3    H1 4697   4.426   1.333  13.357  0.1157  0.4095  0.1057
  312TMC3    H2 4698   4.053   1.337  13.558 -0.0730  0.1645  0.3006
  312TMC3    C7 4699   4.311   1.422  13.561  0.5870  0.3543  0.1127
  312TMC3    C8 4700   3.929   1.188  13.374 -0.6967  0.3561 -0.0214
  312TMC3    O1 4701   4.430   1.410  13.568  0.0666  0.5318 -0.5235
  312TMC3    O2 4702   3.889   1.082  13.334 -0.0850  0.1853  0.1432
  313MPD2     C 4703   4.057   0.359  11.216  0.2003 -0.0544  0.0224
  313MPD2    C1 4704   4.145   0.443  11.153 -1.1045  0.2739  0.7036
  313MPD2    C2 4705   4.232   0.395  11.058  0.2464 -0.0264  0.0397
  313MPD2    C3 4706   4.231   0.265  11.022 -0.4323 -0.0258 -0.3040
  313MPD2    C4 4707   4.146   0.178  11.095 -0.8758  0.8184 -0.4200
  313MPD2    C5 4708   4.060   0.228  11.191  0.2561  0.7837  0.1336
  313MPD2     H 4709   4.295   0.463  11.002  0.2033 -0.8642 -1.0315
  313MPD2    H1 4710   4.142   0.071  11.076 -2.8371  0.7852  0.1770
  313MPD2    H2 4711   3.980   0.399  11.280 -1.5578 -3.0147 -0.2366
  313MPD2    H3 4712   4.001   0.153  11.242 -0.4818 -0.4171 -2.4579
  313MPD2     N 4713   4.302   0.227  10.904 -0.0960 -0.3345  0.5681
  313MPD2    H5 4714   4.352   0.305  10.861  0.4296 -0.5199  0.8474
  313MPD2    N1 4715   4.133   0.580  11.173 -0.2517 -0.0844  0.3975
  313MPD2    H7 4716   4.183   0.646  11.114 -0.6547 -0.9962 -0.9680
  314TMC3    C1 4717   4.048   0.792  11.230  0.2972 -0.5585  0.1886
  314TMC3    C2 4718   4.168   0.847  11.187  0.0296 -0.2062  0.2682
  314TMC3    C3 4719   4.152   0.963  11.120 -0.2846 -0.2463 -0.1287
  314TMC3    C4 4720   3.924   0.838  11.200  0.7616  0.1952 -0.3705
  314TMC3    C5 4721   3.916   0.941  11.118 -0.4126  0.3620  0.7261
  314TMC3    C6 4722   4.029   1.004  11.070 -0.2151  0.2734 -0.4859
  314TMC3     C 4723   4.050   0.651  11.266  0.8092  0.5046 -0.3748
  314TMC3     O 4724   3.956   0.624  11.345  0.1394  0.0256 -0.0181
  314TMC3     H 4725   4.267   0.814  11.215  0.0291  0.1313  0.6767
  314TMC3    H1 4726   3.837   0.783  11.233 -1.0813  3.1412 -0.2953
  314TMC3    H2 4727   4.014   1.093  11.010 -0.3259  0.2252 -0.5301
  314TMC3    C7 4728   3.791   0.935  11.038  0.2047 -1.0094 -0.8207
  314TMC3    C8 4729   4.265   1.049  11.114 -0.0017  0.2867 -0.4848
  314TMC3    O1 4730   3.685   0.964  11.085 -0.2827  0.2132 -0.4083
  314TMC3    O2 4731   4.373   1.012  11.154  0.4222 -1.3642  0.0374
  315MPD2     C 4732   3.689   4.330   0.210  0.9043  0.4437 -0.4683
  315MPD2    C1 4733   3.805   4.372   0.265  0.2721  0.0558  0.0586
  315MPD2    C2 4734   3.864   4.488   0.230 -0.5731  0.7897  0.6961
  315MPD2    C3 4735   3.807   4.570   0.127 -0.3054  0.4829 -0.1455
  315MPD2    C4 4736   3.687   4.525   0.067  0.3480  0.2392 -0.5456
  315MPD2    C5 4737   3.633   4.406   0.110 -0.4259  0.6448  0.6395
  315MPD2     H 4738   3.956   4.514   0.281  0.4482 -1.1398 -0.1583
  315MPD2    H1 4739   3.634   4.578  17.675 -2.0380 -0.0305  0.8816
  315MPD2    H2 4740   3.644   4.239   0.249  0.6248  0.9051  0.2869
  315MPD2    H3 4741   3.544   4.368   0.061  1.7021 -1.0852 -1.8215
  315MPD2     N 4742   3.876   4.685   0.096 -0.4489  0.2027 -0.2235
  315MPD2    H5 4743   3.960   4.704   0.150 -0.6384 -1.4238  0.6413
  315MPD2    N1 4744   3.854   4.300   0.368  0.0710  0.1224  0.3570
  315MPD2    H7 4745   3.927   4.340   0.426 -0.4535  0.7028  0.6150
  316TMC3    C1 4746   3.931   0.147  17.656  0.4761  0.2163 -0.5281
  316TMC3    C2 4747   4.016   0.154   0.076 -0.6050  0.2930 -0.1313
  316TMC3    C3 4748   4.150   0.170   0.049  0.0448  0.4307  0.3162
  316TMC3    C4 4749   3.979   0.166  17.529  0.0051 -0.5898 -0.4834
  316TMC3    C5 4750   4.110   0.176  17.507  1.0292  0.1646  0.4881
  316TMC3    C6 4751   4.198   0.177  17.607 -0.2120  0.3714 -0.9069
  316TMC3     C 4752   3.842   0.037  17.667  0.6216 -0.3705  0.6016
  316TMC3     O 4753   3.757   0.028  17.582 -0.2877 -0.2123 -0.2536
  316TMC3     H 4754   3.971   0.169   0.173 -0.1074  0.6462  0.0443
  316TMC3    H1 4755   3.911   0.151  17.446 -1.9771 -1.3844  1.2906
  316TMC3    H2 4756   4.301   0.193  17.577 -0.2150 -1.5866 -1.9667
  316TMC3    C7 4757   4.163   0.194  17.364  0.5569  0.2733 -0.1701
  316TMC3    C8 4758   4.253   0.197   0.146 -0.1081 -0.2913  0.2052
  316TMC3    O1 4759   4.286   0.171  17.354 -0.2074 -0.2957 -0.1908
  316TMC3    O2 4760   4.346   0.255   0.094 -0.1207  0.4404  0.7194
  317MPD2     C 4761   1.261   3.411  12.697 -0.0685 -0.4867  0.4974
  317MPD2    C1 4762   1.288   3.277  12.659  0.4720  1.3096 -0.3109
  317MPD2    C2 4763   1.355   3.196  12.748 -0.0336  0.7673  0.1735
  317MPD2    C3 4764   1.409   3.251  12.865  0.0913  0.6488 -0.2125
  317MPD2    C4 4765   1.385   3.384  12.895  0.5529  0.3616  0.1508
  317MPD2    C5 4766   1.320   3.466  12.808 -0.2581  0.6320  0.3995
  317MPD2     H 4767   1.368   3.090  12.731  0.3380  1.0372 -1.2461
  317MPD2    H1 4768   1.426   3.427  12.985 -1.3270  0.0453  1.1678
  317MPD2    H2 4769   1.201   3.469  12.627  1.1271 -1.2205 -1.1260
  317MPD2    H3 4770   1.303   3.571  12.830  0.5749  1.2191 -1.7171
  317MPD2     N 4771   1.481   3.164  12.952 -0.3813  0.5261 -0.1284
  317MPD2    H5 4772   1.468   3.064  12.939 -0.8572  0.3689  1.5358
  317MPD2    N1 4773   1.253   3.221  12.533  0.2409 -0.5679  0.2686
  317MPD2    H7 4774   1.278   3.124  12.516 -0.7783 -0.7764 -0.0374
  318TMC3    C1 4775   1.621   3.107  13.121 -0.7973  0.3849 -0.0453
  318TMC3    C2 4776   1.559   2.988  13.131 -0.2875 -1.1330  0.9043
  318TMC3    C3 4777   1.632   2.883  13.177  0.1989 -0.1691 -0.2990
  318TMC3    C4 4778   1.740   3.136  13.185 -0.2897  0.0702 -0.0154
  318TMC3    C5 4779   1.814   3.024  13.222 -0.4482 -0.3079 -0.4622
  318TMC3    C6 4780   1.760   2.900  13.218  0.5793 -0.4308 -0.7337
  318TMC3     C 4781   1.573   3.216  13.041  0.1172  0.1064  0.5492
  318TMC3     O 4782   1.633   3.323  13.037  0.1949  0.1657 -0.1953
  318TMC3     H 4783   1.465   2.972  13.081  0.7505  3.2474 -2.5119
  318TMC3    H1 4784   1.788   3.232  13.175 -1.2217  0.3884 -1.3407
  318TMC3    H2 4785   1.811   2.815  13.263  1.6018  1.0972  1.0119
  318TMC3    C7 4786   1.873   3.048  13.354  0.2653  0.2219  0.9745
  318TMC3    C8 4787   1.568   2.762  13.203  0.3002  0.2381  0.1477
  318TMC3    O1 4788   1.850   3.156  13.400  0.7784 -0.2114  0.7413
  318TMC3    O2 4789   1.633   2.682  13.271  0.1356 -0.3234  0.6718
  319MPD2     C 4790   2.939   4.160  16.561 -0.3855 -0.9958  0.1128
  319MPD2    C1 4791   2.858   4.141  16.672  0.5498 -0.4866  0.2390
  319MPD2    C2 4792   2.725   4.176  16.662 -0.2922 -0.2853 -0.2213
  319MPD2    C3 4793   2.672   4.223  16.545 -0.6210  0.3491 -0.4484
  319MPD2    C4 4794   2.748   4.235  16.430 -0.3817  0.0241  0.0716
  319MPD2    C5 4795   2.881   4.203  16.445  0.5296  0.2043 -0.3721
  319MPD2     H 4796   2.665   4.151  16.749 -1.4967  3.3078 -0.0180
  319MPD2    H1 4797   2.707   4.257  16.332 -0.4442 -2.1363 -0.3697
  319MPD2    H2 4798   3.046   4.145  16.555 -0.1517  0.7510 -0.3665
  319MPD2    H3 4799   2.939   4.195  16.354  1.5322  0.4223  0.2378
  319MPD2     N 4800   2.532   4.246  16.535  0.1757  0.4990  0.1759
  319MPD2    H5 4801   2.492   4.277  16.447  0.2155 -0.5275 -0.2066
  319MPD2    N1 4802   2.913   4.095  16.794 -0.4352 -0.0582 -0.5649
  319MPD2    H7 4803   2.851   4.103  16.874 -0.4509  0.3879 -0.6252
  320TMC3    C1 4804   2.304   4.259  16.593 -0.3748  1.2513  0.3593
  320TMC3    C2 4805   2.296   4.358  16.506  0.0321  0.1505 -0.8020
  320TMC3    C3 4806   2.177   4.430  16.495 -0.2986 -0.0842 -0.1486
  320TMC3    C4 4807   2.198   4.222  16.671 -1.1406 -0.3035 -0.0110
  320TMC3    C5 4808   2.083   4.291  16.660  0.8986  0.1898  0.6443
  320TMC3    C6 4809   2.075   4.400  16.580 -0.2526 -0.4808 -0.4429
  320TMC3     C 4810   2.437   4.214  16.629 -0.2452 -0.7380  0.3338
  320TMC3     O 4811   2.449   4.143  16.729  0.1390  0.1026  0.5679
  320TMC3     H 4812   2.376   4.390  16.440  0.3005  2.4993  0.6738
  320TMC3    H1 4813   2.207   4.153  16.755  0.4498 -0.5234 -0.3477
  320TMC3    H2 4814   1.989   4.466  16.575 -0.2574 -0.5205 -0.8868
  320TMC3    C7 4815   1.959   4.239  16.705 -0.4505 -0.0448  0.6921
  320TMC3    C8 4816   2.129   4.489  16.376  0.4483 -0.2063  0.2747
  320TMC3    O1 4817   1.952   4.153  16.795 -0.0116 -0.7396  0.0094
  320TMC3    O2 4818   2.010   4.472  16.362  0.0464  0.3219 -0.0217
  321TMC3    C1 4819   3.071   3.987  16.923 -0.1577  0.4679 -0.1919
  321TMC3    C2 4820   3.135   3.864  16.941  0.5652 -0.0174 -0.3318
  321TMC3    C3 4821   3.117   3.793  17.055  0.3601 -0.0765  0.1355
  321TMC3    C4 4822   3.006   4.033  17.029  0.2700 -1.0418 -0.1740
  321TMC3    C5 4823   2.991   3.966  17.143  0.2244  0.7613  0.0198
  321TMC3    C6 4824   3.038   3.840  17.149  0.1272 -0.6881 -0.5499
  321TMC3     C 4825   3.035   4.032  16.792 -0.2030 -0.0194 -0.0432
  321TMC3     O 4826   3.092   3.969  16.703 -0.4209  0.1844  0.8253
  321TMC3     H 4827   3.202   3.831  16.862 -0.4882 -2.7684 -0.0728
  321TMC3    H1 4828   2.953   4.128  17.031  0.2052 -1.0834  0.0123
  321TMC3    H2 4829   3.005   3.771  17.225  0.4570 -0.9248 -0.6249
  321TMC3    C7 4830   3.042   4.035  17.256 -0.0008  0.3046  0.3819
  321TMC3    C8 4831   3.211   3.696  17.094  0.2434  0.1267 -0.1222
  321TMC3    O1 4832   3.146   3.988  17.296 -0.3395  0.6218 -0.1102
  321TMC3    O2 4833   3.264   3.622  17.016  0.0110 -0.2783 -0.4608
  322MPD2     C 4834   1.189   0.900  13.748  0.3512 -0.0619  0.2933
  322MPD2    C1 4835   1.151   0.821  13.853 -0.1239 -0.1184 -0.4339
  322MPD2    C2 4836   1.133   0.679  13.827  0.0224  0.2765 -0.1197
  322MPD2    C3 4837   1.170   0.630  13.699  0.0297 -0.0937 -0.3576
  322MPD2    C4 4838   1.227   0.714  13.601  0.7051  0.1854 -0.5509
  322MPD2    C5 4839   1.236   0.847  13.628  0.2173 -0.2549 -0.7567
  322MPD2     H 4840   1.097   0.608  13.901  0.2815  1.6804  1.3474
  322MPD2    H1 4841   1.283   0.683  13.514  0.8483 -1.0499 -0.0224
  322MPD2    H2 4842   1.205   1.006  13.765  0.3079 -0.0833  0.4590
  322MPD2    H3 4843   1.284   0.915  13.559 -0.7528  1.4354  0.2478
  322MPD2     N 4844   1.141   0.489  13.679  0.1606 -0.2181  0.4805
  322MPD2    H5 4845   1.103   0.438  13.758  1.2278  0.0936  1.1996
  322MPD2    N1 4846   1.125   0.882  13.974  0.6746 -0.3020  0.0365
  322MPD2    H7 4847   1.148   0.980  13.974 -1.1214  0.1177  0.4933
  323TMC3    C1 4848   1.025   0.915  14.185 -0.2069 -0.4469 -0.0145
  323TMC3    C2 4849   1.040   1.052  14.172  1.3880  0.9336 -0.1526
  323TMC3    C3 4850   1.027   1.125  14.290 -0.4427 -0.1085 -0.2679
  323TMC3    C4 4851   1.027   0.851  14.306 -0.4107 -0.2796 -0.1400
  323TMC3    C5 4852   1.016   0.927  14.419 -0.2181 -0.0956  0.5257
  323TMC3    C6 4853   1.001   1.062  14.409  0.3312  0.4214  0.2688
  323TMC3     C 4854   1.060   0.826  14.079  0.1767 -0.5046 -0.5635
  323TMC3     O 4855   1.013   0.711  14.083 -0.5986 -0.4103 -0.0857
  323TMC3     H 4856   1.051   1.100  14.075 -0.5424  1.4203 -0.1290
  323TMC3    H1 4857   1.037   0.743  14.316  1.9004  0.0871  1.4962
  323TMC3    H2 4858   1.000   1.119  14.501 -0.4048  3.5419 -1.6601
  323TMC3    C7 4859   1.112   0.881  14.518  0.4769 -0.0480  0.9898
  323TMC3    C8 4860   1.124   1.233  14.306  0.9109 -0.8874 -0.1237
  323TMC3    O1 4861   1.109   0.758  14.540 -0.2940  0.2799 -0.2941
  323TMC3    O2 4862   1.188   1.222  14.411  0.2121  0.0024  0.0043
  324MPD2     C 4863   2.756   2.246  14.627 -0.2258  0.2527 -0.5024
  324MPD2    C1 4864   2.753   2.380  14.599 -0.0580  0.0611  0.2214
  324MPD2    C2 4865   2.667   2.428  14.497 -0.6111 -0.1783 -0.4322
  324MPD2    C3 4866   2.584   2.333  14.426  0.6793 -0.1320 -0.4151
  324MPD2    C4 4867   2.588   2.201  14.474  0.1757 -0.5193  0.0592
  324MPD2    C5 4868   2.669   2.159  14.575  1.0595 -0.0735  0.2455
  324MPD2     H 4869   2.668   2.533  14.472  0.6043  0.5452  2.5624
  324MPD2    H1 4870   2.523   2.130  14.425 -0.7432 -0.0602  0.6064
  324MPD2    H2 4871   2.797   2.203  14.718  0.3281  0.6154 -0.5866
  324MPD2    H3 4872   2.666   2.060  14.617 -0.1230  1.3019  3.3548
  324MPD2     N 4873   2.486   2.364  14.327  0.4853 -0.1718  0.4104
  324MPD2    H5 4874   2.423   2.290  14.296  0.4420  0.1859 -0.3462
  324MPD2    N1 4875   2.833   2.470  14.673  0.2568  0.2812 -0.1778
  324MPD2    H7 4876   2.820   2.565  14.640  1.1542 -0.0584 -1.5288
  325TMC3    C1 4877   2.371   2.501  14.177 -0.6191 -0.0166  0.4589
  325TMC3    C2 4878   2.276   2.399  14.184  0.2687 -0.4485 -0.1202
  325TMC3    C3 4879   2.153   2.428  14.153 -0.7622 -0.3524  0.0371
  325TMC3    C4 4880   2.343   2.624  14.137  0.4046 -0.5048 -0.7383
  325TMC3    C5 4881   2.212   2.661  14.123  0.2900 -0.3633 -0.1222
  325TMC3    C6 4882   2.116   2.559  14.135  0.1237 -0.0940  0.2439
  325TMC3     C 4883   2.491   2.482  14.257 -0.0608  0.4387  0.4530
  325TMC3     O 4884   2.572   2.576  14.265 -0.5576  0.9899  0.0219
  325TMC3     H 4885   2.301   2.295  14.201  0.4783 -0.3395  0.2352
  325TMC3    H1 4886   2.425   2.694  14.137 -0.9497  1.0769 -0.3574
  325TMC3    H2 4887   2.015   2.583  14.105 -0.4311 -0.1605  2.0144
  325TMC3    C7 4888   2.184   2.794  14.176  0.0196  0.4135  0.5917
  325TMC3    C8 4889   2.062   2.321  14.119 -0.5029  0.4307 -0.0057
  325TMC3    O1 4890   2.249   2.891  14.139 -0.3052 -0.1222 -0.3219
  325TMC3    O2 4891   2.120   2.220  14.087  0.0850 -0.0516  0.1305
  326MPD2     C 4892   3.783   3.011  11.347 -0.0027  0.5853 -0.2425
  326MPD2    C1 4893   3.822   2.974  11.219  0.7466  0.6095 -0.3391
  326MPD2    C2 4894   3.951   3.006  11.171  0.2112 -0.7161  0.5097
  326MPD2    C3 4895   4.034   3.085  11.258  1.0404  0.0275  0.4257
  326MPD2    C4 4896   3.990   3.122  11.384 -0.6588 -0.9131 -0.6619
  326MPD2    C5 4897   3.862   3.087  11.428 -0.3071  0.1716 -0.0543
  326MPD2     H 4898   3.978   2.981  11.069 -0.7386 -1.4407  0.4373
  326MPD2    H1 4899   4.057   3.175  11.451 -0.5645 -1.6012 -0.2142
  326MPD2    H2 4900   3.689   2.983  11.393 -0.2569  1.4168 -0.2636
  326MPD2    H3 4901   3.827   3.105  11.529 -0.9121  0.6242 -0.3454
  326MPD2     N 4902   4.162   3.134  11.219  0.0336 -0.2201  0.2722
  326MPD2    H5 4903   4.211   3.192  11.286 -0.2261  2.4798 -1.9123
  326MPD2    N1 4904   3.736   2.898  11.134  0.2869  0.1764  0.6685
  326MPD2    H7 4905   3.770   2.877  11.041 -1.9658 -1.4128  0.2225
  327TMC3    C1 4906   3.561   2.777  11.049 -0.5818  0.2317 -0.4406
  327TMC3    C2 4907   3.435   2.815  11.003  0.3317  0.0402  0.3254
  327TMC3    C3 4908   3.421   2.798  10.870  0.3037  0.7194 -0.6507
  327TMC3    C4 4909   3.658   2.718  10.979 -0.6768 -0.2019 -0.3072
  327TMC3    C5 4910   3.632   2.699  10.844  0.3687 -0.3531  1.0045
  327TMC3    C6 4911   3.514   2.747  10.786  0.1954  1.0331 -0.6751
  327TMC3     C 4912   3.611   2.849  11.165 -0.4228 -0.0534 -0.2418
  327TMC3     O 4913   3.536   2.870  11.260  0.2307  0.3944  0.5473
  327TMC3     H 4914   3.370   2.882  11.058 -0.7121 -0.7517  0.0400
  327TMC3    H1 4915   3.746   2.685  11.034  0.4728  2.0924 -0.7821
  327TMC3    H2 4916   3.510   2.736  10.678 -4.6988 -0.6572 -0.3051
  327TMC3    C7 4917   3.737   2.679  10.749  0.0433 -0.8883 -0.3911
  327TMC3    C8 4918   3.327   2.888  10.808  0.5726 -0.2264  0.5218
  327TMC3    O1 4919   3.713   2.689  10.627 -0.2133  0.0379  0.6594
  327TMC3    O2 4920   3.277   2.975  10.874 -0.0371  0.0912 -0.3380
  328MPD2     C 4921   1.262   2.752  16.923  0.1072  0.6585 -0.3781
  328MPD2    C1 4922   1.125   2.717  16.920  0.5319  0.0558  0.8531
  328MPD2    C2 4923   1.029   2.814  16.940  0.0123 -0.4188  0.1372
  328MPD2    C3 4924   1.069   2.947  16.957  0.4407  0.2744  0.0160
  328MPD2    C4 4925   1.205   2.977  16.951 -0.0041 -0.7901  0.3437
  328MPD2    C5 4926   1.298   2.876  16.934 -0.5015 -0.2207  0.6043
  328MPD2     H 4927   0.926   2.785  16.919 -0.2016 -0.3221  1.0387
  328MPD2    H1 4928   1.245   3.077  16.942 -0.3514 -0.9367 -3.0192
  328MPD2    H2 4929   1.340   2.677  16.915  0.2964  0.9582 -1.3655
  328MPD2    H3 4930   1.403   2.903  16.933 -1.2420  2.6225  0.9722
  328MPD2     N 4931   0.990   3.057  16.975 -0.2382  0.2077 -0.0124
  328MPD2    H5 4932   1.043   3.139  17.004 -0.2762  0.1886  0.1104
  328MPD2    N1 4933   1.092   2.583  16.898  0.8200  0.6654 -0.3480
  328MPD2    H7 4934   1.170   2.520  16.883 -0.6083 -1.7319  2.1565
  329TMC3    C1 4935   0.979   2.385  16.870 -0.3752  0.1753 -0.2632
  329TMC3    C2 4936   0.961   2.277  16.959  0.1078 -0.6970 -0.1006
  329TMC3    C3 4937   0.998   2.153  16.922  0.3853 -0.3904  0.1234
  329TMC3    C4 4938   1.029   2.368  16.749 -0.3251 -0.4817  0.6862
  329TMC3    C5 4939   1.056   2.238  16.707  0.0094  0.0279 -0.4383
  329TMC3    C6 4940   1.039   2.124  16.792 -0.0412  0.6456  0.4444
  329TMC3     C 4941   0.975   2.520  16.923  0.6193  0.1761  0.0132
  329TMC3     O 4942   0.870   2.557  16.978  0.0886  0.0586  0.3215
  329TMC3     H 4943   0.927   2.302  17.058 -2.1359  2.4342 -1.6762
  329TMC3    H1 4944   1.029   2.459  16.690  0.5384  0.2360  1.7976
  329TMC3    H2 4945   1.071   2.023  16.767  1.2847  0.7804  1.5842
  329TMC3    C7 4946   1.093   2.221  16.571  0.1253  0.4124 -0.0683
  329TMC3    C8 4947   1.008   2.045  17.022 -0.4589 -0.1849  0.1574
  329TMC3    O1 4948   1.120   2.327  16.519 -0.1942 -0.3953 -0.4028
  329TMC3    O2 4949   1.078   1.940  17.000 -0.0508  0.3154 -0.1120
  330TMC3    C1 4950   4.203   2.362   9.644  0.1835 -0.1343 -0.6651
  330TMC3    C2 4951   4.084   2.319   9.586  0.2061 -0.4913  0.7044
  330TMC3    C3 4952   4.048   2.193   9.609  0.4458  0.5643  0.2609
  330TMC3    C4 4953   4.262   2.287   9.740 -0.3258  0.5474 -0.6828
  330TMC3    C5 4954   4.228   2.159   9.759  0.9176 -0.4099  0.6311
  330TMC3    C6 4955   4.122   2.104   9.689  0.5930  0.8819  0.0692
  330TMC3     C 4956   4.234   2.508   9.643  0.5780 -0.4936 -0.3039
  330TMC3     O 4957   4.320   2.548   9.719 -0.1882  0.0482 -0.0243
  330TMC3     H 4958   4.024   2.380   9.520 -0.0534  0.2301  1.5986
  330TMC3    H1 4959   4.352   2.336   9.775 -0.2713  1.0158 -1.5025
  330TMC3    H2 4960   4.088   2.002   9.707  1.4382  0.6915  0.5937
  330TMC3    C7 4961   4.307   2.070   9.847 -0.3140  0.0818 -0.2873
  330TMC3    C8 4962   3.948   2.141   9.509  0.7218 -0.1759 -0.2297
  330TMC3    O1 4963   4.293   1.950   9.833 -0.2855 -0.1731 -0.0155
  330TMC3    O2 4964   3.904   2.220   9.425 -0.0783  0.6768 -0.5919
  331MPD2     C 4965   1.860   0.964  12.954  0.4083  0.0692 -0.7417
  331MPD2    C1 4966   1.979   1.024  12.919 -0.6966 -0.1966  0.7421
  331MPD2    C2 4967   2.069   0.949  12.839  0.2764  0.0384 -1.0140
  331MPD2    C3 4968   2.049   0.817  12.808  0.2673  0.5887  0.6553
  331MPD2    C4 4969   1.935   0.753  12.849 -0.2222  0.1997  0.0800
  331MPD2    C5 4970   1.837   0.830  12.911 -0.3810  0.5066 -0.2111
  331MPD2     H 4971   2.156   1.002  12.803  1.8680 -1.2797  0.9224
  331MPD2    H1 4972   1.907   0.653  12.817 -1.9319  0.5238  0.5516
  331MPD2    H2 4973   1.795   1.012  13.026  0.0674 -1.6773  0.1201
  331MPD2    H3 4974   1.744   0.779  12.936  0.4271 -1.8411 -2.0127
  331MPD2     N 4975   2.145   0.764  12.718 -0.0805 -0.5138  0.0244
  331MPD2    H5 4976   2.208   0.834  12.680 -1.4729 -0.6427 -2.5155
  331MPD2    N1 4977   2.004   1.162  12.945  0.2235  0.2151 -0.3638
  331MPD2    H7 4978   1.929   1.216  12.986  1.0754  2.6981 -2.0683
  332TMC3    C1 4979   2.252   0.610  12.584 -0.0441  1.2770 -0.2313
  332TMC3    C2 4980   2.287   0.701  12.482 -0.2278 -0.3344  0.3394
  332TMC3    C3 4981   2.415   0.701  12.437 -0.4523 -0.0855 -0.2053
  332TMC3    C4 4982   2.345   0.534  12.650 -0.3438 -0.0435  0.6076
  332TMC3    C5 4983   2.476   0.560  12.609 -0.3994  0.3324 -0.4149
  332TMC3    C6 4984   2.511   0.643  12.512  0.4973  0.9574  0.3906
  332TMC3     C 4985   2.144   0.635  12.679  0.2152 -0.0582  0.0987
  332TMC3     O 4986   2.075   0.540  12.711 -0.2918 -0.3325  0.1710
  332TMC3     H 4987   2.223   0.783  12.452  0.2258 -1.0622 -2.6155
  332TMC3    H1 4988   2.323   0.481  12.743  1.6932  0.6465  1.4766
  332TMC3    H2 4989   2.605   0.634  12.458  0.0216 -0.6549 -0.1520
  332TMC3    C7 4990   2.585   0.492  12.687  0.2341  0.0995 -0.2841
  332TMC3    C8 4991   2.458   0.801  12.343 -0.2177  0.0008  0.1801
  332TMC3    O1 4992   2.584   0.373  12.706  0.4732  0.4329  0.2917
  332TMC3    O2 4993   2.579   0.822  12.328  0.4448 -0.1948  0.1481
  333MPD2     C 4994   2.495   1.659  11.152 -0.3433 -0.3210  0.0302
  333MPD2    C1 4995   2.597   1.580  11.103  0.1653 -0.7497 -0.0637
  333MPD2    C2 4996   2.596   1.445  11.149  0.5067 -0.0305 -0.8229
  333MPD2    C3 4997   2.488   1.393  11.227  0.3635 -0.4566  0.7725
  333MPD2    C4 4998   2.387   1.481  11.271 -0.1619 -0.5709  0.3334
  333MPD2    C5 4999   2.398   1.607  11.234  0.0473 -0.2974 -0.2548
  333MPD2     H 5000   2.659   1.362  11.120  3.0124  1.5053  0.2305
  333MPD2    H1 5001   2.303   1.452  11.334 -0.1316  0.1280  0.7003
  333MPD2    H2 5002   2.493   1.765  11.130 -1.0445 -0.2753  0.3176
  333MPD2    H3 5003   2.323   1.672  11.278  0.4750 -0.2090  0.3452
  333MPD2     N 5004   2.490   1.254  11.266 -0.7841  0.3946 -0.1903
  333MPD2    H5 5005   2.569   1.206  11.224  1.1275  1.8028  1.7754
  333MPD2    N1 5006   2.705   1.627  11.018 -0.0490  0.5296 -0.1247
  333MPD2    H7 5007   2.707   1.727  11.004 -1.3767  0.6444  0.5257
  334TMC3    C1 5008   2.910   1.653  10.910 -0.8945 -1.0846 -0.1719
  334TMC3    C2 5009   3.038   1.624  10.926  0.7666 -0.2576 -0.0899
  334TMC3    C3 5010   3.128   1.666  10.832 -0.8940  0.2456 -0.3300
  334TMC3    C4 5011   2.855   1.735  10.816  0.6849 -0.1726  0.2798
  334TMC3    C5 5012   2.945   1.771  10.720 -0.3273  1.1907  0.4972
  334TMC3    C6 5013   3.079   1.733  10.725  0.1457  0.7954  0.0905
  334TMC3     C 5014   2.819   1.559  10.969 -0.6149  0.3844 -0.7672
  334TMC3     O 5015   2.853   1.442  10.987  0.2006 -0.0893  0.1478
  334TMC3     H 5016   3.062   1.549  11.000 -0.5561 -0.9957 -0.4090
  334TMC3    H1 5017   2.749   1.752  10.803  0.6997  1.6167  2.5190
  334TMC3    H2 5018   3.145   1.759  10.644 -0.9002 -0.4730 -1.1710
  334TMC3    C7 5019   2.906   1.809  10.586  0.1238  0.0275  0.0462
  334TMC3    C8 5020   3.265   1.622  10.819 -0.6800 -0.4105 -0.5258
  334TMC3    O1 5021   2.988   1.831  10.498  0.3988  0.3715 -0.0301
  334TMC3    O2 5022   3.328   1.666  10.724 -0.8281 -0.5263 -0.2168
  335TMC3    C1 5023   1.921   3.018  17.362 -0.7148  0.1352  0.3429
  335TMC3    C2 5024   1.903   2.937  17.252  0.3852  0.0471  0.2346
  335TMC3    C3 5025   2.007   2.922  17.169  0.1373  1.3131 -0.5746
  335TMC3    C4 5026   2.038   3.084  17.392 -0.2017  0.2979 -0.0080
  335TMC3    C5 5027   2.141   3.063  17.294 -0.6480  0.4594  0.7348
  335TMC3    C6 5028   2.124   2.990  17.185  0.4853  0.1068 -0.1302
  335TMC3     C 5029   1.809   3.010  17.460 -0.1193  0.4166 -0.3944
  335TMC3     O 5030   1.729   2.917  17.441 -0.2156 -0.3037 -0.2586
  335TMC3     H 5031   1.808   2.894  17.224  0.4376 -1.8114  2.8607
  335TMC3    H1 5032   2.056   3.144  17.480 -1.7055  2.5354 -1.2232
  335TMC3    H2 5033   2.206   2.978  17.116  0.1916 -2.0425 -0.1230
  335TMC3    C7 5034   2.267   3.127  17.309 -0.8604  0.6871  0.3298
  335TMC3    C8 5035   1.998   2.853  17.043  0.1993 -0.6660 -0.3074
  335TMC3    O1 5036   2.368   3.063  17.285 -0.5575 -0.0869 -0.0562
  335TMC3    O2 5037   2.063   2.904  16.952 -1.0017  0.1621  0.8842
  336MPD2     C 5038   1.786   0.731  16.297 -0.6863  0.0337  0.4634
  336MPD2    C1 5039   1.896   0.718  16.219 -0.3445  0.0556  0.0241
  336MPD2    C2 5040   1.979   0.609  16.241  0.3264 -0.3843  0.8568
  336MPD2    C3 5041   1.948   0.514  16.343 -0.5805 -1.0755 -0.3538
  336MPD2    C4 5042   1.845   0.544  16.429  0.5070 -0.4970  0.0206
  336MPD2    C5 5043   1.773   0.657  16.409  0.4554 -0.0177 -0.3250
  336MPD2     H 5044   2.045   0.589  16.157  0.4533 -0.0165  0.8669
  336MPD2    H1 5045   1.822   0.485  16.517 -2.4980  1.7277  0.7280
  336MPD2    H2 5046   1.715   0.811  16.280 -0.0996  0.1615 -1.4124
  336MPD2    H3 5047   1.690   0.676  16.476  1.1269  1.4152  0.0875
  336MPD2     N 5048   2.027   0.403  16.375  0.1347  0.6155 -0.7155
  336MPD2    H5 5049   2.004   0.372  16.469 -3.1625  0.9732 -1.4046
  336MPD2    N1 5050   1.918   0.799  16.102 -0.0336 -0.4308 -0.6657
  336MPD2    H7 5051   2.015   0.799  16.072  0.1470  0.7410 -0.0786
  337TMC3    C1 5052   1.897   0.966  15.950 -0.4391  0.0842  0.0708
  337TMC3    C2 5053   1.812   0.996  15.847  0.0802  0.0416 -0.1770
  337TMC3    C3 5054   1.805   1.124  15.803 -0.2299 -0.0587 -0.1911
  337TMC3    C4 5055   1.988   1.053  16.000 -0.3263 -0.1918 -0.0116
  337TMC3    C5 5056   1.982   1.181  15.946  1.2950  0.2383 -0.6843
  337TMC3    C6 5057   1.887   1.223  15.853  0.2918 -0.1704  0.7338
  337TMC3     C 5058   1.836   0.891  16.051 -0.0001  0.3383  0.7390
  337TMC3     O 5059   1.718   0.921  16.073 -0.5418 -0.3198 -0.0177
  337TMC3     H 5060   1.737   0.923  15.821 -0.2644  0.2740  0.1713
  337TMC3    H1 5061   2.045   1.027  16.089 -1.2408  0.6577  0.8291
  337TMC3    H2 5062   1.899   1.320  15.806 -0.8339 -1.1862 -1.6506
  337TMC3    C7 5063   2.019   1.284  16.035  0.9094 -0.2883  0.0848
  337TMC3    C8 5064   1.676   1.175  15.767  0.7599  0.3418  0.1125
  337TMC3    O1 5065   2.137   1.312  16.056 -0.0103  0.4049  0.5687
  337TMC3    O2 5066   1.673   1.297  15.778  0.3215 -0.3503 -0.6362
  338MPD2     C 5067   2.051   4.401   0.954 -0.4363  0.0753  0.1297
  338MPD2    C1 5068   2.024   4.479   0.843 -0.0949 -0.0138  0.6385
  338MPD2    C2 5069   1.987   4.614   0.857  0.3822  0.4638  0.0289
  338MPD2    C3 5070   1.956   4.672   0.980  0.3327  0.2138  0.1956
  338MPD2    C4 5071   1.973   4.582   1.088  0.4157  1.0065 -0.1065
  338MPD2    C5 5072   2.024   4.455   1.074 -0.0504 -0.0248 -0.6105
  338MPD2     H 5073   1.986   4.682   0.772 -0.2874 -0.1751 -0.4732
  338MPD2    H1 5074   1.958   4.617   1.189  0.7420 -0.3336  0.4016
  338MPD2    H2 5075   2.080   4.296   0.954  1.2768  0.5537 -0.8573
  338MPD2    H3 5076   2.043   4.388   1.158 -0.5403  1.2985  0.5648
  338MPD2     N 5077   1.903   0.077   0.987 -0.2920 -0.0661 -0.0458
  338MPD2    H5 5078   1.905   0.128   0.900 -0.0619 -1.3206 -0.7675
  338MPD2    N1 5079   2.041   4.425   0.715 -0.9820 -0.6289  0.5414
  338MPD2    H7 5080   2.003   4.486   0.644  1.1694  0.0714 -0.0217
  339TMC3    C1 5081   1.767   0.250   1.059 -0.0823  0.4925  0.4031
  339TMC3    C2 5082   1.696   0.292   1.168 -1.2630 -0.3671  0.4410
  339TMC3    C3 5083   1.608   0.400   1.142  0.6420 -0.0280 -0.4929
  339TMC3    C4 5084   1.760   0.311   0.934 -0.1243  0.4530 -0.2708
  339TMC3    C5 5085   1.679   0.420   0.915 -0.3324 -0.1260 -0.4301
  339TMC3    C6 5086   1.600   0.468   1.019 -0.3867  0.1241 -1.2346
  339TMC3     C 5087   1.830   0.120   1.085  0.4834  0.1776 -0.0402
  339TMC3     O 5088   1.797   0.067   1.186  0.1142  0.3624 -0.0589
  339TMC3     H 5089   1.702   0.245   1.265 -0.2997  1.0960  1.0845
  339TMC3    H1 5090   1.813   0.267   0.850 -0.5099 -0.6678  0.0718
  339TMC3    H2 5091   1.532   0.551   1.002  0.0518  1.1585  2.0440
  339TMC3    C7 5092   1.668   0.484   0.793  0.0706 -0.3253 -0.1980
  339TMC3    C8 5093   1.525   0.458   1.251  0.3344 -0.1269 -0.2905
  339TMC3    O1 5094   1.604   0.585   0.787  0.4092  0.8096 -0.2011
  339TMC3    O2 5095   1.477   0.568   1.234  0.0721 -0.2043  0.0945
  340MPD2     C 5096   1.730   3.284   9.798  0.0909 -0.2246 -0.0228
  340MPD2    C1 5097   1.732   3.148   9.809  0.5708 -0.5970 -0.0407
  340MPD2    C2 5098   1.843   3.091   9.868 -0.5210  0.2983 -0.1856
  340MPD2    C3 5099   1.947   3.163   9.924  0.5533  0.2819 -0.4829
  340MPD2    C4 5100   1.938   3.302   9.914 -0.2563 -0.2770 -0.0927
  340MPD2    C5 5101   1.836   3.354   9.836 -0.0874  0.2203  0.0595
  340MPD2     H 5102   1.834   2.985   9.886  1.8346  0.4487  1.7522
  340MPD2    H1 5103   2.015   3.364   9.957  0.2193 -1.4107  0.7129
  340MPD2    H2 5104   1.640   3.326   9.755  0.1931 -1.2094 -1.1933
  340MPD2    H3 5105   1.829   3.458   9.808  3.2247  1.2420  3.0604
  340MPD2     N 5106   2.055   3.122   9.993 -0.3738 -0.0043 -0.0102
  340MPD2    H5 5107   2.118   3.191  10.032  1.1782 -0.8710 -0.9774
  340MPD2    N1 5108   1.624   3.080   9.740 -1.1857 -0.2915 -0.1824
  340MPD2    H7 5109   1.572   3.139   9.676  2.5215  2.6110 -0.5113
  341TMC3    C1 5110   1.492   2.908   9.659  0.3078  0.1398 -0.1594
  341TMC3    C2 5111   1.427   2.789   9.696 -0.8310 -0.0334 -0.6692
  341TMC3    C3 5112   1.377   2.724   9.583 -0.0634 -0.2031 -0.2260
  341TMC3    C4 5113   1.492   2.959   9.530 -0.1606 -0.2577 -0.6019
  341TMC3    C5 5114   1.440   2.883   9.425 -0.7874  0.1447 -0.6167
  341TMC3    C6 5115   1.378   2.766   9.455  0.3475 -0.8787  0.2646
  341TMC3     C 5116   1.604   2.946   9.742 -0.0946 -0.3531  0.3062
  341TMC3     O 5117   1.656   2.860   9.815 -0.3187  0.1422 -0.7528
  341TMC3     H 5118   1.440   2.753   9.797 -1.1743  1.7096  0.0066
  341TMC3    H1 5119   1.573   3.027   9.506 -0.6723  0.5120 -0.1600
  341TMC3    H2 5120   1.365   2.693   9.375  0.0069 -0.2978 -0.2135
  341TMC3    C7 5121   1.512   2.872   9.293  0.4881 -0.7771  0.1591
  341TMC3    C8 5122   1.326   2.598   9.611  0.7764 -0.1852  0.5255
  341TMC3    O1 5123   1.630   2.908   9.284  0.1789  0.0751  0.9486
  341TMC3    O2 5124   1.385   2.538   9.699  0.1030 -0.8669 -0.0084
  342MPD2     C 5125   0.553   0.536  17.343  0.0464 -0.1900  0.1042
  342MPD2    C1 5126   0.471   0.491  17.443  0.2261 -0.2161  0.2622
  342MPD2    C2 5127   0.355   0.557  17.473  0.5632 -0.5809  0.0258
  342MPD2    C3 5128   0.310   0.665  17.396  0.3694  0.2227  0.5186
  342MPD2    C4 5129   0.397   0.711  17.301  0.6356  0.4411 -1.1396
  342MPD2    C5 5130   0.516   0.650  17.273 -0.1905 -0.5262  0.0104
  342MPD2     H 5131   0.292   0.512  17.549 -1.4861  1.4148 -0.4868
  342MPD2    H1 5132   0.369   0.794  17.237  2.8754 -1.8651 -5.1615
  342MPD2    H2 5133   0.638   0.474  17.315  0.1033 -0.4856  0.9393
  342MPD2    H3 5134   0.578   0.674  17.187  1.5802 -0.1582  1.3830
  342MPD2     N 5135   0.183   0.733  17.402  0.6126 -0.2213  0.8791
  342MPD2    H5 5136   0.170   0.820  17.352 -1.2162 -0.4619  0.9509
  342MPD2    N1 5137   0.508   0.379  17.525 -0.0916 -0.5749 -0.2272
  342MPD2    H7 5138   0.442   0.359  17.600  0.8696  0.8823  1.0051
  343TMC3    C1 5139   0.609   0.179  17.587  0.3192  0.2306 -0.1857
  343TMC3    C2 5140   0.730   0.120  17.626 -0.3157 -0.2066  0.0913
  343TMC3    C3 5141   0.717   0.010   0.018  0.7747  0.1457  0.6488
  343TMC3    C4 5142   0.484   0.128  17.619 -0.9233  0.2230  0.2099
  343TMC3    C5 5143   0.485   0.027   0.017 -0.3967 -0.1530  0.3891
  343TMC3    C6 5144   0.600   4.687   0.067  0.5320 -0.6776  0.2311
  343TMC3     C 5145   0.618   0.302  17.514  0.6828  0.0194 -1.0155
  343TMC3     O 5146   0.721   0.323  17.454 -0.4429  0.3173  0.6035
  343TMC3     H 5147   0.825   0.170  17.612  1.5711 -3.9110 -0.3321
  343TMC3    H1 5148   0.391   0.159  17.573 -0.3305  1.2221 -0.3018
  343TMC3    H2 5149   0.600   4.603   0.136  2.2949 -1.2696 -0.4747
  343TMC3    C7 5150   0.359   4.714   0.074  0.5142  0.0267  0.6567
  343TMC3    C8 5151   0.832   4.647   0.048 -0.3160  0.8429 -0.5035
  343TMC3    O1 5152   0.255   0.011   0.018 -0.1614  0.5832 -0.6851
  343TMC3    O2 5153   0.830   4.567   0.142  0.3001  0.1854 -0.1253
  344MPD2     C 5154   1.372   1.048  10.874 -0.2538 -0.1948 -1.0619
  344MPD2    C1 5155   1.251   1.058  10.815 -0.0278 -0.0704 -0.1107
  344MPD2    C2 5156   1.243   1.132  10.701  0.9215  0.0578  0.1056
  344MPD2    C3 5157   1.344   1.222  10.674 -0.8355  0.6202 -0.1683
  344MPD2    C4 5158   1.465   1.217  10.737 -0.0971 -0.5106  0.1041
  344MPD2    C5 5159   1.477   1.121  10.836  0.0872 -0.2373  0.3576
  344MPD2     H 5160   1.150   1.124  10.645  1.1258 -0.8205 -0.1093
  344MPD2    H1 5161   1.549   1.278  10.707 -0.4570  0.6575  1.4458
  344MPD2    H2 5162   1.392   0.964  10.939  2.5225 -0.9677 -2.9326
  344MPD2    H3 5163   1.570   1.105  10.889 -0.1326  0.1317  0.8540
  344MPD2     N 5164   1.330   1.314  10.562 -0.8242  0.5515 -0.3634
  344MPD2    H5 5165   1.398   1.388  10.545 -2.2222  1.6380 -1.2790
  344MPD2    N1 5166   1.146   0.970  10.848  0.0220 -0.2737  0.5987
  344MPD2    H7 5167   1.069   0.970  10.783  1.3142 -1.8254 -0.9228
  345TMC3    C1 5168   1.298   1.405  10.354  0.2272  0.1456 -0.6843
  345TMC3    C2 5169   1.433   1.408  10.337 -0.2162 -0.3289  1.0636
  345TMC3    C3 5170   1.488   1.524  10.298  0.6666 -0.6676  0.5556
  345TMC3    C4 5171   1.220   1.519  10.340 -0.6755 -0.7702 -0.1944
  345TMC3    C5 5172   1.275   1.633  10.301 -0.6724 -0.5683 -0.0262
  345TMC3    C6 5173   1.411   1.640  10.279 -0.1315 -0.0805  0.1738
  345TMC3     C 5174   1.252   1.301  10.452 -0.0990  0.3313 -0.0975
  345TMC3     O 5175   1.140   1.250  10.448 -0.4204 -0.0787 -0.1464
  345TMC3     H 5176   1.494   1.320  10.356  0.0466 -0.4917 -0.5394
  345TMC3    H1 5177   1.119   1.531  10.379  0.4221  1.6463  1.9505
  345TMC3    H2 5178   1.461   1.735  10.262  1.3121 -0.7596  0.6200
  345TMC3    C7 5179   1.200   1.739  10.245 -0.7582  0.4656  0.1651
  345TMC3    C8 5180   1.621   1.528  10.355 -0.0317 -0.0496  0.8528
  345TMC3    O1 5181   1.257   1.849  10.224  0.1295  0.3164  0.5041
  345TMC3    O2 5182   1.630   1.456  10.455  0.3388 -0.2411  0.0932
  346MPD2     C 5183   1.264   2.121  14.346 -0.1744  0.4104  0.4139
  346MPD2    C1 5184   1.288   2.248  14.285  0.3660 -0.2220  0.4297
  346MPD2    C2 5185   1.315   2.365  14.362  0.8974  0.2616  0.0637
  346MPD2    C3 5186   1.312   2.358  14.501 -0.0131  0.0186 -0.0517
  346MPD2    C4 5187   1.299   2.230  14.559  1.0585 -0.4752 -0.9227
  346MPD2    C5 5188   1.285   2.116  14.485 -0.3190 -0.0401  0.4043
  346MPD2     H 5189   1.329   2.461  14.313  1.4287  0.6419  0.9472
  346MPD2    H1 5190   1.319   2.214  14.664 -1.6392 -0.3964 -0.3827
  346MPD2    H2 5191   1.240   2.037  14.281  1.6214  0.9093 -0.8801
  346MPD2    H3 5192   1.280   2.023  14.541  0.5101  0.5142  1.4045
  346MPD2     N 5193   1.349   2.472  14.573 -0.5559  0.4747 -1.1022
  346MPD2    H5 5194   1.380   2.554  14.522  0.7032  1.1502  0.7685
  346MPD2    N1 5195   1.313   2.259  14.144  0.0806  0.2272  0.4981
  346MPD2    H7 5196   1.371   2.337  14.115  0.4478 -0.8117 -1.5756
  347TMC3    C1 5197   1.454   2.579  14.765 -0.3500 -0.2403  0.4791
  347TMC3    C2 5198   1.538   2.631  14.669 -0.1741  0.0696 -0.7454
  347TMC3    C3 5199   1.648   2.696  14.718 -0.3310  0.4586 -0.0643
  347TMC3    C4 5200   1.459   2.600  14.907  0.3314 -0.0030 -0.6949
  347TMC3    C5 5201   1.569   2.673  14.947  0.4379  0.2338  0.3904
  347TMC3    C6 5202   1.663   2.720  14.852 -0.0282 -0.3357  0.2774
  347TMC3     C 5203   1.355   2.480  14.710 -0.7710 -0.1903  0.2679
  347TMC3     O 5204   1.294   2.408  14.787 -0.2127  0.1448 -0.2619
  347TMC3     H 5205   1.528   2.625  14.561  4.4235 -0.7440 -1.1037
  347TMC3    H1 5206   1.379   2.565  14.971 -0.1537  2.8864  0.2900
  347TMC3    H2 5207   1.758   2.766  14.877 -0.1570  0.3859 -0.5878
  347TMC3    C7 5208   1.571   2.732  15.081  0.2605 -0.8730 -0.2423
  347TMC3    C8 5209   1.746   2.741  14.620  0.3027 -0.0358  0.3098
  347TMC3    O1 5210   1.460   2.762  15.128  0.9465 -0.2924  0.0608
  347TMC3    O2 5211   1.724   2.690  14.515 -0.2841  0.0431 -0.2047
  348MPD2     C 5212   4.682   2.000  12.126 -0.2801 -0.2799 -0.5116
  348MPD2    C1 5213   0.083   2.011  12.066  0.4601 -0.1084  0.4031
  348MPD2    C2 5214   0.080   2.038  11.928 -0.7684  0.5518  0.2198
  348MPD2    C3 5215   4.681   2.069  11.858 -0.2136  0.0002 -0.4395
  348MPD2    C4 5216   4.561   2.071  11.924 -0.0695  0.5522  0.0381
  348MPD2    C5 5217   4.567   2.036  12.054  0.0063  0.1784 -1.1236
  348MPD2     H 5218   0.178   2.038  11.882 -0.3596  2.4249  1.0718
  348MPD2    H1 5219   4.466   2.095  11.877 -0.4839 -0.0431  0.5827
  348MPD2    H2 5220   4.668   1.972  12.230 -0.0335  0.0398 -0.3950
  348MPD2    H3 5221   4.469   2.027  12.098  0.3195 -1.4838 -0.7639
  348MPD2     N 5222   4.684   2.092  11.718 -0.1946  0.2506 -0.9522
  348MPD2    H5 5223   0.050   2.116  11.671  0.4313 -1.4425 -0.6479
  348MPD2    N1 5224   0.209   1.973  12.130  0.2138  0.4898 -0.1299
  348MPD2    H7 5225   0.290   1.957  12.071  0.5168  1.0600  0.1322
  349TMC3    C1 5226   0.358   1.879  12.283 -0.3430  0.2260 -0.0439
  349TMC3    C2 5227   0.342   1.752  12.337  0.5578 -0.0373 -0.8200
  349TMC3    C3 5228   0.431   1.651  12.298 -0.1426  0.3685  0.4835
  349TMC3    C4 5229   0.451   1.904  12.185  0.0155 -0.3737 -0.1108
  349TMC3    C5 5230   0.543   1.801  12.157  0.2717 -0.1683 -0.5657
  349TMC3    C6 5231   0.526   1.674  12.198 -0.1407  0.3994  0.5762
  349TMC3     C 5232   0.226   1.936  12.261  0.2628  1.0162 -1.2141
  349TMC3     O 5233   0.143   1.910  12.345 -0.2946  0.0144  0.1485
  349TMC3     H 5234   0.262   1.732  12.407  1.2702 -3.2923 -0.9542
  349TMC3    H1 5235   0.460   2.006  12.151 -0.9315 -0.2471  0.0079
  349TMC3    H2 5236   0.598   1.608  12.152  0.6848  0.4676  1.7975
  349TMC3    C7 5237   0.574   1.810  12.016 -0.2153 -0.0121 -1.2635
  349TMC3    C8 5238   0.391   1.517  12.335  0.3184  1.3649  0.2132
  349TMC3    O1 5239   0.564   1.712  11.946 -0.6108 -0.2139  0.5662
  349TMC3    O2 5240   0.291   1.500  12.400 -0.0813  0.0635 -0.5862
  350MPD2     C 5241   3.690   0.160  10.465 -0.7389 -0.7347  0.4925
  350MPD2    C1 5242   3.757   0.038  10.435  0.1555  0.2330 -0.8048
  350MPD2    C2 5243   3.890   0.045  10.414 -0.0834 -0.6425 -0.0372
  350MPD2    C3 5244   3.970   0.157  10.423 -0.5563  0.2101 -0.3961
  350MPD2    C4 5245   3.909   0.277  10.454  0.0890 -0.5505 -0.3633
  350MPD2    C5 5246   3.771   0.278  10.467 -0.0558 -0.0347  0.3075
  350MPD2     H 5247   3.935   4.676  10.375 -0.6574 -0.1168 -1.9290
  350MPD2    H1 5248   3.958   0.373  10.460 -0.7715 -0.2229  1.5797
  350MPD2    H2 5249   3.586   0.170  10.492 -0.5758 -1.3044  1.3271
  350MPD2    H3 5250   3.730   0.372  10.500 -1.2782 -0.9598  1.4246
  350MPD2     N 5251   4.114   0.136  10.407 -0.1295 -0.1887  0.8163
  350MPD2    H5 5252   4.135   0.038  10.391  3.2657  0.4278  1.4937
  350MPD2    N1 5253   3.698   4.636  10.422 -0.3861  0.2745 -0.0254
  350MPD2    H7 5254   3.757   4.559  10.392 -1.8022 -1.9454  2.8796
  351TMC3    C1 5255   3.551   4.462  10.452 -0.1262 -0.2146  0.0698
  351TMC3    C2 5256   3.634   4.385  10.380  0.5937  0.1897  0.2951
  351TMC3    C3 5257   3.613   4.247  10.386  0.1119 -0.4856  1.0118
  351TMC3    C4 5258   3.447   4.407  10.526 -0.6424 -0.6169 -0.3705
  351TMC3    C5 5259   3.417   4.274  10.507  0.4702 -0.2340  0.2912
  351TMC3    C6 5260   3.506   4.188  10.449 -0.4005  0.5424 -0.0977
  351TMC3     C 5261   3.566   4.604  10.456  0.8518  0.2466  0.7633
  351TMC3     O 5262   3.467   4.677  10.473  0.2557 -0.0839 -0.3913
  351TMC3     H 5263   3.720   4.423  10.326  0.7591  0.4652  0.7508
  351TMC3    H1 5264   3.384   4.470  10.588  2.4531  0.4798  1.7088
  351TMC3    H2 5265   3.495   4.082  10.466  0.1668  0.0902 -2.6033
  351TMC3    C7 5266   3.291   4.227  10.561 -0.6775  0.1769  0.0089
  351TMC3    C8 5267   3.680   4.173  10.287  0.1724 -0.3002 -0.5356
  351TMC3    O1 5268   3.244   4.300  10.643 -0.1117 -0.1841 -0.0343
  351TMC3    O2 5269   3.724   4.236  10.191  0.1622  0.1246  0.4601
  352MPD2     C 5270   1.224   2.372   0.795 -0.3849 -0.1138 -0.0931
  352MPD2    C1 5271   1.105   2.309   0.810  0.0732  0.0254  0.2344
  352MPD2    C2 5272   1.093   2.207   0.904  0.1649 -0.0317 -0.3133
  352MPD2    C3 5273   1.210   2.148   0.959 -0.5884  0.1946 -0.8718
  352MPD2    C4 5274   1.334   2.215   0.943  0.5308 -0.0193 -0.2507
  352MPD2    C5 5275   1.335   2.319   0.853  0.1204 -0.0586 -0.1434
  352MPD2     H 5276   1.005   2.143   0.906  1.3600 -1.6633  0.3289
  352MPD2    H1 5277   1.423   2.173   0.989  0.8005  0.0594 -0.7095
  352MPD2    H2 5278   1.233   2.458   0.730  1.0525  0.7213  1.2180
  352MPD2    H3 5279   1.434   2.357   0.830  0.3340  1.6073  3.5301
  352MPD2     N 5280   1.208   2.034   1.045 -0.7085  0.0297 -0.0344
  352MPD2    H5 5281   1.293   1.991   1.079 -0.6676  0.2329  0.1228
  352MPD2    N1 5282   0.990   2.367   0.746  0.3621  0.7796 -0.2638
  352MPD2    H7 5283   1.013   2.432   0.671 -0.3659  1.0170 -0.2761
  353TMC3    C1 5284   1.122   1.846   1.164 -0.2311  1.1498  0.2813
  353TMC3    C2 5285   1.242   1.811   1.211  0.2954  0.7029 -0.0120
  353TMC3    C3 5286   1.254   1.706   1.302  0.2905  0.0305 -0.5074
  353TMC3    C4 5287   1.016   1.761   1.188 -0.2152  0.0538 -0.3930
  353TMC3    C5 5288   1.022   1.653   1.263  0.8660 -0.3075  0.0938
  353TMC3    C6 5289   1.150   1.615   1.306 -0.0054 -0.2522 -0.3379
  353TMC3     C 5290   1.092   1.961   1.077 -0.0338 -0.1568  0.1995
  353TMC3     O 5291   0.980   1.977   1.029  0.0577 -0.3366  0.1094
  353TMC3     H 5292   1.329   1.874   1.194  1.1430  0.3402  3.1042
  353TMC3    H1 5293   0.922   1.790   1.144 -0.0924  0.3716 -0.4493
  353TMC3    H2 5294   1.166   1.530   1.371 -3.1711 -0.4540  0.1312
  353TMC3    C7 5295   0.949   1.543   1.205 -0.1459  0.1173  0.2101
  353TMC3    C8 5296   1.392   1.669   1.334 -0.5759 -0.0674  0.7681
  353TMC3    O1 5297   0.910   1.559   1.086  0.1716  0.1649  0.0935
  353TMC3    O2 5298   1.470   1.762   1.334 -0.1641  0.1375 -0.7421
  354TMC3    C1 5299   3.702   3.198  13.848 -0.1796  0.5238  0.2256
  354TMC3    C2 5300   3.666   3.300  13.764  0.6252  0.0792 -0.5905
  354TMC3    C3 5301   3.697   3.298  13.626  0.5951 -0.3313 -0.6407
  354TMC3    C4 5302   3.739   3.079  13.797 -0.3641 -0.3932  0.2644
  354TMC3    C5 5303   3.767   3.080  13.661 -0.7280 -0.1834 -0.3697
  354TMC3    C6 5304   3.749   3.180  13.577  0.4192 -0.1305 -0.3537
  354TMC3     C 5305   3.697   3.199  13.991  0.1236 -0.1066 -0.3641
  354TMC3     O 5306   3.659   3.094  14.043 -0.5625 -0.3082 -0.1746
  354TMC3     H 5307   3.629   3.390  13.812  1.7306 -0.3144  0.9961
  354TMC3    H1 5308   3.800   3.024  13.868 -1.0143 -1.5779 -0.1002
  354TMC3    H2 5309   3.777   3.178  13.472 -0.8639  0.4321 -0.7141
  354TMC3    C7 5310   3.883   2.997  13.636 -0.3363  0.4406 -0.5365
  354TMC3    C8 5311   3.633   3.397  13.539  0.6439  0.4357 -0.0808
  354TMC3    O1 5312   3.883   2.887  13.693  0.0006  0.0119  0.2146
  354TMC3    O2 5313   3.553   3.471  13.589 -0.0015  0.0213 -0.0263
  355MPD2     C 5314   3.990   3.828  11.895 -0.0480 -0.7626  0.8130
  355MPD2    C1 5315   4.038   3.893  11.781  0.4454 -0.5780  0.3095
  355MPD2    C2 5316   4.167   3.934  11.788 -0.0714  0.3967  0.3894
  355MPD2    C3 5317   4.248   3.921  11.898 -0.2045  0.2657 -0.1992
  355MPD2    C4 5318   4.201   3.851  12.004  0.4926  0.4790 -0.7992
  355MPD2    C5 5319   4.076   3.795  11.999  0.1527  0.4315  0.7330
  355MPD2     H 5320   4.211   3.970  11.695 -0.0600  1.2327  0.7144
  355MPD2    H1 5321   4.256   3.830  12.095 -0.9894  1.2539  0.2794
  355MPD2    H2 5322   3.888   3.791  11.889  0.1858 -1.4782  1.1555
  355MPD2    H3 5323   4.042   3.737  12.083  0.0862  0.6868  0.8819
  355MPD2     N 5324   4.381   3.975  11.904 -0.2559 -0.4066  0.7303
  355MPD2    H5 5325   4.429   3.959  11.992 -1.8666 -0.1693  1.6535
  355MPD2    N1 5326   3.957   3.919  11.674 -0.0692  0.1431  0.8354
  355MPD2    H7 5327   3.863   3.880  11.676 -0.5087  1.2227  0.8643
  356TMC3    C1 5328   4.548   4.122  11.855  0.9726 -0.5367 -0.2554
  356TMC3    C2 5329   4.606   4.206  11.768 -0.5424 -0.4803  0.4293
  356TMC3    C3 5330   4.703   4.296  11.811  0.3559  0.2188  0.5681
  356TMC3    C4 5331   4.555   4.148  11.993  0.8581 -0.5541 -0.1518
  356TMC3    C5 5332   4.649   4.241  12.033 -0.4527  0.3397 -0.0369
  356TMC3    C6 5333   4.721   4.317  11.949  0.0195 -0.2331 -0.6009
  356TMC3     C 5334   4.439   4.038  11.804  0.2010 -0.0011  0.0815
  356TMC3     O 5335   4.417   4.045  11.683 -0.3404 -0.4513 -0.3075
  356TMC3     H 5336   4.594   4.179  11.663  0.0105  0.9195  0.0019
  356TMC3    H1 5337   4.501   4.094  12.071 -0.0901  1.9926  0.9721
  356TMC3    H2 5338   0.090   4.366  11.984 -0.0104 -0.7296  0.1557
  356TMC3    C7 5339   4.668   4.253  12.178 -0.2854  0.7017  0.1914
  356TMC3    C8 5340   0.049   4.373  11.701 -0.0454 -0.2514  1.1811
  356TMC3    O1 5341   4.618   4.163  12.242 -0.4839  0.1653  0.1150
  356TMC3    O2 5342   0.066   4.311  11.595  0.0321  0.1842  0.1475
  357MPD2     C 5343   2.983   4.325   1.747  0.6207 -0.6761 -0.6932
  357MPD2    C1 5344   2.993   4.194   1.718 -0.2512 -0.0171 -0.9000
  357MPD2    C2 5345   2.877   4.117   1.706  0.2170 -0.2493 -1.1381
  357MPD2    C3 5346   2.752   4.176   1.716  0.2700  0.4710  0.5973
  357MPD2    C4 5347   2.743   4.311   1.735  0.1156 -0.1718 -0.7516
  357MPD2    C5 5348   2.860   4.381   1.747  0.4699  0.1521  0.0683
  357MPD2     H 5349   2.884   4.010   1.696  0.4563 -0.3411 -0.0122
  357MPD2    H1 5350   2.650   4.364   1.754  0.0921 -0.1665 -0.8817
  357MPD2    H2 5351   3.067   4.388   1.777  0.5882 -1.0766  0.2441
  357MPD2    H3 5352   2.856   4.486   1.775  0.3672  0.0972  0.2597
  357MPD2     N 5353   2.632   4.101   1.708 -0.1674 -0.5284 -0.1150
  357MPD2    H5 5354   2.550   4.155   1.683  0.1195 -0.4953 -1.0059
  357MPD2    N1 5355   3.121   4.133   1.731  0.2422 -0.1013 -0.4474
  357MPD2    H7 5356   3.195   4.199   1.757 -0.7860  0.7791  0.2713
  358TMC3    C1 5357   3.293   3.977   1.730 -0.2003 -1.3315  0.1991
  358TMC3    C2 5358   3.353   3.867   1.660 -0.6597 -0.3106 -0.3819
  358TMC3    C3 5359   3.427   3.765   1.726  0.2257  0.3208 -0.1779
  358TMC3    C4 5360   3.322   3.986   1.862 -0.3231 -0.1564 -0.0783
  358TMC3    C5 5361   3.393   3.883   1.920 -1.0763 -0.4062  0.1834
  358TMC3    C6 5362   3.432   3.765   1.858 -0.2429  0.0679  1.2412
  358TMC3     C 5363   3.159   4.009   1.697  0.2498 -0.0008 -0.3170
  358TMC3     O 5364   3.097   3.918   1.637 -0.4247 -0.7146 -0.1373
  358TMC3     H 5365   3.317   3.868   1.558  0.6692  0.4030 -0.8495
  358TMC3    H1 5366   3.264   4.055   1.923  0.8181 -1.0402  2.0065
  358TMC3    H2 5367   3.502   3.699   1.907  1.9276  1.8721  0.5980
  358TMC3    C7 5368   3.369   3.866   2.061  0.3190  0.2529 -0.1596
  358TMC3    C8 5369   3.527   3.695   1.653 -0.3159  0.1722  0.9138
  358TMC3    O1 5370   3.273   3.921   2.113 -0.0784  0.9022 -0.8916
  358TMC3    O2 5371   3.623   3.646   1.710  0.5981  0.3558 -0.6944
  359MPD2     C 5372   4.417   2.553  12.746  0.0831  0.3510 -0.0393
  359MPD2    C1 5373   4.387   2.501  12.624  0.0589 -0.2541 -0.7087
  359MPD2    C2 5374   4.314   2.385  12.614 -0.5966 -0.0413  0.2043
  359MPD2    C3 5375   4.283   2.305  12.724  0.2924  0.0136  0.4132
  359MPD2    C4 5376   4.316   2.357  12.846 -0.6403 -0.0733  0.2796
  359MPD2    C5 5377   4.370   2.476  12.853  0.4596 -0.6207 -0.0867
  359MPD2     H 5378   4.288   2.357  12.512 -0.1837 -0.7138  0.2798
  359MPD2    H1 5379   4.297   2.306  12.939 -0.7131  0.7298  0.6991
  359MPD2    H2 5380   4.449   2.655  12.766  1.2065  0.0814 -0.4659
  359MPD2    H3 5381   4.390   2.510  12.953 -2.3994  1.2686 -0.1684
  359MPD2     N 5382   4.235   2.174  12.716  0.0858 -0.5679  0.0195
  359MPD2    H5 5383   4.227   2.117  12.800  3.4640 -0.2112  0.5874
  359MPD2    N1 5384   4.410   2.573  12.505 -0.3174 -0.3172 -0.4423
  359MPD2    H7 5385   4.374   2.533  12.419 -1.4387 -0.0605 -0.0834
  360TMC3    C1 5386   4.548   2.682  12.357 -0.0187  0.1926  0.0062
  360TMC3    C2 5387   4.620   2.794  12.323 -0.2063  0.1163  0.3054
  360TMC3    C3 5388   4.665   2.806  12.197 -0.5296 -0.1382 -0.7536
  360TMC3    C4 5389   4.514   2.595  12.259  0.3027  0.2367  0.0511
  360TMC3    C5 5390   4.550   2.618  12.129 -0.1499  0.2467  0.6059
  360TMC3    C6 5391   4.617   2.731  12.093 -0.2525  0.7877 -0.4866
  360TMC3     C 5392   4.504   2.672  12.494  0.1362  0.4211  0.4852
  360TMC3     O 5393   4.543   2.749  12.578 -0.2886 -0.1809  0.0874
  360TMC3     H 5394   4.659   2.865  12.396  1.4373  0.5389 -0.9807
  360TMC3    H1 5395   4.466   2.500  12.281 -1.2327  0.7580 -1.0657
  360TMC3    H2 5396   4.639   2.738  11.987  0.2412  0.9071 -0.3744
  360TMC3    C7 5397   4.494   2.520  12.033 -0.1660  0.0051  0.4934
  360TMC3    C8 5398   0.046   2.903  12.187  0.0415  0.5180 -0.2293
  360TMC3    O1 5399   4.407   2.445  12.077  0.2531 -0.1800  0.1972
  360TMC3    O2 5400   0.029   3.017  12.231  0.5971 -0.3545  0.1783
  361MPD2     C 5401   1.058   1.638  16.649 -0.3351 -0.0659 -0.0308
  361MPD2    C1 5402   1.006   1.626  16.773 -0.3776  0.9641  0.6947
  361MPD2    C2 5403   1.046   1.517  16.844 -0.1796 -0.0302  0.2813
  361MPD2    C3 5404   1.135   1.421  16.803 -0.0034  0.1542  0.0462
  361MPD2    C4 5405   1.184   1.443  16.676  0.1286  0.3165  0.2146
  361MPD2    C5 5406   1.149   1.546  16.602  0.5192  0.0142 -0.2138
  361MPD2     H 5407   0.996   1.502  16.939  0.0428 -0.2788  0.3602
  361MPD2    H1 5408   1.258   1.374  16.636  1.8502  2.4750 -0.3761
  361MPD2    H2 5409   1.038   1.725  16.588 -2.1197 -2.3909 -2.7671
  361MPD2    H3 5410   1.191   1.556  16.503  1.6877 -0.5170  0.2244
  361MPD2     N 5411   1.179   1.312  16.870  0.5292  0.4931  1.0338
  361MPD2    H5 5412   1.250   1.251  16.830  1.8459  0.8580  2.8322
  361MPD2    N1 5413   0.906   1.716  16.822 -0.3225 -0.2329  0.3653
  361MPD2    H7 5414   0.854   1.689  16.905 -0.5602 -2.7886 -0.6046
  362TMC3    C1 5415   0.757   1.894  16.828 -0.2159 -0.1054  0.3794
  362TMC3    C2 5416   0.706   1.843  16.945  0.4098  1.1141 -0.0465
  362TMC3    C3 5417   0.579   1.881  16.976  0.7442 -0.5289  0.4155
  362TMC3    C4 5418   0.682   1.973  16.744  0.6471  0.0607 -0.0875
  362TMC3    C5 5419   0.555   1.993  16.771  0.7046 -0.5413  0.9018
  362TMC3    C6 5420   0.498   1.951  16.889 -0.2337 -0.2392 -0.6436
  362TMC3     C 5421   0.861   1.827  16.754 -0.4863  0.1829 -0.2223
  362TMC3     O 5422   0.903   1.893  16.660  0.1868 -0.4096  0.2512
  362TMC3     H 5423   0.762   1.783  17.016 -1.2770  0.0761  0.3954
  362TMC3    H1 5424   0.728   2.022  16.659  0.9891  2.2705  1.3612
  362TMC3    H2 5425   0.392   1.952  16.914  0.7910 -0.7705  3.5557
  362TMC3    C7 5426   0.488   2.089  16.682 -0.7777  0.2828 -0.0766
  362TMC3    C8 5427   0.531   1.835  17.110 -0.0891 -1.1674  0.4772
  362TMC3    O1 5428   0.553   2.180  16.634  0.0739  0.0207 -0.0570
  362TMC3    O2 5429   0.580   1.735  17.159 -0.0567 -0.5781  0.6275
  363TMC3    C1 5430   4.453   4.504   9.269 -0.0367  0.7848  0.5440
  363TMC3    C2 5431   4.452   4.408   9.370  0.6482 -0.0555  0.0313
  363TMC3    C3 5432   4.362   4.425   9.472  0.1873 -0.2934  0.1255
  363TMC3    C4 5433   4.362   4.604   9.268  0.1330  0.7674  0.3009
  363TMC3    C5 5434   4.269   4.618   9.368 -0.2821 -0.1079 -0.2480
  363TMC3    C6 5435   4.268   4.522   9.468 -0.6720 -0.4436  0.6927
  363TMC3     C 5436   4.555   4.516   9.166 -0.4388  0.5689 -0.3507
  363TMC3     O 5437   4.552   4.617   9.093 -0.2137  0.3828  0.7677
  363TMC3     H 5438   4.521   4.325   9.366 -0.1215 -0.6215 -1.7233
  363TMC3    H1 5439   4.345   4.678   9.191  2.8728  2.1402  1.0113
  363TMC3    H2 5440   4.185   4.518   9.537 -2.5991 -0.3275 -1.5919
  363TMC3    C7 5441   4.198   0.016   9.408 -0.3229 -0.3610  0.0507
  363TMC3    C8 5442   4.366   4.336   9.589  0.1260  0.3277  0.2918
  363TMC3    O1 5443   4.105   0.002   9.491 -0.0741 -0.4308  0.1341
  363TMC3    O2 5444   4.288   4.370   9.678 -0.4716 -0.3362  0.0342
  364MPD2     C 5445   3.201   3.141  10.369 -0.0456 -0.2865 -0.6884
  364MPD2    C1 5446   3.240   3.192  10.494  0.0810 -0.3350  0.1384
  364MPD2    C2 5447   3.264   3.098  10.596  0.1403 -0.4533  0.6006
  364MPD2    C3 5448   3.259   2.959  10.576 -0.0141 -0.2600 -0.3113
  364MPD2    C4 5449   3.221   2.912  10.447  0.3423  0.5173 -0.4387
  364MPD2    C5 5450   3.185   3.007  10.355 -0.5174  1.0686  0.3059
  364MPD2     H 5451   3.296   3.130  10.695  1.4587  0.3441 -0.0969
  364MPD2    H1 5452   3.202   2.806  10.429  0.1696  0.4661  0.0628
  364MPD2    H2 5453   3.166   3.210  10.292 -2.7532 -0.8251  0.0487
  364MPD2    H3 5454   3.152   2.975  10.257  1.2974  0.1626 -0.0109
  364MPD2     N 5455   3.296   2.862  10.676  0.7502 -0.3407 -0.4466
  364MPD2    H5 5456   3.321   2.769  10.643  0.6486 -1.6735  3.2522
  364MPD2    N1 5457   3.245   3.328  10.506 -0.1540 -0.0670  0.5144
  364MPD2    H7 5458   3.230   3.376  10.418  0.3714 -0.0244  0.4504
  365TMC3    C1 5459   3.304   3.539  10.602 -0.3116 -0.3446  0.2859
  365TMC3    C2 5460   3.336   3.589  10.475  0.6716  0.0740 -0.8719
  365TMC3    C3 5461   3.371   3.726  10.464  0.2187  0.2694 -0.0991
  365TMC3    C4 5462   3.294   3.624  10.711 -0.6102  0.4644 -0.2417
  365TMC3    C5 5463   3.326   3.757  10.688 -0.1859  0.7446  0.1072
  365TMC3    C6 5464   3.362   3.807  10.567 -0.4087  0.5401 -0.0079
  365TMC3     C 5465   3.275   3.402  10.622 -0.0356 -0.2554 -0.1636
  365TMC3     O 5466   3.251   3.359  10.734 -0.2174 -0.9718 -0.0073
  365TMC3     H 5467   3.350   3.522  10.391  0.4317  0.5336 -1.2765
  365TMC3    H1 5468   3.266   3.583  10.808  0.3402  0.8573  0.2028
  365TMC3    H2 5469   3.389   3.912  10.556 -0.9018  0.8605  1.8481
  365TMC3    C7 5470   3.335   3.846  10.798  0.2914  0.3028 -0.1162
  365TMC3    C8 5471   3.398   3.793  10.339  0.3363 -0.0039 -0.3625
  365TMC3    O1 5472   3.349   3.964  10.768 -0.1254 -0.7157  0.2060
  365TMC3    O2 5473   3.385   3.914  10.335 -0.3084  0.1213  0.6560
  366MPD2     C 5474   2.221   4.566  14.877  1.0864  0.0131 -0.1227
  366MPD2    C1 5475   2.218   4.568  15.014  0.0665  0.0676 -0.5564
  366MPD2    C2 5476   2.326   4.540  15.095 -0.5153 -0.3869  0.8561
  366MPD2    C3 5477   2.449   4.520  15.032 -0.4864  0.5078  0.0188
  366MPD2    C4 5478   2.455   4.516  14.893 -0.3802 -0.1472 -0.6437
  366MPD2    C5 5479   2.341   4.537  14.817  0.0378 -0.1803  0.4953
  366MPD2     H 5480   2.316   4.511  15.199  3.4237  0.2222  1.4210
  366MPD2    H1 5481   2.551   4.497  14.847  0.9656 -1.2935  2.7002
  366MPD2    H2 5482   2.137   4.604  14.818  1.0843  1.1232  0.6033
  366MPD2    H3 5483   2.346   4.539  14.709  0.6642 -1.3223  0.5098
  366MPD2     N 5484   2.568   4.502  15.104  0.0459  0.3408  0.3334
  366MPD2    H5 5485   2.638   4.448  15.054  2.1103  3.6748 -0.3861
  366MPD2    N1 5486   2.108   4.629  15.091 -0.3997 -0.2381 -0.8393
  366MPD2    H7 5487   2.115   4.637  15.192  3.6162 -0.3653 -1.1187
  367TMC3    C1 5488   1.923   0.046  15.131 -0.5287 -0.5286  0.5058
  367TMC3    C2 5489   2.001   0.106  15.230  0.4572 -0.1797  0.0706
  367TMC3    C3 5490   1.938   0.188  15.314 -0.5344  0.5537 -0.1227
  367TMC3    C4 5491   1.784   0.062  15.117  0.0312 -0.8064 -0.1912
  367TMC3    C5 5492   1.722   0.134  15.219  0.6819  0.4952 -0.3574
  367TMC3    C6 5493   1.802   0.199  15.314 -0.2698  0.6475 -0.1995
  367TMC3     C 5494   1.989   4.668  15.039  0.2214 -0.1786  0.3120
  367TMC3     O 5495   1.937   4.640  14.931 -0.3480 -0.2185  0.2957
  367TMC3     H 5496   2.108   0.112  15.245  0.5291  2.2816 -1.3566
  367TMC3    H1 5497   1.739   0.018  15.029 -0.1804  1.8351 -1.4066
  367TMC3    H2 5498   1.749   0.235  15.402 -1.3021  0.0384 -0.5813
  367TMC3    C7 5499   1.582   0.179  15.210  0.4398 -0.5676 -0.5138
  367TMC3    C8 5500   2.014   0.231  15.427 -0.3955  0.4464 -0.1341
  367TMC3    O1 5501   1.574   0.291  15.265  0.2533 -0.5149 -0.4409
  367TMC3    O2 5502   2.109   0.163  15.461 -0.7163 -0.0362  0.3147
  368MPD2     C 5503   2.473   1.911  13.286 -0.0077 -0.3114  0.3289
  368MPD2    C1 5504   2.502   2.003  13.190 -0.1858  0.6743 -0.3138
  368MPD2    C2 5505   2.628   1.995  13.135 -1.1216 -0.4883 -0.8451
  368MPD2    C3 5506   2.718   1.895  13.169 -0.1575 -0.3815  0.0769
  368MPD2    C4 5507   2.688   1.811  13.272 -0.2992 -0.5206 -0.0609
  368MPD2    C5 5508   2.562   1.819  13.322  0.8417 -0.2342 -0.2518
  368MPD2     H 5509   2.645   2.062  13.051 -0.3653 -0.4573 -0.6648
  368MPD2    H1 5510   2.757   1.741  13.316  0.3942  0.3976  0.3135
  368MPD2    H2 5511   2.371   1.895  13.322  0.0347 -2.3029 -0.4089
  368MPD2    H3 5512   2.532   1.751  13.401  2.3074  2.4760  2.6453
  368MPD2     N 5513   2.830   1.875  13.087 -0.1349  0.4393  0.2707
  368MPD2    H5 5514   2.895   1.803  13.116  0.5249  1.4303  1.2495
  368MPD2    N1 5515   2.401   2.091  13.137  0.6349 -0.1703 -0.4246
  368MPD2    H7 5516   2.313   2.079  13.187  0.7386  0.8823 -0.0062
  369TMC3    C1 5517   2.279   2.230  12.990 -1.1289 -0.1258 -0.0210
  369TMC3    C2 5518   2.283   2.262  12.861  0.5879 -0.8247 -0.3099
  369TMC3    C3 5519   2.167   2.237  12.792  0.2379  0.1291 -0.3554
  369TMC3    C4 5520   2.168   2.185  13.055  0.0954 -0.6717 -0.3310
  369TMC3    C5 5521   2.050   2.172  12.990  0.5650  0.6624  0.1577
  369TMC3    C6 5522   2.048   2.202  12.856  0.2434 -0.2119 -0.2267
  369TMC3     C 5523   2.411   2.189  13.037  0.0275 -0.8981 -0.1473
  369TMC3     O 5524   2.504   2.209  12.958 -0.4730 -0.3798  0.1583
  369TMC3     H 5525   2.367   2.316  12.818  1.5884 -0.5559  1.9951
  369TMC3    H1 5526   2.173   2.155  13.159  1.0662 -2.4673 -0.8857
  369TMC3    H2 5527   1.956   2.215  12.801  1.0588 -1.2312 -1.8133
  369TMC3    C7 5528   1.939   2.138  13.073  0.2537  0.5374  1.0495
  369TMC3    C8 5529   2.166   2.263  12.651  0.0349 -0.4606  1.0971
  369TMC3    O1 5530   1.955   2.132  13.195  0.4143  0.3388 -0.2210
  369TMC3    O2 5531   2.058   2.278  12.596 -0.3586  0.0252 -0.2905
  370TMC3    C1 5532   2.152   2.389  16.200  0.8990  0.6334 -0.0832
  370TMC3    C2 5533   2.154   2.320  16.314 -0.1008  0.0409 -0.3237
  370TMC3    C3 5534   2.217   2.197  16.319 -0.1285 -0.3061  0.1812
  370TMC3    C4 5535   2.211   2.333  16.086 -0.3548  0.3752 -0.0835
  370TMC3    C5 5536   2.270   2.208  16.095 -0.0297 -0.9141 -0.0566
  370TMC3    C6 5537   2.273   2.137  16.210  0.7150 -0.5541  0.5597
  370TMC3     C 5538   2.097   2.517  16.197 -0.2343 -0.8518  0.1589
  370TMC3     O 5539   2.138   2.587  16.105 -0.1164  0.1187  0.4727
  370TMC3     H 5540   2.113   2.368  16.402  0.6195 -3.2169  1.8144
  370TMC3    H1 5541   2.225   2.390  15.995 -1.2987  0.4584 -0.1750
  370TMC3    H2 5542   2.315   2.038  16.222  0.8963 -0.5955 -0.3589
  370TMC3    C7 5543   2.359   2.169  15.985  0.4127 -0.7173  0.0060
  370TMC3    C8 5544   2.189   2.102  16.426 -0.3844 -0.5539  0.2187
  370TMC3    O1 5545   2.351   2.227  15.881  0.5115  0.0818 -0.1574
  370TMC3    O2 5546   2.214   1.984  16.406  0.3293  0.2653 -0.2266
  371TMC3    C1 5547   3.646   1.017  15.355 -0.5871  0.1826  0.3664
  371TMC3    C2 5548   3.524   0.964  15.332  0.2475 -0.3123  0.9628
  371TMC3    C3 5549   3.415   1.044  15.334  0.1833  0.4716 -0.3479
  371TMC3    C4 5550   3.668   1.148  15.372  0.1853  0.1732 -0.3986
  371TMC3    C5 5551   3.563   1.230  15.366  0.2346  0.4143 -0.0610
  371TMC3    C6 5552   3.432   1.184  15.357  0.8268  0.1294  0.1647
  371TMC3     C 5553   3.733   0.926  15.425  0.3573  0.2364 -0.0799
  371TMC3     O 5554   3.837   0.962  15.474  0.0115  0.1777  0.4355
  371TMC3     H 5555   3.519   0.864  15.290 -0.6408  0.1129  0.0699
  371TMC3    H1 5556   3.767   1.181  15.399  0.2941 -0.2161 -0.3142
  371TMC3    H2 5557   3.358   1.262  15.344  2.0242  1.4298  1.0422
  371TMC3    C7 5558   3.593   1.372  15.343 -0.4318  0.2925  0.1066
  371TMC3    C8 5559   3.310   0.985  15.411 -0.1631  0.0862  0.2833
  371TMC3    O1 5560   3.664   1.430  15.427  0.0485 -0.5324 -0.7972
  371TMC3    O2 5561   3.312   0.861  15.428  0.5300  0.2079 -0.7005
  372MPD2     C 5562   3.032   2.347  13.046  0.3093 -0.3591 -0.7206
  372MPD2    C1 5563   3.115   2.256  13.116  0.3314  0.1924 -0.1900
  372MPD2    C2 5564   3.066   2.186  13.222  0.5279  0.0717  0.0347
  372MPD2    C3 5565   2.931   2.189  13.257  0.0101  0.0535  0.2410
  372MPD2    C4 5566   2.844   2.270  13.178  0.2104  0.8193 -0.2506
  372MPD2    C5 5567   2.899   2.341  13.079  0.1606  0.2329 -0.1906
  372MPD2     H 5568   3.133   2.133  13.288 -0.3040 -0.8027  0.1810
  372MPD2    H1 5569   2.737   2.266  13.190  0.6603 -1.1401  3.0919
  372MPD2    H2 5570   3.077   2.407  12.968 -1.6485 -0.9979 -2.3211
  372MPD2    H3 5571   2.840   2.409  13.019 -0.3595 -2.1496 -2.3846
  372MPD2     N 5572   2.879   2.130  13.377  0.1547 -0.1488 -0.3915
  372MPD2    H5 5573   2.784   2.154  13.400 -0.5981 -1.1899 -2.4226
  372MPD2    N1 5574   3.251   2.241  13.095  0.1132 -0.3757 -0.8047
  372MPD2    H7 5575   3.303   2.189  13.165 -0.4310  1.5160  1.0039
  373TMC3    C1 5576   2.870   1.971  13.556  0.4595 -0.2322 -0.0125
  373TMC3    C2 5577   2.896   2.065  13.655 -1.6432  0.2755  0.9788
  373TMC3    C3 5578   2.898   2.032  13.784  0.3538  0.0818  0.2684
  373TMC3    C4 5579   2.883   1.838  13.598 -0.3519  0.4123 -0.7499
  373TMC3    C5 5580   2.903   1.809  13.730  0.4519  0.1352  0.0522
  373TMC3    C6 5581   2.897   1.904  13.825  0.2883  0.0312  0.9538
  373TMC3     C 5582   2.936   2.013  13.433  0.0834 -0.2946 -0.2296
  373TMC3     O 5583   3.011   1.936  13.380  0.2084 -0.1568  0.0470
  373TMC3     H 5584   2.896   2.171  13.632 -1.3530  0.1645  0.4595
  373TMC3    H1 5585   2.882   1.770  13.514  4.0030 -1.9324  1.0693
  373TMC3    H2 5586   2.925   1.884  13.928 -2.3314 -2.9809  1.1268
  373TMC3    C7 5587   2.933   1.671  13.751 -0.4191 -0.4904 -0.0846
  373TMC3    C8 5588   2.984   2.124  13.864 -0.2009  0.3456  0.0347
  373TMC3    O1 5589   2.897   1.602  13.658 -0.4053 -0.0976 -0.0700
  373TMC3    O2 5590   3.097   2.147  13.819 -0.0051 -0.2887 -0.1243
  374TMC3    C1 5591   3.424   2.151   9.704 -0.0763  0.2724 -0.3359
  374TMC3    C2 5592   3.554   2.194   9.714  0.0585  0.6982  0.5956
  374TMC3    C3 5593   3.600   2.287   9.620 -0.1495  0.5449 -0.3221
  374TMC3    C4 5594   3.349   2.172   9.590  0.3381  0.1021  0.2427
  374TMC3    C5 5595   3.403   2.259   9.496 -0.5151 -0.1922 -0.0697
  374TMC3    C6 5596   3.523   2.318   9.510 -0.2877  0.9523  0.0722
  374TMC3     C 5597   3.371   2.077   9.822  0.2384 -0.0122  0.4428
  374TMC3     O 5598   3.439   2.089   9.924  0.1330 -0.0680 -0.3603
  374TMC3     H 5599   3.605   2.197   9.810 -0.4113 -0.0819  0.8661
  374TMC3    H1 5600   3.252   2.126   9.573  0.7773 -0.9495  0.6345
  374TMC3    H2 5601   3.565   2.386   9.438  2.7069  0.9039  1.7821
  374TMC3    C7 5602   3.334   2.266   9.365 -0.1113 -0.1358 -0.1375
  374TMC3    C8 5603   3.714   2.372   9.650 -0.4384 -0.4057  0.5486
  374TMC3    O1 5604   3.255   2.179   9.329 -0.0119 -0.0607 -0.0305
  374TMC3    O2 5605   3.714   2.473   9.581 -0.0534  0.3569 -0.1427
  375MPD2     C 5606   3.249   2.843  17.170  0.0649 -0.4320  0.2127
  375MPD2    C1 5607   3.184   2.902  17.060  0.4055 -0.1665 -0.5665
  375MPD2    C2 5608   3.185   2.833  16.942 -0.3083 -0.4896  1.0593
  375MPD2    C3 5609   3.282   2.727  16.923  0.0383 -0.6177  0.8314
  375MPD2    C4 5610   3.361   2.692  17.028 -0.1677 -0.0820 -0.7128
  375MPD2    C5 5611   3.336   2.735  17.154 -0.1316  0.6319 -0.7299
  375MPD2     H 5612   3.131   2.872  16.856 -1.2457 -0.9642  1.4423
  375MPD2    H1 5613   3.437   2.615  17.019  0.5208  0.2729  2.0098
  375MPD2    H2 5614   3.244   2.881  17.272  0.4318 -2.1151  0.8645
  375MPD2    H3 5615   3.391   2.698  17.239 -0.6661 -1.7761 -1.4195
  375MPD2     N 5616   3.300   2.662  16.799  0.5918 -0.0181  0.0891
  375MPD2    H5 5617   3.384   2.606  16.789  1.6382  1.4384  0.8646
  375MPD2    N1 5618   3.110   3.017  17.064 -0.8176 -0.4542 -0.0226
  375MPD2    H7 5619   3.072   3.057  16.978  0.3563 -0.4332 -0.5314
  376TMC3    C1 5620   3.297   2.627  16.562  0.5207 -0.6450  0.4238
  376TMC3    C2 5621   3.426   2.575  16.577 -0.3002  0.7004 -0.7632
  376TMC3    C3 5622   3.491   2.540  16.463  0.2535  0.1882  0.3911
  376TMC3    C4 5623   3.241   2.651  16.442  0.3148 -0.4646 -0.4798
  376TMC3    C5 5624   3.312   2.614  16.331 -0.1776 -0.2416 -0.0847
  376TMC3    C6 5625   3.435   2.572  16.342 -0.2556  0.6386 -0.5882
  376TMC3     C 5626   3.232   2.683  16.684  0.0808 -0.2220 -0.3881
  376TMC3     O 5627   3.130   2.747  16.667 -0.4916 -0.1367  0.6357
  376TMC3     H 5628   3.477   2.571  16.672 -0.1482  1.0601 -0.8289
  376TMC3    H1 5629   3.147   2.705  16.442  1.3997  1.4450  0.0118
  376TMC3    H2 5630   3.489   2.557  16.249  0.3763 -0.6791 -0.0088
  376TMC3    C7 5631   3.289   2.688  16.211 -0.1052 -0.5357 -0.6320
  376TMC3    C8 5632   3.632   2.511  16.460  0.7954 -1.0666 -0.3054
  376TMC3    O1 5633   3.377   2.766  16.185  0.0611 -0.4067 -0.3581
  376TMC3    O2 5634   3.687   2.528  16.353 -0.1909 -0.3256 -0.6539
  377MPD2     C 5635   1.362   2.164  12.141 -0.0880  0.1405  0.0079
  377MPD2    C1 5636   1.424   2.143  12.261  0.1612  1.8314 -0.7327
  377MPD2    C2 5637   1.355   2.161  12.377 -0.1581 -0.0913  0.8134
  377MPD2    C3 5638   1.219   2.202  12.376 -0.0930  0.2549  0.1483
  377MPD2    C4 5639   1.155   2.223  12.254 -0.3500  0.8278 -0.3966
  377MPD2    C5 5640   1.227   2.200  12.138 -0.0249  0.3397 -0.1722
  377MPD2     H 5641   1.399   2.145  12.475  0.2004  0.4032  0.7305
  377MPD2    H1 5642   1.056   2.266  12.246 -0.3785  1.1603  1.7768
  377MPD2    H2 5643   1.404   2.140  12.044  0.7602 -1.1922  0.6950
  377MPD2    H3 5644   1.198   2.219  12.036  0.6402 -2.2889 -0.8458
  377MPD2     N 5645   1.147   2.222  12.493  0.1770  0.0305  0.6934
  377MPD2    H5 5646   1.046   2.237  12.494  0.2816  0.5512  2.7860
  377MPD2    N1 5647   1.558   2.093  12.255  0.8510 -0.6034  0.2249
  377MPD2    H7 5648   1.603   2.074  12.166  1.6775 -1.1522  0.7568
  378TMC3    C1 5649   1.972   2.082  12.199 -1.4527  0.2568 -0.1575
  378TMC3    C2 5650   1.836   2.094  12.206 -0.3082  1.1475  0.8417
  378TMC3    C3 5651   1.775   2.043  12.318 -0.2292 -0.4642 -0.0285
  378TMC3    C4 5652   2.050   2.027  12.295 -0.1713  0.0329  0.1296
  378TMC3    C5 5653   1.981   1.979  12.404  0.5883 -0.3033  0.3064
  378TMC3    C6 5654   1.847   1.987  12.415 -0.3362  0.0616 -0.4635
  378TMC3     C 5655   2.023   2.106  12.063  0.2440  0.4967  0.4797
  378TMC3     O 5656   1.942   2.112  11.968  0.1727  0.9446 -0.5978
  378TMC3     H 5657   1.781   2.147  12.129  1.4984  0.2628 -1.0507
  378TMC3    H1 5658   2.158   2.031  12.303  0.1153 -0.9732 -3.2295
  378TMC3    H2 5659   1.799   1.942  12.501 -0.5372  0.1059 -0.5513
  378TMC3    C7 5660   2.048   1.941  12.525  0.4708 -0.4270 -0.6415
  378TMC3    C8 5661   1.646   2.084  12.361  0.9095 -0.4139 -0.1743
  378TMC3    O1 5662   1.977   1.940  12.623  0.1545 -0.5046 -0.3752
  378TMC3    O2 5663   1.617   2.084  12.481 -0.1031 -0.3684  0.1335
  379MPD2     C 5664   3.104   0.384  16.259  0.1914 -0.9826 -0.2870
  379MPD2    C1 5665   2.979   0.318  16.253  0.5095 -0.1750 -0.3441
  379MPD2    C2 5666   2.948   0.222  16.347 -0.8031  0.1956 -0.4957
  379MPD2    C3 5667   3.040   0.202  16.455  0.0007 -0.6388 -0.0757
  379MPD2    C4 5668   3.157   0.278  16.461  0.0806  0.0133 -0.4165
  379MPD2    C5 5669   3.189   0.365  16.365 -0.0988  0.5868 -0.6923
  379MPD2     H 5670   2.855   0.166  16.348 -1.7315  1.7314 -1.0939
  379MPD2    H1 5671   3.229   0.272  16.542  0.5693 -0.8975 -0.9217
  379MPD2    H2 5672   3.135   0.460  16.188  0.8835 -0.5696  0.4642
  379MPD2    H3 5673   3.279   0.423  16.381  0.0683  0.1266  0.0525
  379MPD2     N 5674   3.029   0.103  16.554 -0.0300 -0.1614 -0.4939
  379MPD2    H5 5675   3.116   0.089  16.606 -0.0182 -2.4737 -1.1182
  379MPD2    N1 5676   2.895   0.352  16.149 -0.5212 -0.0193  0.3750
  379MPD2    H7 5677   2.934   0.410  16.076 -0.4427 -0.7128 -0.1266
  380TMC3    C1 5678   2.704   0.384  16.028 -0.3238 -0.1654  0.2811
  380TMC3    C2 5679   2.767   0.373  15.908  0.0796 -0.4944  0.2862
  380TMC3    C3 5680   2.696   0.378  15.788  0.9253 -0.3668 -0.1989
  380TMC3    C4 5681   2.571   0.410  16.030 -0.5969 -0.4137  0.0374
  380TMC3    C5 5682   2.508   0.419  15.910 -0.2596 -0.3741  0.2344
  380TMC3    C6 5683   2.562   0.399  15.788  0.1935  0.4229  0.1362
  380TMC3     C 5684   2.760   0.331  16.151 -0.2980  0.0069 -0.6823
  380TMC3     O 5685   2.685   0.311  16.240  0.4221 -0.1200 -0.0252
  380TMC3     H 5686   2.867   0.332  15.896 -0.0867 -0.8873  0.2287
  380TMC3    H1 5687   2.515   0.429  16.121  1.1202  2.8876  0.4003
  380TMC3    H2 5688   2.504   0.401  15.696  1.6392  0.3369 -0.7734
  380TMC3    C7 5689   2.375   0.469  15.914  0.5422  0.6957 -0.6887
  380TMC3    C8 5690   2.763   0.397  15.652 -0.6072  0.3477  0.2858
  380TMC3    O1 5691   2.360   0.558  15.991  0.1407  0.7090 -0.3986
  380TMC3    O2 5692   2.684   0.417  15.563 -0.3930 -0.6370 -0.4237
  381TMC3    C1 5693   2.465   1.428  16.185  0.0164  0.2390  0.3202
  381TMC3    C2 5694   2.525   1.549  16.210 -0.1592  0.4904  0.2564
  381TMC3    C3 5695   2.479   1.627  16.314  0.4333 -0.2628  0.1313
  381TMC3    C4 5696   2.362   1.385  16.262 -0.2962 -0.2732 -0.0325
  381TMC3    C5 5697   2.325   1.467  16.365  0.1040  0.4192  0.3054
  381TMC3    C6 5698   2.383   1.586  16.395 -0.1014 -0.0997  0.0034
  381TMC3     C 5699   2.512   1.356  16.070  0.0045 -0.7273 -0.6097
  381TMC3     O 5700   2.631   1.371  16.052  0.2081 -0.1134  0.6675
  381TMC3     H 5701   2.608   1.584  16.149  0.2042  0.8785  0.9844
  381TMC3    H1 5702   2.307   1.296  16.235 -0.4654 -0.9668  2.6052
  381TMC3    H2 5703   2.336   1.649  16.469 -1.6082  0.2704 -1.2490
  381TMC3    C7 5704   2.220   1.421  16.452 -0.0797  0.4926 -0.5370
  381TMC3    C8 5705   2.560   1.741  16.337  0.5382 -0.8062 -0.2491
  381TMC3    O1 5706   2.199   1.302  16.453  0.1677 -0.0946 -0.1696
  381TMC3    O2 5707   2.652   1.763  16.262 -0.5407  0.1514  0.2192
  382MPD2     C 5708   1.451   3.731  17.235  0.2679 -0.5404  0.2655
  382MPD2    C1 5709   1.424   3.803  17.350  0.7150 -0.2931  1.0050
  382MPD2    C2 5710   1.329   3.752  17.436  0.4140  0.1010  0.4729
  382MPD2    C3 5711   1.262   3.635  17.407  0.4279  0.3693 -0.4429
  382MPD2    C4 5712   1.300   3.565  17.296 -0.5101  0.1219 -0.3860
  382MPD2    C5 5713   1.392   3.613  17.207  0.5093  0.0598  0.4138
  382MPD2     H 5714   1.302   3.801  17.528 -0.7840 -1.0808  0.7503
  382MPD2    H1 5715   1.247   3.480  17.255 -0.5912  1.2171 -2.5229
  382MPD2    H2 5716   1.524   3.768  17.164  1.6799 -1.9464  0.9660
  382MPD2    H3 5717   1.414   3.564  17.112  1.0754  0.3118  0.4142
  382MPD2     N 5718   1.152   3.595  17.481 -0.2559  0.3661  0.0279
  382MPD2    H5 5719   1.103   3.512  17.450 -0.6057  0.4462  0.3689
  382MPD2    N1 5720   1.488   3.924  17.377  0.1804  0.2660 -0.5904
  382MPD2    H7 5721   1.486   3.968  17.469 -1.5737 -0.1566 -0.4220
  383TMC3    C1 5722   0.981   3.585  17.638  0.2851 -0.6267  0.4079
  383TMC3    C2 5723   0.898   3.508  17.556 -0.3191  0.8319  0.3502
  383TMC3    C3 5724   0.766   3.471  17.594  0.1882  0.3097  0.0656
  383TMC3    C4 5725   0.931   3.613   0.078 -0.3373  0.0105 -0.3258
  383TMC3    C5 5726   0.803   3.574   0.106 -0.1237  0.9288 -0.0666
  383TMC3    C6 5727   0.721   3.499   0.029 -0.5488  0.2990  0.0291
  383TMC3     C 5728   1.093   3.657  17.589  0.3106  0.0932  0.5964
  383TMC3     O 5729   1.115   3.766  17.642  0.0224  0.0161 -0.5733
  383TMC3     H 5730   0.921   3.497  17.451 -2.4217 -1.0258  0.0937
  383TMC3    H1 5731   0.992   3.680   0.138  0.9570 -0.0759 -1.5553
  383TMC3    H2 5732   0.618   3.477   0.054 -0.9411 -0.4925 -2.2999
  383TMC3    C7 5733   0.744   3.624   0.232  1.0656  0.4641 -0.6311
  383TMC3    C8 5734   0.685   3.380  17.515 -0.3022 -0.8594  0.0930
  383TMC3    O1 5735   0.791   3.727   0.275  0.1905  0.3646 -1.3198
  383TMC3    O2 5736   0.566   3.367  17.543  0.3450 -0.1444  0.1701
  384MPD2     C 5737   3.410   0.205  11.977 -0.2294  0.5244  0.5355
  384MPD2    C1 5738   3.388   0.162  12.108  0.5687  0.2003  0.5518
  384MPD2    C2 5739   3.455   0.056  12.149 -0.0434 -0.1489  0.2414
  384MPD2    C3 5740   3.560   4.717  12.086  0.0502 -0.2851  0.3110
  384MPD2    C4 5741   3.591   0.048  11.960 -0.3079 -0.8442  0.6416
  384MPD2    C5 5742   3.510   0.145  11.906 -0.2200  0.7907 -0.0813
  384MPD2     H 5743   3.431   0.034  12.252 -1.4785  2.1833  0.4167
  384MPD2    H1 5744   3.666   4.716  11.902 -0.8551 -0.5558 -0.3236
  384MPD2    H2 5745   3.354   0.287  11.933  0.3388 -0.1803 -1.5245
  384MPD2    H3 5746   3.527   0.187  11.807 -2.5979  0.4266 -0.6386
  384MPD2     N 5747   3.645   4.615  12.138 -0.2695  0.0707  0.4335
  384MPD2    H5 5748   3.711   4.571  12.075  0.8257  0.5398  1.2603
  384MPD2    N1 5749   3.326   0.236  12.210 -0.1072  0.2081 -0.7802
  384MPD2    H7 5750   3.322   0.194  12.302  0.9836  0.7343 -0.4938
  385TMC3    C1 5751   3.704   4.439  12.281  0.0502  0.1804  0.2980
  385TMC3    C2 5752   3.676   4.333  12.196 -0.1480 -0.1698  0.6078
  385TMC3    C3 5753   3.655   4.215  12.261  0.2407 -0.4716 -0.1776
  385TMC3    C4 5754   3.711   4.419  12.420  0.3427  0.8627  0.3382
  385TMC3    C5 5755   3.672   4.301  12.474 -0.4260  0.1846 -0.1511
  385TMC3    C6 5756   3.640   4.198  12.392  0.1580  0.6223  0.4012
  385TMC3     C 5757   3.636   4.566  12.263 -0.7777  0.3771  0.6068
  385TMC3     O 5758   3.579   4.610  12.361  0.2874  0.3960 -0.1299
  385TMC3     H 5759   3.657   4.342  12.089  0.9617 -0.6581  0.3752
  385TMC3    H1 5760   3.744   4.500  12.485  0.0287  0.4868  0.9714
  385TMC3    H2 5761   3.580   4.115  12.427  1.8237 -0.7500 -0.0163
  385TMC3    C7 5762   3.576   4.305  12.586  0.0038  0.8907  1.1357
  385TMC3    C8 5763   3.653   4.088  12.188 -0.0859 -0.7740  0.6583
  385TMC3    O1 5764   3.534   4.202  12.635 -0.2276 -0.2767  0.4069
  385TMC3    O2 5765   3.623   4.086  12.071 -0.3576  0.0472  0.4305
  386TMC3    C1 5766   2.733   2.031  11.225 -0.1179  0.1682  0.2704
  386TMC3    C2 5767   2.785   2.053  11.106  0.7164  0.4035  0.0692
  386TMC3    C3 5768   2.766   2.181  11.058 -0.4313 -0.3309 -0.0398
  386TMC3    C4 5769   2.654   2.112  11.288 -0.2259 -0.1421  0.0517
  386TMC3    C5 5770   2.639   2.242  11.235  0.5059 -0.4359 -0.4595
  386TMC3    C6 5771   2.700   2.279  11.120 -0.7946  0.0718 -0.0261
  386TMC3     C 5772   2.722   1.891  11.268 -0.1796 -0.0204 -0.6285
  386TMC3     O 5773   2.614   1.855  11.318  0.4529 -0.0587  0.0657
  386TMC3     H 5774   2.813   1.969  11.044 -1.5125 -0.1283 -0.2240
  386TMC3    H1 5775   2.606   2.076  11.377  0.9086  2.8041  1.8486
  386TMC3    H2 5776   2.691   2.376  11.072 -0.3844 -0.3331 -0.9111
  386TMC3    C7 5777   2.578   2.341  11.332 -0.0770 -0.1090 -0.5978
  386TMC3    C8 5778   2.824   2.213  10.931  0.1116 -0.6527 -0.0390
  386TMC3    O1 5779   2.532   2.288  11.433 -0.1319  0.0083  0.7631
  386TMC3    O2 5780   2.792   2.322  10.884  0.0638  0.2003  0.4567
  387MPD2     C 5781   0.576   3.005   9.642 -0.3416  0.2832 -0.3553
  387MPD2    C1 5782   0.645   3.022   9.760  0.7249 -0.7811 -0.3874
  387MPD2    C2 5783   0.657   2.916   9.851  0.0133  0.3335  0.7403
  387MPD2    C3 5784   0.610   2.790   9.812  0.0036 -0.0146  0.4932
  387MPD2    C4 5785   0.530   2.778   9.699 -0.4350 -0.3843  0.8611
  387MPD2    C5 5786   0.513   2.886   9.613 -0.2846 -0.0054 -0.5914
  387MPD2     H 5787   0.715   2.934   9.941  0.5004  0.0751  0.4820
  387MPD2    H1 5788   0.485   2.684   9.669 -2.0912  0.9365 -0.7952
  387MPD2    H2 5789   0.571   3.090   9.574  0.1647 -0.0610 -0.8245
  387MPD2    H3 5790   0.456   2.874   9.522 -0.5441  0.5739 -0.5023
  387MPD2     N 5791   0.661   2.689   9.891  0.0819 -0.5540 -0.5517
  387MPD2    H5 5792   0.738   2.714   9.952  0.5306 -0.5110 -1.1318
  387MPD2    N1 5793   0.714   3.145   9.792  0.7833 -0.2957  0.1961
  387MPD2    H7 5794   0.762   3.143   9.882 -0.5204  3.1849  0.9724
  388TMC3    C1 5795   0.840   3.340   9.771 -0.0150 -0.1337  0.0861
  388TMC3    C2 5796   0.847   3.472   9.740  0.4835 -0.5435 -0.6901
  388TMC3    C3 5797   0.962   3.534   9.777 -0.3319 -0.0914 -0.1889
  388TMC3    C4 5798   0.937   3.269   9.841 -0.6976  0.6549  0.1714
  388TMC3    C5 5799   1.045   3.341   9.887 -0.4409 -0.2117 -0.1214
  388TMC3    C6 5800   1.060   3.469   9.848 -0.0213  0.1346  0.5336
  388TMC3     C 5801   0.736   3.258   9.718  0.7245  0.0877  0.6383
  388TMC3     O 5802   0.689   3.288   9.606  0.4100  0.6638 -0.3231
  388TMC3     H 5803   0.769   3.526   9.688  0.0442  0.0916  0.6078
  388TMC3    H1 5804   0.937   3.161   9.824 -0.8606  0.6332  0.3088
  388TMC3    H2 5805   1.146   3.518   9.893 -1.4283  2.5745  0.5631
  388TMC3    C7 5806   1.149   3.263   9.933 -0.3373  0.3979 -0.0941
  388TMC3    C8 5807   0.990   3.664   9.712 -0.0134  0.0951  0.1433
  388TMC3    O1 5808   1.263   3.310   9.914  0.2468  1.0276 -0.1293
  388TMC3    O2 5809   0.905   3.711   9.641  0.1231 -0.2175  0.1772
  389MPD2     C 5810   0.481   0.825  11.185  0.1264  0.4664  0.8503
  389MPD2    C1 5811   0.372   0.744  11.150  0.4538  0.5743 -0.8115
  389MPD2    C2 5812   0.302   0.666  11.236 -0.1572  0.1665 -0.0331
  389MPD2    C3 5813   0.340   0.664  11.372 -0.1212 -0.2027 -0.2931
  389MPD2    C4 5814   0.439   0.748  11.408 -0.0250 -0.3984 -0.6742
  389MPD2    C5 5815   0.508   0.823  11.316 -0.0437  0.2964 -0.0911
  389MPD2     H 5816   0.232   0.593  11.197 -0.2301 -0.2310  0.8413
  389MPD2    H1 5817   0.474   0.755  11.511 -0.2282 -1.3526 -0.5452
  389MPD2    H2 5818   0.538   0.880  11.111  0.3261  1.8069  2.0025
  389MPD2    H3 5819   0.592   0.883  11.350 -0.4013  0.3458  0.7088
  389MPD2     N 5820   0.277   0.579  11.467 -0.0801 -0.0089 -1.1861
  389MPD2    H5 5821   0.299   0.598  11.564 -1.1169  1.2821 -1.2020
  389MPD2    N1 5822   0.338   0.754  11.016  0.2169  0.2660 -0.3434
  389MPD2    H7 5823   0.387   0.820  10.956  0.8347  0.3789  0.2873
  390TMC3    C1 5824   0.106   0.444  11.541  0.0406  0.7760 -0.3804
  390TMC3    C2 5825   0.064   0.316  11.552  0.6847 -0.4997 -0.1018
  390TMC3    C3 5826   4.712   0.285  11.663 -0.0482  0.3265  0.1950
  390TMC3    C4 5827   0.073   0.543  11.633  0.1180 -1.1648  0.2046
  390TMC3    C5 5828   4.702   0.508  11.724  0.2584  0.8652 -0.6001
  390TMC3    C6 5829   4.657   0.381  11.740  0.2595 -0.4089  0.2453
  390TMC3     C 5830   0.184   0.481  11.431 -0.0573 -0.0529  0.0829
  390TMC3     O 5831   0.165   0.423  11.328  0.4256  0.1040 -0.0406
  390TMC3     H 5832   0.083   0.237  11.480  1.2537  0.1181 -0.6283
  390TMC3    H1 5833   0.098   0.649  11.625 -0.5394 -0.9320  1.3183
  390TMC3    H2 5834   4.587   0.353  11.819 -0.8614 -2.1612 -1.3707
  390TMC3    C7 5835   4.614   0.614  11.759  0.1093  0.4373  0.0543
  390TMC3    C8 5836   4.648   0.157  11.668  0.0998  0.8734  0.8924
  390TMC3    O1 5837   4.665   0.721  11.791  0.4960  0.2469 -0.0139
  390TMC3    O2 5838   4.657   0.079  11.577 -0.5631  0.0701 -0.2011
  391MPD2     C 5839   4.138   2.039  11.125 -0.3369  0.1206 -0.1926
  391MPD2    C1 5840   4.272   2.048  11.090  0.1209 -0.1780 -0.2005
  391MPD2    C2 5841   4.298   2.087  10.953  0.4155  0.6726  0.3774
  391MPD2    C3 5842   4.196   2.132  10.869 -0.7620  0.6942 -0.0269
  391MPD2    C4 5843   4.066   2.133  10.917  0.3002  0.3322  0.0732
  391MPD2    C5 5844   4.041   2.065  11.036 -0.2943 -0.0106  0.6038
  391MPD2     H 5845   4.399   2.097  10.914  1.1031  0.1510  2.0350
  391MPD2    H1 5846   3.984   2.177  10.862  0.3095 -1.1620 -1.1308
  391MPD2    H2 5847   4.110   2.012  11.226  0.5599 -1.7549 -0.4308
  391MPD2    H3 5848   3.939   2.056  11.070  0.8309 -2.2431  3.4085
  391MPD2     N 5849   4.235   2.180  10.739  0.2506 -0.4053 -0.4924
  391MPD2    H5 5850   4.333   2.197  10.721  0.6063  0.1441  1.9009
  391MPD2    N1 5851   4.374   2.023  11.188 -0.1355  0.3377  0.3734
  391MPD2    H7 5852   4.354   2.011  11.287 -0.7212  0.8151  0.3129
  392TMC3    C1 5853   4.203   2.272  10.530 -0.4134  0.3189  0.1294
  392TMC3    C2 5854   4.145   2.258  10.411  0.4111  0.3613  0.8143
  392TMC3    C3 5855   4.179   2.326  10.297 -0.0715  0.2161  0.0140
  392TMC3    C4 5856   4.314   2.355  10.538  0.2638  0.0347  0.6755
  392TMC3    C5 5857   4.355   2.406  10.417  0.2209 -0.2651  1.1173
  392TMC3    C6 5858   4.291   2.398  10.299 -0.4145 -0.0800  0.2598
  392TMC3     C 5859   4.145   2.220  10.646 -0.4398 -0.3130  0.6489
  392TMC3     O 5860   4.025   2.192  10.643  0.6262 -0.8943  0.2169
  392TMC3     H 5861   4.057   2.195  10.407  0.9832 -0.4761  1.2117
  392TMC3    H1 5862   4.372   2.366  10.629  0.6328  1.6482  0.2532
  392TMC3    H2 5863   4.326   2.452  10.212 -1.3159 -1.2908 -0.8715
  392TMC3    C7 5864   4.479   2.482  10.431  0.4012  0.0620  0.0484
  392TMC3    C8 5865   4.091   2.324  10.183  0.3568 -0.5527 -0.2398
  392TMC3    O1 5866   4.518   2.520  10.540 -0.7311  0.0441 -0.3572
  392TMC3    O2 5867   4.020   2.227  10.165  0.2325  0.1825  0.1518
  393TMC3    C1 5868   3.440   0.065  10.917  0.0310  0.3625  0.0550
  393TMC3    C2 5869   3.361   0.031  11.028 -0.1243 -0.0705 -1.0309
  393TMC3    C3 5870   3.367   4.620  11.062 -0.2694  0.1170  0.3150
  393TMC3    C4 5871   3.517   4.702  10.837  0.0576  0.0012  0.4031
  393TMC3    C5 5872   3.517   4.577  10.881 -0.0568 -0.5209 -0.4345
  393TMC3    C6 5873   3.440   4.530  10.992 -0.1881 -0.3209 -0.5788
  393TMC3     C 5874   3.405   0.185  10.851  0.5978 -0.0098  0.1226
  393TMC3     O 5875   3.294   0.233  10.876 -0.6285  0.1798  0.1673
  393TMC3     H 5876   3.302   0.104  11.083  0.6939 -0.1604 -0.0356
  393TMC3    H1 5877   3.579   0.010  10.753  1.0566 -2.4410  0.2947
  393TMC3    H2 5878   3.431   4.425  11.016 -0.1216  0.2437  1.8995
  393TMC3    C7 5879   3.602   4.480  10.813 -0.4973 -0.3709 -0.6793
  393TMC3    C8 5880   3.325   4.587  11.203 -0.1906 -0.1045 -0.5923
  393TMC3    O1 5881   3.570   4.364  10.811 -0.2340  0.4256 -0.1950
  393TMC3    O2 5882   3.267   4.678  11.264  0.0840 -0.0734 -0.6981
  394TMC3    C1 5883   0.232   0.712  10.811  0.3650  0.5656 -0.5711
  394TMC3    C2 5884   0.118   0.689  10.743  0.8260  0.2562  0.4564
  394TMC3    C3 5885   0.111   0.746  10.620 -0.2681 -0.1096 -0.0356
  394TMC3    C4 5886   0.344   0.776  10.757 -0.2886  0.1873  0.5831
  394TMC3    C5 5887   0.327   0.825  10.638  0.7724  0.3001 -0.1230
  394TMC3    C6 5888   0.211   0.821  10.570 -0.0548  0.3779 -0.2289
  394TMC3     C 5889   0.233   0.691  10.958  0.7080 -0.0273 -0.3626
  394TMC3     O 5890   0.128   0.646  11.007  0.2240  0.1467 -0.6870
  394TMC3     H 5891   0.036   0.633  10.784 -1.2005  1.7405 -1.5386
  394TMC3    H1 5892   0.443   0.777  10.801  0.1654 -2.1584 -0.3843
  394TMC3    H2 5893   0.207   0.895  10.491 -0.7876  0.6926  0.1001
  394TMC3    C7 5894   0.440   0.902  10.593 -0.0665 -0.5333 -0.3484
  394TMC3    C8 5895   4.717   0.708  10.544  0.2995 -0.3973  0.8842
  394TMC3    O1 5896   0.517   0.947  10.684  0.3109 -0.5040 -0.0600
  394TMC3    O2 5897   4.667   0.780  10.460 -0.5103  0.4593 -0.5164
  395TMC3    C1 5898   4.643   2.830  14.767  0.3405  0.0456 -0.5890
  395TMC3    C2 5899   4.666   2.722  14.682  0.4502 -0.1795  0.1876
  395TMC3    C3 5900   0.048   2.726  14.591  0.1010  0.2740  0.5509
  395TMC3    C4 5901   0.013   2.934  14.781 -0.0910  0.1146  0.0937
  395TMC3    C5 5902   0.127   2.921  14.696 -0.1618  0.2059 -0.2045
  395TMC3    C6 5903   0.147   2.821  14.605 -0.3004  0.2676  0.2571
  395TMC3     C 5904   4.525   2.839  14.854  0.2207  0.2835  0.3564
  395TMC3     O 5905   4.527   2.933  14.937 -0.4893 -0.2759  0.4137
  395TMC3     H 5906   4.596   2.641  14.669  0.6155 -0.7123  2.5331
  395TMC3    H1 5907   0.000   3.019  14.848 -0.7979  0.7069 -0.7867
  395TMC3    H2 5908   0.214   2.832  14.520  0.3262 -0.3457  0.6710
  395TMC3    C7 5909   0.243   3.007  14.724 -0.0633 -0.5157 -0.5554
  395TMC3    C8 5910   0.083   2.608  14.522 -0.2286  0.9302 -0.1224
  395TMC3    O1 5911   0.224   3.106  14.790 -0.1339  0.1866 -0.0483
  395TMC3    O2 5912   0.199   2.583  14.492  0.0138  0.3638  0.6172
  396MPD2     C 5913   4.208   3.709  17.549  0.3761 -0.9044  0.1344
  396MPD2    C1 5914   4.343   3.753  17.556  0.1156  0.7772  0.3480
  396MPD2    C2 5915   4.369   3.886  17.523  0.1556 -0.3870  0.2794
  396MPD2    C3 5916   4.274   3.964  17.466  0.2363 -0.7486  0.2811
  396MPD2    C4 5917   4.144   3.916  17.449 -1.1598 -0.2893  0.5036
  396MPD2    C5 5918   4.109   3.790  17.494 -0.1843  0.6471  0.2460
  396MPD2     H 5919   4.467   3.926  17.545  0.1190 -0.4648  0.5770
  396MPD2    H1 5920   4.065   3.980  17.412 -0.0146  0.6228 -0.3608
  396MPD2    H2 5921   4.188   3.611  17.589 -1.1410 -0.2561  0.9716
  396MPD2    H3 5922   4.004   3.762  17.484  0.0296 -0.5246  1.2383
  396MPD2     N 5923   4.321   4.085  17.414  0.3828  0.1592  0.3824
  396MPD2    H5 5924   4.414   4.112  17.443  0.7410 -1.6136  0.8749
  396MPD2    N1 5925   4.445   3.670  17.600  0.3161 -0.0794  0.0189
  396MPD2    H7 5926   4.412   3.578  17.627 -3.1793  0.8635 -1.0182
  397TMC3    C1 5927   4.666   3.581  17.604  0.2483 -0.7215 -0.5250
  397TMC3    C2 5928   0.054   3.570  17.518 -0.5458 -0.2455  0.2148
  397TMC3    C3 5929   0.088   3.450  17.461 -0.2524 -0.2550 -0.3102
  397TMC3    C4 5930   4.610   3.459  17.650 -0.4668 -0.4107 -0.2115
  397TMC3    C5 5931   4.660   3.345  17.604 -0.0324 -0.2264 -0.1451
  397TMC3    C6 5932   0.040   3.331  17.510  0.2204 -0.3733 -0.5471
  397TMC3     C 5933   4.583   3.698  17.583  0.2523 -0.6432  0.3843
  397TMC3     O 5934   4.649   3.795  17.549  0.1505 -0.2668 -0.0358
  397TMC3     H 5935   0.088   3.664  17.477 -1.7559 -0.0994 -0.4511
  397TMC3    H1 5936   4.535   3.465   0.041 -0.3014 -0.0562 -0.0785
  397TMC3    H2 5937   0.080   3.236  17.479  0.7317 -0.3482  0.0303
  397TMC3    C7 5938   4.582   3.225  17.649  0.0393  0.4541  0.0854
  397TMC3    C8 5939   0.065   3.451  17.315  0.0685  0.4448 -0.4342
  397TMC3    O1 5940   4.588   3.138  17.564  0.2679 -0.4589  0.0856
  397TMC3    O2 5941   4.698   3.374  17.284 -0.2424 -0.0503  0.3497
  398MPD2     C 5942   2.262   4.592   0.055  0.1058 -0.2347  0.2914
  398MPD2    C1 5943   2.313   4.482   0.127 -0.7564 -0.1715  0.4544
  398MPD2    C2 5944   2.338   4.501   0.259  0.3431  0.0094  0.6467
  398MPD2    C3 5945   2.320   4.620   0.318  0.2577  0.0025 -0.2416
  398MPD2    C4 5946   2.271   0.003   0.243 -0.2062 -0.5051  0.0016
  398MPD2    C5 5947   2.232   4.709   0.116 -0.0586 -0.2654 -0.0561
  398MPD2     H 5948   2.370   4.414   0.316  0.7627 -1.0723 -1.2522
  398MPD2    H1 5949   2.242   0.099   0.285 -0.2984 -0.4134 -0.2757
  398MPD2    H2 5950   2.259   4.587  17.634 -0.3328  2.0329  0.2042
  398MPD2    H3 5951   2.184   0.071   0.066 -2.9283 -0.8291  1.7280
  398MPD2     N 5952   2.345   4.637   0.454 -0.2122 -0.6793  0.0885
  398MPD2    H5 5953   2.371   4.548   0.496  1.3727 -0.4411 -0.3888
  398MPD2    N1 5954   2.324   4.349   0.072  0.3082 -0.0942 -0.0284
  398MPD2    H7 5955   2.362   4.274   0.129  1.2610 -2.3689 -3.6554
  399TMC3    C1 5956   2.312   4.171  17.602 -0.2271 -0.1973  0.1094
  399TMC3    C2 5957   2.422   4.111  17.646  0.5803 -0.1420  0.6667
  399TMC3    C3 5958   2.418   3.974  17.645 -0.6222 -0.4705 -0.1640
  399TMC3    C4 5959   2.203   4.102  17.561  0.4403  0.7846  0.4372
  399TMC3    C5 5960   2.200   3.966  17.586 -0.7081 -0.2901  0.9454
  399TMC3    C6 5961   2.306   3.898  17.626  0.1090  0.4154  0.5585
  399TMC3     C 5962   2.279   4.312  17.631 -0.7002  0.4087  0.0006
  399TMC3     O 5963   2.213   4.378  17.553 -0.0827 -0.1334 -0.1794
  399TMC3     H 5964   2.514   4.169  17.651  0.8489 -0.5819  0.8347
  399TMC3    H1 5965   2.116   4.158  17.532  1.0436  0.8200 -1.3085
  399TMC3    H2 5966   2.317   3.791  17.615  1.0096  0.7088 -1.3560
  399TMC3    C7 5967   2.085   3.887  17.550  0.3792  0.5532 -0.1948
  399TMC3    C8 5968   2.541   3.920  17.596  0.4612 -0.2945  0.3187
  399TMC3    O1 5969   2.057   3.795  17.625 -0.1320 -0.1651 -0.2666
  399TMC3    O2 5970   2.592   3.994  17.514  0.1085  0.0838 -0.5314
  400TMC3    C1 5971   0.793   3.197  16.960  0.4716 -0.6262  0.2078
  400TMC3    C2 5972   0.689   3.226  16.872  1.3197 -0.2908 -0.0257
  400TMC3    C3 5973   0.645   3.357  16.870  0.6467  0.3591 -0.2451
  400TMC3    C4 5974   0.851   3.299  17.032  0.0910 -0.2896  0.1691
  400TMC3    C5 5975   0.801   3.423  17.024 -0.5517  0.0080  0.2556
  400TMC3    C6 5976   0.696   3.457  16.950 -0.2206  0.0314  0.0155
  400TMC3     C 5977   0.850   3.062  16.946 -0.0888 -0.2210  0.0772
  400TMC3     O 5978   0.782   2.972  16.900  0.0753 -0.3348 -0.3317
  400TMC3     H 5979   0.672   3.162  16.785 -0.2666 -0.1072  0.1412
  400TMC3    H1 5980   0.942   3.285  17.090  1.0767 -0.0383 -1.3131
  400TMC3    H2 5981   0.669   3.561  16.934  1.0802  0.3353 -0.2020
  400TMC3    C7 5982   0.871   3.516  17.102 -0.1033 -1.0414 -0.9143
  400TMC3    C8 5983   0.555   3.403  16.763 -0.0014 -0.1499 -0.1195
  400TMC3    O1 5984   0.990   3.514  17.121  0.1170  0.0578 -0.0220
  400TMC3    O2 5985   0.539   3.523  16.741  0.6095 -0.0332 -0.3611
  401MPD2     C 5986   3.063   0.739   0.178  0.3413 -0.6581 -0.3881
  401MPD2    C1 5987   3.075   0.750   0.313  0.4321  1.4845 -0.4769
  401MPD2    C2 5988   3.066   0.637   0.392  0.1882 -0.1719 -0.2500
  401MPD2    C3 5989   3.074   0.512   0.335  0.4743  0.8395  0.9802
  401MPD2    C4 5990   3.072   0.503   0.200  0.0017  0.0266  0.4005
  401MPD2    C5 5991   3.063   0.614   0.117 -0.4897 -0.6945  0.9819
  401MPD2     H 5992   3.066   0.659   0.498 -0.8861 -0.8124 -0.1209
  401MPD2    H1 5993   3.076   0.409   0.146 -2.8207  0.0887  0.0393
  401MPD2    H2 5994   3.075   0.825   0.114 -2.0833 -0.6360 -0.8120
  401MPD2    H3 5995   3.078   0.602   0.010  3.5747  4.0763  1.0246
  401MPD2     N 5996   3.078   0.407   0.428  0.5059 -0.0458  0.3440
  401MPD2    H5 5997   3.068   0.438   0.524  1.9890  0.1427  0.4280
  401MPD2    N1 5998   3.090   0.876   0.375  0.0400  0.6818  0.0419
  401MPD2    H7 5999   3.096   0.876   0.476  2.7390 -3.4138 -0.1150
  402TMC3    C1 6000   3.158   0.223   0.529 -0.1760 -0.1611  0.8867
  402TMC3    C2 6001   3.107   0.270   0.645  0.3038  0.0790 -0.5640
  402TMC3    C3 6002   3.167   0.231   0.759 -0.0110 -0.6770  0.9406
  402TMC3    C4 6003   3.266   0.139   0.523 -0.0857  0.0830  0.0195
  402TMC3    C5 6004   3.329   0.103   0.641  0.8553  0.2469 -0.0973
  402TMC3    C6 6005   3.280   0.153   0.757  0.5010  0.3151 -0.4245
  402TMC3     C 6006   3.122   0.278   0.400  0.2450  0.4265 -0.6728
  402TMC3     O 6007   3.154   0.231   0.291 -0.9174 -0.5425  0.0530
  402TMC3     H 6008   3.007   0.313   0.648  0.2964  0.1728 -1.9246
  402TMC3    H1 6009   3.312   0.127   0.426 -2.0966 -0.0743 -0.9158
  402TMC3    H2 6010   3.309   0.118   0.856 -3.0989 -0.3552  0.4077
  402TMC3    C7 6011   3.463   0.052   0.645 -0.0116  0.0792 -0.2798
  402TMC3    C8 6012   3.191   0.327   0.864 -0.1042 -0.5820  0.0629
  402TMC3    O1 6013   3.513   4.717   0.543  0.0949 -0.3399 -0.3928
  402TMC3    O2 6014   3.286   0.308   0.940  0.5421  0.5246 -0.2576
  403MPD2     C 6015   2.460   0.409  13.321  0.0003 -0.1252  0.1001
  403MPD2    C1 6016   2.557   0.316  13.358  0.4389 -0.6383 -0.1812
  403MPD2    C2 6017   2.651   0.352  13.448 -1.1142  0.3653 -0.4136
  403MPD2    C3 6018   2.657   0.479  13.510  0.6717  0.2804  0.8476
  403MPD2    C4 6019   2.558   0.566  13.463 -0.4564  0.2897 -0.0064
  403MPD2    C5 6020   2.469   0.531  13.371  0.7361 -0.0604 -0.4985
  403MPD2     H 6021   2.728   0.283  13.479 -1.1388  0.0999 -0.9368
  403MPD2    H1 6022   2.546   0.655  13.523 -3.0066  1.2123 -1.8821
  403MPD2    H2 6023   2.379   0.386  13.252  1.1833  1.0301 -1.6782
  403MPD2    H3 6024   2.397   0.608  13.343  1.1970  0.3454 -0.5698
  403MPD2     N 6025   2.748   0.508  13.617  0.2617  0.3782 -0.7656
  403MPD2    H5 6026   2.815   0.433  13.632  1.0598  1.3530  0.5781
  403MPD2    N1 6027   2.539   0.182  13.321 -0.0029 -0.2487  0.7847
  403MPD2    H7 6028   2.480   0.147  13.247 -0.8444  1.9758  0.4199
  404TMC3    C1 6029   2.568   4.671  13.319  0.2860 -0.1376 -0.3098
  404TMC3    C2 6030   2.593   4.562  13.402  0.1028  0.4582  0.2710
  404TMC3    C3 6031   2.592   4.438  13.340 -0.7397 -0.5577  0.2664
  404TMC3    C4 6032   2.530   4.662  13.187  0.3005 -0.2880  0.7009
  404TMC3    C5 6033   2.542   4.536  13.131  0.2961 -0.2014  0.1393
  404TMC3    C6 6034   2.577   4.425  13.202 -0.0237  1.0197 -0.3495
  404TMC3     C 6035   2.584   0.072  13.388 -0.4347 -0.4578 -0.0164
  404TMC3     O 6036   2.613   0.075  13.506  0.1537 -0.0765 -0.3808
  404TMC3     H 6037   2.635   4.578  13.500 -0.5606  0.8876  0.4827
  404TMC3    H1 6038   2.505   0.031  13.132  2.2126  1.1820  2.2497
  404TMC3    H2 6039   2.585   4.325  13.163 -0.6890  2.1497 -3.3552
  404TMC3    C7 6040   2.524   4.540  12.986 -0.0370  0.0487  0.0405
  404TMC3    C8 6041   2.645   4.323  13.418  0.3254  0.4488 -0.2251
  404TMC3    O1 6042   2.543   4.654  12.945  0.4507 -0.1870 -0.0961
  404TMC3    O2 6043   2.676   4.224  13.352  0.0855 -0.1577  0.1332
  405MPD2     C 6044   3.131   1.027  14.721  0.2807 -0.5141 -0.4632
  405MPD2    C1 6045   3.056   0.947  14.643  0.3640  0.1828 -0.0750
  405MPD2    C2 6046   2.939   0.994  14.591  0.4952 -0.5523 -0.2722
  405MPD2    C3 6047   2.880   1.110  14.634 -0.3449 -0.2606 -0.3722
  405MPD2    C4 6048   2.949   1.192  14.722  0.3196 -0.3597  0.1088
  405MPD2    C5 6049   3.077   1.152  14.760  0.1284  0.7473  0.7355
  405MPD2     H 6050   2.880   0.926  14.530 -0.6160  1.6836 -1.7005
  405MPD2    H1 6051   2.920   1.288  14.763  1.7034  0.6242 -1.1938
  405MPD2    H2 6052   3.234   1.011  14.749 -0.3850 -0.1403  2.2183
  405MPD2    H3 6053   3.129   1.227  14.819  0.0564 -0.1087  1.8910
  405MPD2     N 6054   2.748   1.128  14.588  1.1359 -0.2020 -0.0562
  405MPD2    H5 6055   2.706   1.040  14.561 -0.7735  1.1932 -1.5788
  405MPD2    N1 6056   3.105   0.825  14.594  0.6036 -0.6317 -0.6796
  405MPD2    H7 6057   3.048   0.786  14.519 -1.6200 -0.0090  0.6873
  406TMC3    C1 6058   2.303   1.229  14.613 -0.0571 -0.2717 -0.0735
  406TMC3    C2 6059   2.281   1.122  14.529 -0.5685  1.2012 -0.1250
  406TMC3    C3 6060   2.388   1.059  14.473  0.2135 -0.2233  0.5803
  406TMC3    C4 6061   2.428   1.271  14.641  0.1371 -0.1911  0.1413
  406TMC3    C5 6062   2.538   1.196  14.584 -0.2431 -0.6256 -0.8540
  406TMC3    C6 6063   2.520   1.090  14.499 -0.0102  0.7814 -0.4816
  406TMC3     C 6064   2.193   1.320  14.640 -0.0861  0.3338 -0.1955
  406TMC3     O 6065   2.192   1.428  14.579  0.6713 -0.2078 -0.0354
  406TMC3     H 6066   2.177   1.096  14.518  0.1851 -2.0757  0.5183
  406TMC3    H1 6067   2.440   1.367  14.689 -2.0546  0.4755 -0.6331
  406TMC3    H2 6068   2.594   1.050  14.430 -0.2823 -2.3222  1.0206
  406TMC3    C7 6069   2.670   1.239  14.614 -1.1613  0.1984  0.0841
  406TMC3    C8 6070   2.364   0.922  14.421  0.4512  0.0851  0.3252
  406TMC3    O1 6071   2.701   1.349  14.661 -0.4388 -0.3447  0.2009
  406TMC3    O2 6072   2.257   0.895  14.373  0.2521  0.9182  0.3461
  407MPD2     C 6073   0.120   2.297   9.849  0.4544  0.6159 -1.3811
  407MPD2    C1 6074   0.244   2.359   9.842  0.4147  0.1816  0.1059
  407MPD2    C2 6075   0.300   2.398   9.960 -0.3702  0.0575  0.3201
  407MPD2    C3 6076   0.226   2.392  10.080  0.5244 -0.0034 -0.0850
  407MPD2    C4 6077   0.106   2.326  10.084 -0.0757 -0.5440 -0.8796
  407MPD2    C5 6078   0.054   2.276   9.966 -0.2333  0.1637  0.7740
  407MPD2     H 6079   0.399   2.441   9.955  0.0766 -0.9756  0.2931
  407MPD2    H1 6080   0.049   2.324  10.176  1.8498  0.8131  0.3419
  407MPD2    H2 6081   0.092   2.244   9.758  3.5935 -3.5146  0.0847
  407MPD2    H3 6082   4.681   2.223   9.974  0.4549 -1.2212 -0.3334
  407MPD2     N 6083   0.276   2.448  10.201  0.1540 -0.4072  0.0577
  407MPD2    H5 6084   0.206   2.467  10.272 -0.4776  1.7815 -1.1518
  407MPD2    N1 6085   0.318   2.381   9.722  0.0583 -0.2846  0.2754
  407MPD2    H7 6086   0.417   2.403   9.727 -0.7282  3.5583 -0.8371
  408TMC3    C1 6087   0.347   2.395   9.484  0.4711  0.4383 -0.1688
  408TMC3    C2 6088   0.479   2.398   9.509  0.1754  0.2929  0.2994
  408TMC3    C3 6089   0.560   2.480   9.442  0.0912  0.4036 -0.0689
  408TMC3    C4 6090   0.300   2.477   9.392  0.7304 -0.1987 -0.3243
  408TMC3    C5 6091   0.381   2.567   9.324  0.2333  0.1390  1.2673
  408TMC3    C6 6092   0.511   2.567   9.347  0.6478 -0.1093 -0.0991
  408TMC3     C 6093   0.257   2.379   9.594 -0.2310  0.0094  0.3506
  408TMC3     O 6094   0.138   2.385   9.568  0.0675 -0.3881 -0.3189
  408TMC3     H 6095   0.535   2.332   9.575 -1.6214 -2.6926 -1.1310
  408TMC3    H1 6096   0.198   2.460   9.358  0.3373 -0.9515  1.2663
  408TMC3    H2 6097   0.573   2.626   9.280 -1.4678 -0.4119 -2.3285
  408TMC3    C7 6098   0.334   2.706   9.289 -0.3047  0.4018  0.1257
  408TMC3    C8 6099   0.690   2.499   9.489 -0.2703  0.2460 -1.1685
  408TMC3    O1 6100   0.418   2.790   9.298  0.1531  0.0513  0.1794
  408TMC3    O2 6101   0.741   2.405   9.548 -0.1924 -0.4680 -0.5663
  409MPD2     C 6102   4.187   2.748  17.223 -0.4753  0.2459 -0.8148
  409MPD2    C1 6103   4.315   2.702  17.240 -0.8383 -0.0473 -0.1569
  409MPD2    C2 6104   4.418   2.785  17.195  0.2446 -0.0869  0.0163
  409MPD2    C3 6105   4.390   2.908  17.139  0.4728 -0.1186 -0.2132
  409MPD2    C4 6106   4.260   2.950  17.117 -0.2251 -0.2191  0.0174
  409MPD2    C5 6107   4.155   2.865  17.159  0.6971 -0.6551 -0.3667
  409MPD2     H 6108   4.520   2.752  17.208  0.6570  1.7891  1.5434
  409MPD2    H1 6109   4.224   3.036  17.061 -1.0861 -0.6790 -0.1353
  409MPD2    H2 6110   4.104   2.686  17.256 -0.2168 -0.0879 -0.8012
  409MPD2    H3 6111   4.053   2.884  17.131  0.5638  0.4939  0.9097
  409MPD2     N 6112   4.492   3.005  17.115 -0.4221  0.4932 -0.4915
  409MPD2    H5 6113   4.451   3.094  17.089  0.4283  0.4296 -2.0315
  409MPD2    N1 6114   4.339   2.574  17.281  0.4215 -0.0155 -0.1496
  409MPD2    H7 6115   4.265   2.521  17.327 -1.7321  1.7208 -1.6002
  410TMC3    C1 6116   4.699   3.107  17.093 -0.5655  0.3190 -0.3420
  410TMC3    C2 6117   0.108   3.109  17.125  0.0200  0.4198 -0.4383
  410TMC3    C3 6118   0.183   3.211  17.082 -0.1037 -0.2197  0.2412
  410TMC3    C4 6119   4.658   3.191  16.991  0.0363  0.0131 -0.1109
  410TMC3    C5 6120   0.023   3.285  16.945  1.0049  0.5463 -0.0135
  410TMC3    C6 6121   0.150   3.304  16.989  0.2383 -1.7248 -1.0378
  410TMC3     C 6122   4.622   3.001  17.151  0.0070  0.3076 -0.4279
  410TMC3     O 6123   4.677   2.919  17.219  1.0237  0.4657 -0.4656
  410TMC3     H 6124   0.143   3.051  17.210  0.2437  1.7144  0.3427
  410TMC3    H1 6125   4.567   3.170  16.935  0.2419 -2.2851  0.3841
  410TMC3    H2 6126   0.226   3.357  16.933 -0.2556  0.3903  0.2778
  410TMC3    C7 6127   4.699   3.361  16.831  0.3672 -0.6055  0.5686
  410TMC3    C8 6128   0.306   3.238  17.153 -0.5434  0.0949  0.4824
  410TMC3    O1 6129   4.605   3.315  16.765 -0.1766  0.5089  0.6172
  410TMC3    O2 6130   0.346   3.354  17.163  0.1194  0.3011  0.1498
  411MPD2     C 6131   1.038   3.815  14.869  0.1910  0.4803 -0.4025
  411MPD2    C1 6132   0.906   3.814  14.909  0.1764 -0.3458 -0.4043
  411MPD2    C2 6133   0.826   3.709  14.865 -0.3207 -0.0954  0.6482
  411MPD2    C3 6134   0.877   3.611  14.786  0.3138  0.3265  0.3589
  411MPD2    C4 6135   1.011   3.607  14.763 -0.4508 -0.6425 -0.0346
  411MPD2    C5 6136   1.093   3.712  14.796  0.1604 -0.2440 -0.0048
  411MPD2     H 6137   0.722   3.706  14.894 -0.1351 -1.8961  1.1308
  411MPD2    H1 6138   1.048   3.529  14.698 -1.4076 -1.0431 -0.0887
  411MPD2    H2 6139   1.095   3.904  14.893 -0.6403  1.7017 -2.8839
  411MPD2    H3 6140   1.193   3.708  14.753 -0.0243  3.2487 -0.8080
  411MPD2     N 6141   0.805   3.502  14.725 -0.0291  0.3196  0.4362
  411MPD2    H5 6142   0.856   3.446  14.658 -2.7861  0.3602 -1.6905
  411MPD2    N1 6143   0.866   3.917  14.994  0.5383  0.6103 -0.4102
  411MPD2    H7 6144   0.942   3.982  15.009 -0.7808  2.0712 -0.0311
  412TMC3    C1 6145   0.619   3.408  14.612  0.9358 -0.0727 -0.1704
  412TMC3    C2 6146   0.495   3.442  14.568 -0.0787  0.1545  0.6369
  412TMC3    C3 6147   0.443   3.373  14.459  0.1851 -0.7375 -0.0367
  412TMC3    C4 6148   0.704   3.317  14.550  0.1668  0.0740 -0.4316
  412TMC3    C5 6149   0.645   3.252  14.445 -0.3458 -0.6594 -0.0118
  412TMC3    C6 6150   0.516   3.271  14.410 -0.1943  0.9734  0.0649
  412TMC3     C 6151   0.668   3.478  14.730  0.4527 -0.1684  0.4964
  412TMC3     O 6152   0.592   3.533  14.800 -0.0742 -0.6892  0.5019
  412TMC3     H 6153   0.448   3.530  14.610 -1.6709 -1.9759  3.2994
  412TMC3    H1 6154   0.794   3.285  14.601  0.1192 -0.0967 -0.4552
  412TMC3    H2 6155   0.471   3.227  14.321 -0.6095  0.5757  0.4694
  412TMC3    C7 6156   0.735   3.206  14.342  0.7568  0.1288 -0.5410
  412TMC3    C8 6157   0.431   3.473  14.353 -0.0633  0.2069  0.0219
  412TMC3    O1 6158   0.836   3.145  14.377  0.4777  0.2054  0.3337
  412TMC3    O2 6159   0.483   3.451  14.247  0.2776  0.2605  0.3511
  413MPD2     C 6160   1.784   1.630  15.723 -0.2691 -0.0423 -0.4662
  413MPD2    C1 6161   1.854   1.663  15.610 -0.4009 -0.5021  0.1328
  413MPD2    C2 6162   1.991   1.655  15.608  0.7402 -1.0451 -0.1263
  413MPD2    C3 6163   2.073   1.618  15.710  0.6671 -0.8668 -0.9537
  413MPD2    C4 6164   2.004   1.595  15.828 -0.0893 -0.2629 -0.0700
  413MPD2    C5 6165   1.865   1.610  15.836 -0.3549  0.6703  0.1733
  413MPD2     H 6166   2.029   1.673  15.509 -1.2843 -0.4386 -0.7958
  413MPD2    H1 6167   2.053   1.559  15.918 -1.5327  2.9715  1.9907
  413MPD2    H2 6168   1.676   1.628  15.727 -0.3113 -0.6062 -1.6953
  413MPD2    H3 6169   1.815   1.586  15.929  1.1632  2.6860  1.5065
  413MPD2     N 6170   2.216   1.599  15.693  0.2338  0.0327 -0.2717
  413MPD2    H5 6171   2.257   1.614  15.602 -0.6297 -0.1275 -0.6904
  413MPD2    N1 6172   1.775   1.707  15.506  0.5780  0.1266  0.6180
  413MPD2    H7 6173   1.682   1.726  15.541  0.9285  2.2815  0.3632
  414TMC3    C1 6174   2.439   1.630  15.759 -0.7250 -0.0161  0.2593
  414TMC3    C2 6175   2.545   1.542  15.776  0.0497 -0.4139 -0.2471
  414TMC3    C3 6176   2.668   1.589  15.748  0.0834 -0.2901  0.7700
  414TMC3    C4 6177   2.445   1.737  15.685  0.6440  0.4040  0.0630
  414TMC3    C5 6178   2.562   1.783  15.656 -0.7275 -0.0976  0.5068
  414TMC3    C6 6179   2.673   1.710  15.686  0.7662 -0.2425  0.2107
  414TMC3     C 6180   2.306   1.587  15.801  0.1244 -0.0675  0.2100
  414TMC3     O 6181   2.288   1.578  15.921 -0.2811  0.0930  0.3960
  414TMC3     H 6182   2.526   1.436  15.795 -1.4386  0.1090  1.2068
  414TMC3    H1 6183   2.363   1.806  15.670  0.2778  0.2487  1.2715
  414TMC3    H2 6184   2.764   1.758  15.652 -0.5356  1.9130 -0.2436
  414TMC3    C7 6185   2.561   1.861  15.534 -0.7179 -0.5751 -0.2237
  414TMC3    C8 6186   2.754   1.496  15.676 -0.6337 -0.6874 -0.0658
  414TMC3    O1 6187   2.656   1.842  15.460  0.0543 -0.7170  0.0247
  414TMC3    O2 6188   2.695   1.395  15.634  0.7909 -0.6424 -0.6435
  415TMC3    C1 6189   2.845   4.293  10.569  0.0121 -0.2463  0.0063
  415TMC3    C2 6190   2.947   4.308  10.475  0.2915 -0.7234  0.4057
  415TMC3    C3 6191   2.926   4.269  10.350  0.4110 -0.2196  0.0987
  415TMC3    C4 6192   2.724   4.233  10.532  0.0018 -0.4159  0.3774
  415TMC3    C5 6193   2.703   4.199  10.402 -0.1344 -0.0085 -1.0437
  415TMC3    C6 6194   2.800   4.222  10.307 -0.3080 -0.0057 -0.1690
  415TMC3     C 6195   2.855   4.344  10.704 -0.3793  0.4060 -0.0305
  415TMC3     O 6196   2.758   4.321  10.779  0.2572  0.3039  0.1236
  415TMC3     H 6197   3.050   4.330  10.502  0.8236 -2.9087  0.1483
  415TMC3    H1 6198   2.643   4.232  10.605  1.0212 -0.2691  1.5101
  415TMC3    H2 6199   2.793   4.191  10.204 -0.0617  0.0008 -0.1875
  415TMC3    C7 6200   2.591   4.116  10.360 -0.0926 -0.2143  0.0179
  415TMC3    C8 6201   3.036   4.264  10.254  0.1557  0.4127  0.3203
  415TMC3    O1 6202   2.593   4.074  10.247  0.0906 -0.1816 -0.2810
  415TMC3    O2 6203   3.015   4.213  10.145  0.8129 -0.3981  0.1091
  416MPD2     C 6204   4.657   3.439  11.389  0.2025 -0.0631 -0.3667
  416MPD2    C1 6205   4.608   3.341  11.466 -0.2401 -0.1526 -0.0877
  416MPD2    C2 6206   4.603   3.214  11.421  0.0292 -0.1528  0.9238
  416MPD2    C3 6207   4.645   3.180  11.294 -0.6989 -0.4382  0.8255
  416MPD2    C4 6208   4.706   3.279  11.214  0.1513  0.3791 -0.5411
  416MPD2    C5 6209   4.709   3.407  11.263  0.3487  0.3009  0.8884
  416MPD2     H 6210   4.562   3.132  11.479  0.7915 -0.0771  1.5669
  416MPD2    H1 6211   0.020   3.266  11.113 -1.2824 -0.9295 -0.8617
  416MPD2    H2 6212   4.660   3.542  11.422  1.9810 -1.1176  2.7276
  416MPD2    H3 6213   0.032   3.486  11.203 -2.0495  1.3129  0.4334
  416MPD2     N 6214   4.622   3.048  11.250  0.1328 -0.2728 -0.0415
  416MPD2    H5 6215   4.576   2.978  11.307 -0.4244 -2.3299 -3.0316
  416MPD2    N1 6216   4.563   3.385  11.595 -0.4110 -0.0505  0.1687
  416MPD2    H7 6217   4.572   3.483  11.621  2.1421 -0.5143  1.0693
  417TMC3    C1 6218   4.431   3.387  11.784 -0.2335  0.0277  0.5785
  417TMC3    C2 6219   4.415   3.325  11.903 -0.1015 -0.4069 -0.2720
  417TMC3    C3 6220   4.304   3.368  11.966  0.1103 -0.2873 -0.4094
  417TMC3    C4 6221   4.335   3.465  11.722 -0.1346  0.5464  0.0563
  417TMC3    C5 6222   4.232   3.511  11.791 -0.1217 -0.3301  0.3718
  417TMC3    C6 6223   4.211   3.458  11.915  0.4631 -0.1306 -0.0940
  417TMC3     C 6224   4.502   3.304  11.694  0.5227  0.6429 -0.3644
  417TMC3     O 6225   4.491   3.183  11.698 -0.1084 -0.0249 -0.1124
  417TMC3     H 6226   4.485   3.249  11.935 -0.8976  0.7797  4.2343
  417TMC3    H1 6227   4.345   3.502  11.621 -1.8133 -1.9187 -1.0126
  417TMC3    H2 6228   4.119   3.476  11.968  0.6194  1.3842 -0.3361
  417TMC3    C7 6229   4.132   3.577  11.717 -0.6901  0.3524 -0.0629
  417TMC3    C8 6230   4.307   3.371  12.111 -0.5455  0.1453 -0.2872
  417TMC3    O1 6231   4.175   3.640  11.620  0.2168 -0.0997 -0.3270
  417TMC3    O2 6232   4.250   3.464  12.169 -0.0826 -0.2385 -0.4231
  418TMC3    C1 6233   2.486   0.104   0.850 -0.4718  0.3430  0.1670
  418TMC3    C2 6234   2.436   0.133   0.731  0.3838 -0.0112  0.2275
  418TMC3    C3 6235   2.382   0.025   0.662 -1.2140  0.6177 -0.2592
  418TMC3    C4 6236   2.478   4.704   0.914  0.5381 -0.2677 -0.0324
  418TMC3    C5 6237   2.404   4.605   0.855 -0.2325 -0.1764  0.4565
  418TMC3    C6 6238   2.366   4.624   0.722  0.0832 -0.3973 -0.1818
  418TMC3     C 6239   2.560   0.205   0.920  0.2951  0.6221  0.2995
  418TMC3     O 6240   2.553   0.321   0.871 -0.3044 -0.6779  0.0253
  418TMC3     H 6241   2.442   0.230   0.682 -1.7900 -0.1831 -0.3881
  418TMC3    H1 6242   2.524   4.683   1.010  1.1211 -3.4263 -1.0077
  418TMC3    H2 6243   2.297   4.551   0.681 -1.5617  2.3107 -2.2312
  418TMC3    C7 6244   2.411   4.470   0.898 -0.2779  0.0988 -0.8183
  418TMC3    C8 6245   2.365   0.037   0.520  0.0286 -0.2221 -0.2450
  418TMC3    O1 6246   2.416   4.383   0.813  0.2500  0.2667  0.0413
  418TMC3    O2 6247   2.367   0.151   0.474 -0.2480  0.1620  0.5404
  419MPD2     C 6248   2.049   2.964  12.792 -0.2675  0.1062 -0.6653
  419MPD2    C1 6249   2.027   3.086  12.729 -0.2588  0.8367 -0.3632
  419MPD2    C2 6250   2.041   3.204  12.796  0.3537  0.1927 -0.2471
  419MPD2    C3 6251   2.042   3.194  12.932 -0.2960  0.6655  0.5862
  419MPD2    C4 6252   2.047   3.073  13.004  0.5737  0.3919 -0.7013
  419MPD2    C5 6253   2.053   2.964  12.931 -0.4234 -0.5579 -0.4588
  419MPD2     H 6254   2.032   3.301  12.749 -0.3800  0.8744  1.2947
  419MPD2    H1 6255   2.031   3.070  13.111  0.4280 -2.1043 -0.7944
  419MPD2    H2 6256   2.066   2.864  12.751 -0.9426 -0.3590  0.1913
  419MPD2    H3 6257   2.045   2.869  12.983  1.0858  0.5249  1.7226
  419MPD2     N 6258   2.030   3.318  12.997 -0.5045  0.2669 -0.8988
  419MPD2    H5 6259   2.021   3.402  12.940 -0.5496  1.4755  0.8825
  419MPD2    N1 6260   2.004   3.091  12.589  0.3729  0.1713 -0.5919
  419MPD2    H7 6261   1.996   3.185  12.550  0.8358  0.7825  0.8099
  420TMC3    C1 6262   1.984   3.448  13.185 -0.5134 -0.6540  0.5441
  420TMC3    C2 6263   1.905   3.535  13.109 -0.5313  0.8638 -0.1750
  420TMC3    C3 6264   1.843   3.630  13.181  0.6748 -0.0981 -0.7674
  420TMC3    C4 6265   2.002   3.468  13.316  0.1545 -0.1082 -0.3329
  420TMC3    C5 6266   1.935   3.572  13.377 -0.5504 -0.4583  0.2277
  420TMC3    C6 6267   1.850   3.654  13.311 -0.2032  0.0371  0.2765
  420TMC3     C 6268   2.049   3.331  13.132 -0.0109  0.2399 -0.2888
  420TMC3     O 6269   2.111   3.253  13.207  0.1631  0.0357  0.0636
  420TMC3     H 6270   1.901   3.533  13.001 -1.8572  2.5056 -0.1605
  420TMC3    H1 6271   2.040   3.387  13.378 -0.8766 -0.0130  0.4158
  420TMC3    H2 6272   1.795   3.736  13.355 -1.3732  0.1074 -1.3085
  420TMC3    C7 6273   1.937   3.573  13.521  0.1473 -0.0409  0.9044
  420TMC3    C8 6274   1.721   3.667  13.120 -0.4158 -0.3181  0.2816
  420TMC3    O1 6275   1.992   3.477  13.574  0.3700  0.1688 -0.0612
  420TMC3    O2 6276   1.719   3.720  13.009  0.4638  0.0087 -0.0403
  421TMC3    C1 6277   2.830   0.612  13.815  0.2496  0.5911  0.2186
  421TMC3    C2 6278   2.796   0.694  13.919 -0.4648  1.7723  0.3948
  421TMC3    C3 6279   2.895   0.704  14.013 -0.3107  0.0713 -0.4471
  421TMC3    C4 6280   2.940   0.539  13.802  0.1197 -0.1806 -0.0129
  421TMC3    C5 6281   3.032   0.555  13.900  0.1435  0.1776  0.9853
  421TMC3    C6 6282   3.007   0.622  14.019 -0.4063  0.0944  0.1394
  421TMC3     C 6283   2.734   0.613  13.710  0.4073 -0.3021  0.0415
  421TMC3     O 6284   2.653   0.702  13.713 -0.3264  0.1214  0.7339
  421TMC3     H 6285   2.717   0.769  13.916  0.1135  2.3491 -0.6545
  421TMC3    H1 6286   2.969   0.486  13.712 -2.2848 -1.1194 -0.2308
  421TMC3    H2 6287   3.084   0.622  14.095 -1.5830 -0.9943  1.3465
  421TMC3    C7 6288   3.161   0.488  13.891 -1.0072  0.5466 -0.4010
  421TMC3    C8 6289   2.907   0.821  14.093  0.5840  0.3660  0.0353
  421TMC3    O1 6290   3.256   0.526  13.965  0.5232 -0.2074 -0.9111
  421TMC3    O2 6291   3.026   0.850  14.098 -0.0520  0.0964  0.9125
  422TMC3    C1 6292   0.556   1.451  12.669 -0.1594 -0.3902 -0.5377
  422TMC3    C2 6293   0.526   1.581  12.675  0.2697 -0.4102  0.4849
  422TMC3    C3 6294   0.418   1.622  12.732  0.3095 -0.6407  0.2464
  422TMC3    C4 6295   0.463   1.362  12.716 -0.6081 -0.4682  0.4181
  422TMC3    C5 6296   0.345   1.407  12.769 -0.6457  0.1225  0.0056
  422TMC3    C6 6297   0.327   1.538  12.788 -0.4189  0.7295  0.3607
  422TMC3     C 6298   0.663   1.399  12.581 -0.3783 -0.0295  0.0884
  422TMC3     O 6299   0.732   1.480  12.514  0.0296 -0.2265 -0.1420
  422TMC3     H 6300   0.603   1.646  12.635  0.7521 -0.4920  1.2769
  422TMC3    H1 6301   0.476   1.255  12.715 -1.9100 -0.5984 -1.6807
  422TMC3    H2 6302   0.231   1.579  12.818 -1.1296 -0.5326 -0.2293
  422TMC3    C7 6303   0.227   1.316  12.765 -0.1546  0.4685  0.0732
  422TMC3    C8 6304   0.422   1.757  12.785  0.7677 -0.2059  0.1506
  422TMC3    O1 6305   0.229   1.229  12.679  0.5518  0.1154 -0.4508
  422TMC3    O2 6306   0.519   1.819  12.744  0.2556 -0.1699  0.0265
  423MPD2     C 6307   0.991   2.582   0.053  0.4516 -0.7037 -0.3229
  423MPD2    C1 6308   1.010   2.483   0.153  0.6548  0.5504 -0.9939
  423MPD2    C2 6309   1.108   2.390   0.124  0.6544  0.2374  0.1828
  423MPD2    C3 6310   1.200   2.401   0.020 -0.4721 -0.2501 -0.4162
  423MPD2    C4 6311   1.181   2.506  17.623  0.3530  0.2804  1.0307
  423MPD2    C5 6312   1.080   2.594  17.636 -0.9405  0.0790 -0.2669
  423MPD2     H 6313   1.118   2.308   0.195  2.8593  0.0355 -0.3757
  423MPD2    H1 6314   1.246   2.533  17.540  1.2377  0.3452  1.7442
  423MPD2    H2 6315   0.909   2.653   0.054  1.8920  0.9549  1.0037
  423MPD2    H3 6316   1.067   2.680  17.571 -2.3770 -1.5629 -2.1555
  423MPD2     N 6317   1.288   2.295  17.663  0.1551 -0.2880 -0.1241
  423MPD2    H5 6318   1.345   2.315  17.581 -2.1000  0.1550 -1.5957
  423MPD2    N1 6319   0.936   2.471   0.271 -0.4028  0.1350 -0.3905
  423MPD2    H7 6320   0.959   2.390   0.327 -2.3506 -0.7755 -0.9126
  424TMC3    C1 6321   0.766   2.485   0.427 -0.2034  0.4370 -1.2824
  424TMC3    C2 6322   0.841   2.431   0.530  0.2431  0.1401 -0.2554
  424TMC3    C3 6323   0.775   2.381   0.640 -0.0635  0.1744  0.0995
  424TMC3    C4 6324   0.634   2.510   0.449 -0.0522  0.4429  0.1289
  424TMC3    C5 6325   0.572   2.457   0.561 -0.1837  0.4330 -0.3439
  424TMC3    C6 6326   0.639   2.388   0.658 -0.0747 -0.0635 -0.4193
  424TMC3     C 6327   0.827   2.542   0.311  0.1754  0.1924 -0.4547
  424TMC3     O 6328   0.763   2.640   0.262  0.4454  0.6331 -0.1360
  424TMC3     H 6329   0.948   2.417   0.521  0.2586 -1.1837  2.2509
  424TMC3    H1 6330   0.566   2.553   0.377  0.5168 -0.6922 -1.0815
  424TMC3    H2 6331   0.603   2.338   0.748  3.4749  0.6897  1.3984
  424TMC3    C7 6332   0.433   2.505   0.589  0.2736  0.1319  0.3394
  424TMC3    C8 6333   0.857   2.331   0.756  1.0835  0.2440 -1.1312
  424TMC3    O1 6334   0.397   2.604   0.526  0.2677 -0.0841 -0.3695
  424TMC3    O2 6335   0.807   2.244   0.825 -0.2672 -0.1509 -0.3833
  425MPD2     C 6336   4.621   1.313  16.907 -0.4367 -0.2468 -0.4608
  425MPD2    C1 6337   4.714   1.216  16.939 -0.5858 -0.1960  0.5357
  425MPD2    C2 6338   4.686   1.111  17.021 -0.1563  0.1518 -0.1160
  425MPD2    C3 6339   4.563   1.106  17.079 -0.0375 -0.1047  0.4660
  425MPD2    C4 6340   4.464   1.201  17.053 -0.2299  0.7257  0.1682
  425MPD2    C5 6341   4.495   1.304  16.965 -0.2251 -0.3816 -0.0214
  425MPD2     H 6342   0.028   1.023  17.012 -0.6303 -0.1340 -0.6247
  425MPD2    H1 6343   4.374   1.209  17.114  0.2914  1.8944  0.7695
  425MPD2    H2 6344   4.658   1.390  16.839  0.4900  0.0494  0.3820
  425MPD2    H3 6345   4.417   1.378  16.949 -0.9845 -1.2657 -0.3733
  425MPD2     N 6346   4.548   0.998  17.174 -0.3052 -0.5338  0.4299
  425MPD2    H5 6347   4.633   0.945  17.187 -0.5586 -1.2899 -0.9769
  425MPD2    N1 6348   0.125   1.224  16.885 -0.2404  0.7957  0.8737
  425MPD2    H7 6349   0.149   1.301  16.823 -0.4592 -1.3244 -1.8352
  426TMC3    C1 6350   0.361   1.208  16.902 -0.4659 -0.5463  0.0494
  426TMC3    C2 6351   0.400   1.159  16.781 -0.2074  0.3800  0.4442
  426TMC3    C3 6352   0.534   1.126  16.762 -0.3182  0.2082 -0.2596
  426TMC3    C4 6353   0.449   1.222  17.002 -1.0140 -0.7590  0.1728
  426TMC3    C5 6354   0.583   1.203  16.983 -0.0162 -0.8039 -0.3011
  426TMC3    C6 6355   0.632   1.162  16.857 -0.4055  0.0233  0.3032
  426TMC3     C 6356   0.234   1.155  16.942  0.3921  0.0178  0.4931
  426TMC3     O 6357   0.251   1.083  17.041 -0.2307 -0.0858 -0.5163
  426TMC3     H 6358   0.319   1.127  16.717 -0.1152  0.7036  0.1628
  426TMC3    H1 6359   0.406   1.264  17.092 -1.7959  1.6345 -1.3187
  426TMC3    H2 6360   0.739   1.141  16.852 -0.0860  1.6596  0.2413
  426TMC3    C7 6361   0.656   1.161  17.103  0.3101  0.2655  0.3433
  426TMC3    C8 6362   0.579   1.024  16.671  0.3885  0.2018 -0.0526
  426TMC3    O1 6363   0.764   1.101  17.087 -0.3207  0.4166 -0.0341
  426TMC3    O2 6364   0.692   0.995  16.678  0.1443 -0.6880 -0.2460
  427MPD2     C 6365   4.678   4.103  15.179 -0.5197 -0.3813 -0.8415
  427MPD2    C1 6366   4.600   4.021  15.256  0.2064  0.3931 -0.4226
  427MPD2    C2 6367   4.469   4.060  15.271 -0.3500 -0.2738  0.1367
  427MPD2    C3 6368   4.407   4.166  15.198 -0.2866  0.4453 -0.7427
  427MPD2    C4 6369   4.491   4.243  15.120 -0.0678  0.4895 -0.2008
  427MPD2    C5 6370   4.622   4.205  15.111 -0.0708 -0.4178 -0.0891
  427MPD2     H 6371   4.408   3.994  15.332  0.0772 -0.5358  0.2804
  427MPD2    H1 6372   4.458   4.335  15.074 -1.0946  0.2979  0.1433
  427MPD2    H2 6373   0.064   4.087  15.174  0.0406  3.2434 -0.9498
  427MPD2    H3 6374   4.689   4.273  15.059 -0.8662  2.6123  2.8355
  427MPD2     N 6375   4.264   4.182  15.193 -0.0054  0.0722 -0.4160
  427MPD2    H5 6376   4.230   4.237  15.115 -2.1791 -0.8693 -0.1422
  427MPD2    N1 6377   4.652   3.911  15.337 -0.3286  0.7207  0.3252
  427MPD2    H7 6378   4.587   3.874  15.406  2.8244 -2.2143  1.7739
  428TMC3    C1 6379   0.084   3.758  15.417  0.1382 -0.4574 -0.9968
  428TMC3    C2 6380   4.710   3.664  15.451  1.0067  0.5726  0.3161
  428TMC3    C3 6381   0.024   3.561  15.531  0.4892  0.1310 -0.0453
  428TMC3    C4 6382   0.207   3.753  15.473  0.6027  0.0323 -1.0706
  428TMC3    C5 6383   0.239   3.653  15.563  0.4592  0.4906  0.2916
  428TMC3    C6 6384   0.145   3.561  15.605  0.1903 -0.3364 -0.0409
  428TMC3     C 6385   0.062   3.857  15.325 -0.8715  0.4575  0.8213
  428TMC3     O 6386   0.158   3.889  15.252  0.3782 -0.0261  0.4015
  428TMC3     H 6387   4.623   3.662  15.386  0.7451  0.1751  0.6812
  428TMC3    H1 6388   0.276   3.830  15.440  2.8966 -1.0464  1.1388
  428TMC3    H2 6389   0.177   3.472  15.659 -0.4077  1.5912  3.4778
  428TMC3    C7 6390   0.336   3.663  15.666  0.0473 -0.1844 -0.9154
  428TMC3    C8 6391   4.637   3.475  15.570  0.1180  0.4845 -0.2266
  428TMC3    O1 6392   0.334   3.595  15.765  0.6856  0.0138  0.0729
  428TMC3    O2 6393   4.543   3.480  15.491  0.6610  0.9266  0.5961
  429MPD2     C 6394   4.688   3.445   0.466  0.2848 -0.1244  0.2152
  429MPD2    C1 6395   0.050   3.392   0.377  0.0820  0.2183 -0.1311
  429MPD2    C2 6396   0.124   3.463   0.290  0.4352 -0.1345  0.2055
  429MPD2    C3 6397   0.095   3.598   0.276  0.5860  0.3329 -0.1044
  429MPD2    C4 6398   0.003   3.650   0.369 -0.1593  0.0030  0.2200
  429MPD2    C5 6399   4.661   3.576   0.459  0.1669 -0.2658  0.3580
  429MPD2     H 6400   0.192   3.417   0.219  0.7889  0.7303 -0.0205
  429MPD2    H1 6401   4.700   3.755   0.377 -1.2968 -0.2310 -0.1762
  429MPD2    H2 6402   4.651   3.398   0.556 -0.8548  0.0781 -0.1498
  429MPD2    H3 6403   4.605   3.627   0.537 -1.2756 -0.6563 -0.4251
  429MPD2     N 6404   0.169   3.680   0.184 -0.0724  0.1597  0.0903
  429MPD2    H5 6405   0.248   3.637   0.136 -1.2256  0.1694 -1.8165
  429MPD2    N1 6406   0.080   3.259   0.392 -0.1793  0.0266  0.4386
  429MPD2    H7 6407   0.136   3.224   0.315 -0.8055 -1.9453  0.8654
  430TMC3    C1 6408   0.231   3.861   0.053  0.4307 -0.3781 -0.1328
  430TMC3    C2 6409   0.177   3.945  17.647  0.2958  0.1360 -1.2558
  430TMC3    C3 6410   0.268   4.004  17.566  0.3939 -0.2350  0.7650
  430TMC3    C4 6411   0.362   3.818   0.058  0.1118 -0.0749  0.8961
  430TMC3    C5 6412   0.448   3.880  17.650  0.5934 -0.2224  0.1416
  430TMC3    C6 6413   0.402   3.976  17.569  0.4213  0.4547 -0.0860
  430TMC3     C 6414   0.138   3.803   0.145 -0.5755  0.1046  0.6926
  430TMC3     O 6415   0.038   3.872   0.169 -0.5457  0.0018  0.3148
  430TMC3     H 6416   0.072   3.974  17.648 -0.1240 -1.4622  1.9830
  430TMC3    H1 6417   0.388   3.726   0.109 -0.0621 -0.0337  1.0584
  430TMC3    H2 6418   0.460   4.019  17.487 -1.5621  0.5550 -1.4469
  430TMC3    C7 6419   0.549   3.802  17.588 -0.1242  0.2817 -0.0984
  430TMC3    C8 6420   0.216   4.045  17.438  0.7736 -0.2805 -0.1079
  430TMC3    O1 6421   0.535   3.681  17.591 -0.3826 -0.7301 -0.4271
  430TMC3    O2 6422   0.299   4.112  17.378 -0.0493 -0.3729 -0.4123
  431MPD2     C 6423   1.556   3.712  12.507 -0.0633 -0.4201 -0.0426
  431MPD2    C1 6424   1.654   3.706  12.417  0.4681  0.0254 -0.6822
  431MPD2    C2 6425   1.698   3.584  12.365 -0.1215  0.5922  0.4054
  431MPD2    C3 6426   1.625   3.461  12.397 -0.1384  0.2040 -0.1817
  431MPD2    C4 6427   1.527   3.477  12.489  0.1620  0.1401 -1.2899
  431MPD2    C5 6428   1.492   3.599  12.542  0.9359 -0.6335  0.0371
  431MPD2     H 6429   1.780   3.586  12.293 -0.6293 -0.3881 -0.2010
  431MPD2    H1 6430   1.479   3.389  12.530  1.5547  0.5701  1.3093
  431MPD2    H2 6431   1.519   3.803  12.554  1.5289  0.6526 -0.8639
  431MPD2    H3 6432   1.402   3.608  12.603  0.4999  0.1819 -0.7199
  431MPD2     N 6433   1.660   3.329  12.353 -0.6037 -0.2399  0.0096
  431MPD2    H5 6434   1.633   3.242  12.399 -0.3573  0.6334  1.8239
  431MPD2    N1 6435   1.730   3.821  12.395  0.3477 -0.3080  0.0973
  431MPD2    H7 6436   1.812   3.818  12.335 -0.7258 -1.5625 -1.2976
  432TMC3    C1 6437   1.799   3.180  12.252 -0.1490 -0.4342 -0.7512
  432TMC3    C2 6438   1.839   3.123  12.130 -0.1249  0.2554  0.6183
  432TMC3    C3 6439   1.919   3.015  12.132  0.1752 -0.1739  0.0378
  432TMC3    C4 6440   1.861   3.141  12.371  0.0602 -0.1164  0.2914
  432TMC3    C5 6441   1.945   3.032  12.366 -0.0376 -0.0127 -0.8070
  432TMC3    C6 6442   1.975   2.965  12.249 -0.2535  0.3736 -0.2902
  432TMC3     C 6443   1.751   3.313  12.250 -0.3443 -0.0749 -0.3483
  432TMC3     O 6444   1.791   3.385  12.158  0.0046 -0.6773  0.3633
  432TMC3     H 6445   1.800   3.166  12.038  0.0583 -1.6502 -0.3638
  432TMC3    H1 6446   1.837   3.191  12.464 -0.9587  0.4529 -0.2712
  432TMC3    H2 6447   2.022   2.868  12.255  0.4380  0.8135  1.5463
  432TMC3    C7 6448   1.985   2.987  12.498 -0.0779  0.1572 -0.2394
  432TMC3    C8 6449   1.955   2.961  12.003 -0.5672  0.3534  1.3377
  432TMC3    O1 6450   1.983   2.869  12.525  0.3039  0.2025 -0.1528
  432TMC3    O2 6451   1.871   2.968  11.912 -0.0913  0.5629  0.5023
  433MPD2     C 6452   0.612   2.717  10.809 -0.2889  0.4405  0.2477
  433MPD2    C1 6453   0.602   2.596  10.877  0.2159  0.6514  0.0606
  433MPD2    C2 6454   0.611   2.603  11.013  0.0859 -0.0578 -0.0394
  433MPD2    C3 6455   0.637   2.721  11.084  0.2957 -0.4509  0.1404
  433MPD2    C4 6456   0.653   2.842  11.012 -0.5072 -0.6953  0.1078
  433MPD2    C5 6457   0.643   2.835  10.877  0.5265  0.2743 -0.7640
  433MPD2     H 6458   0.623   2.509  11.068 -1.8326  0.0565  0.5630
  433MPD2    H1 6459   0.688   2.937  11.050 -0.8768 -0.7037  0.4690
  433MPD2    H2 6460   0.606   2.725  10.701  1.3635 -0.9830  0.0399
  433MPD2    H3 6461   0.646   2.922  10.812  1.6506  1.2640  0.5989
  433MPD2     N 6462   0.666   2.714  11.218  0.4929 -0.2331  0.3334
  433MPD2    H5 6463   0.652   2.618  11.250 -1.4836  0.1967  0.7041
  433MPD2    N1 6464   0.604   2.469  10.816 -0.0711 -0.0396  0.6763
  433MPD2    H7 6465   0.609   2.392  10.881  1.1496 -1.4888 -1.1021
  434TMC3    C1 6466   0.606   2.306  10.643  0.2576 -0.6208  0.6590
  434TMC3    C2 6467   0.683   2.223  10.716 -0.1382 -0.2350  0.3355
  434TMC3    C3 6468   0.671   2.090  10.682 -0.4469 -0.5415 -0.3342
  434TMC3    C4 6469   0.545   2.277  10.524 -0.1078 -0.1595  0.3280
  434TMC3    C5 6470   0.536   2.148  10.492  0.3224 -0.4729  0.2059
  434TMC3    C6 6471   0.585   2.049  10.575  0.0521 -0.4872 -0.2993
  434TMC3     C 6472   0.602   2.446  10.677  0.7150  0.1863  1.0113
  434TMC3     O 6473   0.581   2.527  10.593  0.4917  0.5673 -0.3825
  434TMC3     H 6474   0.736   2.254  10.805  1.1831 -0.5576 -0.3368
  434TMC3    H1 6475   0.491   2.352  10.467 -0.1822 -1.2634 -1.0602
  434TMC3    H2 6476   0.594   1.946  10.541  0.2890  0.0552 -1.8723
  434TMC3    C7 6477   0.448   2.108  10.383 -0.5785 -0.0691  0.5441
  434TMC3    C8 6478   0.741   1.996  10.771 -0.1174  0.2155  0.0944
  434TMC3    O1 6479   0.366   2.192  10.343  0.0906  1.0479  0.2599
  434TMC3    O2 6480   0.817   2.042  10.849  0.1638 -0.2857 -0.0027
  435MPD2     C 6481   2.343   2.790  15.708  0.3522 -0.5135  0.4415
  435MPD2    C1 6482   2.298   2.721  15.818  0.3246 -0.1087  0.4657
  435MPD2    C2 6483   2.394   2.645  15.884  0.4397 -0.6407 -0.2139
  435MPD2    C3 6484   2.525   2.639  15.848  0.1318  0.4578 -0.0609
  435MPD2    C4 6485   2.573   2.712  15.739 -0.1739  0.4947 -0.2586
  435MPD2    C5 6486   2.481   2.787  15.676  0.3873  0.8730 -0.4580
  435MPD2     H 6487   2.354   2.581  15.962 -1.1855  0.7402  0.0641
  435MPD2    H1 6488   2.679   2.726  15.720 -0.1815  0.3645 -0.3981
  435MPD2    H2 6489   2.285   2.868  15.661  0.0482 -0.0035  1.6600
  435MPD2    H3 6490   2.507   2.856  15.596  0.7274  1.5008  0.1841
  435MPD2     N 6491   2.608   2.537  15.911  0.5810  0.2239 -0.7862
  435MPD2    H5 6492   2.573   2.495  15.997 -2.5012 -0.3459 -2.3255
  435MPD2    N1 6493   2.165   2.706  15.860 -0.7245  0.3156  0.2153
  435MPD2    H7 6494   2.149   2.630  15.924 -0.8664  0.0095 -0.1796
  436TMC3    C1 6495   1.694   2.694  15.865 -0.1866  0.4825  0.4865
  436TMC3    C2 6496   1.812   2.767  15.841 -0.3842  0.0345 -0.5044
  436TMC3    C3 6497   1.934   2.706  15.854 -0.1574 -0.1215 -0.5453
  436TMC3    C4 6498   1.702   2.572  15.931 -0.5090  0.1378  0.5381
  436TMC3    C5 6499   1.824   2.510  15.935 -0.3518 -0.0084  0.4109
  436TMC3    C6 6500   1.943   2.573  15.894  0.2299 -0.2660 -0.5816
  436TMC3     C 6501   1.574   2.771  15.868  0.3088 -0.1233 -0.0905
  436TMC3     O 6502   1.540   2.835  15.771 -0.8469 -0.2722 -0.1509
  436TMC3     H 6503   1.802   2.868  15.803 -0.0604  0.5033  0.6621
  436TMC3    H1 6504   1.616   2.515  15.961 -2.0090  0.1261 -3.7087
  436TMC3    H2 6505   2.033   2.511  15.898  2.1831  2.5650 -0.4957
  436TMC3    C7 6506   1.830   2.388  15.999  0.1524 -0.5725  0.1684
  436TMC3    C8 6507   2.055   2.766  15.806 -0.1066  0.8764 -0.2563
  436TMC3    O1 6508   1.744   2.369  16.082 -0.5512 -0.0791 -0.1875
  436TMC3    O2 6509   2.051   2.863  15.732 -0.0681  0.2352 -0.5328
  437TMC3    C1 6510   1.184   0.295  12.142  0.1987 -0.2387  0.0907
  437TMC3    C2 6511   1.120   0.371  12.046 -0.7637  0.3243  0.5305
  437TMC3    C3 6512   1.189   0.405  11.933 -0.5538  0.6370  0.1747
  437TMC3    C4 6513   1.300   0.234  12.110  0.7360  0.4070 -0.0213
  437TMC3    C5 6514   1.356   0.256  11.987 -0.3366  0.0298 -0.4588
  437TMC3    C6 6515   1.308   0.345  11.901  0.1693 -0.2648 -0.7193
  437TMC3     C 6516   1.112   0.276  12.267 -0.3777 -0.4872 -0.9364
  437TMC3     O 6517   0.994   0.310  12.268 -0.3026  0.2703 -0.2784
  437TMC3     H 6518   1.021   0.414  12.058 -0.4431  1.6951 -1.8856
  437TMC3    H1 6519   1.331   0.150  12.171 -0.3547  2.2473  3.0628
  437TMC3    H2 6520   1.353   0.354  11.803 -3.1949  1.8312 -2.0813
  437TMC3    C7 6521   1.468   0.167  11.946 -0.5373 -0.2955 -0.6963
  437TMC3    C8 6522   1.116   0.486  11.832  0.2757  0.0015  0.0979
  437TMC3    O1 6523   1.486   0.157  11.827 -0.1610 -0.1161 -0.1331
  437TMC3    O2 6524   0.994   0.497  11.860  0.4933 -0.2486  0.2991
  438MPD2     C 6525   3.150   4.586  17.225 -0.0811 -0.3999 -0.6918
  438MPD2    C1 6526   3.257   4.610  17.312 -0.6209  0.2983  0.2448
  438MPD2    C2 6527   3.246   4.559  17.441  0.1376 -0.0515 -0.0865
  438MPD2    C3 6528   3.134   4.492  17.496  0.2248 -0.1649  0.5485
  438MPD2    C4 6529   3.037   4.471  17.400 -0.6675  1.4002  0.1524
  438MPD2    C5 6530   3.047   4.513  17.271 -0.3148  0.3747  0.7454
  438MPD2     H 6531   3.326   4.571  17.514 -0.8298  0.0624  0.9603
  438MPD2    H1 6532   2.962   4.395  17.418  1.6798 -0.2433  2.8532
  438MPD2    H2 6533   3.145   4.622  17.123 -1.5359  0.4732 -0.3147
  438MPD2    H3 6534   2.962   4.488  17.208  0.1363  0.0375  0.2697
  438MPD2     N 6535   3.111   4.450  17.630 -0.1266 -0.0064  0.2444
  438MPD2    H5 6536   3.016   4.436  17.663 -0.1251 -1.5346 -0.4017
  438MPD2    N1 6537   3.370   4.691  17.282  0.3793  0.1364  0.1065
  438MPD2    H7 6538   3.437   4.708  17.357 -1.1035 -1.3089  1.7559
  439TMC3    C1 6539   3.535   0.051  17.148  0.0993 -0.3290  0.2417
  439TMC3    C2 6540   3.571   0.107  17.021 -0.2248  0.0904 -0.2392
  439TMC3    C3 6541   3.708   0.119  16.995 -0.2423 -0.4947 -0.2569
  439TMC3    C4 6542   3.624   4.696  17.217  0.4017 -0.0345  0.1482
  439TMC3    C5 6543   3.754   4.701  17.177  0.2878  0.7892  0.1865
  439TMC3    C6 6544   3.794   0.058  17.078 -0.2014 -0.5092  0.1489
  439TMC3     C 6545   3.393   0.026  17.162  0.4696  0.1138  0.4695
  439TMC3     O 6546   3.329   0.032  17.056  0.1581 -0.8880  0.4539
  439TMC3     H 6547   3.505   0.177  16.973 -1.2264 -0.0723  0.9040
  439TMC3    H1 6548   3.598   4.652  17.313  1.1460  0.5987  0.6456
  439TMC3    H2 6549   3.901   0.053  17.064  0.2904  3.1887  2.7501
  439TMC3    C7 6550   3.851   4.621  17.264  0.1454  0.6129 -0.1852
  439TMC3    C8 6551   3.757   0.148  16.859 -0.4247  0.3578  0.3493
  439TMC3    O1 6552   3.960   4.664  17.286 -0.0374 -0.1893  0.0629
  439TMC3    O2 6553   3.874   0.124  16.839 -0.0946  0.1954 -0.0882
  440MPD2     C 6554   2.354   1.522  14.942 -0.4897 -0.0016 -0.7308
  440MPD2    C1 6555   2.325   1.400  14.995 -0.2146 -0.7896  0.4127
  440MPD2    C2 6556   2.423   1.301  14.999  0.6158 -0.2826  0.1475
  440MPD2    C3 6557   2.547   1.326  14.954  0.6676  0.3275  0.2207
  440MPD2    C4 6558   2.577   1.448  14.899 -0.2649  0.3305  0.3789
  440MPD2    C5 6559   2.481   1.549  14.902  0.3164  0.1541  0.1243
  440MPD2     H 6560   2.403   1.208  15.051 -0.1844  0.1675  0.6359
  440MPD2    H1 6561   2.666   1.466  14.840 -0.4211 -1.2711 -0.3465
  440MPD2    H2 6562   2.285   1.605  14.933 -0.7776 -0.5207 -3.5028
  440MPD2    H3 6563   2.514   1.650  14.880 -2.1489  0.3390 -2.6167
  440MPD2     N 6564   2.645   1.226  14.951  0.3412 -0.1634 -0.3418
  440MPD2    H5 6565   2.741   1.249  14.929  0.4899 -0.0009  0.4940
  440MPD2    N1 6566   2.206   1.360  15.057  0.4447 -0.0516 -0.2411
  440MPD2    H7 6567   2.217   1.268  15.099 -1.5298  0.4261  1.2997
  441TMC3    C1 6568   2.766   1.043  15.031 -0.5164  0.2227 -0.2327
  441TMC3    C2 6569   2.873   1.127  15.053  0.3178 -0.1930 -0.6995
  441TMC3    C3 6570   2.987   1.077  15.109 -0.1212 -0.2820 -0.6219
  441TMC3    C4 6571   2.779   0.906  15.060 -0.6256  0.2775  0.4911
  441TMC3    C5 6572   2.894   0.859  15.114 -0.1678 -0.8012 -0.1385
  441TMC3    C6 6573   2.999   0.947  15.149 -0.2240 -0.1228  0.8176
  441TMC3     C 6574   2.627   1.105  15.006 -0.0849 -0.2204 -1.2313
  441TMC3     O 6575   2.527   1.036  15.020 -0.2584  0.1080 -0.2402
  441TMC3     H 6576   2.865   1.234  15.038  0.7102  0.1213  1.2908
  441TMC3    H1 6577   2.698   0.838  15.036  0.3262 -1.5621  2.4836
  441TMC3    H2 6578   3.077   0.915  15.217  1.3389 -0.0915 -0.9723
  441TMC3    C7 6579   2.875   0.742  15.207 -0.2334  0.7366 -0.0794
  441TMC3    C8 6580   3.059   1.173  15.191 -0.2910 -0.4160 -0.4326
  441TMC3    O1 6581   2.767   0.705  15.246 -0.2893  0.0614 -0.7661
  441TMC3    O2 6582   3.181   1.174  15.185 -0.1294  0.1983 -0.2866
  442MPD2     C 6583   0.453   1.560  16.174 -0.0734  1.2623 -0.4962
  442MPD2    C1 6584   0.362   1.455  16.189 -0.5977  1.3721 -0.0455
  442MPD2    C2 6585   0.409   1.324  16.199 -0.1202  0.3874  0.4356
  442MPD2    C3 6586   0.541   1.297  16.182  0.0202  0.0278  0.3631
  442MPD2    C4 6587   0.625   1.404  16.154 -0.2311 -0.9560 -0.3004
  442MPD2    C5 6588   0.585   1.532  16.157  0.5862  0.9075  0.2489
  442MPD2     H 6589   0.342   1.244  16.228 -1.4542  0.5513 -2.2466
  442MPD2    H1 6590   0.731   1.386  16.141 -0.0345 -0.0612  0.0469
  442MPD2    H2 6591   0.423   1.663  16.188  0.1568  1.1375  0.9117
  442MPD2    H3 6592   0.660   1.610  16.160 -0.4026  1.8762 -0.2356
  442MPD2     N 6593   0.608   1.176  16.210  0.4374  0.0753  0.2239
  442MPD2    H5 6594   0.703   1.175  16.175  0.2433  0.4890 -0.3236
  442MPD2    N1 6595   0.220   1.478  16.201  0.3291  0.0219  0.2298
  442MPD2    H7 6596   0.162   1.400  16.230 -0.3722 -0.7798 -3.3005
  443TMC3    C1 6597   0.022   1.609  16.183 -0.3492  0.1846 -0.6107
  443TMC3    C2 6598   4.673   1.698  16.111 -0.1395  0.1005 -0.3305
  443TMC3    C3 6599   4.540   1.721  16.123  0.0518 -0.0769 -0.2686
  443TMC3    C4 6600   4.676   1.533  16.284  0.2979 -0.2825  0.1860
  443TMC3    C5 6601   4.543   1.578  16.306  0.2293  0.2689  0.5482
  443TMC3    C6 6602   4.469   1.664  16.225 -0.2966 -0.6986 -0.0510
  443TMC3     C 6603   0.164   1.598  16.159  0.2833 -1.3783 -0.3249
  443TMC3     O 6604   0.218   1.693  16.100  0.2469 -0.4914  0.1004
  443TMC3     H 6605   4.711   1.754  16.026 -3.8178  0.3844 -1.7987
  443TMC3    H1 6606   4.711   1.460  16.355  2.0270  0.6942  0.3277
  443TMC3    H2 6607   4.363   1.685  16.233 -0.0818 -0.0850  1.1713
  443TMC3    C7 6608   4.469   1.515  16.413 -0.7510 -0.0119  0.4215
  443TMC3    C8 6609   4.462   1.801  16.034 -0.6559  0.3577 -0.1825
  443TMC3    O1 6610   4.506   1.401  16.444  0.1921 -0.4528 -0.2346
  443TMC3    O2 6611   4.378   1.878  16.090  0.5052 -0.5878 -0.0390
  444MPD2     C 6612   1.099   4.481   0.015 -0.3080 -0.0030 -0.1568
  444MPD2    C1 6613   1.034   4.563  17.604 -0.0566 -0.0782  0.2801
  444MPD2    C2 6614   1.083   4.561  17.469 -0.3449 -0.7577  0.1822
  444MPD2    C3 6615   1.189   4.487  17.437  0.0734 -0.6986 -0.1207
  444MPD2    C4 6616   1.260   4.420  17.537  0.6075 -0.3280  0.1493
  444MPD2    C5 6617   1.215   4.419  17.667 -1.0151 -0.0337 -0.1371
  444MPD2     H 6618   1.030   4.615  17.391 -0.3225  0.5206  1.0566
  444MPD2    H1 6619   1.352   4.366  17.516  0.2113 -1.6423  1.8144
  444MPD2    H2 6620   1.070   4.481   0.119 -1.7035  0.5357 -0.5509
  444MPD2    H3 6621   1.267   4.355   0.051 -1.2086  0.8051  0.7653
  444MPD2     N 6622   1.229   4.495  17.297  0.8675  0.0372 -0.0637
  444MPD2    H5 6623   1.177   4.559  17.238  1.3174 -1.0154 -1.6082
  444MPD2    N1 6624   0.913   4.638  17.625 -0.2016  0.2914 -0.5559
  444MPD2    H7 6625   0.873   4.683  17.543 -0.7753  0.1011 -0.3787
  445TMC3    C1 6626   1.345   4.455  17.100 -0.5398 -0.3251 -0.2045
  445TMC3    C2 6627   1.233   4.482  17.022  0.1763  0.0712  0.4328
  445TMC3    C3 6628   1.249   4.533  16.897  0.1206  0.2765 -0.1477
  445TMC3    C4 6629   1.470   4.488  17.058 -0.2552 -0.1130 -0.4698
  445TMC3    C5 6630   1.481   4.535  16.929  0.2684 -0.0634  0.5109
  445TMC3    C6 6631   1.374   4.562  16.848  0.5213  0.1413 -0.1287
  445TMC3     C 6632   1.333   4.424  17.237  0.0660  0.6081 -0.2682
  445TMC3     O 6633   1.400   4.338  17.290 -0.2739  0.0662 -1.0897
  445TMC3     H 6634   1.138   4.453  17.067  0.4085  0.0727  0.9196
  445TMC3    H1 6635   1.550   4.459  17.124 -1.8114  1.6883  2.1822
  445TMC3    H2 6636   1.390   4.608  16.751  0.5662 -0.7032 -0.5176
  445TMC3    C7 6637   1.609   4.554  16.875  0.5813 -0.2813  0.1973
  445TMC3    C8 6638   1.139   4.560  16.805  0.5163  0.4616  0.1073
  445TMC3    O1 6639   1.614   4.576  16.752 -0.8513  0.6131  0.1790
  445TMC3    O2 6640   1.165   4.615  16.697  0.9361  0.3800  0.3746
  446MPD2     C 6641   0.602   1.804  11.378  0.4211  0.3027  0.0785
  446MPD2    C1 6642   0.580   1.812  11.241  0.4670 -0.3139 -0.2506
  446MPD2    C2 6643   0.645   1.901  11.159  0.1603  0.3612  0.1696
  446MPD2    C3 6644   0.754   1.977  11.205 -0.3872  0.3116 -0.1407
  446MPD2    C4 6645   0.769   1.971  11.342  0.6261  0.0308  0.1571
  446MPD2    C5 6646   0.696   1.891  11.426  0.2430  0.1638 -0.0088
  446MPD2     H 6647   0.619   1.901  11.054  0.7242 -1.4197  0.0253
  446MPD2    H1 6648   0.839   2.035  11.394 -1.8714  1.7302  1.4198
  446MPD2    H2 6649   0.543   1.745  11.448 -0.8188  1.7597  0.2498
  446MPD2    H3 6650   0.719   1.896  11.532 -0.7458  0.4785  0.1890
  446MPD2     N 6651   0.844   2.043  11.126  0.3793  0.1419  0.7068
  446MPD2    H5 6652   0.818   2.053  11.028  1.8758 -0.4268  0.2412
  446MPD2    N1 6653   0.487   1.724  11.170 -0.1579  0.2700 -0.5485
  446MPD2    H7 6654   0.462   1.740  11.072 -1.8902  1.1370  0.0209
  447TMC3    C1 6655   1.053   2.143  11.069  1.2227  0.1072 -0.1181
  447TMC3    C2 6656   0.999   2.229  10.982  0.2206  0.4886 -0.2142
  447TMC3    C3 6657   1.084   2.301  10.904 -0.0254 -0.9217 -0.8722
  447TMC3    C4 6658   1.185   2.123  11.088 -0.7329 -0.1963 -0.3595
  447TMC3    C5 6659   1.271   2.210  11.019  0.3389 -0.3041  0.7456
  447TMC3    C6 6660   1.221   2.300  10.928  0.1790 -1.0042 -0.0338
  447TMC3     C 6661   0.965   2.095  11.170 -0.0596 -0.2442 -0.5803
  447TMC3     O 6662   1.024   2.065  11.274 -0.2586  0.1194  0.6801
  447TMC3     H 6663   0.892   2.241  10.972  0.3908  0.0124 -2.5639
  447TMC3    H1 6664   1.214   2.050  11.163 -0.2278  1.0028  0.6123
  447TMC3    H2 6665   1.284   2.384  10.903 -0.6441 -0.5883 -0.6938
  447TMC3    C7 6666   1.412   2.203  11.053  0.2365  0.1917 -0.4521
  447TMC3    C8 6667   1.026   2.390  10.803 -0.5759 -0.7370 -0.3103
  447TMC3    O1 6668   1.495   2.199  10.967 -0.1490 -0.2227 -0.6878
  447TMC3    O2 6669   0.908   2.414  10.822  0.3894  0.1653 -0.7149
  448TMC3    C1 6670   2.896   1.376  17.164 -0.9283  0.4019 -0.0739
  448TMC3    C2 6671   2.972   1.341  17.056  0.2884 -0.4093 -0.7070
  448TMC3    C3 6672   2.979   1.210  17.020 -0.1075 -0.1793 -0.3163
  448TMC3    C4 6673   2.827   1.285  17.235  0.3033 -0.0945  0.0823
  448TMC3    C5 6674   2.828   1.154  17.190 -0.1561  0.0784 -0.8447
  448TMC3    C6 6675   2.909   1.116  17.087  0.2119 -0.5131  0.2167
  448TMC3     C 6676   2.878   1.514  17.195 -0.0608 -0.6799 -0.2786
  448TMC3     O 6677   2.801   1.546  17.284  0.2142  0.6665 -0.0213
  448TMC3     H 6678   3.036   1.412  17.005  0.5417  0.1836  0.4469
  448TMC3    H1 6679   2.763   1.311  17.319 -1.5008  0.1060 -1.3529
  448TMC3    H2 6680   2.899   1.019  17.040  0.4974 -1.2175  1.6194
  448TMC3    C7 6681   2.802   1.042  17.283  0.0384  0.3620 -0.3028
  448TMC3    C8 6682   3.083   1.151  16.933 -0.0009  0.1268 -0.0865
  448TMC3    O1 6683   2.822   0.930  17.233  0.7699  0.1422  0.4114
  448TMC3    O2 6684   3.117   1.038  16.963  0.2130 -0.1437  0.3644
  449MPD2     C 6685   0.848   4.590  13.874 -0.0808 -0.4979 -0.3124
  449MPD2    C1 6686   0.727   4.607  13.816  0.0721 -0.2747 -0.5310
  449MPD2    C2 6687   0.613   4.608  13.897  0.4546 -0.6785  0.0708
  449MPD2    C3 6688   0.627   4.597  14.032  0.6088  0.1861 -0.2613
  449MPD2    C4 6689   0.750   4.583  14.090  0.3381  0.0260  0.1766
  449MPD2    C5 6690   0.857   4.577  14.012  0.0468 -0.6829  0.2742
  449MPD2     H 6691   0.519   4.630  13.849  0.1619 -1.0664  0.4661
  449MPD2    H1 6692   0.765   4.569  14.197  1.2631  1.0830  0.1784
  449MPD2    H2 6693   0.936   4.586  13.811 -0.2363 -0.3182 -0.5395
  449MPD2    H3 6694   0.953   4.565  14.061 -0.1003 -1.0283  0.4776
  449MPD2     N 6695   0.512   4.612  14.107  0.9093 -0.1803 -0.5856
  449MPD2    H5 6696   0.430   4.633  14.051  0.9143 -1.5851 -1.1333
  449MPD2    N1 6697   0.706   4.634  13.676  0.1376 -0.0777  0.4536
  449MPD2    H7 6698   0.611   4.649  13.643  0.1593 -1.9062 -0.4587
  450TMC3    C1 6699   0.733   4.637  13.450  0.9208 -0.2393  0.2863
  450TMC3    C2 6700   0.777   4.517  13.401 -0.4938  0.8883  0.3558
  450TMC3    C3 6701   0.688   4.420  13.363 -0.1481 -0.0769  0.1866
  450TMC3    C4 6702   0.600   4.656  13.460 -0.2768 -0.5529 -0.1254
  450TMC3    C5 6703   0.515   4.558  13.428  0.5684  0.1746 -0.6312
  450TMC3    C6 6704   0.554   4.444  13.375  0.3581 -0.5223  0.6210
  450TMC3     C 6705   0.801   4.638  13.571  0.0684  0.2397  0.3342
  450TMC3     O 6706   0.926   4.613  13.576  0.4532 -0.5249 -0.3786
  450TMC3     H 6707   0.883   4.503  13.389 -0.5292  0.0972  1.0243
  450TMC3    H1 6708   0.571   0.026  13.511 -1.3918 -0.0388 -1.6569
  450TMC3    H2 6709   0.479   4.368  13.356  0.5896 -0.6489  0.2285
  450TMC3    C7 6710   0.411   4.554  13.524 -0.2437 -0.1502 -0.5155
  450TMC3    C8 6711   0.733   4.291  13.308  0.6859  0.1237 -0.0966
  450TMC3    O1 6712   0.430   4.630  13.615 -0.4725  0.0518  0.1042
  450TMC3    O2 6713   0.679   4.193  13.353 -0.1881 -0.3716 -0.1414
  451MPD2     C 6714   1.136   4.010   0.962  0.4353  0.0041 -0.2515
  451MPD2    C1 6715   1.032   3.955   1.035 -0.0951  0.2645 -0.3833
  451MPD2    C2 6716   0.949   3.863   0.981  0.4903 -0.8447  0.5846
  451MPD2    C3 6717   0.965   3.822   0.847  0.0774 -0.1553 -0.2601
  451MPD2    C4 6718   1.061   3.885   0.776 -0.3865 -0.1073  0.8720
  451MPD2    C5 6719   1.142   3.975   0.834  0.0578 -0.0830  0.5392
  451MPD2     H 6720   0.877   3.816   1.048 -0.3406  1.8043  1.5550
  451MPD2    H1 6721   1.090   3.855   0.676  0.7788 -0.1018  1.2038
  451MPD2    H2 6722   1.208   4.071   1.014 -2.0340  1.0208  1.9687
  451MPD2    H3 6723   1.225   4.008   0.773 -0.1850 -1.1485 -0.3726
  451MPD2     N 6724   0.905   3.706   0.790 -0.0118  0.1751  0.4780
  451MPD2    H5 6725   0.933   3.680   0.696  1.5735 -0.4232  1.1108
  451MPD2    N1 6726   1.020   3.993   1.174 -0.8484  0.1097  0.4641
  451MPD2    H7 6727   1.079   4.072   1.195  2.4715 -2.0524 -0.6601
  452TMC3    C1 6728   0.806   3.496   0.780  0.0116 -0.3217  0.5448
  452TMC3    C2 6729   0.767   3.386   0.849 -0.3755 -0.5107 -0.0740
  452TMC3    C3 6730   0.790   3.266   0.794  1.0858 -0.4121  0.0747
  452TMC3    C4 6731   0.851   3.497   0.651 -0.7003 -0.7391 -1.3674
  452TMC3    C5 6732   0.861   3.376   0.598  0.5783  0.1165 -0.1666
  452TMC3    C6 6733   0.839   3.257   0.670  0.4072 -0.2706 -0.0465
  452TMC3     C 6734   0.821   3.616   0.854 -0.3514  0.2611 -0.1503
  452TMC3     O 6735   0.772   3.628   0.965  0.4550  0.0583 -0.4102
  452TMC3     H 6736   0.736   3.393   0.953  1.0226  1.9223  0.1867
  452TMC3    H1 6737   0.868   3.586   0.592 -2.2471 -1.8627 -3.4877
  452TMC3    H2 6738   0.887   3.166   0.636  2.4265  0.6630  0.2844
  452TMC3    C7 6739   0.928   3.357   0.472  0.2406  0.6486  0.1999
  452TMC3    C8 6740   0.815   3.152   0.871  0.6467 -0.0256 -0.0243
  452TMC3    O1 6741   0.999   3.448   0.434 -0.1410  0.5219  0.2115
  452TMC3    O2 6742   0.842   3.175   0.989  0.5900  0.2975  0.6914
  453TMC3    C1 6743   2.835   1.078  11.746 -0.2700 -0.3606  0.0815
  453TMC3    C2 6744   2.714   1.019  11.769  0.1653  0.7659  0.4370
  453TMC3    C3 6745   2.634   1.011  11.659  0.9560 -0.2805  0.1800
  453TMC3    C4 6746   2.881   1.117  11.624  0.1268 -0.3948  0.5105
  453TMC3    C5 6747   2.801   1.094  11.514  0.1419  0.2149 -0.7908
  453TMC3    C6 6748   2.673   1.042  11.530 -0.3372 -0.3106  0.2824
  453TMC3     C 6749   2.931   1.087  11.854  1.1170 -0.5838  0.3004
  453TMC3     O 6750   3.033   1.149  11.828 -0.3526 -0.3073 -0.0195
  453TMC3     H 6751   2.673   1.021  11.869  0.2019  1.5546  0.4404
  453TMC3    H1 6752   2.979   1.164  11.619  0.1542 -0.4202  0.8145
  453TMC3    H2 6753   2.609   1.005  11.451 -0.1003 -0.0592 -0.0276
  453TMC3    C7 6754   2.848   1.117  11.379  0.0405 -0.3694  0.3148
  453TMC3    C8 6755   2.530   0.914  11.669 -0.4388  0.0365  0.0681
  453TMC3    O1 6756   2.764   1.121  11.287  0.5684 -0.7701 -0.7458
  453TMC3    O2 6757   2.419   0.947  11.630  0.1777  0.1558 -0.4406
  454MPD2     C 6758   1.665   0.232  16.641 -0.1959 -0.1751 -0.2581
  454MPD2    C1 6759   1.568   0.287  16.570  0.1376  0.1745 -0.3835
  454MPD2    C2 6760   1.447   0.318  16.623 -0.3914  0.2716  0.1992
  454MPD2    C3 6761   1.418   0.275  16.751 -0.4888  0.3215  0.2196
  454MPD2    C4 6762   1.511   0.199  16.818 -0.7338  0.0631 -0.3083
  454MPD2    C5 6763   1.641   0.177  16.763 -0.0609 -0.4179  0.0139
  454MPD2     H 6764   1.378   0.365  16.554  1.5092  2.7409 -0.0236
  454MPD2    H1 6765   1.494   0.144  16.909  1.1897  0.5377  0.3394
  454MPD2    H2 6766   1.765   0.217  16.601  0.0935 -0.3154  0.5117
  454MPD2    H3 6767   1.716   0.120  16.817  0.3496 -0.0454 -0.1672
  454MPD2     N 6768   1.286   0.284  16.797 -0.2720  0.2290 -0.3290
  454MPD2    H5 6769   1.256   0.235  16.881  0.9596  0.0894  0.0408
  454MPD2    N1 6770   1.580   0.314  16.428 -0.3576  0.3907 -0.8786
  454MPD2    H7 6771   1.501   0.352  16.379 -1.2189 -1.2318 -0.7572
  455TMC3    C1 6772   1.061   0.319  16.738  0.6234 -0.3612 -0.1134
  455TMC3    C2 6773   0.971   0.420  16.731 -0.1656  0.5346  0.4939
  455TMC3    C3 6774   0.876   0.420  16.633  0.4430 -0.5950 -0.5045
  455TMC3    C4 6775   1.056   0.210  16.653  0.0128 -0.7801 -0.8975
  455TMC3    C5 6776   0.968   0.222  16.547 -1.0474  0.8030 -0.0148
  455TMC3    C6 6777   0.868   0.318  16.542 -0.2421 -0.3316  0.0004
  455TMC3     C 6778   1.190   0.363  16.733  0.6779 -0.0279 -0.0770
  455TMC3     O 6779   1.203   0.469  16.668 -0.2446 -0.1188  0.0626
  455TMC3     H 6780   0.990   0.510  16.789 -0.3301 -0.3800  1.9806
  455TMC3    H1 6781   1.129   0.133  16.676  0.4330  0.3194  1.5211
  455TMC3    H2 6782   0.795   0.323  16.461 -2.7287  1.2583  2.3374
  455TMC3    C7 6783   1.029   0.199  16.421  0.5278  0.4101  0.4093
  455TMC3    C8 6784   0.803   0.546  16.611  0.3644 -0.2621  0.3065
  455TMC3    O1 6785   0.966   0.241  16.324  0.1477 -0.1854  0.1494
  455TMC3    O2 6786   0.855   0.641  16.667 -0.2866 -0.2803  0.5916
  456MPD2     C 6787   3.871   0.428  16.019 -0.2089  0.4702  0.4996
  456MPD2    C1 6788   3.959   0.411  16.119  0.0346 -0.5278 -0.2097
  456MPD2    C2 6789   3.917   0.425  16.250  1.2406  0.6640 -0.5695
  456MPD2    C3 6790   3.791   0.453  16.281 -0.2898 -0.2485  0.5732
  456MPD2    C4 6791   3.699   0.455  16.179 -1.0286 -0.8559  0.8474
  456MPD2    C5 6792   3.739   0.451  16.050 -0.8804  0.2132  0.4739
  456MPD2     H 6793   3.988   0.417  16.332 -0.3187 -1.6946  0.5545
  456MPD2    H1 6794   3.592   0.461  16.196 -1.8323 -0.7117 -4.1253
  456MPD2    H2 6795   3.908   0.430  15.917  0.3217 -0.4035  0.6748
  456MPD2    H3 6796   3.662   0.459  15.974  0.7613  1.6082 -1.0339
  456MPD2     N 6797   3.757   0.478  16.418 -0.3718  0.3773 -0.8320
  456MPD2    H5 6798   3.831   0.468  16.487  0.0491  0.4511 -1.2825
  456MPD2    N1 6799   4.093   0.390  16.076 -0.3511  0.4157  0.5991
  456MPD2    H7 6800   4.108   0.382  15.976  2.4417  0.4373  1.0164
  457TMC3    C1 6801   3.630   0.547  16.605 -0.2575  0.0828  0.1958
  457TMC3    C2 6802   3.564   0.663  16.624 -0.2312 -0.3394 -0.1198
  457TMC3    C3 6803   3.600   0.739  16.733 -0.5408  0.3100 -0.2984
  457TMC3    C4 6804   3.727   0.503  16.693  0.1519 -0.1074  0.4191
  457TMC3    C5 6805   3.727   0.563  16.818  0.3471 -0.1616  0.4345
  457TMC3    C6 6806   3.675   0.686  16.831  0.5042  0.1073  0.9953
  457TMC3     C 6807   3.633   0.510  16.462  0.1134 -0.1355  0.4816
  457TMC3     O 6808   3.527   0.529  16.401 -0.4057  0.8397 -0.5252
  457TMC3     H 6809   3.478   0.689  16.563  0.4895 -3.7505 -2.5698
  457TMC3    H1 6810   3.788   0.414  16.680 -1.8346 -1.4797  0.4911
  457TMC3    H2 6811   3.688   0.742  16.923  1.8799 -0.8738  1.3912
  457TMC3    C7 6812   3.820   0.527  16.924 -0.7128 -0.1252  1.1620
  457TMC3    C8 6813   3.517   0.859  16.766  0.2283 -0.6575  0.0884
  457TMC3    O1 6814   3.795   0.557  17.040 -0.2423 -0.0571 -0.5773
  457TMC3    O2 6815   3.502   0.886  16.885  0.0227  0.3544  0.0773
  458MPD2     C 6816   1.919   4.652  12.041  0.3712 -0.4031  0.3362
  458MPD2    C1 6817   1.868   4.707  12.153  0.5363 -0.2419  0.2101
  458MPD2    C2 6818   1.751   0.062  12.154  0.2516  0.5148 -0.4521
  458MPD2    C3 6819   1.675   0.072  12.039 -0.1448  0.0337  0.3903
  458MPD2    C4 6820   1.714   0.001  11.932 -0.2098 -0.3819 -0.5694
  458MPD2    C5 6821   1.830   4.645  11.935  0.2764  0.1772 -0.4377
  458MPD2     H 6822   1.715   0.112  12.243  0.5115 -1.5113  0.8002
  458MPD2    H1 6823   1.649   4.701  11.848 -1.2086  1.1248 -0.1719
  458MPD2    H2 6824   2.014   4.600  12.037  2.1376  2.7288  1.0490
  458MPD2    H3 6825   1.842   4.585  11.845 -0.4937  0.1400 -0.5189
  458MPD2     N 6826   1.548   0.136  12.051  0.0168  0.5070  0.5841
  458MPD2    H5 6827   1.522   0.168  12.143 -2.6944  0.7287 -0.2617
  458MPD2    N1 6828   1.945   4.697  12.277 -0.0292  0.6113 -0.0796
  458MPD2    H7 6829   2.040   4.660  12.270  0.2497  2.0293 -3.8901
  459TMC3    C1 6830   2.000   4.715  12.489  0.7467  0.3095 -0.0725
  459TMC3    C2 6831   2.110   0.068  12.452  0.1925  0.4622 -0.1773
  459TMC3    C3 6832   2.191   0.109  12.555  0.0992  0.3366 -0.3522
  459TMC3    C4 6833   1.986   4.677  12.620  0.1407  0.0754  0.0170
  459TMC3    C5 6834   2.068   0.009  12.717  0.5751 -0.7613 -0.4229
  459TMC3    C6 6835   2.178   0.076  12.682  0.7137  0.0101 -0.4960
  459TMC3     C 6836   1.889   4.703  12.399  0.0440  0.0643  0.0563
  459TMC3     O 6837   1.779   4.664  12.436  0.0733  0.0136  0.0651
  459TMC3     H 6838   2.136   0.094  12.350 -0.0023  0.8201 -0.1355
  459TMC3    H1 6839   1.891   4.630  12.645  0.0472 -0.7234 -1.8318
  459TMC3    H2 6840   2.258   0.099  12.752 -0.4242  1.2412  0.3979
  459TMC3    C7 6841   2.074   4.667  12.846 -0.2936 -0.5014 -0.3867
  459TMC3    C8 6842   2.317   0.179  12.521 -0.2282 -0.3805  0.4155
  459TMC3    O1 6843   2.031   4.553  12.858 -0.4574 -0.0149 -0.2160
  459TMC3    O2 6844   2.412   0.167  12.595  0.0718  0.3278  0.3862
  460MPD2     C 6845   1.175   2.561  10.513  0.4000 -0.3278 -0.6686
  460MPD2    C1 6846   1.079   2.522  10.603 -0.1250  0.2704  0.2324
  460MPD2    C2 6847   0.948   2.571  10.578 -0.2611 -0.1473 -0.1858
  460MPD2    C3 6848   0.921   2.655  10.471 -0.7133  0.3431 -0.3584
  460MPD2    C4 6849   1.025   2.701  10.392 -0.2301  0.2099 -0.2692
  460MPD2    C5 6850   1.147   2.649  10.409 -0.2034 -0.4042  0.7876
  460MPD2     H 6851   0.867   2.530  10.637  0.4250 -1.3741 -0.0891
  460MPD2    H1 6852   1.013   2.778  10.316  0.4351  0.2256 -0.3588
  460MPD2    H2 6853   1.275   2.522  10.523  1.2566  1.9642 -0.3782
  460MPD2    H3 6854   1.217   2.664  10.327  0.9339  0.0516  1.8336
  460MPD2     N 6855   0.789   2.696  10.441 -0.5543  0.4901  0.9286
  460MPD2    H5 6856   0.714   2.678  10.508 -1.0554  1.3589  0.5906
  460MPD2    N1 6857   1.115   2.435  10.707  0.0508 -0.2997 -0.2532
  460MPD2    H7 6858   1.211   2.408  10.722  0.7651  2.0534 -0.7355
  461TMC3    C1 6859   0.613   2.757  10.296 -0.5373  0.0619 -0.2737
  461TMC3    C2 6860   0.550   2.636  10.326 -0.0749 -0.3363  0.3794
  461TMC3    C3 6861   0.418   2.621  10.282 -0.4768 -0.1645  0.6931
  461TMC3    C4 6862   0.565   2.854  10.208  0.2477  0.0765  0.4330
  461TMC3    C5 6863   0.441   2.825  10.158 -0.4044  0.8829  0.3280
  461TMC3    C6 6864   0.365   2.723  10.202  0.1563  0.0849  0.1170
  461TMC3     C 6865   0.749   2.753  10.319 -0.2935  1.0030  0.8197
  461TMC3     O 6866   0.816   2.798  10.225  0.0181  0.1090  0.0596
  461TMC3     H 6867   0.596   2.554  10.380  1.4191  1.4917  1.8769
  461TMC3    H1 6868   0.619   2.942  10.177 -3.4780  0.9473 -3.5795
  461TMC3    H2 6869   0.264   2.708  10.167  0.5319  1.1449 -1.4333
  461TMC3    C7 6870   0.385   2.906  10.054 -0.5973 -0.5725  0.7192
  461TMC3    C8 6871   0.404   2.495  10.212 -0.8899  0.2874 -0.2557
  461TMC3    O1 6872   0.407   3.026  10.045  0.7451  0.4054  0.2543
  461TMC3    O2 6873   0.511   2.456  10.164 -0.1491 -0.3054  0.7833
  462TMC3    C1 6874   0.251   2.220  17.601  0.4257 -0.9034  0.5443
  462TMC3    C2 6875   0.359   2.154  17.557 -0.3948 -0.5029  0.0587
  462TMC3    C3 6876   0.420   2.059  17.632  0.0978 -0.2188 -0.2649
  462TMC3    C4 6877   0.189   2.199   0.032 -0.0718 -0.5748 -0.2619
  462TMC3    C5 6878   0.247   2.090   0.099 -0.5844  0.1812  0.7593
  462TMC3    C6 6879   0.368   2.027   0.065 -0.4958  0.9891  0.0695
  462TMC3     C 6880   0.227   2.346  17.531  0.4516  0.1812  0.2355
  462TMC3     O 6881   0.299   2.357  17.435  0.0606  0.1537  0.8079
  462TMC3     H 6882   0.404   2.167  17.460  0.6833  1.0047  0.7529
  462TMC3    H1 6883   0.107   2.261   0.066  0.6096 -0.4966  1.2505
  462TMC3    H2 6884   0.387   1.926   0.100 -2.9495  0.5639  0.1757
  462TMC3    C7 6885   0.147   2.014   0.179  0.6349 -1.4750  0.5671
  462TMC3    C8 6886   0.535   1.979  17.584 -0.1703 -0.1132  0.1170
  462TMC3    O1 6887   0.032   2.040   0.146  0.9835  0.0815 -0.1005
  462TMC3    O2 6888   0.563   1.876  17.647 -0.4872  0.0798  0.4309
  463MPD2     C 6889   1.120   2.044   1.515  0.0030  0.0159  0.6537
  463MPD2    C1 6890   1.031   2.106   1.427  0.9820  0.4982 -0.5436
  463MPD2    C2 6891   1.075   2.221   1.362  0.3888  0.1658 -0.4394
  463MPD2    C3 6892   1.207   2.266   1.366 -0.2360 -0.3982  0.2139
  463MPD2    C4 6893   1.286   2.202   1.455  0.6218  0.2045 -0.9933
  463MPD2    C5 6894   1.246   2.092   1.526  1.3552 -0.4573 -0.7967
  463MPD2     H 6895   1.002   2.266   1.296  0.0952  1.2643  0.6297
  463MPD2    H1 6896   1.385   2.234   1.484  0.5161 -0.8513  0.5568
  463MPD2    H2 6897   1.101   1.964   1.585 -1.0342 -0.3863 -0.0735
  463MPD2    H3 6898   1.310   2.045   1.600 -0.1400 -1.8379 -0.3754
  463MPD2     N 6899   1.254   2.377   1.298 -0.0145  0.4336 -0.5447
  463MPD2    H5 6900   1.351   2.401   1.313  0.0569  0.7826 -1.5142
  463MPD2    N1 6901   0.895   2.075   1.414 -0.3035  0.4408 -0.2181
  463MPD2    H7 6902   0.838   2.127   1.348  0.4602  2.8787  1.0662
  464TMC3    C1 6903   0.705   1.935   1.440 -0.1515  0.2719 -0.6669
  464TMC3    C2 6904   0.633   1.995   1.347 -0.4371  0.4368 -0.2320
  464TMC3    C3 6905   0.535   1.915   1.292 -0.4058 -0.4356 -0.4333
  464TMC3    C4 6906   0.667   1.813   1.486  0.6266 -0.3474  0.4283
  464TMC3    C5 6907   0.564   1.744   1.428 -0.1920  0.3158  0.5283
  464TMC3    C6 6908   0.495   1.794   1.329 -0.0970  0.1517  0.3988
  464TMC3     C 6909   0.836   1.977   1.484  0.5918 -0.1147 -0.0193
  464TMC3     O 6910   0.887   1.903   1.569  0.4641  0.1456  0.0096
  464TMC3     H 6911   0.650   2.098   1.319  1.3513  0.1622 -0.1691
  464TMC3    H1 6912   0.718   1.758   1.564  0.9447 -1.6008 -0.6628
  464TMC3    H2 6913   0.421   1.736   1.275  0.0670  3.5692 -3.3966
  464TMC3    C7 6914   0.586   1.598   1.431 -0.1091  0.0248  0.9426
  464TMC3    C8 6915   0.438   1.982   1.202 -0.2790  0.0449 -0.5065
  464TMC3    O1 6916   0.688   1.558   1.483  0.0845  0.4177  0.0604
  464TMC3    O2 6917   0.491   2.024   1.100  0.1599  0.9423  0.6479
  465MPD2     C 6918   3.036   0.223  17.119  0.7807 -0.2909 -0.3289
  465MPD2    C1 6919   2.897   0.208  17.103  0.4007 -0.3463 -0.7789
  465MPD2    C2 6920   2.842   0.235  16.981  0.0018  0.2495  0.3162
  465MPD2    C3 6921   2.924   0.281  16.881 -0.8642 -0.1723  0.2456
  465MPD2    C4 6922   3.064   0.286  16.889  0.0318  0.2424  0.5536
  465MPD2    C5 6923   3.114   0.264  17.017  0.2662  0.1010 -0.4609
  465MPD2     H 6924   2.740   0.216  16.951 -0.0919 -1.0464  1.4834
  465MPD2    H1 6925   3.129   0.321  16.809  2.0604 -1.5307  1.4309
  465MPD2    H2 6926   3.090   0.212  17.213  0.8090 -0.5947 -0.3799
  465MPD2    H3 6927   3.221   0.279  17.026  0.7714 -2.7801 -1.4080
  465MPD2     N 6928   2.855   0.329  16.770  0.1113  0.1816 -0.0292
  465MPD2    H5 6929   2.757   0.305  16.761  0.3913 -1.4470  1.3819
  465MPD2    N1 6930   2.820   0.171  17.209  0.4372 -0.2509 -0.5224
  465MPD2    H7 6931   2.720   0.178  17.195  0.4581 -1.4990 -1.2991
  466TMC3    C1 6932   2.586   0.455  16.500  0.8812  0.1556  0.3297
  466TMC3    C2 6933   2.599   0.579  16.453  0.1765 -0.4473  0.1784
  466TMC3    C3 6934   2.728   0.630  16.450 -0.2354 -0.2897  0.2308
  466TMC3    C4 6935   2.691   0.388  16.561  1.0699  0.2432  0.7311
  466TMC3    C5 6936   2.813   0.450  16.568 -0.6291 -0.5079  0.1752
  466TMC3    C6 6937   2.837   0.574  16.519  0.7479 -0.0214 -0.2963
  466TMC3     C 6938   2.479   0.454  16.603  0.4544 -0.2540  0.9282
  466TMC3     O 6939   2.504   0.391  16.709  0.1497 -0.8923 -0.0204
  466TMC3     H 6940   2.521   0.642  16.412 -1.0558 -0.8338  1.9433
  466TMC3    H1 6941   2.685   0.286  16.596  0.0457  0.9610  2.6122
  466TMC3    H2 6942   2.925   0.637  16.523 -0.6009  1.9542 -2.0789
  466TMC3    C7 6943   2.910   0.407  16.662 -0.0293  0.1894 -1.0751
  466TMC3    C8 6944   2.742   0.769  16.418  0.4708  0.7078 -0.4655
  466TMC3    O1 6945   3.013   0.474  16.666 -0.3770 -0.2313 -0.3405
  466TMC3    O2 6946   2.853   0.812  16.371 -0.1539  0.0460 -0.5040
  467TMC3    C1 6947   4.058   4.106  13.515  0.5559  0.6035  0.0527
  467TMC3    C2 6948   4.023   4.216  13.436 -0.8222 -0.3716  0.0228
  467TMC3    C3 6949   3.893   4.244  13.416 -0.4929  0.5912 -0.0961
  467TMC3    C4 6950   3.965   4.028  13.579 -0.5338  0.1605 -0.2819
  467TMC3    C5 6951   3.834   4.070  13.557  0.3446  0.7541 -0.3611
  467TMC3    C6 6952   3.789   4.170  13.471 -0.2585  0.1624 -0.2666
  467TMC3     C 6953   4.200   4.078  13.536  0.2378 -0.4731  0.3153
  467TMC3     O 6954   4.232   4.012  13.634  0.3470  0.0815  0.5440
  467TMC3     H 6955   4.095   4.274  13.379 -1.8660  0.5451 -0.3443
  467TMC3    H1 6956   3.978   3.942  13.644 -2.7798  0.5983  0.7419
  467TMC3    H2 6957   3.682   4.184  13.462 -0.4091 -0.4806  0.4810
  467TMC3    C7 6958   3.733   3.979  13.597  0.7562  0.1055 -0.1787
  467TMC3    C8 6959   3.866   4.357  13.335 -0.3105 -0.6049  0.1750
  467TMC3    O1 6960   3.763   3.864  13.584 -0.1180  0.1375 -0.2743
  467TMC3    O2 6961   3.950   4.446  13.331 -0.3424  0.1118  0.9643
  468MPD2     C 6962   2.569   1.878  10.203 -0.7292 -0.1167  0.2423
  468MPD2    C1 6963   2.677   1.950  10.248 -0.0827 -0.0195  0.4921
  468MPD2    C2 6964   2.754   1.908  10.357  0.7218  0.7537 -0.3679
  468MPD2    C3 6965   2.707   1.806  10.434 -0.4850 -0.2403  0.2352
  468MPD2    C4 6966   2.588   1.748  10.406 -0.5728 -0.4338  0.7248
  468MPD2    C5 6967   2.533   1.775  10.283  0.1689  0.3855 -1.0799
  468MPD2     H 6968   2.837   1.974  10.383  0.9605  0.0031  0.7703
  468MPD2    H1 6969   2.539   1.672  10.466  0.1539 -0.5575  1.1680
  468MPD2    H2 6970   2.518   1.902  10.111  0.8128 -1.1013 -0.8726
  468MPD2    H3 6971   2.447   1.716  10.252  0.0843 -0.6187  1.1053
  468MPD2     N 6972   2.773   1.782  10.556 -0.2015  0.4369 -0.3322
  468MPD2    H5 6973   2.717   1.726  10.619  0.8091 -0.3030 -0.0914
  468MPD2    N1 6974   2.726   2.074  10.184  0.9381  0.5785  0.5438
  468MPD2    H7 6975   2.798   2.121  10.238 -0.6148  1.4973  1.8176
  469TMC3    C1 6976   2.729   2.278  10.082 -0.7222  0.6281  0.5785
  469TMC3    C2 6977   2.818   2.297  10.187 -0.5187  0.0363  0.0219
  469TMC3    C3 6978   2.793   2.396  10.288  0.0177 -0.0749  0.1157
  469TMC3    C4 6979   2.627   2.368  10.073  0.4359  0.4292 -0.0966
  469TMC3    C5 6980   2.597   2.454  10.171  0.2007  0.5549  0.3960
  469TMC3    C6 6981   2.682   2.472  10.279 -1.1421 -0.3656  0.4378
  469TMC3     C 6982   2.680   2.143  10.079  0.1027  0.2121  0.1478
  469TMC3     O 6983   2.594   2.116   9.998 -0.2099  0.3952 -0.3602
  469TMC3     H 6984   2.913   2.246  10.178 -0.7777  0.1211 -3.1438
  469TMC3    H1 6985   2.563   2.356   9.986 -0.0900  1.6234  0.1148
  469TMC3    H2 6986   2.670   2.554  10.347 -4.1978  0.5779 -1.2518
  469TMC3    C7 6987   2.458   2.502  10.169 -0.0111  0.3636  0.1204
  469TMC3    C8 6988   2.842   2.372  10.417  0.3327  0.6407  0.2215
  469TMC3    O1 6989   2.379   2.448  10.094 -0.5532  0.2156 -0.7027
  469TMC3    O2 6990   2.771   2.405  10.510  0.0923 -0.0755  0.0911
  470TMC3    C1 6991   0.078   2.797   1.367  0.9095  0.3682 -0.4515
  470TMC3    C2 6992   0.153   2.870   1.456 -0.2122 -0.1297  0.3658
  470TMC3    C3 6993   0.080   2.938   1.548 -0.0050 -0.4565  0.6541
  470TMC3    C4 6994   4.664   2.802   1.363  0.2189 -0.1924  0.3123
  470TMC3    C5 6995   4.596   2.863   1.466  0.3326  0.1615  0.4889
  470TMC3    C6 6996   4.665   2.925   1.565 -0.1557  0.2847 -0.1062
  470TMC3     C 6997   0.142   2.752   1.247 -0.1866 -0.0161  0.1008
  470TMC3     O 6998   0.257   2.706   1.263 -0.3965 -0.0086 -0.0744
  470TMC3     H 6999   0.260   2.879   1.439  0.1783  1.4242  3.6777
  470TMC3    H1 7000   4.610   2.741   1.292 -0.7644 -0.1026  0.9774
  470TMC3    H2 7001   4.628   2.971   1.656 -2.0268  3.0625 -2.2806
  470TMC3    C7 7002   4.450   2.841   1.471 -0.0144  0.6993  0.4214
  470TMC3    C8 7003   0.134   3.063   1.609  0.3483  0.5819  0.7977
  470TMC3    O1 7004   4.399   2.760   1.395  0.2811 -0.3268  0.2629
  470TMC3    O2 7005   0.066   3.126   1.687 -1.1869  0.5662  0.1235
  471MPD2     C 7006   4.598   4.070  17.052 -0.5190  0.2332  0.0155
  471MPD2    C1 7007   0.004   4.116  17.063 -0.2526 -0.5244  0.9428
  471MPD2    C2 7008   0.072   4.093  17.181 -0.2432 -0.4841 -0.2930
  471MPD2    C3 7009   0.021   4.031  17.289  0.8070  0.2310 -0.0237
  471MPD2    C4 7010   4.619   3.981  17.272 -0.1921  0.2936  0.1661
  471MPD2    C5 7011   4.548   4.001  17.158  0.0165 -0.1001 -0.0786
  471MPD2     H 7012   0.170   4.138  17.192 -0.0511 -0.4657 -2.1674
  471MPD2    H1 7013   4.574   3.921  17.351  1.4527 -0.2274  0.6957
  471MPD2    H2 7014   4.542   4.087  16.961  0.1715 -0.6425 -0.5755
  471MPD2    H3 7015   4.447   3.962  17.149  1.2671 -3.0970 -1.3106
  471MPD2     N 7016   0.091   4.000  17.410  0.6955 -0.3538  0.2108
  471MPD2    H5 7017   0.034   3.954  17.479 -1.8833  1.8816 -0.4531
  471MPD2    N1 7018   0.078   4.174  16.960 -0.1425 -0.0610  0.5015
  471MPD2    H7 7019   0.170   4.209  16.981  0.1939  0.8303 -2.5007
  472TMC3    C1 7020   0.140   4.214  16.735  0.8691  0.5836  0.8786
  472TMC3    C2 7021   0.100   4.239  16.613 -0.3807  0.2321 -0.8397
  472TMC3    C3 7022   0.168   4.189  16.499 -0.8477 -0.0100 -0.5505
  472TMC3    C4 7023   0.254   4.140  16.752  0.6034  0.4008 -0.7023
  472TMC3    C5 7024   0.314   4.071  16.648  0.1983  0.0124  0.4129
  472TMC3    C6 7025   0.274   4.105  16.520 -0.0656  0.2514 -0.4452
  472TMC3     C 7026   0.038   4.176  16.827 -0.3043 -0.0205  0.0116
  472TMC3     O 7027   4.656   4.136  16.774 -0.7534 -0.0190 -0.6838
  472TMC3     H 7028   0.007   4.293  16.596 -1.5931 -1.7138 -0.4069
  472TMC3    H1 7029   0.281   4.103  16.850 -1.0598 -2.1483 -1.2181
  472TMC3    H2 7030   0.321   4.061  16.433 -0.8141  1.3563 -1.4198
  472TMC3    C7 7031   0.311   3.929  16.678 -0.3812  0.1656  0.6573
  472TMC3    C8 7032   0.086   4.122  16.398  0.7904  0.4482 -0.6361
  472TMC3    O1 7033   0.367   3.890  16.778 -0.2372 -0.0585 -0.6914
  472TMC3    O2 7034   0.125   4.105  16.285 -0.6777 -0.3228 -0.4126
  473MPD2     C 7035   0.843   1.694  14.626  0.8747 -0.2443 -0.1054
  473MPD2    C1 7036   0.803   1.748  14.504 -0.6313 -0.2345  0.2245
  473MPD2    C2 7037   0.844   1.878  14.471 -0.1312  0.5205 -0.4801
  473MPD2    C3 7038   0.932   1.950  14.552 -0.2969 -0.2260 -0.3240
  473MPD2    C4 7039   0.981   1.889  14.665  0.2631 -0.1242  0.1508
  473MPD2    C5 7040   0.930   1.768  14.700 -0.0184 -1.2310 -0.2113
  473MPD2     H 7041   0.802   1.926  14.383  2.2695  1.2382 -1.2286
  473MPD2    H1 7042   1.046   1.945  14.731  2.0404 -1.1326 -0.7231
  473MPD2    H2 7043   0.806   1.599  14.663  1.0050  0.0080  0.6809
  473MPD2    H3 7044   0.968   1.720  14.789  0.7136 -1.7917 -0.8314
  473MPD2     N 7045   0.968   2.084  14.527 -0.6316 -0.3568 -0.3074
  473MPD2    H5 7046   1.022   2.129  14.601  0.3209  0.7476 -1.6815
  473MPD2    N1 7047   0.720   1.671  14.409 -0.6835 -0.0835 -0.3481
  473MPD2    H7 7048   0.685   1.714  14.324  0.6447  1.4084 -0.1343
  474TMC3    C1 7049   0.955   2.300  14.416  0.4227 -0.2580  0.8379
  474TMC3    C2 7050   0.950   2.345  14.289 -0.5169 -0.2028 -0.6359
  474TMC3    C3 7051   0.932   2.477  14.273  0.2258  0.0325  0.4916
  474TMC3    C4 7052   0.924   2.372  14.530 -0.0429  0.2912 -0.1415
  474TMC3    C5 7053   0.901   2.508  14.504 -0.5590 -0.5957  0.4882
  474TMC3    C6 7054   0.911   2.559  14.379  0.2331  0.1815  0.5645
  474TMC3     C 7055   0.949   2.154  14.411 -0.5191  0.6648 -0.6790
  474TMC3     O 7056   0.931   2.102  14.300 -0.3487  0.1467  0.2945
  474TMC3     H 7057   0.986   2.290  14.203  2.8721  0.8216  0.1042
  474TMC3    H1 7058   0.930   2.342  14.634 -0.5531  1.1959  0.1511
  474TMC3    H2 7059   0.892   2.664  14.361 -1.4308  0.0041  1.2992
  474TMC3    C7 7060   0.964   2.606  14.595 -0.3715 -0.1956  0.0642
  474TMC3    C8 7061   0.998   2.539  14.157 -0.6238  0.1710 -0.2736
  474TMC3    O1 7062   1.025   2.693  14.540  0.0351  0.5476 -0.8110
  474TMC3    O2 7063   1.013   2.480  14.055  0.1575  0.2525  0.1850
  475MPD2     C 7064   4.042   4.359  10.561  0.2752  0.2850  0.2700
  475MPD2    C1 7065   4.057   4.470  10.644  1.0057 -0.2911 -0.2792
  475MPD2    C2 7066   3.954   4.524  10.716  0.1024 -0.3315  0.4326
  475MPD2    C3 7067   3.833   4.467  10.708  0.4913 -0.6786  0.1264
  475MPD2    C4 7068   3.818   4.358  10.619  1.2482 -0.2162 -0.3426
  475MPD2    C5 7069   3.919   4.308  10.543  0.2112 -0.3798 -0.5441
  475MPD2     H 7070   3.976   4.607  10.782 -2.5381 -0.5587  1.6179
  475MPD2    H1 7071   3.724   4.305  10.607  1.2073  0.4527 -2.9195
  475MPD2    H2 7072   4.126   4.311  10.512 -0.4811 -0.5053 -0.2746
  475MPD2    H3 7073   3.888   4.219  10.489 -1.4609 -0.6997  0.9394
  475MPD2     N 7074   3.727   4.531  10.787  0.2431 -0.0691 -0.1221
  475MPD2    H5 7075   3.752   4.626  10.815 -1.3101  0.7677 -1.6226
  475MPD2    N1 7076   4.187   4.533  10.648  0.3343  0.1039  0.4953
  475MPD2    H7 7077   4.195   4.608  10.716  0.1270 -0.5475  1.2362
  476TMC3    C1 7078   4.373   4.652  10.558  0.0037 -0.2732  0.4801
  476TMC3    C2 7079   4.341   0.024  10.463 -0.5060 -0.5846 -0.4673
  476TMC3    C3 7080   4.319   0.154  10.508  0.2776 -0.3191 -0.2082
  476TMC3    C4 7081   4.402   4.692  10.686  0.1401 -0.7388  0.6221
  476TMC3    C5 7082   4.381   0.104  10.718  0.1453  0.1925 -0.7610
  476TMC3    C6 7083   4.343   0.198  10.632  0.2376 -0.4325 -0.0945
  476TMC3     C 7084   4.275   4.542  10.542  0.1578  0.2411 -0.2148
  476TMC3     O 7085   4.257   4.514  10.424 -0.1341 -0.2749 -0.4998
  476TMC3     H 7086   4.318   0.008  10.359 -1.6620 -0.5901 -0.2107
  476TMC3    H1 7087   4.417   4.613  10.759 -0.6206 -0.8625  0.6470
  476TMC3    H2 7088   4.323   0.298  10.667  0.4276 -0.6770  0.7259
  476TMC3    C7 7089   4.306   0.106  10.846  0.1886  0.4063  0.0271
  476TMC3    C8 7090   4.212   0.227  10.437  0.1051  0.7164 -0.2573
  476TMC3    O1 7091   4.242   0.005  10.873 -0.0295 -0.0378 -0.0948
  476TMC3    O2 7092   4.197   0.346  10.460  0.2336  0.1995  1.2499
  477MPD2     C 7093   1.753   1.573  11.555 -0.0971 -0.1814 -0.2797
  477MPD2    C1 7094   1.641   1.496  11.525 -0.2492 -0.1473  0.1434
  477MPD2    C2 7095   1.603   1.396  11.615 -0.7358  0.6916 -0.2399
  477MPD2    C3 7096   1.673   1.380  11.739 -0.2533  0.0303 -0.3815
  477MPD2    C4 7097   1.789   1.448  11.760 -0.9238  0.2374  0.2346
  477MPD2    C5 7098   1.824   1.543  11.671  0.0483 -0.3700  0.4863
  477MPD2     H 7099   1.519   1.335  11.585  0.4288 -1.2074  0.3545
  477MPD2    H1 7100   1.849   1.429  11.848 -1.5358 -0.3390  0.5250
  477MPD2    H2 7101   1.799   1.643  11.486  0.0264 -0.5378 -0.5628
  477MPD2    H3 7102   1.915   1.600  11.682  1.6636 -3.2597  2.2236
  477MPD2     N 7103   1.623   1.278  11.826 -0.2406 -0.1457  0.4721
  477MPD2    H5 7104   1.542   1.226  11.794  0.0831 -0.9801  1.0090
  477MPD2    N1 7105   1.553   1.548  11.431  0.5595  0.1257  0.4269
  477MPD2    H7 7106   1.577   1.642  11.399  2.8214  0.4830  3.2095
  478TMC3    C1 7107   1.330   1.604  11.370 -0.1334 -0.0324 -0.1039
  478TMC3    C2 7108   1.339   1.737  11.417  0.2746 -0.4314  0.2434
  478TMC3    C3 7109   1.227   1.816  11.398  0.0213  0.4074  0.4775
  478TMC3    C4 7110   1.215   1.558  11.310  0.7147 -0.3846 -0.2925
  478TMC3    C5 7111   1.114   1.640  11.295  0.1639  0.5205 -0.3238
  478TMC3    C6 7112   1.111   1.769  11.346  0.7281  0.2560  0.4923
  478TMC3     C 7113   1.429   1.500  11.410 -0.3799  0.3939 -0.5855
  478TMC3     O 7114   1.396   1.382  11.409 -1.1466 -0.4461  0.5573
  478TMC3     H 7115   1.421   1.777  11.476  1.5948 -0.4509 -1.5833
  478TMC3    H1 7116   1.216   1.458  11.267 -2.2288 -0.5786  0.0797
  478TMC3    H2 7117   1.028   1.836  11.329 -0.8904 -1.6297  0.9453
  478TMC3    C7 7118   1.007   1.590  11.210  0.3674 -0.0274 -0.3740
  478TMC3    C8 7119   1.205   1.896  11.517 -0.1864  0.4218  0.5356
  478TMC3    O1 7120   0.983   1.471  11.235  0.2978 -0.2109  0.3751
  478TMC3    O2 7121   1.262   1.843  11.614  0.7387 -0.1252 -0.1584
  479MPD2     C 7122   0.538   3.958  15.730 -0.5494  0.6273  0.2113
  479MPD2    C1 7123   0.458   3.851  15.760 -0.1052  0.3252  0.6093
  479MPD2    C2 7124   0.412   3.842  15.885 -0.2288  0.2489  0.1529
  479MPD2    C3 7125   0.456   3.929  15.989  0.5169  0.7494  0.1506
  479MPD2    C4 7126   0.552   4.019  15.955  0.6697 -0.8041  1.1803
  479MPD2    C5 7127   0.591   4.038  15.828  0.3560  0.3756 -0.3928
  479MPD2     H 7128   0.353   3.758  15.921 -0.0177 -0.5309 -1.3201
  479MPD2    H1 7129   0.595   4.080  16.034  1.4548  1.8143 -1.2752
  479MPD2    H2 7130   0.556   3.980  15.625 -0.7169 -0.5558 -0.0604
  479MPD2    H3 7131   0.668   4.112  15.810 -0.0686  0.7033 -0.8635
  479MPD2     N 7132   0.416   3.927  16.127 -0.1294 -0.0636 -0.2402
  479MPD2    H5 7133   0.473   3.986  16.187 -2.4515  0.2813  1.6060
  479MPD2    N1 7134   0.396   3.780  15.651  0.2170  0.1504 -0.3512
  479MPD2    H7 7135   0.408   3.828  15.562 -1.5055  2.9717  0.9308
  480TMC3    C1 7136   0.007   3.691  16.095 -0.2131  0.1900  0.0871
  480TMC3    C2 7137   4.672   3.772  16.000 -0.1631 -0.0250  0.0241
  480TMC3    C3 7138   0.027   3.884  15.965 -0.2988  0.0552  0.1565
  480TMC3    C4 7139   0.132   3.707  16.149  0.0869 -0.2315 -0.7697
  480TMC3    C5 7140   0.199   3.810  16.106 -0.0911 -0.5077 -0.3073
  480TMC3    C6 7141   0.146   3.903  16.021  0.2096 -0.0236 -0.1730
  480TMC3     C 7142   4.655   3.572  16.136 -0.2190  0.6842  0.2518
  480TMC3     O 7143   0.001   3.477  16.175 -0.5601  0.0857 -0.2675
  480TMC3     H 7144   4.580   3.751  15.947 -0.3124  2.0282 -0.5328
  480TMC3    H1 7145   0.174   3.631  16.213 -0.3987 -0.3331 -0.5692
  480TMC3    H2 7146   0.208   3.979  15.976  0.4513  0.3898  0.8594
  480TMC3    C7 7147   0.320   3.845  16.185  0.0976 -0.1264  0.3188
  480TMC3    C8 7148   4.712   3.952  15.846  0.2484 -0.0410  0.6955
  480TMC3    O1 7149   0.300   3.828  16.305  0.3753 -0.0080 -0.4514
  480TMC3    O2 7150   4.595   3.983  15.824  0.8345 -0.4374 -0.4847
  481MPD2     C 7151   2.031   3.482  14.579  0.4676  0.0298 -0.1878
  481MPD2    C1 7152   1.923   3.403  14.591 -0.0546 -0.3642 -0.1167
  481MPD2    C2 7153   1.887   3.360  14.716 -0.2854  0.3977 -0.1119
  481MPD2    C3 7154   1.958   3.389  14.830  0.1592 -0.1841 -0.4703
  481MPD2    C4 7155   2.074   3.457  14.819  0.3258 -0.2925  0.1911
  481MPD2    C5 7156   2.102   3.505  14.692 -0.2445 -0.0141 -0.1473
  481MPD2     H 7157   1.792   3.309  14.728 -1.2265  1.8704 -1.2589
  481MPD2    H1 7158   2.144   3.477  14.899  0.0305  1.9259 -0.1080
  481MPD2    H2 7159   2.073   3.523  14.488  1.6194  0.1560  0.3999
  481MPD2    H3 7160   2.188   3.571  14.682  0.1179  0.1700  4.0642
  481MPD2     N 7161   1.928   3.353  14.965  0.7642 -0.8731  0.4407
  481MPD2    H5 7162   1.985   3.392  15.039 -1.0190  1.3982  0.6276
  481MPD2    N1 7163   1.859   3.371  14.472  0.4900  0.1872 -0.4568
  481MPD2    H7 7164   1.909   3.398  14.388 -0.2870  0.9805 -0.6572
  482TMC3    C1 7165   1.738   3.239  14.325 -0.0845 -0.4470  0.7871
  482TMC3    C2 7166   1.720   3.105  14.297  0.5804  0.2301  0.4848
  482TMC3    C3 7167   1.734   3.067  14.163  0.4185 -0.7184 -0.4376
  482TMC3    C4 7168   1.777   3.321  14.225  0.2278  0.0882  0.2492
  482TMC3    C5 7169   1.796   3.281  14.098 -0.3862  0.0181  0.5160
  482TMC3    C6 7170   1.770   3.153  14.062 -0.5287  0.1702  0.0043
  482TMC3     C 7171   1.757   3.281  14.456 -0.0674 -0.5444 -0.6823
  482TMC3     O 7172   1.698   3.222  14.549  0.7634  0.8002  0.5326
  482TMC3     H 7173   1.692   3.036  14.376 -0.6349  0.2482  0.0674
  482TMC3    H1 7174   1.795   3.424  14.255 -0.5383  0.2613  0.1175
  482TMC3    H2 7175   1.788   3.119  13.961 -0.9433  2.1771 -0.7433
  482TMC3    C7 7176   1.847   3.367  13.995  0.3693 -0.1342 -0.4482
  482TMC3    C8 7177   1.741   2.924  14.143  0.2335  0.1086  0.4318
  482TMC3    O1 7178   1.912   3.311  13.908 -0.3560  0.3160 -0.1850
  482TMC3    O2 7179   1.690   2.848  14.218 -0.0794  0.6363 -0.2720
  483TMC3    C1 7180   3.179   1.101   0.401  0.6392 -0.4463  0.0528
  483TMC3    C2 7181   3.231   1.207   0.340  0.1347  0.1969  0.2435
  483TMC3    C3 7182   3.273   1.315   0.413 -0.5149  0.1622  0.6999
  483TMC3    C4 7183   3.169   1.090   0.540  0.7807 -0.5909  0.7912
  483TMC3    C5 7184   3.200   1.205   0.615  0.7060  0.2127  0.1822
  483TMC3    C6 7185   3.245   1.319   0.549 -0.4118 -0.1570 -0.4101
  483TMC3     C 7186   3.119   0.998   0.313 -1.0066  0.1491 -0.8533
  483TMC3     O 7187   3.110   1.032   0.195  0.1856 -0.5635 -0.1213
  483TMC3     H 7188   3.243   1.208   0.233  0.5201 -1.3767  0.2691
  483TMC3    H1 7189   3.128   1.001   0.587 -0.7550 -0.4682 -0.3132
  483TMC3    H2 7190   3.272   1.404   0.610  1.7085  0.1310 -1.7291
  483TMC3    C7 7191   3.268   1.182   0.741 -0.1574 -0.7648 -1.3770
  483TMC3    C8 7192   3.389   1.393   0.363  0.0031  0.2271  0.3822
  483TMC3    O1 7193   3.287   1.275   0.821  0.2059 -0.0412  0.1933
  483TMC3    O2 7194   3.486   1.339   0.316  0.2020 -0.0651  0.2694
  484MPD2     C 7195   2.344   0.427  12.255 -0.6161 -0.8744  0.2773
  484MPD2    C1 7196   2.386   0.340  12.345 -0.0463 -0.3264  0.2009
  484MPD2    C2 7197   2.523   0.307  12.352  0.1708  0.9062 -0.0233
  484MPD2    C3 7198   2.616   0.385  12.283  1.2160  0.7223 -0.3554
  484MPD2    C4 7199   2.576   0.480  12.199 -0.0846  0.3930 -0.1933
  484MPD2    C5 7200   2.441   0.495  12.175 -0.6302 -0.2299 -0.1192
  484MPD2     H 7201   2.554   0.220  12.409 -0.4554  0.0875 -0.9571
  484MPD2    H1 7202   2.651   0.541  12.149 -0.6774  2.1585  1.0392
  484MPD2    H2 7203   2.239   0.441  12.230 -0.0088  3.4356  0.1451
  484MPD2    H3 7204   2.409   0.564  12.097  0.1084  1.9974  1.5501
  484MPD2     N 7205   2.756   0.368  12.295  0.6792  0.1467 -0.3621
  484MPD2    H5 7206   2.813   0.450  12.274  2.2385 -1.2360 -1.5039
  484MPD2    N1 7207   2.287   0.268  12.419 -0.1933 -0.2138  0.0698
  484MPD2    H7 7208   2.188   0.273  12.396 -0.5493 -1.2825  1.2755
  485TMC3    C1 7209   2.956   0.277  12.379  0.0371 -0.1779 -0.4214
  485TMC3    C2 7210   3.010   0.210  12.483  0.6994  0.5967 -1.2923
  485TMC3    C3 7211   3.145   0.238  12.496 -0.4345 -0.0337 -0.3620
  485TMC3    C4 7212   3.022   0.363  12.298 -0.1420  0.8514 -0.0525
  485TMC3    C5 7213   3.158   0.373  12.311 -0.4891 -0.0405 -0.5985
  485TMC3    C6 7214   3.217   0.316  12.409  0.0731  0.5815  0.2164
  485TMC3     C 7215   2.810   0.258  12.356  0.5178 -0.6345  0.2347
  485TMC3     O 7216   2.760   0.145  12.360 -0.2811 -0.4567  0.3267
  485TMC3     H 7217   2.945   0.155  12.551 -0.2446  0.7401 -2.0835
  485TMC3    H1 7218   2.975   0.397  12.206  2.1551  0.6142 -1.3137
  485TMC3    H2 7219   3.321   0.346  12.424  0.0503  1.3735 -1.2437
  485TMC3    C7 7220   3.230   0.337  12.191  0.0548 -0.3200 -0.3161
  485TMC3    C8 7221   3.224   0.125  12.546  0.2795 -0.2862 -0.8637
  485TMC3    O1 7222   3.188   0.378  12.085 -1.0091 -0.1698  0.4756
  485TMC3    O2 7223   3.323   0.112  12.474 -0.0868  0.1395  0.4492
  486MPD2     C 7224   4.148   3.687  13.236  0.4038 -1.1001  0.4718
  486MPD2    C1 7225   4.260   3.691  13.165 -0.2357 -0.7102  0.1721
  486MPD2    C2 7226   4.296   3.812  13.112  0.7141  0.1063  0.5578
  486MPD2    C3 7227   4.222   3.928  13.122  0.1180 -0.6063 -0.4086
  486MPD2    C4 7228   4.108   3.917  13.194 -0.6694 -0.5088 -0.1916
  486MPD2    C5 7229   4.084   3.802  13.263  0.2840 -0.7353  0.0568
  486MPD2     H 7230   4.392   3.814  13.061  0.2478  1.1268 -0.2780
  486MPD2    H1 7231   4.042   3.999  13.221  0.0835  0.3548 -1.0036
  486MPD2    H2 7232   4.114   3.599  13.290 -0.4653 -0.2492  1.3198
  486MPD2    H3 7233   4.008   3.813  13.340  0.3825 -0.2548  0.0859
  486MPD2     N 7234   4.264   4.038  13.053  0.1311  0.3450 -0.0600
  486MPD2    H5 7235   4.348   4.021  12.997  1.6016  1.4490  1.7946
  486MPD2    N1 7236   4.335   3.571  13.152  0.2182 -0.1199 -0.4878
  486MPD2    H7 7237   4.306   3.485  13.198  2.2822 -0.4232  0.2672
  487TMC3    C1 7238   4.514   3.436  13.092  0.3027 -0.0838 -0.4455
  487TMC3    C2 7239   4.450   3.326  13.152 -0.1712  0.1307  0.6032
  487TMC3    C3 7240   4.520   3.209  13.139  0.2579  0.1780  0.9116
  487TMC3    C4 7241   4.635   3.428  13.022 -0.3497 -0.2577  0.1064
  487TMC3    C5 7242   4.689   3.304  12.998 -0.2538 -0.7775 -0.1632
  487TMC3    C6 7243   4.624   3.190  13.050 -0.4496  0.3235  0.2808
  487TMC3     C 7244   4.452   3.563  13.085 -0.4522 -0.5475  0.2013
  487TMC3     O 7245   4.498   3.633  12.998  0.0319  0.3940  0.0151
  487TMC3     H 7246   4.372   3.343  13.226 -0.7030  1.3964 -0.2430
  487TMC3    H1 7247   4.679   3.516  12.977  0.7592 -1.4453 -1.1175
  487TMC3    H2 7248   4.680   3.098  13.037  1.7276  1.6178  0.3750
  487TMC3    C7 7249   0.107   3.294  13.017 -0.3429 -0.3278 -0.3321
  487TMC3    C8 7250   4.485   3.096  13.222  0.3392 -0.3923 -0.0043
  487TMC3    O1 7251   0.168   3.212  12.953 -0.2944 -0.1136  0.3136
  487TMC3    O2 7252   4.572   3.008  13.230  0.0345 -0.0605 -0.6083
  488MPD2     C 7253   4.710   0.698  16.371 -0.3651  0.0372 -0.2996
  488MPD2    C1 7254   4.675   0.829  16.369  0.7682 -0.0044  0.8004
  488MPD2    C2 7255   4.583   0.869  16.463  0.1389  0.6110  0.1029
  488MPD2    C3 7256   4.531   0.781  16.556 -0.5559 -0.2745 -0.0708
  488MPD2    C4 7257   4.581   0.649  16.564  1.1548 -0.0522 -0.0568
  488MPD2    C5 7258   4.670   0.615  16.472  0.5400 -0.3385 -0.4726
  488MPD2     H 7259   4.552   0.973  16.464  0.9143  0.8267  1.6189
  488MPD2    H1 7260   4.537   0.575  16.628 -0.3910  0.8455 -0.0878
  488MPD2    H2 7261   0.066   0.652  16.311 -0.1831  0.5696 -0.4726
  488MPD2    H3 7262   4.698   0.510  16.465  0.0426 -0.6476  2.2999
  488MPD2     N 7263   4.437   0.829  16.650  1.4409 -0.1389 -0.4960
  488MPD2    H5 7264   4.438   0.930  16.664 -0.2527 -0.2924  0.6930
  488MPD2    N1 7265   0.006   0.925  16.276 -0.4153  0.3561 -0.1471
  488MPD2    H7 7266   4.704   1.023  16.290  2.1193  0.9504  0.0162
  489TMC3    C1 7267   4.299   0.837  16.843  0.4491 -0.4788  0.5935
  489TMC3    C2 7268   4.276   0.970  16.815  0.4030  0.4860 -0.0528
  489TMC3    C3 7269   4.191   1.036  16.904 -0.3695  0.3049 -0.3576
  489TMC3    C4 7270   4.252   0.771  16.951  0.5778 -0.0612  0.1674
  489TMC3    C5 7271   4.186   0.846  17.046 -0.1626 -0.2199 -0.1033
  489TMC3    C6 7272   4.152   0.976  17.020  0.2245 -0.1722 -0.5774
  489TMC3     C 7273   4.377   0.757  16.749  0.1410 -0.0082 -0.3909
  489TMC3     O 7274   4.351   0.638  16.758  0.0655 -0.6460  0.1501
  489TMC3     H 7275   4.288   1.006  16.714  0.7322 -0.7915 -0.4600
  489TMC3    H1 7276   4.257   0.664  16.962  1.3548 -0.2111 -1.7380
  489TMC3    H2 7277   4.092   1.036  17.088  1.0334 -2.7739  2.3991
  489TMC3    C7 7278   4.128   0.784  17.165  0.5317 -0.0541 -0.1219
  489TMC3    C8 7279   4.151   1.170  16.877 -0.8657 -0.4868  0.3528
  489TMC3    O1 7280   4.024   0.833  17.206  0.0622 -0.9166  0.3586
  489TMC3    O2 7281   4.071   1.218  16.956  0.0115 -0.0699  0.2809
  490MPD2     C 7282   0.864   4.117   0.518 -0.4253  0.2765 -0.1314
  490MPD2    C1 7283   0.782   4.215   0.475 -0.9562  0.0137 -0.1887
  490MPD2    C2 7284   0.830   4.335   0.450 -0.0632  0.1826 -0.3070
  490MPD2    C3 7285   0.959   4.375   0.472 -0.0105 -0.1219 -0.6763
  490MPD2    C4 7286   1.049   4.275   0.516 -0.1726  0.6697  0.4104
  490MPD2    C5 7287   1.000   4.146   0.547  0.1124 -0.0075  0.3229
  490MPD2     H 7288   0.749   4.404   0.430 -0.7723  0.3279  2.9665
  490MPD2    H1 7289   1.153   4.293   0.539 -0.0345 -1.3720  1.4422
  490MPD2    H2 7290   0.838   4.015   0.543 -0.1407 -0.2255 -1.8353
  490MPD2    H3 7291   1.065   4.065   0.575  0.2621  0.8718  2.5059
  490MPD2     N 7292   1.012   4.502   0.456  0.0478 -0.3285  0.7190
  490MPD2    H5 7293   1.112   4.516   0.469  0.2835  1.1983 -2.6744
  490MPD2    N1 7294   0.643   4.196   0.454 -0.0629  0.0978 -0.1772
  490MPD2    H7 7295   0.592   4.264   0.398 -0.0731 -0.4632 -0.8437
  491TMC3    C1 7296   0.436   4.099   0.480  1.2896  0.2107  0.2444
  491TMC3    C2 7297   0.345   4.105   0.587  0.5974 -0.0757 -0.1271
  491TMC3    C3 7298   0.220   4.165   0.571 -0.3143 -0.2076  0.1292
  491TMC3    C4 7299   0.412   4.153   0.356 -0.7282  0.5742  1.0172
  491TMC3    C5 7300   0.283   4.209   0.344 -0.0718  0.8628  0.2394
  491TMC3    C6 7301   0.191   4.215   0.448  0.4373  0.2993 -0.8455
  491TMC3     C 7302   0.578   4.096   0.520 -0.3102 -0.2384 -0.6829
  491TMC3     O 7303   0.610   4.043   0.626 -0.3846  0.0290 -0.1710
  491TMC3     H 7304   0.379   4.079   0.686  1.1668 -1.7979 -0.7713
  491TMC3    H1 7305   0.480   4.154   0.272  1.0996 -1.8649  2.4795
  491TMC3    H2 7306   0.097   4.267   0.434 -0.9965 -1.5153  2.0484
  491TMC3    C7 7307   0.242   4.260   0.215  0.5328  0.0747  0.0622
  491TMC3    C8 7308   0.132   4.195   0.689  0.2729 -0.3771  0.7675
  491TMC3    O1 7309   0.122   4.264   0.201  0.3794  0.1440  0.2005
  491TMC3    O2 7310   0.082   4.309   0.691 -0.0098  0.5369 -0.0005
  492MPD2     C 7311   1.263   0.355  11.276 -0.4585 -0.2255  0.5276
  492MPD2    C1 7312   1.130   0.361  11.241  0.1810  0.4446 -0.1361
  492MPD2    C2 7313   1.042   0.288  11.309  0.1891 -0.5643  0.5432
  492MPD2    C3 7314   1.085   0.223  11.423  0.4504  0.0446 -0.1972
  492MPD2    C4 7315   1.213   0.219  11.464 -0.0377  0.2547 -0.2175
  492MPD2    C5 7316   1.304   0.275  11.378  0.0029 -0.5477 -0.5297
  492MPD2     H 7317   0.940   0.297  11.275 -0.3472 -1.7256  1.8688
  492MPD2    H1 7318   1.240   0.159  11.550 -2.1718 -1.9227 -1.0985
  492MPD2    H2 7319   1.336   0.398  11.209 -0.4144  0.5460  1.0633
  492MPD2    H3 7320   1.409   0.272  11.403 -0.0628  0.2554 -0.1439
  492MPD2     N 7321   1.000   0.149  11.508 -0.1855  0.2160 -0.3125
  492MPD2    H5 7322   1.040   0.128  11.598  0.6411  0.5308 -0.6101
  492MPD2    N1 7323   1.100   0.454  11.144  0.1229 -0.2890  0.3851
  492MPD2    H7 7324   1.178   0.509  11.110  2.6006 -1.9103  3.4435
  493TMC3    C1 7325   0.958   0.582  11.004  0.2082  0.7716  0.0446
  493TMC3    C2 7326   1.039   0.689  11.041  0.4631 -0.1452 -0.8191
  493TMC3    C3 7327   1.021   0.813  10.975 -1.4556 -0.2863  0.2494
  493TMC3    C4 7328   0.854   0.598  10.913 -0.5835  0.0651  0.0732
  493TMC3    C5 7329   0.847   0.723  10.849 -0.3081 -0.2913  0.2877
  493TMC3    C6 7330   0.926   0.832  10.875 -0.0091  0.1334  0.0273
  493TMC3     C 7331   0.968   0.458  11.082  0.1440  0.3458  0.1231
  493TMC3     O 7332   0.870   0.385  11.084  0.6389 -0.0022 -0.0115
  493TMC3     H 7333   1.107   0.689  11.125  0.7226 -0.8784 -1.0315
  493TMC3    H1 7334   0.799   0.512  10.876 -1.4050  0.2714  0.8172
  493TMC3    H2 7335   0.910   0.924  10.821  1.8561  1.1196  1.1835
  493TMC3    C7 7336   0.773   0.727  10.724 -1.0468 -0.7518  0.3650
  493TMC3    C8 7337   1.142   0.898  10.963 -0.1689 -0.0315 -0.3259
  493TMC3    O1 7338   0.806   0.815  10.646 -0.1657  0.4847 -0.0896
  493TMC3    O2 7339   1.223   0.899  11.055 -0.2386  0.1170 -0.0168
  494TMC3    C1 7340   0.795   2.101   0.124 -0.2800  0.1618 -0.2860
  494TMC3    C2 7341   0.793   1.977   0.186 -0.5983 -0.2272 -0.4912
  494TMC3    C3 7342   0.867   1.874   0.129 -0.1469  0.4064 -0.1103
  494TMC3    C4 7343   0.883   2.128   0.026 -0.5996 -0.5365  0.4747
  494TMC3    C5 7344   0.958   2.022  17.657 -0.7343  0.2975  0.3396
  494TMC3    C6 7345   0.951   1.896   0.023 -0.0665  0.6800  0.2412
  494TMC3     C 7346   0.699   2.200   0.175 -0.2285 -0.2231  0.6677
  494TMC3     O 7347   0.646   2.177   0.283  0.1833  0.8258  0.0821
  494TMC3     H 7348   0.734   1.959   0.274  2.2548  0.4701  1.5744
  494TMC3    H1 7349   0.902   2.228  17.675  0.9890 -1.6062 -1.5493
  494TMC3    H2 7350   1.005   1.807  17.681  1.4915  1.8345 -0.4315
  494TMC3    C7 7351   1.047   2.047  17.541  0.0563 -0.0188  0.7618
  494TMC3    C8 7352   0.834   1.741   0.175 -0.1732  1.0265  0.4738
  494TMC3    O1 7353   1.154   1.986  17.521  0.0164 -0.0748  0.3010
  494TMC3    O2 7354   0.919   1.682   0.242 -0.3843 -0.1255  0.2372
  495TMC3    C1 7355   0.720   4.036  15.137 -0.6269 -0.1157  0.6354
  495TMC3    C2 7356   0.704   4.144  15.053 -0.2416 -0.2838  0.0791
  495TMC3    C3 7357   0.590   4.219  15.071  0.0487  0.1507 -0.4427
  495TMC3    C4 7358   0.624   4.021  15.242 -0.6926 -0.0861  0.2641
  495TMC3    C5 7359   0.529   4.112  15.265 -0.1285 -0.4320  0.1062
  495TMC3    C6 7360   0.511   4.216  15.180 -0.2135  0.2598  0.4719
  495TMC3     C 7361   0.746   3.913  15.072  0.1054 -0.6688  0.5543
  495TMC3     O 7362   0.657   3.833  15.069  0.2694 -0.2792 -0.3912
  495TMC3     H 7363   0.782   4.169  14.982  2.0474 -0.5914  2.4652
  495TMC3    H1 7364   0.637   3.942  15.315  0.7515 -0.3354 -0.2514
  495TMC3    H2 7365   0.438   4.294  15.196  0.1894  0.6886  0.2210
  495TMC3    C7 7366   0.434   4.092  15.372  1.0884  0.0905  0.1320
  495TMC3    C8 7367   0.509   4.212  14.951 -0.2211  0.7280 -0.8455
  495TMC3    O1 7368   0.446   3.989  15.434  0.1519 -0.2197 -0.2178
  495TMC3    O2 7369   0.412   4.285  14.946 -0.1113 -0.2494  0.2506
  496MPD2     C 7370   2.329   4.222  15.193 -0.1566  0.3592 -0.3438
  496MPD2    C1 7371   2.402   4.217  15.309 -0.1224 -0.2054  0.1421
  496MPD2    C2 7372   2.334   4.250  15.429  0.5972  0.0450 -0.0185
  496MPD2    C3 7373   2.201   4.296  15.422 -0.4624 -0.2560  0.0253
  496MPD2    C4 7374   2.131   4.293  15.314 -0.0837 -0.7549 -0.3063
  496MPD2    C5 7375   2.197   4.260  15.199  0.1692  0.5970  0.1920
  496MPD2     H 7376   2.383   4.248  15.525  0.8883  0.4421 -0.1574
  496MPD2    H1 7377   2.027   4.321  15.321  0.7681  2.1985  0.4717
  496MPD2    H2 7378   2.376   4.199  15.099  1.0921  1.0035  0.1304
  496MPD2    H3 7379   2.141   4.268  15.107 -1.4734  1.1652  1.2260
  496MPD2     N 7380   2.123   4.329  15.535  0.7705 -0.1103  0.1700
  496MPD2    H5 7381   2.028   4.352  15.510  0.6153 -0.8343  0.1041
  496MPD2    N1 7382   2.534   4.173  15.307 -0.3065 -0.2594  0.0387
  496MPD2    H7 7383   2.579   4.171  15.216 -1.7226 -1.2882 -0.6539
  497TMC3    C1 7384   2.053   4.362  15.761 -0.4681  0.3952  0.4316
  497TMC3    C2 7385   1.943   4.438  15.719  0.5746  0.2413  0.2714
  497TMC3    C3 7386   1.860   4.487  15.815 -0.3240  0.7962  0.1133
  497TMC3    C4 7387   2.067   4.319  15.888  0.2554  1.2900  0.2176
  497TMC3    C5 7388   1.971   4.361  15.977  0.0184  0.1487  1.1798
  497TMC3    C6 7389   1.871   4.443  15.943  0.9157 -0.7379  0.4737
  497TMC3     C 7390   2.168   4.342  15.665 -0.0225  0.5065 -0.9003
  497TMC3     O 7391   2.271   4.313  15.712  0.0736  0.3618  0.1099
  497TMC3     H 7392   1.938   4.479  15.619  0.6937 -3.3682 -1.2064
  497TMC3    H1 7393   2.152   4.256  15.912  0.3122  1.7273  1.1746
  497TMC3    H2 7394   1.812   4.487  16.022 -0.5073 -2.0173  0.1151
  497TMC3    C7 7395   1.963   4.301  16.103 -0.4470  0.0476 -0.4657
  497TMC3    C8 7396   1.729   4.514  15.757  0.0659 -0.5722  0.1773
  497TMC3    O1 7397   1.851   4.317  16.148  0.6898  0.1406 -0.0822
  497TMC3    O2 7398   1.720   4.508  15.634 -0.6202 -0.4063  0.1551
  498MPD2     C 7399   3.487   4.445  10.082  0.3161  0.3458  0.2106
  498MPD2    C1 7400   3.419   4.544  10.145 -0.1375 -0.1497 -0.8324
  498MPD2    C2 7401   3.302   4.518  10.218  0.2860  0.5287 -0.1113
  498MPD2    C3 7402   3.239   4.397  10.200 -0.5266  0.4316 -0.0799
  498MPD2    C4 7403   3.298   4.302  10.117  0.2919  0.2705  0.3947
  498MPD2    C5 7404   3.424   4.320  10.067  0.2824  0.5332  0.0161
  498MPD2     H 7405   3.263   4.601  10.276  4.5870  2.8211 -0.4968
  498MPD2    H1 7406   3.249   4.206  10.109  0.0625  0.0735  3.9839
  498MPD2    H2 7407   3.577   4.455  10.023  0.7037  1.4870  0.9896
  498MPD2    H3 7408   3.465   4.245  10.001  1.3386  1.2349 -0.1249
  498MPD2     N 7409   3.123   4.372  10.275  0.1527  0.3882  0.3930
  498MPD2    H5 7410   3.088   4.435  10.347  0.9346  1.4424 -0.1385
  498MPD2    N1 7411   3.463   4.677  10.158  0.2809  0.4176  0.0403
  498MPD2    H7 7412   3.401   0.012  10.215 -3.1329 -0.4194 -2.9170
  499TMC3    C1 7413   3.588   0.152  10.135 -0.6797 -0.4003 -0.1143
  499TMC3    C2 7414   3.707   0.218  10.132  0.8283 -0.1761  0.1264
  499TMC3    C3 7415   3.707   0.356  10.122  1.0260  0.1644  0.4059
  499TMC3    C4 7416   3.468   0.223  10.121 -0.2461  0.3632  0.6366
  499TMC3    C5 7417   3.476   0.362  10.119  0.4990 -0.4165 -0.4702
  499TMC3    C6 7418   3.594   0.430  10.117 -0.4883  0.3504 -0.2320
  499TMC3     C 7419   3.581   0.009  10.110  0.1227  0.6088  0.2540
  499TMC3     O 7420   3.673   4.682  10.048  0.0100 -0.2092  0.1611
  499TMC3     H 7421   3.793   0.153  10.128  0.0678 -0.9568 -3.9539
  499TMC3    H1 7422   3.373   0.171  10.115 -0.2033  0.1500  1.7567
  499TMC3    H2 7423   3.596   0.539  10.120 -1.1514  0.3836 -0.9771
  499TMC3    C7 7424   3.372   0.428  10.047  0.6594 -0.4419 -0.5712
  499TMC3    C8 7425   3.819   0.427  10.063  0.4950 -0.9137 -0.6180
  499TMC3    O1 7426   3.405   0.528   9.984 -0.5810 -0.2880  0.3997
  499TMC3    O2 7427   3.795   0.543  10.035 -0.3556 -0.6166 -0.1898
  500MPD2     C 7428   4.698   0.886  10.023  0.0531  0.3134  0.4455
  500MPD2    C1 7429   4.643   0.966  10.121  0.3225 -0.2073 -0.6476
  500MPD2    C2 7430   4.503   0.952  10.150 -0.6113  0.0621 -0.5471
  500MPD2    C3 7431   4.434   0.841  10.088 -0.3598 -0.2828 -0.7122
  500MPD2    C4 7432   4.497   0.766   9.991 -0.1210  0.6841  0.6019
  500MPD2    C5 7433   4.626   0.792   9.963 -0.5669  0.0643  0.2633
  500MPD2     H 7434   4.464   1.017  10.227 -0.1988 -0.5308  0.1603
  500MPD2    H1 7435   4.447   0.684   9.941 -1.1219  1.0307  1.0239
  500MPD2    H2 7436   0.080   0.886   9.991 -1.2297  1.5587 -3.6809
  500MPD2    H3 7437   4.673   0.718   9.899 -1.4877 -1.5060  1.4098
  500MPD2     N 7438   4.296   0.818  10.097  0.1483 -0.0308 -0.6014
  500MPD2    H5 7439   4.250   0.754  10.033  3.0549 -0.8537 -1.8932
  500MPD2    N1 7440   4.718   1.063  10.194  0.5299  0.1390 -0.4691
  500MPD2    H7 7441   4.664   1.097  10.272  1.2005  1.0291 -0.3967
  501TMC3    C1 7442   0.175   1.193  10.262  0.2609  0.1679 -0.2701
  501TMC3    C2 7443   0.261   1.292  10.218 -0.0212 -0.1100  0.1831
  501TMC3    C3 7444   0.347   1.340  10.312 -0.5907  0.3675  0.0217
  501TMC3    C4 7445   0.151   1.178  10.399  0.9028  0.8676 -0.0499
  501TMC3    C5 7446   0.230   1.245  10.484  0.0140 -0.4004 -0.1441
  501TMC3    C6 7447   0.330   1.329  10.445  0.0512 -0.0925 -0.2740
  501TMC3     C 7448   0.119   1.110  10.155  0.0558 -0.2413  0.5999
  501TMC3     O 7449   0.181   1.097  10.053 -0.5130  0.5670 -0.1370
  501TMC3     H 7450   0.284   1.302  10.112 -1.9978  0.3767 -0.1953
  501TMC3    H1 7451   0.103   1.088  10.435  0.7973  0.7857 -0.3966
  501TMC3    H2 7452   0.405   1.368  10.513 -1.1650  1.1265  0.3822
  501TMC3    C7 7453   0.237   1.205  10.621 -0.0084 -0.4454 -0.2107
  501TMC3    C8 7454   0.386   1.474  10.285  0.2988 -0.4896  0.6834
  501TMC3    O1 7455   0.342   1.220  10.683 -0.1048 -0.7386 -0.3051
  501TMC3    O2 7456   0.496   1.508  10.321 -0.4182 -0.2733  0.2407
  502TMC3    C1 7457   4.626   0.247  15.387 -0.4347  0.6408  0.1443
  502TMC3    C2 7458   4.644   0.351  15.300 -0.3137 -0.6685 -0.1944
  502TMC3    C3 7459   4.534   0.373  15.224  0.2148 -0.0274 -0.4515
  502TMC3    C4 7460   4.520   0.165  15.397  0.0798  0.4545 -0.5419
  502TMC3    C5 7461   4.410   0.200  15.327  0.0597  0.6400  0.7160
  502TMC3    C6 7462   4.412   0.309  15.241  0.0796  0.6033  0.0056
  502TMC3     C 7463   4.719   0.243  15.498 -0.3326 -0.9316  0.2077
  502TMC3     O 7464   0.119   0.254  15.479 -0.7763  0.2916 -0.3178
  502TMC3     H 7465   0.017   0.404  15.292 -0.6914 -0.0066 -0.2034
  502TMC3    H1 7466   4.505   0.076  15.457  0.7858  0.4206 -0.4128
  502TMC3    H2 7467   4.326   0.354  15.194  0.9346  2.4999  0.2271
  502TMC3    C7 7468   4.285   0.161  15.397 -1.1643 -0.0725 -0.1604
  502TMC3    C8 7469   4.554   0.445  15.100  0.3145 -0.5421 -0.2592
  502TMC3    O1 7470   4.300   0.110  15.507 -0.3163 -0.1131 -0.1296
  502TMC3    O2 7471   4.638   0.535  15.095  0.2043  0.6638 -0.2107
  503MPD2     C 7472   1.586   0.678  16.796 -1.1461 -0.0099  0.2135
  503MPD2    C1 7473   1.595   0.708  16.936  1.4618 -0.3387 -0.4692
  503MPD2    C2 7474   1.669   0.626  17.021 -0.0821  0.1643  0.3155
  503MPD2    C3 7475   1.740   0.521  16.968 -1.1190 -0.1833 -0.1769
  503MPD2    C4 7476   1.741   0.503  16.828  0.6966 -0.0247  0.0394
  503MPD2    C5 7477   1.661   0.575  16.747 -0.2054 -0.1087 -0.2983
  503MPD2     H 7478   1.676   0.664  17.123  0.6734 -1.5694  0.9163
  503MPD2    H1 7479   1.799   0.424  16.781  1.6371  0.2076  0.8287
  503MPD2    H2 7480   1.544   0.747  16.723  4.5630  1.8338 -1.2918
  503MPD2    H3 7481   1.651   0.540  16.645  1.7659 -0.1673 -0.4723
  503MPD2     N 7482   1.800   0.429  17.057  0.2594  0.2309 -0.2788
  503MPD2    H5 7483   1.782   0.436  17.156  1.4415 -1.5206  0.0585
  503MPD2    N1 7484   1.521   0.814  16.999 -0.6552  0.0552  0.0527
  503MPD2    H7 7485   1.543   0.834  17.096  1.9992  2.2775 -1.0177
  504TMC3    C1 7486   1.950   0.255  17.134 -0.1365 -0.1538 -0.7990
  504TMC3    C2 7487   1.882   0.235  17.248  0.1224  0.1769  0.2672
  504TMC3    C3 7488   1.921   0.142  17.337 -0.2737 -0.3996  0.4877
  504TMC3    C4 7489   2.069   0.194  17.109 -0.5388  0.1998  0.1558
  504TMC3    C5 7490   2.120   0.115  17.211  0.6315  0.0758 -0.1226
  504TMC3    C6 7491   2.049   0.088  17.325 -0.8477  0.7617 -0.3231
  504TMC3     C 7492   1.884   0.325  17.018 -0.9691 -0.2271 -0.2680
  504TMC3     O 7493   1.925   0.292  16.911  0.4185  0.1866 -0.9096
  504TMC3     H 7494   1.782   0.278  17.248  0.0223 -0.0618  0.8220
  504TMC3    H1 7495   2.127   0.219  17.020  0.2072 -0.1112  0.5595
  504TMC3    H2 7496   2.087   0.028  17.407 -3.7693 -1.3019 -0.4684
  504TMC3    C7 7497   2.254   0.068  17.190  0.0952 -0.2463  0.2109
  504TMC3    C8 7498   1.853   0.149  17.465 -0.8967  0.5317  0.1328
  504TMC3    O1 7499   2.304   0.097  17.086 -0.1045  0.3643  0.1405
  504TMC3    O2 7500   1.809   0.260  17.489 -0.0967 -0.2078 -0.3499
  505MPD2     C 7501   2.163   4.136  11.326 -0.2713  0.8050  0.3647
  505MPD2    C1 7502   2.255   4.040  11.340 -0.3715 -0.2972 -0.1026
  505MPD2    C2 7503   2.383   4.073  11.392 -0.3728 -0.7602  0.2340
  505MPD2    C3 7504   2.413   4.201  11.424 -0.6011 -0.2399  0.0726
  505MPD2    C4 7505   2.313   4.298  11.401  0.1690 -0.0241  0.5738
  505MPD2    C5 7506   2.193   4.265  11.356  0.5247  0.2241  0.3232
  505MPD2     H 7507   2.467   4.004  11.395 -0.1841 -0.3986  3.0734
  505MPD2    H1 7508   2.331   4.403  11.420  0.5465 -0.0581  0.3963
  505MPD2    H2 7509   2.062   4.105  11.302  1.2333 -0.7496 -3.8341
  505MPD2    H3 7510   2.119   4.342  11.336  0.5609  0.3723  0.7492
  505MPD2     N 7511   2.539   4.222  11.467 -0.2671  0.3112  0.6278
  505MPD2    H5 7512   2.599   4.141  11.477 -0.9104 -0.3361 -0.7977
  505MPD2    N1 7513   2.221   3.910  11.292 -0.2196 -0.0022  0.6312
  505MPD2    H7 7514   2.132   3.886  11.252 -0.3275 -0.9691  1.4543
  506TMC3    C1 7515   2.291   3.717  11.204 -0.1865  0.7199  0.0024
  506TMC3    C2 7516   2.243   3.760  11.077  0.7004 -0.6279  0.4155
  506TMC3    C3 7517   2.288   3.699  10.961  0.6159  0.8631 -0.8775
  506TMC3    C4 7518   2.373   3.611  11.210 -0.0473 -0.2077 -0.6819
  506TMC3    C5 7519   2.419   3.556  11.093  0.2735 -0.4353 -0.1209
  506TMC3    C6 7520   2.374   3.598  10.970  0.0996  0.3261 -0.1655
  506TMC3     C 7521   2.311   3.806  11.313  0.3240  1.0272 -0.4638
  506TMC3     O 7522   2.415   3.793  11.375  0.4252  0.2143 -0.6037
  506TMC3     H 7523   2.167   3.837  11.068  1.1002 -0.0367  2.0687
  506TMC3    H1 7524   2.423   3.577  11.300 -0.8191 -1.9823 -0.9220
  506TMC3    H2 7525   2.443   3.583  10.888  1.3286  1.2548  0.7001
  506TMC3    C7 7526   2.567   3.557  11.090  0.4958 -0.8477  0.0121
  506TMC3    C8 7527   2.324   3.789  10.856  0.2115 -0.1891 -0.5519
  506TMC3    O1 7528   2.627   3.506  10.995  0.8372 -0.1285 -0.7296
  506TMC3    O2 7529   2.364   3.900  10.887 -0.5649  0.3507  0.6876
  507TMC3    C1 7530   3.038   0.395  14.647  0.6607  0.3827  0.2007
  507TMC3    C2 7531   2.991   0.392  14.519  0.1816 -0.1878 -0.4573
  507TMC3    C3 7532   3.022   0.498  14.442  0.7497 -0.3396 -0.0847
  507TMC3    C4 7533   3.120   0.500  14.694 -0.2108  0.3674  0.6249
  507TMC3    C5 7534   3.159   0.599  14.606  0.6121  0.1288 -0.6990
  507TMC3    C6 7535   3.112   0.594  14.476  0.0923 -0.8607 -0.4304
  507TMC3     C 7536   2.975   0.308  14.745  0.9599 -0.4254 -0.2209
  507TMC3     O 7537   2.944   0.197  14.702 -0.3930  0.3012  0.3247
  507TMC3     H 7538   2.909   0.323  14.503  0.5100 -0.5449 -0.6007
  507TMC3    H1 7539   3.158   0.499  14.795  0.1799  0.5436  0.4783
  507TMC3    H2 7540   3.134   0.667  14.399  0.8180 -1.7517 -1.0714
  507TMC3    C7 7541   3.171   0.734  14.675  0.6636 -0.0304 -0.0803
  507TMC3    C8 7542   2.907   0.581  14.400  0.4734  0.2817 -0.1977
  507TMC3    O1 7543   3.192   0.730  14.794 -0.0044  0.6620  0.3617
  507TMC3    O2 7544   2.912   0.697  14.432 -0.1527 -0.3330  0.5083
  508MPD2     C 7545   2.976   2.739  16.027  0.2128 -0.2201  0.4751
  508MPD2    C1 7546   3.107   2.752  16.051 -0.2747 -0.4553 -0.2616
  508MPD2    C2 7547   3.183   2.824  15.965  0.4199 -0.4543 -0.3803
  508MPD2    C3 7548   3.131   2.900  15.861  0.6080 -0.1891 -0.2707
  508MPD2    C4 7549   2.991   2.899  15.848  0.3173 -0.1306  0.0205
  508MPD2    C5 7550   2.913   2.816  15.933 -0.3623 -0.5508 -0.2160
  508MPD2     H 7551   3.290   2.824  15.982  0.5485  2.3550 -1.1691
  508MPD2    H1 7552   2.944   2.966  15.777 -1.4665 -0.4715  0.8704
  508MPD2    H2 7553   2.915   2.682  16.095 -1.4609 -0.8536 -1.5618
  508MPD2    H3 7554   2.805   2.804  15.922 -0.6899 -0.3669  2.8411
  508MPD2     N 7555   3.219   2.983  15.791  0.3920 -0.3156  0.4787
  508MPD2    H5 7556   3.315   2.975  15.823  0.4962  1.4460  0.5662
  508MPD2    N1 7557   3.157   2.684  16.162  0.0770 -0.1539 -0.0956
  508MPD2    H7 7558   3.088   2.633  16.215  0.3145 -1.3870 -0.9726
  509TMC3    C1 7559   3.345   3.345  15.516  0.2972 -0.5008  0.2190
  509TMC3    C2 7560   3.463   3.358  15.588  0.4973  0.3397 -1.0559
  509TMC3    C3 7561   3.472   3.280  15.699  0.0028  0.1112  0.0691
  509TMC3    C4 7562   3.249   3.250  15.547 -0.2016  0.3041  0.2976
  509TMC3    C5 7563   3.275   3.161  15.647  0.1025  0.0713 -1.0073
  509TMC3    C6 7564   3.389   3.169  15.721  0.1225  0.6521 -0.2749
  509TMC3     C 7565   3.314   3.424  15.401  0.2016  0.0732  0.2337
  509TMC3     O 7566   3.211   3.398  15.339  0.0808 -0.1159 -0.5771
  509TMC3     H 7567   3.544   3.423  15.555  0.3940  1.1161  0.2144
  509TMC3    H1 7568   3.156   3.247  15.491  0.2444 -2.3742 -0.2941
  509TMC3    H2 7569   3.419   3.107  15.804 -0.8942  0.7150  0.1462
  509TMC3    C7 7570   3.181   3.054  15.682  0.4480 -0.0949  0.0386
  509TMC3    C8 7571   3.592   3.284  15.784 -0.2414  0.4958 -0.5781
  509TMC3    O1 7572   3.074   3.056  15.622 -0.1016  0.2237 -0.2808
  509TMC3    O2 7573   3.639   3.183  15.828  0.2975 -0.4354 -0.0281
  510MPD2     C 7574   2.000   4.527  14.591  0.0531  0.1922 -0.2755
  510MPD2    C1 7575   2.048   4.413  14.642  0.7960  0.3456 -0.6260
  510MPD2    C2 7576   2.177   4.379  14.597  0.8721  0.7258 -0.0221
  510MPD2    C3 7577   2.235   4.433  14.485  0.3213 -0.0266  0.3907
  510MPD2    C4 7578   2.182   4.553  14.441 -0.8306 -0.0490 -0.0284
  510MPD2    C5 7579   2.069   4.598  14.495 -0.0357  0.7619  0.9256
  510MPD2     H 7580   2.224   4.303  14.658 -0.5050  0.5980  0.8979
  510MPD2    H1 7581   2.229   4.620  14.370 -0.4942 -0.2172  0.0304
  510MPD2    H2 7582   1.910   4.574  14.630  0.4541 -0.4649  1.4197
  510MPD2    H3 7583   2.029   4.694  14.464  0.4569 -0.1038 -2.4976
  510MPD2     N 7584   2.363   4.385  14.451 -0.4298  0.0148 -0.7596
  510MPD2    H5 7585   2.399   4.321  14.520 -0.6635 -0.3786 -1.0013
  510MPD2    N1 7586   1.978   4.338  14.738 -0.5980  0.3083  0.1519
  510MPD2    H7 7587   1.887   4.375  14.761 -0.6880  0.7937 -0.9812
  511TMC3    C1 7588   1.954   4.193  14.933 -0.5484  0.5217 -0.1702
  511TMC3    C2 7589   1.879   4.294  14.994 -0.3815 -0.6470 -0.0024
  511TMC3    C3 7590   1.815   4.260  15.111  0.6703 -1.0199 -0.4787
  511TMC3    C4 7591   1.965   4.072  14.983 -0.5728  0.7412  0.2357
  511TMC3    C5 7592   1.901   4.036  15.097  0.0523 -0.1676 -0.4471
  511TMC3    C6 7593   1.823   4.130  15.167  0.1398 -0.1437  0.2451
  511TMC3     C 7594   2.031   4.228  14.813  0.2977 -0.4760  0.7164
  511TMC3     O 7595   2.122   4.152  14.785 -0.4540 -0.3944  0.1397
  511TMC3     H 7596   1.872   4.394  14.952  1.7028 -1.0315 -1.2090
  511TMC3    H1 7597   2.016   4.003  14.915 -1.3857 -1.0828  1.4666
  511TMC3    H2 7598   1.784   4.109  15.266  1.5701 -0.1746  0.7995
  511TMC3    C7 7599   1.869   3.893  15.108 -0.3711  0.2125  0.4165
  511TMC3    C8 7600   1.713   4.355  15.164  0.3894 -0.0786  0.4695
  511TMC3    O1 7601   1.920   3.820  15.023  0.5682  0.2659 -0.1995
  511TMC3    O2 7602   1.752   4.465  15.208  0.3568  0.0133  0.4276
  512TMC3    C1 7603   0.496   3.606  12.977 -0.1576 -0.0980  0.4746
  512TMC3    C2 7604   0.553   3.685  13.071 -0.3049  0.0641 -0.1395
  512TMC3    C3 7605   0.690   3.682  13.087  0.1195  0.4662 -0.0980
  512TMC3    C4 7606   0.570   3.520  12.897  0.0200 -0.3172  0.3884
  512TMC3    C5 7607   0.705   3.515  12.916  0.5248  0.1001  0.0267
  512TMC3    C6 7608   0.770   3.600  13.009 -0.2460  0.3958 -0.0730
  512TMC3     C 7609   0.359   3.650  12.947  0.4379 -0.1696 -0.3588
  512TMC3     O 7610   0.324   3.762  12.981 -0.4485 -0.4104  0.1347
  512TMC3     H 7611   0.496   3.753  13.133 -0.9012 -1.7086  1.2300
  512TMC3    H1 7612   0.528   3.459  12.817 -1.4371  0.6408  0.4266
  512TMC3    H2 7613   0.877   3.596  13.021 -0.2854  0.2939  0.2633
  512TMC3    C7 7614   0.784   3.434  12.835 -0.3525 -0.4895  0.1390
  512TMC3    C8 7615   0.754   3.710  13.216 -0.3613  0.1016  0.2427
  512TMC3    O1 7616   0.899   3.463  12.821 -0.0523  0.1499 -0.7776
  512TMC3    O2 7617   0.736   3.824  13.255  0.7403  0.2258 -0.0456
  513MPD2     C 7618   2.382   3.421  13.369  0.3648  0.7235  0.1211
  513MPD2    C1 7619   2.448   3.368  13.264 -0.0371  0.1779  0.1463
  513MPD2    C2 7620   2.583   3.345  13.278  0.0309 -0.2558  0.2117
  513MPD2    C3 7621   2.650   3.373  13.392  0.1251  0.4976 -0.3220
  513MPD2    C4 7622   2.579   3.426  13.499  0.3286  0.0861 -0.6951
  513MPD2    C5 7623   2.446   3.459  13.484 -0.7069 -0.1499  0.0173
  513MPD2     H 7624   2.637   3.288  13.203  0.2594 -1.0772  0.9976
  513MPD2    H1 7625   2.624   3.467  13.589  0.5373 -0.5462 -0.5132
  513MPD2    H2 7626   2.274   3.433  13.369  0.3613  0.6079 -1.7541
  513MPD2    H3 7627   2.383   3.500  13.562 -1.6610 -1.1575 -0.2111
  513MPD2     N 7628   2.786   3.332  13.401  0.2724  0.1437 -0.0613
  513MPD2    H5 7629   2.833   3.276  13.330 -4.1379 -1.3453 -1.7875
  513MPD2    N1 7630   2.377   3.319  13.158  0.3168 -0.2808 -0.2578
  513MPD2    H7 7631   2.278   3.302  13.168  0.8381 -2.2578  1.4296
  514TMC3    C1 7632   2.379   3.195  12.950 -0.8299 -0.2411  0.0553
  514TMC3    C2 7633   2.362   3.216  12.816 -0.3653 -0.1308  0.1527
  514TMC3    C3 7634   2.372   3.106  12.731 -0.3508 -0.2889  0.2748
  514TMC3    C4 7635   2.399   3.069  12.995  0.1876 -0.0400 -0.0144
  514TMC3    C5 7636   2.418   2.970  12.909  0.0048  0.2849 -0.5902
  514TMC3    C6 7637   2.404   2.976  12.771  0.5096  0.1177  0.3297
  514TMC3     C 7638   2.431   3.300  13.034 -0.3353  0.3211 -0.1094
  514TMC3     O 7639   2.533   3.350  12.986  0.9751  0.5521  0.0311
  514TMC3     H 7640   2.375   3.316  12.775  4.0457 -2.0037 -2.9782
  514TMC3    H1 7641   2.419   3.055  13.101 -0.5585  0.8138  0.2394
  514TMC3    H2 7642   2.418   2.887  12.711 -0.3548  0.0897  0.1669
  514TMC3    C7 7643   2.517   2.871  12.961 -0.0843 -0.8392  0.0443
  514TMC3    C8 7644   2.351   3.132  12.592  0.2161  0.7003  0.7460
  514TMC3    O1 7645   2.505   2.836  13.076 -0.3999 -0.5165 -0.1892
  514TMC3    O2 7646   2.295   3.235  12.568  0.5582 -0.2204 -0.2709
  515MPD2     C 7647   0.456   0.961  14.813  0.0653  0.1082 -0.2304
  515MPD2    C1 7648   0.449   0.836  14.870 -0.2820 -0.0467 -0.2300
  515MPD2    C2 7649   0.539   0.807  14.976 -0.0413 -0.1842 -0.1615
  515MPD2    C3 7650   0.632   0.897  15.019  0.1442 -0.2445  0.3170
  515MPD2    C4 7651   0.633   1.027  14.965 -0.5028  0.4268 -1.4379
  515MPD2    C5 7652   0.546   1.057  14.864 -0.2064  0.3061 -0.5733
  515MPD2     H 7653   0.558   0.711  15.023  0.6765 -0.4795 -1.0463
  515MPD2    H1 7654   0.703   1.101  15.000 -3.6232  1.6316  2.1188
  515MPD2    H2 7655   0.398   0.991  14.727  0.3684  0.2587 -0.3804
  515MPD2    H3 7656   0.555   1.152  14.812 -0.6213  0.8522  0.3554
  515MPD2     N 7657   0.728   0.870  15.114  0.5270 -0.1780  0.0578
  515MPD2    H5 7658   0.781   0.946  15.157  2.3966 -0.3452 -1.9255
  515MPD2    N1 7659   0.366   0.728  14.832  1.2014  0.4531  0.7433
  515MPD2    H7 7660   0.376   0.647  14.892  0.5894 -1.0464 -1.1553
  516TMC3    C1 7661   0.208   0.608  14.714 -0.4834 -0.7542 -0.1366
  516TMC3    C2 7662   0.171   0.572  14.583  0.5159 -0.1694  0.2002
  516TMC3    C3 7663   0.134   0.439  14.554  1.1044  0.4694  0.3356
  516TMC3    C4 7664   0.213   0.511  14.806  0.7477 -0.6255  0.4784
  516TMC3    C5 7665   0.158   0.389  14.780  0.0544  0.4638 -0.4598
  516TMC3    C6 7666   0.117   0.351  14.653  0.3948 -0.6424  0.2753
  516TMC3     C 7667   0.276   0.731  14.731  0.1097 -0.4631 -0.6516
  516TMC3     O 7668   0.263   0.813  14.641 -0.2857 -0.0623 -0.6711
  516TMC3     H 7669   0.164   0.645  14.504 -1.6039  1.0320  1.5145
  516TMC3    H1 7670   0.223   0.529  14.913 -0.9553  0.5559  0.4358
  516TMC3    H2 7671   0.092   0.249  14.629 -0.9894  0.3903 -2.5971
  516TMC3    C7 7672   0.144   0.304  14.898 -0.6547 -0.0350 -0.0938
  516TMC3    C8 7673   0.168   0.393  14.417 -0.5853 -0.0992 -1.1252
  516TMC3    O1 7674   0.219   0.322  14.993 -0.2801 -0.6148 -0.6083
  516TMC3    O2 7675   0.116   0.289  14.378 -0.2714 -0.3461  0.5888
  517MPD2     C 7676   4.165   0.866   0.196 -0.1703  0.1595 -0.3079
  517MPD2    C1 7677   4.246   0.966   0.148 -0.3348  0.0402 -0.1813
  517MPD2    C2 7678   4.228   1.094   0.185  0.1623  0.3001 -0.9736
  517MPD2    C3 7679   4.139   1.129   0.275  0.0572  0.1711  0.3006
  517MPD2    C4 7680   4.048   1.029   0.314  0.0753 -0.0135  0.3112
  517MPD2    C5 7681   4.061   0.899   0.274  0.0785  0.0776  0.0611
  517MPD2     H 7682   4.295   1.172   0.150  0.0025  0.9149  0.0807
  517MPD2    H1 7683   3.970   1.056   0.384  1.4372  4.0961  0.2292
  517MPD2    H2 7684   4.185   0.763   0.168 -0.2350  0.7215 -2.3702
  517MPD2    H3 7685   3.988   0.826   0.308 -0.8220  0.4910 -0.9621
  517MPD2     N 7686   4.126   1.257   0.331  0.5353  0.0640 -0.4236
  517MPD2    H5 7687   4.043   1.280   0.385  1.6656  1.0255  0.9241
  517MPD2    N1 7688   4.351   0.938   0.057  0.5797  0.4076  0.1032
  517MPD2    H7 7689   4.409   1.014   0.024  1.5318  0.4175  1.7741
  518TMC3    C1 7690   4.485   0.814  17.598 -0.0519 -0.6704 -0.3919
  518TMC3    C2 7691   4.613   0.770  17.604 -0.3068  0.2452 -0.3078
  518TMC3    C3 7692   4.685   0.772  17.487 -0.0494 -0.2033 -0.6217
  518TMC3    C4 7693   4.429   0.873  17.487  0.1438  0.4601  0.2639
  518TMC3    C5 7694   4.506   0.887  17.376 -0.1023  0.3119  0.2145
  518TMC3    C6 7695   4.633   0.825  17.373 -0.4551 -0.3947  0.2918
  518TMC3     C 7696   4.404   0.813   0.036  0.0855 -0.1473 -0.0946
  518TMC3     O 7697   4.413   0.714   0.105 -0.5169  0.0300  0.3106
  518TMC3     H 7698   4.643   0.709   0.002 -1.3619 -0.1930 -0.2493
  518TMC3    H1 7699   4.328   0.910  17.498 -0.1811 -0.5171  0.5721
  518TMC3    H2 7700   4.676   0.810  17.275  1.0769 -0.2100  0.9478
  518TMC3    C7 7701   4.456   0.987  17.279  0.7405 -0.3684  0.1556
  518TMC3    C8 7702   0.085   0.696  17.488  0.0466  0.2928 -0.0231
  518TMC3    O1 7703   4.358   1.058  17.302 -0.0059 -0.5989 -0.0168
  518TMC3    O2 7704   0.082   0.605  17.570  0.4555 -0.1217 -0.7811
  519MPD2     C 7705   2.079   0.595  14.641  0.1329 -0.1144  0.3069
  519MPD2    C1 7706   1.991   0.514  14.569  0.0341  0.5784  0.0402
  519MPD2    C2 7707   2.050   0.427  14.480  0.4524 -0.3024  0.0097
  519MPD2    C3 7708   2.191   0.416  14.463 -0.6618 -0.1329 -0.3106
  519MPD2    C4 7709   2.275   0.483  14.544  0.3102  0.6282  0.3993
  519MPD2    C5 7710   2.216   0.584  14.622 -0.3498 -0.3469 -0.4952
  519MPD2     H 7711   1.978   0.372  14.420 -0.9843 -0.5155  1.9485
  519MPD2    H1 7712   2.382   0.467  14.553  0.2657 -0.9819 -2.0011
  519MPD2    H2 7713   2.048   0.663  14.720 -0.0165  0.2298 -0.0442
  519MPD2    H3 7714   2.285   0.645  14.681  0.6534  0.1603 -2.2055
  519MPD2     N 7715   2.258   0.322  14.382 -0.1450  0.6115  1.2716
  519MPD2    H5 7716   2.351   0.288  14.403 -1.3129 -1.5631  3.0367
  519MPD2    N1 7717   1.855   0.537  14.575  0.6217  0.2987 -0.0365
  519MPD2    H7 7718   1.823   0.619  14.626  1.3891  0.9790 -0.6523
  520TMC3    C1 7719   2.255   0.190  14.176  0.0109  0.6068  0.1375
  520TMC3    C2 7720   2.173   0.150  14.065 -0.8349 -0.3107 -0.1292
  520TMC3    C3 7721   2.228   0.063  13.980  0.7395  0.0265 -0.5206
  520TMC3    C4 7722   2.381   0.140  14.194 -0.5978 -0.0083 -1.0071
  520TMC3    C5 7723   2.423   0.050  14.099 -0.0623  0.4677 -0.8655
  520TMC3    C6 7724   2.346   0.004  13.997  0.2575  1.1692 -0.2950
  520TMC3     C 7725   2.192   0.290  14.261  0.3092  0.1613 -0.0850
  520TMC3     O 7726   2.091   0.339  14.219  0.2522  0.0313 -0.5734
  520TMC3     H 7727   2.077   0.195  14.043 -0.2212 -0.0659 -2.2787
  520TMC3    H1 7728   2.451   0.184  14.265 -0.3404 -2.3482  0.1923
  520TMC3    H2 7729   2.388   4.663  13.918 -1.4140  0.9073 -0.9641
  520TMC3    C7 7730   2.566   0.022  14.106 -0.2062  0.1330  0.0761
  520TMC3    C8 7731   2.154   0.028  13.857  0.0204  0.5885 -0.1936
  520TMC3    O1 7732   2.621   0.055  14.208  0.5129 -0.1721  0.0747
  520TMC3    O2 7733   2.230   0.004  13.765 -0.0803  0.0831  0.4891
  521MPD2     C 7734   2.316   3.491  17.380 -0.1102 -0.1402  0.0486
  521MPD2    C1 7735   2.355   3.361  17.358  0.5191 -0.8744 -0.8974
  521MPD2    C2 7736   2.486   3.331  17.328  0.2877  0.6172 -0.0652
  521MPD2    C3 7737   2.581   3.429  17.338 -0.0568 -0.3806 -0.5241
  521MPD2    C4 7738   2.545   3.561  17.363  0.4123 -0.3080  0.2848
  521MPD2    C5 7739   2.413   3.585  17.385  0.7314  0.5647 -0.3233
  521MPD2     H 7740   2.516   3.232  17.297  2.0790  0.9074  0.7400
  521MPD2    H1 7741   2.611   3.647  17.367  0.0733 -0.0084 -0.3403
  521MPD2    H2 7742   2.212   3.519  17.396  0.5811  3.1409 -1.2044
  521MPD2    H3 7743   2.364   3.679  17.408 -0.6953 -0.2966  0.1322
  521MPD2     N 7744   2.716   3.393  17.309  0.0544  0.6709 -0.5365
  521MPD2    H5 7745   2.738   3.295  17.295  0.4998  0.7786 -0.5770
  521MPD2    N1 7746   2.251   3.264  17.341 -0.1400 -0.0061 -0.5913
  521MPD2    H7 7747   2.155   3.296  17.348 -0.6018 -1.4074 -0.3095
  522TMC3    C1 7748   2.902   3.408  17.173  0.2566  0.1936 -0.7205
  522TMC3    C2 7749   2.940   3.281  17.211  0.3456  0.2010 -0.1108
  522TMC3    C3 7750   3.020   3.219  17.128 -0.4582  0.1112 -0.5484
  522TMC3    C4 7751   2.928   3.473  17.059  0.8176  0.5373  0.8166
  522TMC3    C5 7752   3.007   3.402  16.979  0.1545 -0.4915  0.2110
  522TMC3    C6 7753   3.055   3.274  17.009 -1.2750 -0.3183  0.6883
  522TMC3     C 7754   2.809   3.482  17.255  0.5044  0.4643  0.4993
  522TMC3     O 7755   2.814   3.601  17.256 -0.5752 -0.0685  0.0695
  522TMC3     H 7756   2.916   3.230  17.304  0.0533 -1.5258 -1.1249
  522TMC3    H1 7757   2.889   3.568  17.023 -0.4074 -0.7895 -1.3581
  522TMC3    H2 7758   3.117   3.229  16.933  1.2615  2.8962  0.8523
  522TMC3    C7 7759   3.017   3.429  16.841  0.6165  0.2431  0.0902
  522TMC3    C8 7760   3.076   3.092  17.173  0.1614 -0.4482  0.0533
  522TMC3    O1 7761   3.128   3.424  16.790  0.3100 -0.1629 -0.1888
  522TMC3    O2 7762   3.077   3.065  17.295 -0.0995  0.1087  0.3558
  523MPD2     C 7763   0.213   2.752   9.766 -0.0443 -0.0084 -0.1751
  523MPD2    C1 7764   0.250   2.856   9.850  0.3772 -0.1434  0.7785
  523MPD2    C2 7765   0.238   2.987   9.811 -0.5167 -0.0242 -0.4335
  523MPD2    C3 7766   0.170   3.010   9.688 -0.8917  0.1861  0.1637
  523MPD2    C4 7767   0.119   2.911   9.610 -0.4767  0.0561  0.2284
  523MPD2    C5 7768   0.147   2.783   9.649 -1.3320 -0.4359  0.2220
  523MPD2     H 7769   0.262   3.071   9.874 -0.9583  0.7568 -1.2968
  523MPD2    H1 7770   0.065   2.921   9.517  0.7440 -1.2290 -0.6165
  523MPD2    H2 7771   0.231   2.647   9.784  2.3468  0.3341 -0.5607
  523MPD2    H3 7772   0.102   2.702   9.591 -1.4773 -0.3288  0.1845
  523MPD2     N 7773   0.147   3.138   9.641  0.4625  0.4484 -0.4919
  523MPD2    H5 7774   0.112   3.147   9.546  0.2279  0.4078 -0.4078
  523MPD2    N1 7775   0.315   2.821   9.972 -0.1156  0.3658  0.1264
  523MPD2    H7 7776   0.329   2.723   9.994  2.8693  0.6521 -0.4914
  524TMC3    C1 7777   0.086   3.367   9.645 -0.1822  0.4461  0.0510
  524TMC3    C2 7778   0.023   3.353   9.524 -0.1462  0.2853  0.5502
  524TMC3    C3 7779   4.659   3.454   9.485 -0.3646 -0.1329 -0.3178
  524TMC3    C4 7780   0.077   3.485   9.717 -0.6400  1.1879  0.1715
  524TMC3    C5 7781   0.002   3.591   9.660 -0.4659 -0.6792 -0.2062
  524TMC3    C6 7782   4.651   3.577   9.547 -0.1706 -0.0462 -0.3800
  524TMC3     C 7783   0.139   3.254   9.719 -0.7379  0.2456 -0.1500
  524TMC3     O 7784   0.183   3.276   9.831 -0.1229  0.0247  0.4123
  524TMC3     H 7785   0.012   3.253   9.483 -1.7581  0.3099  0.9332
  524TMC3    H1 7786   0.106   3.487   9.821  0.7419 -0.2919 -0.1995
  524TMC3    H2 7787   4.570   3.645   9.524 -0.1303 -0.5796 -2.1422
  524TMC3    C7 7788   4.676   3.688   9.754 -0.5560  0.6531 -0.2849
  524TMC3    C8 7789   4.602   3.439   9.354 -0.2391  0.0328 -0.3820
  524TMC3    O1 7790   4.677   3.656   9.870  0.3415  0.3938  0.4714
  524TMC3    O2 7791   4.628   3.335   9.300  0.2261 -0.4261  0.2079
  525MPD2     C 7792   3.376   0.131  14.369 -0.0241 -0.0268 -0.3878
  525MPD2    C1 7793   3.499   0.178  14.399 -0.3182  0.1011 -0.9680
  525MPD2    C2 7794   3.556   0.278  14.320 -0.4048  0.4532 -0.2999
  525MPD2    C3 7795   3.473   0.335  14.217 -0.1927  0.2797  0.4040
  525MPD2    C4 7796   3.348   0.286  14.193  0.5901 -0.7226 -0.7012
  525MPD2    C5 7797   3.300   0.186  14.270  0.8498 -0.3194  0.0558
  525MPD2     H 7798   3.654   0.322  14.331  0.0191 -0.4228 -0.5267
  525MPD2    H1 7799   3.277   0.333  14.126 -0.9418  0.1235  1.4891
  525MPD2    H2 7800   3.331   0.046  14.419  0.1685 -0.5072 -1.0243
  525MPD2    H3 7801   3.207   0.149  14.228 -0.0810  2.1689 -0.0701
  525MPD2     N 7802   3.505   0.450  14.142  0.0160  0.0353  0.0462
  525MPD2    H5 7803   3.429   0.495  14.093 -0.4189 -1.4949 -0.6777
  525MPD2    N1 7804   3.581   0.126  14.499 -1.2354 -0.2509  0.3354
  525MPD2    H7 7805   3.670   0.171  14.516 -0.8796 -1.1429  0.8457
  526TMC3    C1 7806   3.631   0.017  14.705 -0.7607  0.1664  0.6606
  526TMC3    C2 7807   3.587   4.691  14.822  0.2635  0.0401  0.3971
  526TMC3    C3 7808   3.664   4.671  14.936  0.8065 -0.0832  0.5453
  526TMC3    C4 7809   3.764   0.027  14.683  0.9412  0.1063  0.3347
  526TMC3    C5 7810   3.843   0.016  14.794 -0.4385  0.1405  0.2515
  526TMC3    C6 7811   3.796   4.697  14.920  0.2550  0.0805  0.0178
  526TMC3     C 7812   3.535   0.031  14.593 -0.5380 -0.6951 -0.1806
  526TMC3     O 7813   3.420   4.715  14.616  0.0403  0.0966 -0.0846
  526TMC3     H 7814   3.481   4.668  14.832  0.3717 -0.5901  0.0600
  526TMC3    H1 7815   3.806   0.035  14.584  0.1412  0.2052  0.0041
  526TMC3    H2 7816   3.865   4.697  15.004  0.1747 -0.4310  0.0806
  526TMC3    C7 7817   3.984   0.020  14.777  0.7033  0.8122  0.3614
  526TMC3    C8 7818   3.605   4.676  15.065  0.8882 -0.4733 -1.4475
  526TMC3    O1 7819   4.050   4.706  14.872  0.2255 -0.1511  0.2476
  526TMC3    O2 7820   3.678   4.700  15.156 -0.2103 -0.1742  0.5122
  527MPD2     C 7821   0.011   2.526   0.891  0.3652 -0.6655 -0.3984
  527MPD2    C1 7822   0.115   2.462   0.957  0.2247  0.3204 -0.9168
  527MPD2    C2 7823   0.236   2.443   0.893  0.1340  0.1073 -0.4191
  527MPD2    C3 7824   0.262   2.486   0.765  0.2281 -0.0123 -0.1229
  527MPD2    C4 7825   0.164   2.560   0.706  0.0251  0.6352 -0.2442
  527MPD2    C5 7826   0.035   2.565   0.763  0.0946  0.0815 -0.0087
  527MPD2     H 7827   0.314   2.388   0.943  0.6132  0.4726 -0.7696
  527MPD2    H1 7828   0.163   2.579   0.599  1.2340  1.1692 -0.1552
  527MPD2    H2 7829   4.633   2.539   0.933  0.4468 -0.1909 -0.3580
  527MPD2    H3 7830   4.672   2.598   0.703  0.6278  0.5051 -0.5254
  527MPD2     N 7831   0.378   2.440   0.699 -0.6758  0.0587  1.0016
  527MPD2    H5 7832   0.430   2.360   0.735 -0.5292  0.5083  1.7861
  527MPD2    N1 7833   0.094   2.411   1.083 -0.2378  0.1934 -0.2657
  527MPD2    H7 7834   0.179   2.385   1.132  0.3701 -0.5386 -1.6854
  528TMC3    C1 7835   0.021   2.404   1.311 -0.2647 -0.1801 -0.1426
  528TMC3    C2 7836   0.133   2.330   1.346  0.1072 -0.4941 -0.2919
  528TMC3    C3 7837   0.177   2.316   1.478 -0.7058  0.6624 -0.2458
  528TMC3    C4 7838   4.663   2.455   1.410 -0.1644  0.6918  0.0414
  528TMC3    C5 7839   4.714   2.439   1.535  0.0096  0.6169  0.3718
  528TMC3    C6 7840   0.108   2.381   1.574  0.0218  0.4110 -0.1533
  528TMC3     C 7841   4.709   2.431   1.170 -0.2129  0.1212  0.8576
  528TMC3     O 7842   4.600   2.491   1.148 -0.3551  0.1253  0.1972
  528TMC3     H 7843   0.196   2.290   1.267  1.7088  1.2227  0.1200
  528TMC3    H1 7844   4.563   2.493   1.396 -0.4670  0.6494  2.1027
  528TMC3    H2 7845   0.123   2.368   1.681 -0.2900 -1.1237 -0.2933
  528TMC3    C7 7846   4.662   2.509   1.646 -0.0306 -0.2072 -0.2914
  528TMC3    C8 7847   0.319   2.309   1.490  0.3188  0.3983 -0.3792
  528TMC3    O1 7848   0.024   2.563   1.719  0.5800  0.1296  0.1444
  528TMC3    O2 7849   0.382   2.348   1.392 -0.3308 -0.2774  0.8821
  529MPD2     C 7850   2.413   0.734   1.181 -0.5230  0.3251  0.0602
  529MPD2    C1 7851   2.531   0.785   1.146 -0.3781  0.2674  0.0545
  529MPD2    C2 7852   2.545   0.851   1.024 -0.4132 -0.4716  0.1220
  529MPD2    C3 7853   2.436   0.852   0.939  1.1089 -0.2277 -0.2860
  529MPD2    C4 7854   2.315   0.804   0.977 -0.2017  0.8466 -0.1586
  529MPD2    C5 7855   2.308   0.743   1.099  0.7804 -0.3203 -0.1776
  529MPD2     H 7856   2.639   0.893   0.990 -0.7756  0.6831  0.5386
  529MPD2    H1 7857   2.232   0.803   0.906 -0.6597  1.3557  0.3663
  529MPD2    H2 7858   2.399   0.686   1.277 -0.9669 -0.8551 -0.5965
  529MPD2    H3 7859   2.215   0.701   1.135  2.1112 -1.4472  1.9299
  529MPD2     N 7860   2.436   0.910   0.812 -0.8241  0.2157  0.0073
  529MPD2    H5 7861   2.350   0.902   0.759 -0.3214  3.2499 -1.2388
  529MPD2    N1 7862   2.635   0.757   1.231 -0.4039  0.1040 -0.5713
  529MPD2    H7 7863   2.613   0.704   1.315 -1.4881  1.6587  0.1512
  530TMC3    C1 7864   2.843   0.780   1.337  0.4758  0.2727 -0.2824
  530TMC3    C2 7865   2.938   0.867   1.382  0.1029 -0.0690 -0.1769
  530TMC3    C3 7866   3.024   0.830   1.483 -0.0375  0.1748  0.3674
  530TMC3    C4 7867   2.847   0.649   1.370  0.6766  0.5696  0.2512
  530TMC3    C5 7868   2.934   0.614   1.466  0.7599  0.3900 -0.8425
  530TMC3    C6 7869   3.028   0.702   1.525 -0.8589 -0.3358  0.2216
  530TMC3     C 7870   2.748   0.827   1.230 -0.1008  0.4227  0.3918
  530TMC3     O 7871   2.777   0.931   1.173 -0.1774 -0.2657  0.2450
  530TMC3     H 7872   2.925   0.970   1.350 -0.6900  0.2624  1.1804
  530TMC3    H1 7873   2.787   0.572   1.323 -0.6984  0.5697  2.0033
  530TMC3    H2 7874   3.099   0.674   1.602 -0.2580 -0.9246 -0.5386
  530TMC3    C7 7875   2.952   0.475   1.506  0.2910 -0.4454  0.3569
  530TMC3    C8 7876   3.128   0.922   1.522 -0.0525 -0.1486 -0.0652
  530TMC3    O1 7877   3.051   0.443   1.571  0.5096 -0.2941 -1.0394
  530TMC3    O2 7878   3.098   1.038   1.492  0.7350 -0.0697 -0.2597
  531MPD2     C 7879   2.998   2.731  13.039  0.0967 -0.4120 -0.3474
  531MPD2    C1 7880   2.914   2.806  13.111 -0.5813  1.2395 -0.6727
  531MPD2    C2 7881   2.788   2.832  13.057  0.3061 -0.4485  0.8521
  531MPD2    C3 7882   2.754   2.800  12.929 -0.0913  0.3472 -0.2362
  531MPD2    C4 7883   2.848   2.737  12.850  0.6524 -0.0068 -0.1693
  531MPD2    C5 7884   2.964   2.693  12.910 -0.6114 -0.6488 -0.1587
  531MPD2     H 7885   2.723   2.889  13.121  0.8622 -0.8750  1.7910
  531MPD2    H1 7886   2.830   2.715  12.746 -0.9830 -0.5952  0.2375
  531MPD2    H2 7887   3.103   2.718  13.064  0.1503 -0.9396 -0.8329
  531MPD2    H3 7888   3.034   2.647  12.842  0.9065 -0.3564  1.2219
  531MPD2     N 7889   2.625   2.847  12.879  0.2924 -0.4198  0.3793
  531MPD2    H5 7890   2.616   2.868  12.780 -0.3270  0.0214  0.5263
  531MPD2    N1 7891   2.963   2.872  13.227 -0.2241  0.4523 -0.4380
  531MPD2    H7 7892   3.062   2.857  13.247 -0.4450 -0.9481 -0.4108
  532TMC3    C1 7893   2.975   3.028  13.401  0.3025  0.0946  0.2953
  532TMC3    C2 7894   2.910   3.115  13.481 -0.3394 -0.5092  0.1269
  532TMC3    C3 7895   2.968   3.235  13.508 -0.3099  0.0238 -0.3083
  532TMC3    C4 7896   3.109   3.041  13.366  0.2636 -0.2102  0.9667
  532TMC3    C5 7897   3.165   3.168  13.397  0.4598 -1.1750  0.7873
  532TMC3    C6 7898   3.091   3.267  13.464  0.0638  0.4197 -0.0798
  532TMC3     C 7899   2.887   2.951  13.315  0.2695  0.9124  0.3391
  532TMC3     O 7900   2.768   2.986  13.309 -0.2521  0.2695  0.2412
  532TMC3     H 7901   2.812   3.096  13.523 -0.8199 -1.7672 -1.5971
  532TMC3    H1 7902   3.165   2.967  13.310 -2.1731 -1.3647  0.0594
  532TMC3    H2 7903   3.119   3.370  13.483  2.6319 -0.0317 -1.3764
  532TMC3    C7 7904   3.304   3.200  13.382 -0.2849 -0.2318  0.6394
  532TMC3    C8 7905   2.869   3.347  13.511 -0.0508 -0.3339  0.4878
  532TMC3    O1 7906   3.330   3.300  13.315  0.0032 -0.0344 -0.0023
  532TMC3    O2 7907   2.868   3.422  13.606 -0.0537 -0.4750 -0.4291
  533TMC3    C1 7908   3.608   0.663  14.142  0.0604 -0.1798  0.1047
  533TMC3    C2 7909   3.730   0.729  14.149  0.1343 -0.2250  0.4796
  533TMC3    C3 7910   3.731   0.849  14.197  0.2328  0.2919 -0.4312
  533TMC3    C4 7911   3.490   0.722  14.184  0.3625 -0.6720  0.0847
  533TMC3    C5 7912   3.508   0.837  14.259  0.3084 -1.3651 -0.0131
  533TMC3    C6 7913   3.623   0.910  14.255  0.2659  0.1672  0.1382
  533TMC3     C 7914   3.623   0.515  14.158 -0.2752 -0.0032  0.8022
  533TMC3     O 7915   3.733   0.480  14.202  0.4512 -0.1326  0.4064
  533TMC3     H 7916   3.816   0.690  14.096 -0.1199 -0.6537  0.3842
  533TMC3    H1 7917   3.396   0.669  14.193 -1.0688  1.6332 -1.0816
  533TMC3    H2 7918   3.635   1.004  14.308 -1.6860  1.3394 -1.5146
  533TMC3    C7 7919   3.474   0.800  14.395 -0.1838  0.0154  0.8874
  533TMC3    C8 7920   3.870   0.905  14.207 -0.1399  0.2168  0.5275
  533TMC3    O1 7921   3.479   0.682  14.417 -0.5595  0.1941 -0.0851
  533TMC3    O2 7922   3.969   0.832  14.210 -0.7691  0.0546  0.3580
  534MPD2     C 7923   0.573   1.300   1.356 -0.6429  1.3867 -0.0123
  534MPD2    C1 7924   0.464   1.388   1.340 -0.1417 -0.2644 -0.1267
  534MPD2    C2 7925   0.344   1.345   1.279  0.1508 -0.3096  0.4076
  534MPD2    C3 7926   0.332   1.212   1.244  0.0618  0.4213 -0.3760
  534MPD2    C4 7927   0.436   1.120   1.272  0.7946 -0.0681 -0.8738
  534MPD2    C5 7928   0.558   1.172   1.321 -0.6964 -0.3497 -0.2964
  534MPD2     H 7929   0.263   1.415   1.266 -1.0669 -2.1351 -1.8279
  534MPD2    H1 7930   0.440   1.012   1.259  2.8595  0.0963 -1.5207
  534MPD2    H2 7931   0.661   1.338   1.406  0.2688  1.0396 -1.3428
  534MPD2    H3 7932   0.645   1.111   1.344 -0.0695 -0.0367 -1.8670
  534MPD2     N 7933   0.217   1.150   1.180  0.0275 -0.0812  0.1470
  534MPD2    H5 7934   0.233   1.053   1.154 -0.4992 -0.0270 -0.3879
  534MPD2    N1 7935   0.477   1.524   1.377 -1.1385  0.5204  0.0668
  534MPD2    H7 7936   0.393   1.578   1.357 -0.1579  1.5320 -1.2908
  535TMC3    C1 7937   0.015   1.129   1.072  0.5386  0.0861  0.0932
  535TMC3    C2 7938   4.600   1.128   1.098 -0.6294  0.2626 -0.0180
  535TMC3    C3 7939   4.516   1.124   0.990  0.1233 -0.3737  0.3610
  535TMC3    C4 7940   0.058   1.097   0.946  0.2993 -0.2776 -0.7921
  535TMC3    C5 7941   4.690   1.091   0.847  0.1790  0.5075  0.5443
  535TMC3    C6 7942   4.554   1.096   0.861  0.5051 -0.0491  0.4126
  535TMC3     C 7943   0.098   1.203   1.161  0.4385 -0.1054 -0.5368
  535TMC3     O 7944   0.046   1.297   1.219  0.0714 -0.2425  0.1081
  535TMC3     H 7945   4.570   1.144   1.201  2.7533  0.7673  0.8602
  535TMC3    H1 7946   0.164   1.095   0.925  0.0206 -1.0804 -2.1342
  535TMC3    H2 7947   4.484   1.078   0.780  1.3928  0.8061 -0.5371
  535TMC3    C7 7948   0.035   1.080   0.715  0.1485  0.7106  0.5697
  535TMC3    C8 7949   4.376   1.121   1.016  0.2965 -0.1401 -0.4040
  535TMC3    O1 7950   0.139   1.014   0.713 -0.5071  0.5069 -0.5802
  535TMC3    O2 7951   4.311   1.031   0.968 -0.5663 -0.2000 -0.1283
  536MPD2     C 7952   0.062   4.551  16.817 -0.4505  0.3367  0.1213
  536MPD2    C1 7953   4.653   4.510  16.831  0.3266  0.4918 -0.2136
  536MPD2    C2 7954   4.571   4.511  16.718 -0.0967 -0.3372 -0.1198
  536MPD2    C3 7955   4.620   4.567  16.604 -0.6101  0.2699  0.6467
  536MPD2    C4 7956   0.032   4.600  16.594  0.2474 -0.4028  0.3106
  536MPD2    C5 7957   0.116   4.595  16.700 -0.0088 -0.0072  0.4725
  536MPD2     H 7958   4.469   4.476  16.726  0.3643 -1.6357  0.1624
  536MPD2    H1 7959   0.071   4.648  16.505 -4.5549  3.8022  0.4330
  536MPD2    H2 7960   0.129   4.559  16.902  0.2148 -3.4799 -0.0710
  536MPD2    H3 7961   0.214   4.641  16.699 -1.2911  2.7239 -0.1697
  536MPD2     N 7962   4.539   4.586  16.485  0.4383  0.1700 -0.5170
  536MPD2    H5 7963   4.584   4.627  16.404  0.6763 -0.0102 -0.4760
  536MPD2    N1 7964   4.618   4.464  16.962 -0.1157  0.4636  0.2617
  536MPD2    H7 7965   4.690   4.459  17.035 -0.5045  1.2438  0.6983
  537TMC3    C1 7966   4.495   4.364  17.133  0.2545  0.2631 -0.2943
  537TMC3    C2 7967   4.584   4.408  17.228 -0.4263 -0.3973 -0.2780
  537TMC3    C3 7968   4.547   4.384  17.358 -0.6771 -0.0224  0.8063
  537TMC3    C4 7969   4.375   4.304  17.169 -0.0719  0.5260  0.1925
  537TMC3    C5 7970   4.348   4.279  17.295  0.2863 -0.4664  0.5300
  537TMC3    C6 7971   4.440   4.308  17.394  0.3979 -0.4590  0.0408
  537TMC3     C 7972   4.501   4.402  16.996 -1.0641  0.3164 -0.4311
  537TMC3     O 7973   4.403   4.384  16.920  0.4488 -0.0636  0.2363
  537TMC3     H 7974   4.671   4.466  17.200  0.3875 -2.1123 -1.3066
  537TMC3    H1 7975   4.312   4.272  17.086 -1.4067  0.7166  1.1253
  537TMC3    H2 7976   4.405   4.308  17.497  1.5016 -0.6455  0.4140
  537TMC3    C7 7977   4.257   4.172  17.330  0.4817 -0.6936 -0.2972
  537TMC3    C8 7978   4.650   4.385  17.460  0.2789 -0.1940  0.3141
  537TMC3    O1 7979   4.171   4.145  17.249  0.4970 -0.5951  0.2641
  537TMC3    O2 7980   4.624   4.313  17.554  0.0376  0.1146 -0.6746
  538TMC3    C1 7981   1.280   2.761  10.892 -0.2614 -0.1225 -0.0953
  538TMC3    C2 7982   1.377   2.743  10.795 -0.6483 -1.2513 -0.0473
  538TMC3    C3 7983   1.356   2.789  10.670  1.4756 -0.1523  0.2016
  538TMC3    C4 7984   1.171   2.841  10.870  0.5137  0.0197 -0.0686
  538TMC3    C5 7985   1.155   2.891  10.742  0.4577 -0.1436  0.6939
  538TMC3    C6 7986   1.247   2.868  10.646 -0.0837 -0.5450  0.4291
  538TMC3     C 7987   1.305   2.713  11.030 -0.1041  0.0969 -0.8852
  538TMC3     O 7988   1.209   2.726  11.103 -0.2379  0.0648 -0.4822
  538TMC3     H 7989   1.465   2.681  10.809 -1.7169 -2.9044 -0.5700
  538TMC3    H1 7990   1.097   2.861  10.946 -2.6452 -0.5130 -2.9907
  538TMC3    H2 7991   1.221   2.909  10.549 -0.4595  1.2602  1.2941
  538TMC3    C7 7992   1.046   2.977  10.715 -0.2031 -0.1491  1.0024
  538TMC3    C8 7993   1.446   2.763  10.557  0.8561  0.7833 -0.0776
  538TMC3    O1 7994   1.006   2.990  10.599  0.1743  0.2807  0.2121
  538TMC3    O2 7995   1.512   2.661  10.564 -0.1059 -0.0427  0.0359
  539MPD2     C 7996   1.079   2.031  11.753  0.0717  0.6630  0.2007
  539MPD2    C1 7997   1.061   2.069  11.622 -0.2659 -0.1451 -0.3494
  539MPD2    C2 7998   0.993   2.189  11.604  0.0910  0.3320 -0.3879
  539MPD2    C3 7999   0.945   2.266  11.708 -0.6897  0.1340  0.1852
  539MPD2    C4 8000   0.968   2.230  11.833 -0.1008  1.1203  0.2420
  539MPD2    C5 8001   1.042   2.112  11.857  0.3892  0.4216 -0.2117
  539MPD2     H 8002   0.997   2.231  11.504 -1.0311 -0.6978 -0.8700
  539MPD2    H1 8003   0.933   2.277  11.925  0.9699 -0.7623  1.6149
  539MPD2    H2 8004   1.130   1.938  11.773 -0.6380  0.3516  0.5819
  539MPD2    H3 8005   1.050   2.081  11.960 -0.6601 -1.4536 -0.6859
  539MPD2     N 8006   0.871   2.387  11.678  0.3787  0.0075  0.1404
  539MPD2    H5 8007   0.850   2.448  11.756 -0.7910 -2.1737  1.5384
  539MPD2    N1 8008   1.107   1.989  11.512  0.3912  0.3277  0.2156
  539MPD2    H7 8009   1.074   2.020  11.420 -2.7903  2.3454  2.0318
  540TMC3    C1 8010   0.787   2.572  11.551 -0.1362 -0.1731  0.3911
  540TMC3    C2 8011   0.793   2.647  11.437  0.3198  0.1520  0.1654
  540TMC3    C3 8012   0.715   2.758  11.438  0.3201 -0.4216 -0.5735
  540TMC3    C4 8013   0.694   2.602  11.653 -0.4715  0.3921  0.2572
  540TMC3    C5 8014   0.623   2.722  11.654 -0.2257 -0.2176  0.0849
  540TMC3    C6 8015   0.632   2.797  11.541  0.3697  0.6118  0.6906
  540TMC3     C 8016   0.851   2.436  11.556 -0.3857 -0.2646  0.2809
  540TMC3     O 8017   0.860   2.392  11.442 -0.0766 -0.0018  0.0376
  540TMC3     H 8018   0.852   2.601  11.358  1.5655  1.5613  0.2903
  540TMC3    H1 8019   0.678   2.535  11.737  1.7389 -1.2312 -0.6210
  540TMC3    H2 8020   0.577   2.890  11.527  0.3113  0.4078 -0.3912
  540TMC3    C7 8021   0.524   2.747  11.760 -0.5848  0.4557  0.2277
  540TMC3    C8 8022   0.689   2.814  11.311  0.1424  0.1715  0.5086
  540TMC3    O1 8023   0.468   2.645  11.799  0.5009 -0.5800  0.6702
  540TMC3    O2 8024   0.675   2.938  11.306 -0.6046  0.1151 -0.0647
  541MPD2     C 8025   3.574   3.598  13.340  0.3962 -0.5369 -0.0599
  541MPD2    C1 8026   3.686   3.524  13.331  0.3754 -0.2194  0.1351
  541MPD2    C2 8027   3.780   3.534  13.227 -0.2468  0.3416 -0.2590
  541MPD2    C3 8028   3.752   3.621  13.122  0.7190 -0.3743 -0.2866
  541MPD2    C4 8029   3.646   3.703  13.137 -0.2160  0.8925  0.5002
  541MPD2    C5 8030   3.558   3.699  13.247 -1.1063 -0.6347 -0.7700
  541MPD2     H 8031   3.869   3.472  13.225 -1.8369 -2.0345  2.0742
  541MPD2    H1 8032   3.625   3.782  13.065 -2.0704  1.0108  1.1502
  541MPD2    H2 8033   3.510   3.589  13.426 -1.9317 -2.2540 -1.9767
  541MPD2    H3 8034   3.464   3.753  13.250 -1.2712 -1.1100  2.9064
  541MPD2     N 8035   3.838   3.644  13.011 -0.2656 -0.5910 -0.2027
  541MPD2    H5 8036   3.812   3.720  12.949  1.8702 -0.5843 -1.0966
  541MPD2    N1 8037   3.702   3.423  13.426  0.1708 -0.4162 -0.4047
  541MPD2    H7 8038   3.788   3.370  13.415  1.0675  0.9718  0.0171
  542TMC3    C1 8039   4.050   3.629  12.893 -0.1113  0.7967 -0.2960
  542TMC3    C2 8040   4.144   3.543  12.839  0.0811  0.3004  0.0304
  542TMC3    C3 8041   4.234   3.595  12.745 -0.6872 -0.2323 -1.6278
  542TMC3    C4 8042   4.019   3.757  12.854 -0.3723 -0.0127 -0.2915
  542TMC3    C5 8043   4.127   3.805  12.778 -0.0716 -0.2618 -1.4430
  542TMC3    C6 8044   4.221   3.728  12.713 -0.9357  0.0849 -0.3615
  542TMC3     C 8045   3.958   3.570  12.988  0.0120  0.6600  0.4139
  542TMC3     O 8046   3.998   3.465  13.037 -0.2619  0.1006 -0.1915
  542TMC3     H 8047   4.152   3.439  12.867  1.5589  0.9489  1.9814
  542TMC3    H1 8048   3.960   3.818  12.921 -0.6182 -2.1314  1.4440
  542TMC3    H2 8049   4.294   3.771  12.645 -1.3387  1.0565 -0.1823
  542TMC3    C7 8050   4.107   3.932  12.704 -0.8429 -0.1856 -0.1753
  542TMC3    C8 8051   4.266   3.519  12.630  1.3573 -0.3376 -0.5331
  542TMC3    O1 8052   4.164   3.944  12.598 -0.4455 -0.1018  0.0404
  542TMC3    O2 8053   4.269   3.589  12.527  0.2351 -0.1453  0.4846
  543TMC3    C1 8054   3.168   4.358   0.149 -0.4310  0.0597 -0.6011
  543TMC3    C2 8055   3.242   4.255   0.188 -0.1548  0.2134 -0.1830
  543TMC3    C3 8056   3.257   4.240   0.320 -0.8412 -0.2929 -0.1471
  543TMC3    C4 8057   3.103   4.440   0.232  0.4702  0.2998 -0.2590
  543TMC3    C5 8058   3.111   4.427   0.367 -0.0655 -0.3246  0.5682
  543TMC3    C6 8059   3.187   4.322   0.415 -0.1836 -0.3858 -0.0387
  543TMC3     C 8060   3.212   4.409   0.019  0.4837  0.1473 -0.6375
  543TMC3     O 8061   3.329   4.396  17.668  0.2730 -0.2606  0.5233
  543TMC3     H 8062   3.291   4.193   0.114 -0.5399 -1.2065  0.7370
  543TMC3    H1 8063   3.038   4.518   0.195  0.0645 -0.6709 -1.5877
  543TMC3    H2 8064   3.188   4.283   0.517  2.3860 -1.4421 -0.4858
  543TMC3    C7 8065   3.043   4.517   0.465  0.2066  0.4588  0.4436
  543TMC3    C8 8066   3.349   4.139   0.364  0.0535 -0.0032 -0.2590
  543TMC3    O1 8067   3.095   4.509   0.575 -0.3771 -0.4906  0.5975
  543TMC3    O2 8068   3.386   4.062   0.278  0.1361 -0.0611  0.1503
  544MPD2     C 8069   3.616   3.907   0.746  0.6062  0.4716  0.1736
  544MPD2    C1 8070   3.596   3.864   0.618  0.4735 -0.5045  0.2911
  544MPD2    C2 8071   3.526   3.948   0.522  1.0247 -0.2920  0.4629
  544MPD2    C3 8072   3.480   4.076   0.570  0.5954 -0.5063 -0.3827
  544MPD2    C4 8073   3.506   4.112   0.702  0.2594 -0.6549  0.6190
  544MPD2    C5 8074   3.573   4.032   0.786 -0.0310  0.0221 -0.7223
  544MPD2     H 8075   3.506   3.907   0.424  3.6906 -0.7097  0.0805
  544MPD2    H1 8076   3.482   4.215   0.729  0.6321 -0.1412 -0.9821
  544MPD2    H2 8077   3.669   3.840   0.814  1.7695  0.9965 -0.2189
  544MPD2    H3 8078   3.588   4.071   0.886 -1.0912 -1.1373 -0.1056
  544MPD2     N 8079   3.397   4.163   0.496 -0.2727  0.3641 -0.1587
  544MPD2    H5 8080   3.370   4.252   0.537 -3.5622 -1.7556  2.2630
  544MPD2    N1 8081   3.648   3.734   0.585 -0.3488 -0.5428  0.0805
  544MPD2    H7 8082   3.693   3.685   0.662  0.4003 -0.0880 -0.0768
  545TMC3    C1 8083   3.690   3.544   0.459  0.3025 -0.5687  0.0288
  545TMC3    C2 8084   3.633   3.457   0.371 -0.4622  0.1364  0.0752
  545TMC3    C3 8085   3.694   3.340   0.348 -0.4219 -0.7602  0.0141
  545TMC3    C4 8086   3.811   3.519   0.515  0.0141  0.5078 -0.7299
  545TMC3    C5 8087   3.871   3.401   0.480  1.2974  0.4313  0.4612
  545TMC3    C6 8088   3.816   3.306   0.403  0.3221  0.0388  0.2551
  545TMC3     C 8089   3.638   3.678   0.460 -0.1904 -0.0927  0.0701
  545TMC3     O 8090   3.593   3.710   0.350  0.0392  0.0580  0.3988
  545TMC3     H 8091   3.541   3.486   0.321 -0.7120  0.5063  0.7491
  545TMC3    H1 8092   3.861   3.602   0.563  2.0784  0.1909 -2.3170
  545TMC3    H2 8093   3.876   3.220   0.375  1.4102  0.4872  1.2011
  545TMC3    C7 8094   4.000   3.368   0.527 -0.4112 -0.4078  1.0387
  545TMC3    C8 8095   3.613   3.214   0.309 -0.1882  0.2911 -0.2967
  545TMC3    O1 8096   4.069   3.275   0.485 -0.6133 -0.0997 -0.0951
  545TMC3    O2 8097   3.637   3.105   0.354  0.1475 -0.4174 -0.3152
  546MPD2     C 8098   0.086   4.552   0.486 -0.5414 -0.3884 -0.1130
  546MPD2    C1 8099   0.049   4.574   0.357 -0.0021  0.2249 -0.2206
  546MPD2    C2 8100   0.138   4.615   0.259 -0.5820 -0.3986 -0.4974
  546MPD2    C3 8101   0.271   4.632   0.297  0.0284 -0.5776 -0.6441
  546MPD2    C4 8102   0.308   4.598   0.423 -0.3066 -0.0800 -1.0510
  546MPD2    C5 8103   0.220   4.558   0.518 -0.0890  0.3717 -0.2548
  546MPD2     H 8104   0.113   4.609   0.154 -0.1809 -1.6399 -0.5269
  546MPD2    H1 8105   0.414   4.601   0.444 -0.1397  0.0204 -1.8815
  546MPD2    H2 8106   0.009   4.532   0.559 -1.7936  0.4902 -1.1945
  546MPD2    H3 8107   0.256   4.545   0.619 -0.4084 -0.4284 -0.2423
  546MPD2     N 8108   0.368   4.677   0.207 -0.5162  0.3960  0.6614
  546MPD2    H5 8109   0.464   4.685   0.240  0.2131  1.2718 -1.6712
  546MPD2    N1 8110   4.632   4.535   0.338  0.5623  0.5757  0.5850
  546MPD2    H7 8111   4.578   4.495   0.414 -1.7548 -0.2613 -1.5018
  547TMC3    C1 8112   4.420   4.500   0.235 -0.7083 -0.3359 -0.3621
  547TMC3    C2 8113   4.337   4.516   0.129 -0.5834 -0.6176  0.2515
  547TMC3    C3 8114   4.236   4.427   0.109 -0.0931 -0.2553 -0.5452
  547TMC3    C4 8115   4.383   4.409   0.332 -0.7036  0.3971 -0.3250
  547TMC3    C5 8116   4.273   4.336   0.321  0.1774 -0.3921 -0.0336
  547TMC3    C6 8117   4.193   4.338   0.210  1.0939 -0.0347 -0.3953
  547TMC3     C 8118   4.559   4.549   0.223 -0.5814  0.7559  0.1374
  547TMC3     O 8119   4.595   4.599   0.119  0.3679  0.4929  0.5329
  547TMC3     H 8120   4.361   4.587   0.050 -2.7553  0.4173  0.5044
  547TMC3    H1 8121   4.443   4.400   0.422 -0.2195 -0.7819 -0.7640
  547TMC3    H2 8122   4.108   4.271   0.210  2.5187 -1.8372  2.8180
  547TMC3    C7 8123   4.264   4.218   0.406  0.4309  0.2606 -0.7160
  547TMC3    C8 8124   4.151   4.444  17.681 -0.7193  0.2818  0.0463
  547TMC3    O1 8125   4.190   4.226   0.498  0.1268 -0.0766 -0.3638
  547TMC3    O2 8126   4.158   4.549  17.620 -0.5402  0.2339 -0.0022
  548MPD2     C 8127   4.333   0.928  12.484 -0.3810 -0.3863 -0.4095
  548MPD2    C1 8128   4.363   0.842  12.585 -0.4009 -0.2472 -0.3855
  548MPD2    C2 8129   4.470   0.758  12.574  0.0214 -0.1231 -0.9308
  548MPD2    C3 8130   4.541   0.756  12.455 -0.6366  0.6652 -0.0799
  548MPD2    C4 8131   4.522   0.846  12.353 -0.3822  0.2585  0.8121
  548MPD2    C5 8132   4.415   0.929  12.370 -0.4940  0.1353 -0.7753
  548MPD2     H 8133   4.487   0.689  12.655 -0.1783  0.0765 -0.7194
  548MPD2    H1 8134   4.566   0.847  12.254 -2.0028 -0.2548  0.0829
  548MPD2    H2 8135   4.246   0.992  12.493  0.0576  0.0900  0.4322
  548MPD2    H3 8136   4.381   0.994  12.290 -4.2823 -1.2391 -0.2561
  548MPD2     N 8137   4.645   0.655  12.455 -0.6963  0.0187 -0.6176
  548MPD2    H5 8138   4.661   0.617  12.548  0.3617  0.6461 -0.5501
  548MPD2    N1 8139   4.267   0.821  12.687  0.1643 -0.1273  0.0878
  548MPD2    H7 8140   4.199   0.895  12.696  1.2638  0.7888  0.8957
  549TMC3    C1 8141   4.183   0.745  12.895 -0.7749  0.0982 -0.1346
  549TMC3    C2 8142   4.132   0.869  12.920 -0.1836  0.1913  0.1074
  549TMC3    C3 8143   4.024   0.871  13.007 -0.6259  0.2545  0.3702
  549TMC3    C4 8144   4.136   0.633  12.952  0.2581 -0.0856  0.0539
  549TMC3    C5 8145   4.027   0.640  13.035 -0.3995  0.4379 -0.4116
  549TMC3    C6 8146   3.971   0.764  13.061  0.1699 -0.1885 -1.0001
  549TMC3     C 8147   4.260   0.713  12.774 -0.3779 -0.1572 -0.4851
  549TMC3     O 8148   4.311   0.603  12.766 -0.6956 -0.4131  0.3212
  549TMC3     H 8149   4.163   0.963  12.876  0.2181 -0.6282 -1.3896
  549TMC3    H1 8150   4.167   0.539  12.907 -0.3538  0.2808 -1.1560
  549TMC3    H2 8151   3.877   0.769  13.114  1.3038  0.4086  0.9569
  549TMC3    C7 8152   3.999   0.534  13.126 -0.3075 -0.0297 -0.4843
  549TMC3    C8 8153   3.927   0.986  12.994 -0.2020  0.6597 -0.2740
  549TMC3    O1 8154   3.961   0.576  13.236  0.1951  0.6284  0.5301
  549TMC3    O2 8155   3.812   0.958  12.963  0.5129 -0.2480 -0.7001
  550TMC3    C1 8156   3.554   3.534  12.420 -0.1256  0.0812 -0.5391
  550TMC3    C2 8157   3.491   3.650  12.472 -0.0792  0.3316 -0.2740
  550TMC3    C3 8158   3.374   3.686  12.413  0.5789 -0.3605  0.0070
  550TMC3    C4 8159   3.523   3.470  12.305  0.4392 -0.1399 -0.0858
  550TMC3    C5 8160   3.417   3.524  12.245  0.1732  0.3828  0.2137
  550TMC3    C6 8161   3.333   3.620  12.296  0.4654 -1.1368  0.1239
  550TMC3     C 8162   3.669   3.495  12.496 -0.0362  1.0036 -0.5704
  550TMC3     O 8163   3.687   3.563  12.598  0.2150 -0.1498 -0.5289
  550TMC3     H 8164   3.518   3.700  12.564  1.7797 -0.5325 -0.3395
  550TMC3    H1 8165   3.579   3.389  12.261  4.1396  3.8414 -2.7056
  550TMC3    H2 8166   3.243   3.646  12.241  0.4856 -2.7731 -0.6777
  550TMC3    C7 8167   3.364   3.460  12.129  0.1963 -0.7967  0.1854
  550TMC3    C8 8168   3.273   3.701  12.512 -0.6369 -0.5782 -0.1461
  550TMC3    O1 8169   3.375   3.337  12.141 -0.3265 -0.9571 -0.4247
  550TMC3    O2 8170   3.299   3.784  12.601 -0.7013 -0.6082  0.0837
  551TMC3    C1 8171   0.763   1.261  13.427 -0.4443  0.2844 -0.2358
  551TMC3    C2 8172   0.873   1.276  13.343  0.0274  0.2287  0.1460
  551TMC3    C3 8173   0.957   1.383  13.369 -0.6888 -0.3477  0.0061
  551TMC3    C4 8174   0.745   1.332  13.546  0.2079  0.4402  0.3500
  551TMC3    C5 8175   0.838   1.428  13.567 -0.7916  0.3397 -0.4852
  551TMC3    C6 8176   0.944   1.464  13.479  1.0667 -0.2719  0.4666
  551TMC3     C 8177   0.646   1.182  13.381  0.0149 -0.2862  0.3453
  551TMC3     O 8178   0.667   1.113  13.283  0.3311  0.0378 -0.0789
  551TMC3     H 8179   0.878   1.215  13.253  1.6487  0.5544  0.0079
  551TMC3    H1 8180   0.686   1.282  13.622 -0.4401  0.2668 -0.2685
  551TMC3    H2 8181   1.014   1.543  13.503  1.1607  0.6034 -2.7779
  551TMC3    C7 8182   0.829   1.508  13.688  0.1524 -0.3874 -0.1077
  551TMC3    C8 8183   1.034   1.424  13.253 -0.2086 -0.0107 -0.4258
  551TMC3    O1 8184   0.812   1.445  13.793 -0.2730  0.8143 -0.7121
  551TMC3    O2 8185   1.048   1.342  13.164  0.2525 -0.2148 -0.0052
  552MPD2     C 8186   3.475   3.556  14.063  0.6549 -0.7467  0.2494
  552MPD2    C1 8187   3.445   3.450  14.148 -0.0764  0.1975  0.1775
  552MPD2    C2 8188   3.480   3.446  14.285  0.0218 -0.5237  0.5125
  552MPD2    C3 8189   3.544   3.557  14.335  0.3425  0.4411  0.1779
  552MPD2    C4 8190   3.574   3.661  14.253  0.4615  0.3068  0.0950
  552MPD2    C5 8191   3.548   3.661  14.121  0.4091  0.1187 -0.0960
  552MPD2     H 8192   3.472   3.351  14.337  1.3919 -1.7073 -1.4291
  552MPD2    H1 8193   3.632   3.745  14.289  0.0830  0.4391  0.3964
  552MPD2    H2 8194   3.461   3.561  13.956 -0.2309 -1.0384  0.3555
  552MPD2    H3 8195   3.576   3.748  14.063  1.6882 -0.4650 -0.3424
  552MPD2     N 8196   3.587   3.565  14.475  0.7140  0.0295  0.2205
  552MPD2    H5 8197   3.644   3.644  14.503 -0.5944  0.3353  1.9712
  552MPD2    N1 8198   3.366   3.339  14.103 -0.9242  0.8155 -0.2232
  552MPD2    H7 8199   3.340   3.266  14.168 -1.2891  1.3857  0.2779
  553TMC3    C1 8200   3.243   3.185  13.969  0.1970 -0.8238 -0.0787
  553TMC3    C2 8201   3.233   3.131  13.842 -0.9108 -0.0105  0.5482
  553TMC3    C3 8202   3.144   3.030  13.827  0.2877 -0.2281 -0.2576
  553TMC3    C4 8203   3.172   3.146  14.079  0.2522  0.0986 -0.1804
  553TMC3    C5 8204   3.094   3.041  14.055  0.3198  0.3586  0.5274
  553TMC3    C6 8205   3.069   2.989  13.932  0.1910 -0.4774  0.3365
  553TMC3     C 8206   3.335   3.306  13.971  0.3533  0.6613 -0.9852
  553TMC3     O 8207   3.380   3.347  13.866 -0.1454 -0.7576  0.0250
  553TMC3     H 8208   3.294   3.165  13.759  0.8521 -1.9670  1.0610
  553TMC3    H1 8209   3.176   3.190  14.178 -2.2507  0.6365 -0.3322
  553TMC3    H2 8210   3.015   2.895  13.932 -0.6840  0.0317  0.3759
  553TMC3    C7 8211   3.045   2.964  14.170 -0.3141 -0.2681  0.0794
  553TMC3    C8 8212   3.144   2.954  13.703  0.1841 -0.2975 -0.2918
  553TMC3    O1 8213   2.937   2.907  14.175 -0.0315  0.1597  0.8432
  553TMC3    O2 8214   3.239   2.951  13.624 -0.0184 -0.0199  0.3723
  554TMC3    C1 8215   4.610   2.104  11.503  0.0420  0.0948 -0.3762
  554TMC3    C2 8216   4.543   2.038  11.400  0.2067  0.1737  0.0607
  554TMC3    C3 8217   4.588   2.056  11.272  0.0451  0.4831 -0.3644
  554TMC3    C4 8218   4.702   2.198  11.474  0.2478 -0.0985 -0.1410
  554TMC3    C5 8219   0.013   2.209  11.341  0.0086  0.3573 -0.0176
  554TMC3    C6 8220   4.680   2.142  11.237 -0.3543  0.7931  0.0555
  554TMC3     C 8221   4.578   2.064  11.636  0.2762  0.5479 -0.5535
  554TMC3     O 8222   4.472   2.004  11.657  0.2759 -0.5745 -0.4670
  554TMC3     H 8223   4.479   1.954  11.426 -1.0085  0.5255 -1.8056
  554TMC3    H1 8224   0.017   2.275  11.541 -0.7053  0.9999 -0.8822
  554TMC3    H2 8225   0.000   2.137  11.137 -0.5494 -2.1748  0.1462
  554TMC3    C7 8226   0.073   2.331  11.288  0.5133  0.2527  0.0080
  554TMC3    C8 8227   4.508   2.010  11.163 -0.2729  1.0767  0.6955
  554TMC3    O1 8228   0.068   2.347  11.164 -0.0784  0.3424  0.0507
  554TMC3    O2 8229   4.559   2.006  11.052 -0.3269  0.2529  0.0192
  555TMC3    C1 8230   3.718   2.230  15.576 -0.1094  0.5452  0.0445
  555TMC3    C2 8231   3.744   2.227  15.709  0.1120 -0.7931  0.2179
  555TMC3    C3 8232   3.691   2.122  15.773  0.1495  0.3438 -0.5405
  555TMC3    C4 8233   3.671   2.126  15.499 -0.3360 -0.0688 -0.4393
  555TMC3    C5 8234   3.627   2.022  15.579 -0.1786  0.0792  0.3437
  555TMC3    C6 8235   3.640   2.016  15.711  0.3474 -0.0613 -0.2053
  555TMC3     C 8236   3.721   2.355  15.516 -0.3382 -0.4168 -0.4041
  555TMC3     O 8237   3.808   2.429  15.558  0.6082  0.1707  0.2274
  555TMC3     H 8238   3.770   2.315  15.767  0.3397 -1.4946  1.1778
  555TMC3    H1 8239   3.663   2.130  15.391 -1.2925  0.7671 -0.3371
  555TMC3    H2 8240   3.586   1.933  15.756  0.4648  0.2848  0.5885
  555TMC3    C7 8241   3.592   1.891  15.519  0.1993  0.1421 -0.5081
  555TMC3    C8 8242   3.720   2.107  15.913 -0.7165 -0.0209 -0.6021
  555TMC3    O1 8243   3.625   1.792  15.584 -0.2710 -0.7137 -0.1736
  555TMC3    O2 8244   3.764   2.210  15.965 -0.1368  0.1149  0.2600
  556MPD2     C 8245   1.910   3.887  10.971  0.1094  0.0887 -0.3004
  556MPD2    C1 8246   1.875   3.754  10.963  0.0456 -0.3636 -0.1639
  556MPD2    C2 8247   1.863   3.695  10.838  0.8549 -0.0225  0.1195
  556MPD2    C3 8248   1.872   3.765  10.725 -0.0643  0.4612 -0.0127
  556MPD2    C4 8249   1.909   3.899  10.731 -0.2650 -0.3544 -0.3419
  556MPD2    C5 8250   1.929   3.960  10.852  0.3242 -0.0826  0.3967
  556MPD2     H 8251   1.834   3.591  10.827  0.3239  0.1161  0.2303
  556MPD2    H1 8252   1.925   3.958  10.642  2.5518 -0.8006 -0.1322
  556MPD2    H2 8253   1.921   3.949  11.059  1.2974 -3.9255  2.4231
  556MPD2    H3 8254   1.961   4.062  10.868 -1.3283  1.3667 -5.6481
  556MPD2     N 8255   1.850   3.692  10.603 -0.5268 -0.4011 -0.4657
  556MPD2    H5 8256   1.833   3.593  10.620 -2.0013  0.0225  0.4192
  556MPD2    N1 8257   1.846   3.676  11.081 -0.4076  0.4396 -0.5095
  556MPD2    H7 8258   1.806   3.583  11.069  1.4574 -0.5088  0.7162
  557TMC3    C1 8259   1.816   3.644  10.374  0.2521  0.5239 -0.1427
  557TMC3    C2 8260   1.791   3.686  10.248 -0.1212  0.8427 -0.4297
  557TMC3    C3 8261   1.726   3.611  10.155  0.0550 -0.0992 -0.2828
  557TMC3    C4 8262   1.787   3.515  10.405 -0.1692  0.1179 -0.5412
  557TMC3    C5 8263   1.740   3.435  10.301 -0.1007 -0.4470  0.4318
  557TMC3    C6 8264   1.706   3.479  10.177  0.0819  0.4925  0.4941
  557TMC3     C 8265   1.847   3.749  10.478  0.3600 -0.4917  0.4919
  557TMC3     O 8266   1.854   3.867  10.444 -0.5015  0.1284 -0.4660
  557TMC3     H 8267   1.832   3.780  10.213 -0.7655  1.9016  1.6504
  557TMC3    H1 8268   1.824   3.476  10.500  1.1061 -0.1684 -1.1577
  557TMC3    H2 8269   1.655   3.404  10.117  0.9449 -0.7966  1.3646
  557TMC3    C7 8270   1.693   3.300  10.338 -0.0681 -0.0904  0.9486
  557TMC3    C8 8271   1.707   3.673  10.023 -0.9955 -0.3799  0.0093
  557TMC3    O1 8272   1.671   3.276  10.456 -0.4948  0.0720 -0.2576
  557TMC3    O2 8273   1.785   3.756   9.994 -0.0546 -0.4217  0.3857
  558TMC3    C1 8274   4.068   0.868  10.144 -0.4260  0.2319  1.4391
  558TMC3    C2 8275   3.981   0.885  10.250  0.5842  0.0832  0.0094
  558TMC3    C3 8276   3.850   0.907  10.210  0.1157 -1.0431 -0.4517
  558TMC3    C4 8277   4.037   0.876  10.007  0.5238  0.1737  0.5721
  558TMC3    C5 8278   3.907   0.889   9.979  0.2002  0.2671  0.4629
  558TMC3    C6 8279   3.813   0.902  10.079 -0.4479  0.4264 -0.0021
  558TMC3     C 8280   4.210   0.888  10.177 -0.9573 -0.1149  0.1468
  558TMC3     O 8281   4.239   0.969  10.272 -0.5598 -0.7979 -0.0002
  558TMC3     H 8282   4.020   0.906  10.349  1.8817  1.0805 -0.7139
  558TMC3    H1 8283   4.124   0.888   9.942  1.8320 -2.5555  1.8112
  558TMC3    H2 8284   3.709   0.923  10.054 -0.8356  0.0961  1.3172
  558TMC3    C7 8285   3.874   0.939   9.850 -0.3321  0.5822 -0.1072
  558TMC3    C8 8286   3.741   0.907  10.306  0.2303  0.2409  0.1730
  558TMC3    O1 8287   3.967   0.990   9.795 -0.0385 -0.0458 -0.0727
  558TMC3    O2 8288   3.628   0.929  10.270 -0.0289  0.1970  0.2833
  559MPD2     C 8289   4.601   1.632  10.427 -0.0636  0.0215  0.5436
  559MPD2    C1 8290   4.532   1.558  10.523  0.0620 -0.0106 -1.3902
  559MPD2    C2 8291   4.613   1.518  10.630  0.1144 -0.3956  0.0159
  559MPD2    C3 8292   0.036   1.531  10.635 -0.2691  0.0957  0.8409
  559MPD2    C4 8293   0.102   1.585  10.531  0.3667  0.2266  0.1880
  559MPD2    C5 8294   0.019   1.634  10.427  0.1684  0.2430  0.5283
  559MPD2     H 8295   4.562   1.475  10.716 -0.2845 -2.5760 -1.3041
  559MPD2    H1 8296   0.209   1.602  10.527  0.5753 -1.7912 -3.4081
  559MPD2    H2 8297   4.543   1.669  10.343  0.0080 -1.0764  0.0205
  559MPD2    H3 8298   0.061   1.702  10.354 -2.9583  0.7188 -0.8614
  559MPD2     N 8299   0.102   1.501  10.756 -0.0981 -0.6941  0.2920
  559MPD2    H5 8300   0.043   1.479  10.835 -0.4802 -0.3849  0.0934
  559MPD2    N1 8301   4.394   1.541  10.527  0.0754  0.1394  0.5852
  559MPD2    H7 8302   4.348   1.603  10.462  2.4553  0.3386 -0.9248
  560TMC3    C1 8303   0.249   1.478  10.931  0.0860 -0.3434 -0.0128
  560TMC3    C2 8304   0.156   1.403  10.984  0.3283  0.0009 -0.6364
  560TMC3    C3 8305   0.134   1.408  11.121 -0.1466 -0.3997 -0.3226
  560TMC3    C4 8306   0.336   1.554  11.014 -0.3663 -0.3354 -0.2044
  560TMC3    C5 8307   0.316   1.558  11.145  0.4415 -0.2084 -0.1600
  560TMC3    C6 8308   0.222   1.475  11.202 -0.0194 -0.3950  0.5847
  560TMC3     C 8309   0.231   1.533  10.794 -0.5082 -0.7214 -0.5533
  560TMC3     O 8310   0.325   1.593  10.741  0.2419 -0.2362 -0.0709
  560TMC3     H 8311   0.099   1.332  10.925  0.1827 -0.2027 -0.2489
  560TMC3    H1 8312   0.403   1.624  10.965 -0.4097  0.0539  0.2977
  560TMC3    H2 8313   0.209   1.478  11.310 -2.4319 -1.7517  0.3405
  560TMC3    C7 8314   0.414   1.626  11.235  0.1328 -0.0441 -0.2201
  560TMC3    C8 8315   0.000   1.367  11.149 -0.2469 -0.1497 -0.3145
  560TMC3    O1 8316   0.403   1.599  11.354 -0.3043 -0.1937  0.2014
  560TMC3    O2 8317   4.695   1.293  11.239  0.1308 -0.3531 -0.3324
  561TMC3    C1 8318   2.512   0.855  11.216 -0.5563 -0.2414  0.4268
  561TMC3    C2 8319   2.416   0.768  11.264  0.4991  0.4716  0.0773
  561TMC3    C3 8320   2.309   0.826  11.330  0.0461  0.4674 -0.3383
  561TMC3    C4 8321   2.505   0.990  11.219  0.4945 -0.7269 -0.3275
  561TMC3    C5 8322   2.393   1.039  11.284  0.5809  0.5810 -0.3005
  561TMC3    C6 8323   2.302   0.965  11.340  0.4297  0.4152 -0.2838
  561TMC3     C 8324   2.625   0.782  11.155 -0.7971 -0.0616  0.0627
  561TMC3     O 8325   2.645   0.666  11.181  0.1911  0.5966  0.4404
  561TMC3     H 8326   2.417   0.660  11.249 -0.9041  0.3075  1.0880
  561TMC3    H1 8327   2.589   1.049  11.183 -0.1530  0.5809  0.3066
  561TMC3    H2 8328   2.223   1.008  11.399  0.8809 -1.1121  1.4339
  561TMC3    C7 8329   2.389   1.182  11.319 -0.0870 -0.6356 -0.0988
  561TMC3    C8 8330   2.224   0.731  11.406  0.4640 -0.4416  0.2820
  561TMC3    O1 8331   2.304   1.220  11.400  0.3017  0.8892  0.0778
  561TMC3    O2 8332   2.239   0.613  11.393  0.5365  0.5376  0.2603
  562TMC3    C1 8333   3.284   1.845  16.297  0.3358 -0.2361  0.7297
  562TMC3    C2 8334   3.317   1.982  16.287  0.0291  0.3208  0.1428
  562TMC3    C3 8335   3.359   2.023  16.165  0.3658  0.6906 -0.0556
  562TMC3    C4 8336   3.284   1.765  16.180 -0.1989  0.7193 -0.1706
  562TMC3    C5 8337   3.323   1.817  16.059  0.1913 -0.1614 -0.0951
  562TMC3    C6 8338   3.375   1.945  16.055 -0.8022  0.6210  0.5601
  562TMC3     C 8339   3.300   1.776  16.426 -0.4637  0.0274 -0.1849
  562TMC3     O 8340   3.273   1.657  16.424 -0.2285 -0.0344 -0.3791
  562TMC3     H 8341   3.344   2.045  16.371  0.7719 -0.9136  0.8377
  562TMC3    H1 8342   3.260   1.660  16.197  0.6986  0.2502 -1.7643
  562TMC3    H2 8343   3.410   1.977  15.958  1.8221 -1.2990  0.8728
  562TMC3    C7 8344   3.354   1.717  15.947  0.0364 -0.3469 -0.6316
  562TMC3    C8 8345   3.384   2.164  16.155 -0.1223 -0.6980  0.0120
  562TMC3    O1 8346   3.411   1.775  15.861 -0.4770  0.2118  0.1658
  562TMC3    O2 8347   3.422   2.225  16.259 -0.0031  0.2947 -0.4896
  563MPD2     C 8348   0.852   3.860  15.677  0.4482 -0.4875  0.0761
  563MPD2    C1 8349   0.876   3.871  15.813 -0.5083  0.5254 -0.3729
  563MPD2    C2 8350   0.981   3.956  15.848  0.3388 -0.5909 -0.6899
  563MPD2    C3 8351   1.061   4.015  15.757  0.4222  0.1958  0.2773
  563MPD2    C4 8352   1.029   4.011  15.626  0.0644  0.1523  0.1148
  563MPD2    C5 8353   0.920   3.936  15.585  0.4264 -0.4447 -0.3178
  563MPD2     H 8354   1.023   3.957  15.947  2.0763 -1.3612 -1.4226
  563MPD2    H1 8355   1.080   4.064  15.547 -0.2940 -0.0846 -0.2777
  563MPD2    H2 8356   0.777   3.794  15.636 -0.0110 -0.6831  1.2319
  563MPD2    H3 8357   0.890   3.922  15.482  0.3062 -0.3261 -0.2984
  563MPD2     N 8358   1.161   4.088  15.806  0.5858  0.1842 -0.1391
  563MPD2    H5 8359   1.142   4.105  15.904  0.7311  2.4235 -0.5032
  563MPD2    N1 8360   0.810   3.790  15.913  0.1299  0.6726 -0.2076
  563MPD2    H7 8361   0.731   3.735  15.881  0.0527  0.1025  0.9813
  564TMC3    C1 8362   0.737   3.683  16.108 -0.2251  0.5828  0.0160
  564TMC3    C2 8363   0.635   3.617  16.035 -0.6970 -0.7417  0.5861
  564TMC3    C3 8364   0.534   3.570  16.104  0.5397 -0.1652 -0.0017
  564TMC3    C4 8365   0.736   3.683  16.248  0.5598 -0.8322  0.0673
  564TMC3    C5 8366   0.631   3.617  16.310  0.1002 -0.6061 -0.6051
  564TMC3    C6 8367   0.526   3.566  16.243  0.2357  0.0688 -0.1225
  564TMC3     C 8368   0.834   3.776  16.051  0.1498  0.5911 -0.2971
  564TMC3     O 8369   0.904   3.839  16.128  0.2004 -0.4282  0.0007
  564TMC3     H 8370   0.640   3.598  15.928 -0.5153 -0.7725  0.5997
  564TMC3    H1 8371   0.807   3.740  16.307 -0.3701  2.2804 -1.8400
  564TMC3    H2 8372   0.443   3.523  16.297 -2.2130  0.6015 -3.5100
  564TMC3    C7 8373   0.689   3.521  16.399  0.1062  0.6344 -0.3425
  564TMC3    C8 8374   0.461   3.452  16.046  0.1243  0.0329  0.1291
  564TMC3    O1 8375   0.798   3.550  16.446  0.7390 -0.3446  0.2315
  564TMC3    O2 8376   0.358   3.432  16.115 -0.2495  0.4427 -0.4400
  565TMC3    C1 8377   1.026   0.097  10.087  0.0819 -0.0442 -0.1748
  565TMC3    C2 8378   1.134   0.031  10.141 -0.8060 -0.6092  0.1486
  565TMC3    C3 8379   1.126   4.616  10.151 -0.2698  0.1444  0.6608
  565TMC3    C4 8380   0.917   0.034  10.037 -0.3340  0.4092  1.1292
  565TMC3    C5 8381   0.910   4.621  10.059  0.0717 -0.1928  0.0278
  565TMC3    C6 8382   1.015   4.549  10.099  0.3100  0.5930  0.3629
  565TMC3     C 8383   1.018   0.237  10.086 -0.0563 -0.0851  0.2291
  565TMC3     O 8384   0.952   0.293  10.000  0.7099 -0.0936 -0.4087
  565TMC3     H 8385   1.220   0.088  10.176 -1.7350  0.8803  0.0456
  565TMC3    H1 8386   0.830   0.088  10.004  0.4347  1.2481  0.4962
  565TMC3    H2 8387   0.995   4.452  10.144  0.5651  1.1974  1.7798
  565TMC3    C7 8388   0.810   4.544  10.000 -0.2965  0.7111  0.2653
  565TMC3    C8 8389   1.235   4.555  10.224 -0.8114 -0.9421 -0.3921
  565TMC3    O1 8390   0.828   4.424   9.990 -0.3788  0.6874  0.4635
  565TMC3    O2 8391   1.303   4.626  10.300  0.0742  1.2546 -0.5257
  566MPD2     C 8392   3.060   2.317  14.327 -0.0903 -0.7295  0.2280
  566MPD2    C1 8393   3.147   2.316  14.221  0.1963  0.2441  0.0608
  566MPD2    C2 8394   3.102   2.263  14.096  0.4791  0.5246 -0.1955
  566MPD2    C3 8395   2.972   2.203  14.091 -0.3553 -0.3442 -0.3934
  566MPD2    C4 8396   2.896   2.204  14.201 -0.1049 -0.0612 -0.3514
  566MPD2    C5 8397   2.945   2.256  14.316 -0.5795  0.0734  0.4015
  566MPD2     H 8398   3.158   2.258  14.003 -0.4478 -1.8421 -0.6366
  566MPD2    H1 8399   2.797   2.161  14.201 -0.7878  1.5005  2.4869
  566MPD2    H2 8400   3.089   2.347  14.427  0.5944  0.4009 -0.3075
  566MPD2    H3 8401   2.887   2.256  14.407 -0.6257 -3.3457  0.3785
  566MPD2     N 8402   2.922   2.144  13.980  0.0837 -0.7037  0.2677
  566MPD2    H5 8403   2.829   2.103  13.979 -0.2716  0.1811 -1.9561
  566MPD2    N1 8404   3.278   2.365  14.248  0.3155 -0.0219  0.8220
  566MPD2    H7 8405   3.267   2.445  14.309  0.1333  0.4894  0.1134
  567TMC3    C1 8406   3.398   2.195  14.116  0.3909 -1.0635  0.0556
  567TMC3    C2 8407   3.434   2.197  13.984 -0.5264 -0.2603 -0.4824
  567TMC3    C3 8408   3.401   2.084  13.918  0.0158 -0.0220  0.8232
  567TMC3    C4 8409   3.333   2.096  14.177  0.2069 -0.1066  0.1101
  567TMC3    C5 8410   3.299   1.987  14.102  0.0210  0.3689  1.0361
  567TMC3    C6 8411   3.331   1.975  13.970  1.0027 -0.2016  0.4601
  567TMC3     C 8412   3.393   2.332  14.179  0.3892  0.2475  0.6725
  567TMC3     O 8413   3.495   2.401  14.181 -0.0517 -0.6559  0.0069
  567TMC3     H 8414   3.492   2.279  13.944 -0.4175  0.0510  0.3055
  567TMC3    H1 8415   3.311   2.123  14.280 -2.3905 -0.7444 -0.2630
  567TMC3    H2 8416   3.282   1.904  13.904  1.9588  1.1453 -1.6660
  567TMC3    C7 8417   3.177   1.912  14.137 -0.2686  0.0332 -0.1297
  567TMC3    C8 8418   3.462   2.066  13.790 -0.2124 -0.3912 -0.5529
  567TMC3    O1 8419   3.126   1.836  14.054 -0.1707 -0.1169  0.1707
  567TMC3    O2 8420   3.394   2.010  13.706  0.5324 -0.8307 -0.4254
  568MPD2     C 8421   0.134   2.097  16.570  0.3083 -0.0628 -0.4201
  568MPD2    C1 8422   0.262   2.149  16.580  0.4990  0.8534 -0.1673
  568MPD2    C2 8423   0.293   2.277  16.532 -0.2147 -0.1557 -0.1867
  568MPD2    C3 8424   0.185   2.351  16.473 -0.0355 -0.1922  0.6108
  568MPD2    C4 8425   0.060   2.295  16.467  0.2818  0.1118 -0.5296
  568MPD2    C5 8426   0.030   2.168  16.521 -0.2604 -0.6931 -0.3224
  568MPD2     H 8427   0.385   2.324  16.564 -0.5244 -0.3971  1.0731
  568MPD2    H1 8428   4.704   2.354  16.419 -0.8289 -1.0308 -0.1626
  568MPD2    H2 8429   0.114   1.995  16.600  1.8387 -0.2219  0.0499
  568MPD2    H3 8430   4.648   2.138  16.530 -0.6317  0.7430  0.2551
  568MPD2     N 8431   0.203   2.490  16.428 -0.3722  0.2563 -0.4920
  568MPD2    H5 8432   0.298   2.517  16.408  0.0549 -0.3814  0.6707
  568MPD2    N1 8433   0.355   2.068  16.660  0.9318  0.0428 -0.2619
  568MPD2    H7 8434   0.315   1.984  16.701  3.5847 -0.2835  1.6693
  569TMC3    C1 8435   0.144   2.716  16.394 -0.4337  0.3606  0.0509
  569TMC3    C2 8436   0.069   2.816  16.438  0.0615 -0.2281 -0.1715
  569TMC3    C3 8437   0.050   2.923  16.355  0.2465  0.3451 -0.1473
  569TMC3    C4 8438   0.212   2.715  16.271 -0.1478 -0.2497 -0.1452
  569TMC3    C5 8439   0.185   2.819  16.195  0.2378  0.3911  0.5567
  569TMC3    C6 8440   0.105   2.925  16.231 -0.0136  0.2076  1.0372
  569TMC3     C 8441   0.104   2.592  16.448 -0.4916  0.7222  0.0005
  569TMC3     O 8442   4.718   2.578  16.504  0.2710 -0.0725 -0.2542
  569TMC3     H 8443   0.012   2.810  16.531  0.8301 -0.9850  0.2530
  569TMC3    H1 8444   0.265   2.625  16.239 -0.1958  0.0697 -1.1225
  569TMC3    H2 8445   0.068   2.997  16.159 -0.9251 -1.0616  0.2389
  569TMC3    C7 8446   0.278   2.845  16.089 -0.4931  0.2031  0.5001
  569TMC3    C8 8447   0.029   3.052  16.408  0.5408 -0.5287  0.2158
  569TMC3    O1 8448   0.353   2.750  16.060  0.0641  0.2748 -0.5780
  569TMC3    O2 8449   4.676   3.133  16.352 -0.0094  1.1872  0.4138
  570TMC3    C1 8450   0.134   1.009  16.088 -0.1286 -0.4845 -0.4797
  570TMC3    C2 8451   0.240   0.981  16.012 -0.2200  0.0080  0.3391
  570TMC3    C3 8452   0.271   1.081  15.926 -0.9866  0.1662 -0.0316
  570TMC3    C4 8453   0.043   1.109  16.065 -0.0340 -0.2626 -0.1716
  570TMC3    C5 8454   0.078   1.204  15.978 -0.5767  0.6090  0.0765
  570TMC3    C6 8455   0.190   1.197  15.915  0.7893 -0.2957 -0.3754
  570TMC3     C 8456   0.093   0.895  16.176 -0.3369 -0.0496  0.5570
  570TMC3     O 8457   0.156   0.791  16.152 -0.6838 -0.1702  0.0107
  570TMC3     H 8458   0.305   0.899  16.041 -1.4427 -0.0591  2.8625
  570TMC3    H1 8459   4.672   1.117  16.122 -0.6862  0.5336 -1.3420
  570TMC3    H2 8460   0.222   1.267  15.839 -2.1515  3.0440  1.5159
  570TMC3    C7 8461   4.707   1.314  15.953  0.2898  0.3965  1.4155
  570TMC3    C8 8462   0.408   1.088  15.867 -0.4880 -0.4372 -0.3849
  570TMC3    O1 8463   4.619   1.333  16.042  0.4603  0.5845  0.0722
  570TMC3    O2 8464   0.451   1.199  15.841 -0.2753  0.6178 -0.0196
  571MPD2     C 8465   1.678   2.964   0.400  0.2890  0.0410  0.0649
  571MPD2    C1 8466   1.792   2.978   0.323 -0.6383 -0.0502 -0.5655
  571MPD2    C2 8467   1.878   3.086   0.334 -0.6163 -0.6756  0.5486
  571MPD2    C3 8468   1.852   3.178   0.434 -0.1855  0.5145 -0.2637
  571MPD2    C4 8469   1.741   3.164   0.512 -0.7711 -0.2293 -0.0050
  571MPD2    C5 8470   1.655   3.061   0.487 -0.4576 -0.4475 -0.3500
  571MPD2     H 8471   1.969   3.099   0.277 -1.2324 -1.1531 -0.5456
  571MPD2    H1 8472   1.716   3.233   0.592 -0.7565 -1.1452  0.7949
  571MPD2    H2 8473   1.603   2.889   0.379 -1.1358  1.3500  0.4655
  571MPD2    H3 8474   1.562   3.061   0.543 -0.6259  1.0749 -0.6228
  571MPD2     N 8475   1.936   3.294   0.462  0.0946 -0.7761 -0.9723
  571MPD2    H5 8476   1.900   3.351   0.537  1.7881 -1.0832  0.0676
  571MPD2    N1 8477   1.806   2.878   0.216  0.4637  0.5513 -0.1239
  571MPD2    H7 8478   1.742   2.800   0.205 -0.7901  1.3517  1.6555
  572TMC3    C1 8479   2.102   3.461   0.418  0.0476 -0.3286  0.4119
  572TMC3    C2 8480   2.052   3.528   0.525  0.3250 -0.1465 -0.7046
  572TMC3    C3 8481   2.137   3.604   0.602 -0.1570  0.0264  0.5529
  572TMC3    C4 8482   2.238   3.451   0.400  0.2709  0.1295 -0.0552
  572TMC3    C5 8483   2.322   3.519   0.483 -0.2522 -0.2434 -0.0547
  572TMC3    C6 8484   2.271   3.604   0.581 -0.3622 -0.1181 -0.0663
  572TMC3     C 8485   2.044   3.327   0.386 -0.2091  0.9501 -0.2103
  572TMC3     O 8486   2.116   3.261   0.304  0.1312 -0.6387 -0.4328
  572TMC3     H 8487   1.945   3.537   0.541  0.2487 -1.8725 -0.2116
  572TMC3    H1 8488   2.286   3.385   0.328  0.0442  0.5641 -0.6036
  572TMC3    H2 8489   2.339   3.655   0.649 -0.9891  1.2193 -0.4483
  572TMC3    C7 8490   2.468   3.513   0.476  0.4826 -0.2622  0.9140
  572TMC3    C8 8491   2.093   3.726   0.663  0.6817 -0.6301  0.4253
  572TMC3    O1 8492   2.515   3.524   0.362 -0.0685 -0.1487 -0.5225
  572TMC3    O2 8493   2.158   3.830   0.650  0.0787 -0.1622 -0.2740
  573MPD2     C 8494   3.517   3.561   1.307 -0.2761  0.6481  0.2186
  573MPD2    C1 8495   3.571   3.611   1.421  0.0719  0.4698  0.6677
  573MPD2    C2 8496   3.705   3.606   1.432  0.1079 -0.1032  0.4022
  573MPD2    C3 8497   3.792   3.564   1.333  0.4627 -0.1475 -0.4437
  573MPD2    C4 8498   3.736   3.516   1.216 -0.0603 -0.4442  0.1298
  573MPD2    C5 8499   3.598   3.497   1.212 -0.4624  0.8679  0.2179
  573MPD2     H 8500   3.753   3.643   1.522 -1.5382 -0.8811  1.5955
  573MPD2    H1 8501   3.803   3.464   1.148  1.4615  0.7457  0.7072
  573MPD2    H2 8502   3.409   3.560   1.297 -0.2019  1.7779 -0.6916
  573MPD2    H3 8503   3.562   3.443   1.126  1.2330  0.2963 -0.1347
  573MPD2     N 8504   3.934   3.571   1.336  0.1984  0.4295  0.4593
  573MPD2    H5 8505   3.979   3.555   1.246  2.3800  2.4939  1.1788
  573MPD2    N1 8506   3.491   3.662   1.519  0.2226 -0.5325  0.2800
  573MPD2    H7 8507   3.393   3.676   1.496 -0.0489  0.0559  1.7766
  574TMC3    C1 8508   4.157   3.619   1.411  0.1796 -0.2929  0.1970
  574TMC3    C2 8509   4.205   3.549   1.304  0.3961  0.0518 -0.0111
  574TMC3    C3 8510   4.336   3.556   1.274 -0.0022  0.8144  0.0010
  574TMC3    C4 8511   4.245   3.693   1.486 -0.9086 -0.2688  0.1860
  574TMC3    C5 8512   4.373   3.698   1.452 -0.3249 -0.2856  0.5962
  574TMC3    C6 8513   4.424   3.627   1.352  0.4872 -0.0564 -0.5675
  574TMC3     C 8514   4.018   3.604   1.441 -0.0739  0.4594 -1.0099
  574TMC3     O 8515   3.985   3.595   1.561 -0.4270  0.7795  0.3173
  574TMC3     H 8516   4.144   3.476   1.252  0.2498 -0.2504  0.5894
  574TMC3    H1 8517   4.197   3.756   1.560  3.8537  3.2793  0.2865
  574TMC3    H2 8518   4.526   3.640   1.319  1.6433 -3.5275  1.5749
  574TMC3    C7 8519   4.453   3.807   1.507  0.5396  0.6017 -0.0734
  574TMC3    C8 8520   4.378   3.511   1.142  0.1791 -0.1632  0.3340
  574TMC3    O1 8521   4.384   3.900   1.532 -0.4409  0.6495 -0.0145
  574TMC3    O2 8522   4.495   3.493   1.124 -1.1804 -0.3138  0.0209
  575TMC3    C1 8523   1.772   4.649  10.853  0.0731 -0.1881  0.1291
  575TMC3    C2 8524   1.776   4.565  10.961  0.4649  0.0795  0.3691
  575TMC3    C3 8525   1.726   4.439  10.946  0.6630 -0.0469 -0.2314
  575TMC3    C4 8526   1.733   4.609  10.731 -0.3861 -0.3004  0.6078
  575TMC3    C5 8527   1.675   4.487  10.718 -0.4768 -0.1895  0.4919
  575TMC3    C6 8528   1.665   4.398  10.828 -0.1500  0.2617  0.2641
  575TMC3     C 8529   1.847   0.052  10.864  0.4425 -0.5615  1.2420
  575TMC3     O 8530   1.882   0.111  10.763 -0.2310  0.1810  0.5094
  575TMC3     H 8531   1.839   4.580  11.047  2.6110  4.2350 -1.9121
  575TMC3    H1 8532   1.766   4.675  10.652  1.5586 -0.3519  1.3692
  575TMC3    H2 8533   1.607   4.306  10.823  0.1193  0.0859  0.3789
  575TMC3    C7 8534   1.600   4.468  10.595  0.3650  0.9525  0.2061
  575TMC3    C8 8535   1.760   4.331  11.039  0.3938  0.4327 -0.5648
  575TMC3    O1 8536   1.612   4.549  10.505 -0.5252 -0.5022 -0.4791
  575TMC3    O2 8537   1.729   4.219  11.005  0.4585  0.4177  0.2128
  576MPD2     C 8538   1.332   0.969  12.569 -0.5517 -0.1592 -0.3126
  576MPD2    C1 8539   1.354   1.083  12.496 -0.7340  0.0659  0.2931
  576MPD2    C2 8540   1.283   1.198  12.540 -0.7138 -0.1577 -0.4193
  576MPD2    C3 8541   1.185   1.199  12.637  0.4778  0.2050  0.0301
  576MPD2    C4 8542   1.151   1.083  12.698 -0.3505  0.6114  0.4336
  576MPD2    C5 8543   1.224   0.971  12.659  0.2368  0.8406 -0.0859
  576MPD2     H 8544   1.305   1.288  12.484  0.6280 -0.8212 -0.9491
  576MPD2    H1 8545   1.073   1.080  12.773 -0.5844  0.2002  0.1737
  576MPD2    H2 8546   1.378   0.873  12.547  1.9397  0.8385  0.5999
  576MPD2    H3 8547   1.208   0.882  12.718  0.0799 -0.2391 -1.7762
  576MPD2     N 8548   1.129   1.327  12.670 -0.3335 -0.9115  0.1480
  576MPD2    H5 8549   1.150   1.412  12.618  0.5220  0.5268  2.8370
  576MPD2    N1 8550   1.438   1.095  12.388  0.1495  0.5823 -0.1119
  576MPD2    H7 8551   1.452   1.184  12.341  1.3522  0.1549 -0.5609
  577TMC3    C1 8552   1.585   1.016  12.200  0.2651 -0.6229 -0.4081
  577TMC3    C2 8553   1.646   0.906  12.146 -0.0168  0.5028 -0.0866
  577TMC3    C3 8554   1.709   0.925  12.031  0.2928  0.1457  0.1781
  577TMC3    C4 8555   1.566   1.136  12.130  0.5192 -0.6698  0.3624
  577TMC3    C5 8556   1.614   1.140  12.005  0.5122 -0.3464 -0.6987
  577TMC3    C6 8557   1.696   1.037  11.958  0.1207 -0.3794  0.0021
  577TMC3     C 8558   1.513   0.992  12.329 -0.0147 -0.4207  0.2552
  577TMC3     O 8559   1.529   0.878  12.368 -0.2511  0.1055  0.2536
  577TMC3     H 8560   1.660   0.809  12.192 -1.5386  1.1499  1.7462
  577TMC3    H1 8561   1.511   1.218  12.174 -0.4737  1.0338 -4.0347
  577TMC3    H2 8562   1.737   1.050  11.859 -0.2026  1.0631  0.0541
  577TMC3    C7 8563   1.655   1.267  11.955 -0.3702  0.1208  0.4139
  577TMC3    C8 8564   1.766   0.812  11.969 -0.3135 -0.4136  0.4733
  577TMC3    O1 8565   1.708   1.347  12.029 -0.2768  0.0490  0.0394
  577TMC3    O2 8566   1.753   0.700  12.020 -0.3543 -0.6546  0.4388
  578MPD2     C 8567   3.026   0.650   0.934 -0.0738 -1.7607 -0.4979
  578MPD2    C1 8568   3.120   0.551   0.958 -0.4702  0.5298  0.1185
  578MPD2    C2 8569   3.221   0.565   1.052 -0.3430 -0.0787 -0.0437
  578MPD2    C3 8570   3.238   0.681   1.117  0.1506 -0.4147  0.4585
  578MPD2    C4 8571   3.142   0.781   1.095 -0.0469  0.4714  0.1296
  578MPD2    C5 8572   3.031   0.763   1.010  0.6278  0.1892 -0.9439
  578MPD2     H 8573   3.287   0.483   1.077  0.2497  0.1645 -0.7870
  578MPD2    H1 8574   3.136   0.876   1.148  0.9620  0.8866 -0.4946
  578MPD2    H2 8575   2.950   0.632   0.859  0.1440 -0.8818 -0.9288
  578MPD2    H3 8576   2.971   0.853   1.008 -0.8877 -0.8124 -0.0810
  578MPD2     N 8577   3.359   0.706   1.189  0.1015  0.2431 -0.2349
  578MPD2    H5 8578   3.417   0.623   1.199 -0.2186  0.2388  1.6073
  578MPD2    N1 8579   3.109   0.440   0.870 -0.3345  0.3618  0.6137
  578MPD2    H7 8580   3.026   0.440   0.811 -0.2348  0.2430  0.4766
  579TMC3    C1 8581   3.531   0.840   1.290 -0.0834 -0.0647  0.4858
  579TMC3    C2 8582   3.598   0.964   1.285 -0.6408 -0.5417  0.5883
  579TMC3    C3 8583   3.727   0.960   1.318  0.2361 -0.3333 -0.6728
  579TMC3    C4 8584   3.589   0.728   1.338 -0.8636  0.9662  0.0953
  579TMC3    C5 8585   3.721   0.741   1.391 -0.2894  0.2053 -0.6141
  579TMC3    C6 8586   3.787   0.856   1.374 -0.4495  0.6875 -0.1893
  579TMC3     C 8587   3.402   0.832   1.236  0.7395 -0.1808  0.3170
  579TMC3     O 8588   3.347   0.941   1.227  0.0793 -0.3221 -0.5092
  579TMC3     H 8589   3.547   1.056   1.261  1.0215  0.1115 -0.4484
  579TMC3    H1 8590   3.533   0.636   1.350 -1.4920  1.1812 -1.2315
  579TMC3    H2 8591   3.893   0.859   1.400 -0.5326 -0.1265  0.2441
  579TMC3    C7 8592   3.793   0.635   1.457 -0.0380  0.3847  0.3828
  579TMC3    C8 8593   3.792   1.082   1.297 -0.3832  0.4534  0.2009
  579TMC3    O1 8594   3.897   0.667   1.516 -0.2167 -0.2758  0.3285
  579TMC3    O2 8595   3.735   1.185   1.341 -0.0753 -0.5343 -0.0377
  580TMC3    C1 8596   3.816   0.286  12.197  0.0032  0.6114 -0.6081
  580TMC3    C2 8597   3.887   0.323  12.084  0.3012  0.7272  0.2178
  580TMC3    C3 8598   3.988   0.241  12.046 -0.6490 -0.2122  0.1698
  580TMC3    C4 8599   3.846   0.170  12.267  0.3968 -0.9765  0.3142
  580TMC3    C5 8600   3.945   0.095  12.219  0.3049  0.1228  0.4007
  580TMC3    C6 8601   4.015   0.124  12.112  0.1117 -0.4264  0.5027
  580TMC3     C 8602   3.769   0.393  12.279 -0.1292 -0.1090 -0.5456
  580TMC3     O 8603   3.796   0.371  12.395 -0.2407 -0.2395  0.1829
  580TMC3     H 8604   3.860   0.407  12.021  0.4178  0.3360 -0.3546
  580TMC3    H1 8605   3.784   0.131  12.346 -1.7983  0.7562 -0.5328
  580TMC3    H2 8606   4.114   0.087  12.089  0.2259  0.1947 -0.0011
  580TMC3    C7 8607   3.986   4.708  12.307  0.2515  0.1100  0.3544
  580TMC3    C8 8608   4.090   0.314  11.975 -0.1922 -0.3938  0.5572
  580TMC3    O1 8609   3.957   4.720  12.424  0.7879 -0.5010 -0.0780
  580TMC3    O2 8610   4.159   0.244  11.895  0.0584  1.2408 -0.2402
  581MPD2     C 8611   2.270   0.159  14.835 -0.4547  0.2836  0.4814
  581MPD2    C1 8612   2.253   0.225  14.957  0.0207 -0.0377 -0.0552
  581MPD2    C2 8613   2.131   0.289  14.975 -0.1256  0.3864 -0.9359
  581MPD2    C3 8614   2.027   0.279  14.882  0.6775 -0.6074 -0.3757
  581MPD2    C4 8615   2.039   0.209  14.763 -0.0666 -0.0354 -0.1007
  581MPD2    C5 8616   2.166   0.162  14.745 -1.0909  0.7265  0.4637
  581MPD2     H 8617   2.123   0.348  15.065 -1.0262  2.4058 -2.3177
  581MPD2    H1 8618   1.958   0.194  14.693 -0.5025  0.2255  0.3497
  581MPD2    H2 8619   2.366   0.124  14.800  0.4947  2.6048  0.7083
  581MPD2    H3 8620   2.192   0.119  14.649  0.6521  0.7117  0.9415
  581MPD2     N 8621   1.902   0.332  14.931 -0.2462  0.7451 -0.1137
  581MPD2    H5 8622   1.917   0.402  15.003 -0.4645 -0.1056  0.7532
  581MPD2    N1 8623   2.354   0.217  15.051  0.0351  0.2411 -0.0840
  581MPD2    H7 8624   2.442   0.175  15.020  2.1998  1.9792  3.7129
  582TMC3    C1 8625   2.454   0.175  15.257 -0.6550  0.1575 -0.9129
  582TMC3    C2 8626   2.467   0.188  15.397 -0.6768 -0.0891 -0.4322
  582TMC3    C3 8627   2.519   0.084  15.467 -0.5665  0.4266  0.7388
  582TMC3    C4 8628   2.501   0.059  15.199 -0.3696  0.2495  0.3941
  582TMC3    C5 8629   2.542   4.676  15.277 -0.3956 -0.4059 -0.4681
  582TMC3    C6 8630   2.563   4.688  15.412 -0.0504 -0.0494  0.6720
  582TMC3     C 8631   2.351   0.249  15.189 -0.7386  0.3852 -0.7184
  582TMC3     O 8632   2.286   0.328  15.262 -0.1923 -0.3804  0.2935
  582TMC3     H 8633   2.421   0.269  15.451 -2.8155 -1.4560 -0.1997
  582TMC3    H1 8634   2.500   0.035  15.093  1.2912  0.7867  0.2707
  582TMC3    H2 8635   2.580   4.602  15.477  0.2107  1.4555  2.5932
  582TMC3    C7 8636   2.598   4.551  15.230 -0.0212 -0.1499  0.0392
  582TMC3    C8 8637   2.509   0.089  15.615 -0.0663 -0.1578  0.3185
  582TMC3    O1 8638   2.686   4.506  15.302  0.1812  0.1621 -0.2320
  582TMC3    O2 8639   2.421   0.152  15.671 -0.1636 -0.3008 -0.2475
  583MPD2     C 8640   1.995   1.372  16.653  0.0429  0.2229  0.3053
  583MPD2    C1 8641   2.028   1.497  16.603 -0.0081  0.1040  0.2149
  583MPD2    C2 8642   1.954   1.606  16.644 -0.0771 -0.1230 -0.0934
  583MPD2    C3 8643   1.851   1.596  16.738  0.3500 -0.0414 -0.6562
  583MPD2    C4 8644   1.830   1.471  16.793 -0.1767  0.9410 -0.5853
  583MPD2    C5 8645   1.897   1.365  16.746  0.3784  0.1155 -0.2695
  583MPD2     H 8646   1.974   1.703  16.600  2.9890 -0.0809  1.4418
  583MPD2    H1 8647   1.758   1.452  16.873  0.9452  0.4727  0.3206
  583MPD2    H2 8648   2.044   1.279  16.627  2.5474  1.9844 -1.1808
  583MPD2    H3 8649   1.878   1.266  16.787  1.4686  0.7505  1.7620
  583MPD2     N 8650   1.790   1.712  16.789 -0.6821  0.0098 -0.3841
  583MPD2    H5 8651   1.804   1.797  16.734  1.5126 -0.1968 -0.1682
  583MPD2    N1 8652   2.141   1.521  16.513 -0.3041 -0.1964 -0.0841
  583MPD2    H7 8653   2.165   1.617  16.491  1.1962 -0.6821 -0.5234
  584TMC3    C1 8654   1.674   1.868  16.918 -0.1122 -0.6962 -0.2498
  584TMC3    C2 8655   1.716   1.968  16.832  0.9218  0.4203 -0.0748
  584TMC3    C3 8656   1.663   2.089  16.858 -0.5287 -0.3025  0.1426
  584TMC3    C4 8657   1.595   1.892  17.030  0.5969  0.0190 -0.1008
  584TMC3    C5 8658   1.539   2.015  17.044 -0.0281  0.5668  0.0292
  584TMC3    C6 8659   1.571   2.118  16.954  0.1093 -0.4405 -0.0236
  584TMC3     C 8660   1.704   1.722  16.897  0.2892  0.3526  0.1506
  584TMC3     O 8661   1.673   1.639  16.980 -0.0678 -0.0686  0.1369
  584TMC3     H 8662   1.783   1.955  16.748  0.8903 -1.1476  0.1493
  584TMC3    H1 8663   1.567   1.816  17.102 -1.4216 -0.7343 -1.6794
  584TMC3    H2 8664   1.525   2.215  16.947 -0.7952 -0.8345  0.4647
  584TMC3    C7 8665   1.415   2.026  17.122  0.1078  0.0719 -0.7090
  584TMC3    C8 8666   1.731   2.206  16.795 -0.1601  0.7338 -0.7780
  584TMC3    O1 8667   1.387   1.932  17.192 -0.1078 -0.1617 -0.3540
  584TMC3    O2 8668   1.764   2.195  16.676 -0.1246 -0.5829  0.0853
  585MPD2     C 8669   0.438   0.531   0.149  0.1783 -0.6307  0.2882
  585MPD2    C1 8670   0.569   0.586   0.147  0.2020  0.2211 -0.4375
  585MPD2    C2 8671   0.670   0.495   0.179 -0.4450 -0.2376  0.0512
  585MPD2    C3 8672   0.651   0.366   0.208  0.7472 -0.1863  0.4816
  585MPD2    C4 8673   0.523   0.322   0.212  1.1075 -0.4353 -0.5540
  585MPD2    C5 8674   0.422   0.402   0.177 -0.6217 -0.1476 -0.3555
  585MPD2     H 8675   0.771   0.535   0.190  0.0718 -1.2415 -1.0711
  585MPD2    H1 8676   0.499   0.223   0.248  1.4474  0.0046  0.8781
  585MPD2    H2 8677   0.351   0.596   0.139 -0.2811 -1.0476  1.4844
  585MPD2    H3 8678   0.321   0.372   0.199 -0.1941  0.4262  2.4296
  585MPD2     N 8679   0.753   0.281   0.247  0.4209  0.3285  0.1629
  585MPD2    H5 8680   0.728   0.192   0.290  1.3107 -0.3413 -0.7092
  585MPD2    N1 8681   0.578   0.728   0.150 -0.2233  0.3823 -0.0876
  585MPD2    H7 8682   0.493   0.780   0.134 -0.5681 -0.5082 -1.1659
  586TMC3    C1 8683   0.961   0.178   0.260 -0.9482  0.6059  0.3134
  586TMC3    C2 8684   1.068   0.147   0.187  0.1731 -0.1620  0.7058
  586TMC3    C3 8685   1.151   0.046   0.223 -0.4053  0.2454  0.4110
  586TMC3    C4 8686   0.931   0.114   0.375  0.1159 -0.7688 -0.2180
  586TMC3    C5 8687   1.006   0.003   0.399 -0.4048  0.2532 -0.1499
  586TMC3    C6 8688   1.126   4.700   0.334  0.4037  0.0128  0.7814
  586TMC3     C 8689   0.884   0.298   0.217 -0.9159 -0.0001  0.0237
  586TMC3     O 8690   0.934   0.376   0.139  0.6255  0.1069 -0.6517
  586TMC3     H 8691   1.079   0.197   0.092 -0.1675 -0.4990  0.4862
  586TMC3    H1 8692   0.847   0.149   0.433 -2.2180 -3.6964 -1.8417
  586TMC3    H2 8693   1.186   4.612   0.355  0.5621 -0.5401 -2.0927
  586TMC3    C7 8694   0.932   4.613   0.445  0.0052 -0.1685  0.1122
  586TMC3    C8 8695   1.278   0.013   0.146  1.7315 -0.5256 -0.3426
  586TMC3    O1 8696   0.810   4.626   0.452  0.2703 -1.0192  0.6403
  586TMC3    O2 8697   1.329   4.629   0.184 -0.2651  0.1537 -0.2027
  587TMC3    C1 8698   3.645   3.783  16.470  0.8175  0.5352 -0.4713
  587TMC3    C2 8699   3.651   3.902  16.529 -0.0517 -0.9393 -0.1754
  587TMC3    C3 8700   3.740   3.926  16.633 -0.0455 -0.1088  1.0476
  587TMC3    C4 8701   3.733   3.682  16.498 -0.3002 -0.1987  0.1053
  587TMC3    C5 8702   3.834   3.714  16.591  0.3464 -0.2469  0.4096
  587TMC3    C6 8703   3.837   3.841  16.656  0.2984  0.5147 -0.3239
  587TMC3     C 8704   3.533   3.759  16.381  0.4975  0.1494  0.0146
  587TMC3     O 8705   3.558   3.682  16.286 -0.0835 -0.4274 -0.4649
  587TMC3     H 8706   3.583   3.976  16.489  1.5411  0.1311 -0.8877
  587TMC3    H1 8707   3.720   3.583  16.456  0.1489 -0.7551  1.2972
  587TMC3    H2 8708   3.929   3.863  16.710  0.7957 -0.1629 -0.8815
  587TMC3    C7 8709   3.892   3.603  16.670 -0.0643 -0.4002  0.1528
  587TMC3    C8 8710   3.746   4.052  16.697 -0.1351 -0.0931  0.1375
  587TMC3    O1 8711   3.907   3.500  16.606 -0.1777 -0.7566  0.2841
  587TMC3    O2 8712   3.858   4.087  16.736 -0.2226 -0.7581 -0.2755
  588TMC3    C1 8713   0.757   2.479   9.919  0.6046 -0.6314  0.0924
  588TMC3    C2 8714   0.776   2.359   9.862  0.2294  0.1435 -0.0419
  588TMC3    C3 8715   0.889   2.294   9.879 -0.4450 -0.3305 -0.0290
  588TMC3    C4 8716   0.851   2.547   9.992 -0.1915  0.6318  0.2701
  588TMC3    C5 8717   0.976   2.478   9.995  0.6819 -0.3448 -0.4469
  588TMC3    C6 8718   0.994   2.355   9.943 -0.4017  0.2909  1.2499
  588TMC3     C 8719   0.640   2.558   9.875  0.2759 -0.3257  0.3536
  588TMC3     O 8720   0.560   2.501   9.803  0.0634 -0.5420  0.4377
  588TMC3     H 8721   0.694   2.317   9.805  0.3301 -1.5927  1.1000
  588TMC3    H1 8722   0.821   2.631  10.054  1.0200  0.3287  1.2932
  588TMC3    H2 8723   1.090   2.305   9.944 -1.0142 -0.9348  0.4714
  588TMC3    C7 8724   1.098   2.558  10.030 -0.0248  0.0411  0.4580
  588TMC3    C8 8725   0.885   2.154   9.859  0.2162 -0.0145 -0.7912
  588TMC3    O1 8726   1.207   2.507  10.011  0.1158  0.8699  0.7569
  588TMC3    O2 8727   0.801   2.120   9.782  0.0079 -0.1089  0.1219
  589TMC3    C1 8728   4.652   3.859   1.908 -0.3104  0.5071  0.3638
  589TMC3    C2 8729   0.019   3.956   1.925 -0.4833  0.5601 -0.5324
  589TMC3    C3 8730   0.146   3.936   1.888  0.2557 -0.6342 -0.7872
  589TMC3    C4 8731   4.677   3.747   1.838 -0.0463 -0.0026 -0.3363
  589TMC3    C5 8732   0.083   3.725   1.799  0.4828 -0.6920  0.1019
  589TMC3    C6 8733   0.180   3.812   1.830 -0.4956  0.5428  0.3947
  589TMC3     C 8734   4.521   3.875   1.973  0.2117  0.5145  0.4810
  589TMC3     O 8735   4.462   3.769   1.993 -0.3514 -0.0957 -0.4285
  589TMC3     H 8736   4.715   4.037   1.992 -0.7145 -0.8597  1.0839
  589TMC3    H1 8737   4.602   3.670   1.824 -1.7070  1.4764  0.6136
  589TMC3    H2 8738   0.284   3.786   1.821 -0.7049 -0.2140  0.1510
  589TMC3    C7 8739   0.118   3.603   1.737  0.3517 -0.1847  0.0765
  589TMC3    C8 8740   0.245   4.033   1.926  0.1302 -0.4224  0.0965
  589TMC3    O1 8741   0.030   3.519   1.729  0.5940  0.5772  0.2973
  589TMC3    O2 8742   0.200   4.110   2.007  0.4216  0.4130  0.7126
  590MPD2     C 8743   3.881   2.391  16.695 -0.2677 -0.9941  0.7270
  590MPD2    C1 8744   3.835   2.478  16.598  0.3862  0.2074  0.5832
  590MPD2    C2 8745   3.923   2.552  16.521 -0.4202  0.1907  0.2158
  590MPD2    C3 8746   4.061   2.542  16.548 -0.1204  0.1732  0.0906
  590MPD2    C4 8747   4.102   2.457  16.646 -0.1075  1.0782 -0.2036
  590MPD2    C5 8748   4.014   2.381  16.721 -0.0598 -0.0679  0.8016
  590MPD2     H 8749   3.874   2.615  16.448 -2.6032  0.4602  1.9004
  590MPD2    H1 8750   4.205   2.443  16.674 -0.2961  1.1956  0.5548
  590MPD2    H2 8751   3.811   2.350  16.766 -2.2861  1.1951  0.0155
  590MPD2    H3 8752   4.064   2.313  16.790  1.0913  0.6235  0.6549
  590MPD2     N 8753   4.154   2.609  16.470 -0.2888 -0.3399  0.5041
  590MPD2    H5 8754   4.124   2.661  16.388 -1.2772 -2.0258 -0.2026
  590MPD2    N1 8755   3.695   2.486  16.584 -0.0796  0.0626  0.2211
  590MPD2    H7 8756   3.644   2.430  16.652 -2.1648  0.7209 -0.7907
  591TMC3    C1 8757   4.357   2.704  16.407  0.4866 -0.2832  0.0292
  591TMC3    C2 8758   4.456   2.668  16.326  0.0250 -0.3607  0.2331
  591TMC3    C3 8759   4.501   2.759  16.230 -0.3216 -0.5955  0.2950
  591TMC3    C4 8760   4.308   2.832  16.401 -0.1880  0.1348 -0.0193
  591TMC3    C5 8761   4.356   2.921  16.310  0.8185  0.5182  0.6734
  591TMC3    C6 8762   4.452   2.888  16.216 -0.0157 -0.2271  0.2695
  591TMC3     C 8763   4.291   2.602  16.485 -0.9873  0.3650 -0.0154
  591TMC3     O 8764   4.361   2.514  16.535  0.0339 -0.7003 -0.1688
  591TMC3     H 8765   4.500   2.571  16.345 -0.7557 -0.7278  0.1491
  591TMC3    H1 8766   4.230   2.867  16.466  0.5247  0.2477  0.7770
  591TMC3    H2 8767   4.483   2.962  16.144 -1.4934 -0.1424 -0.2876
  591TMC3    C7 8768   4.296   3.049  16.311  0.0468 -0.3155  0.2982
  591TMC3    C8 8769   4.570   2.703  16.117 -0.1814  0.3236 -0.5139
  591TMC3    O1 8770   4.177   3.047  16.335  0.0169 -0.6221 -0.2893
  591TMC3    O2 8771   4.663   2.631  16.151  0.5223  0.1536 -0.3051
  592MPD2     C 8772   0.352   0.060  11.559  0.4314  0.9165  0.0015
  592MPD2    C1 8773   0.307   0.072  11.692  0.4597  0.3793  0.3344
  592MPD2    C2 8774   0.225   4.699  11.754 -0.4750 -0.1062  0.1691
  592MPD2    C3 8775   0.191   4.580  11.683  0.4201 -0.3677  0.7090
  592MPD2    C4 8776   0.243   4.563  11.558 -0.3775 -0.8565 -0.0143
  592MPD2    C5 8777   0.317   4.665  11.494  0.0189  0.0741 -0.1348
  592MPD2     H 8778   0.187   4.705  11.855  1.2211 -0.1607  0.8076
  592MPD2    H1 8779   0.223   4.474  11.501 -0.8522 -0.5178 -0.3807
  592MPD2    H2 8780   0.415   0.134  11.510 -1.9120  2.1638 -1.1591
  592MPD2    H3 8781   0.347   4.646  11.392  0.7353  0.9510 -0.0836
  592MPD2     N 8782   0.103   4.494  11.746 -0.9210  0.8410  0.0211
  592MPD2    H5 8783   0.071   4.525  11.837 -0.8803  0.7388  0.0693
  592MPD2    N1 8784   0.354   0.187  11.767  0.8485  0.3744 -0.2646
  592MPD2    H7 8785   0.415   0.255  11.722  0.8662  1.3548  1.2753
  593TMC3    C1 8786   0.373   0.339  11.951 -0.0223  0.1678  0.7091
  593TMC3    C2 8787   0.404   0.337  12.081  0.0390 -0.0507 -0.8775
  593TMC3    C3 8788   0.478   0.446  12.122  0.3830  1.0057  0.5717
  593TMC3    C4 8789   0.405   0.435  11.856 -0.5426 -0.4064  0.0262
  593TMC3    C5 8790   0.481   0.538  11.902  0.2279  0.6440  0.1389
  593TMC3    C6 8791   0.519   0.546  12.037 -0.4173  0.9312  0.0356
  593TMC3     C 8792   0.326   0.209  11.902  0.0727  0.6440 -0.1069
  593TMC3     O 8793   0.278   0.131  11.985  0.0976  0.3193 -0.2245
  593TMC3     H 8794   0.369   0.257  12.146  0.1739 -0.4993 -1.3528
  593TMC3    H1 8795   0.376   0.427  11.752  1.5742 -1.9882 -0.4356
  593TMC3    H2 8796   0.565   0.637  12.074 -0.5326  1.6476 -1.5525
  593TMC3    C7 8797   0.494   0.660  11.814 -0.5875 -0.0987  0.3866
  593TMC3    C8 8798   0.520   0.457  12.261 -0.3632  0.1862  0.4668
  593TMC3    O1 8799   0.405   0.679  11.735 -0.0806  0.4820 -0.5357
  593TMC3    O2 8800   0.441   0.419  12.348 -0.2406  0.1534  0.3838
  594MPD2     C 8801   4.121   3.648  15.108  0.0699  0.3065 -0.8459
  594MPD2    C1 8802   4.062   3.695  14.998  0.2002  0.0664  0.3932
  594MPD2    C2 8803   4.121   3.797  14.920 -0.6631 -0.0240  0.3129
  594MPD2    C3 8804   4.248   3.828  14.955 -1.1307 -0.3628 -0.8982
  594MPD2    C4 8805   4.306   3.784  15.076 -0.2988  0.0232  0.0743
  594MPD2    C5 8806   4.236   3.701  15.159  0.6625  0.3677 -0.2466
  594MPD2     H 8807   4.081   3.829  14.825 -1.6891 -1.0891  0.3774
  594MPD2    H1 8808   4.401   3.824  15.110 -0.4959 -0.1949  0.8764
  594MPD2    H2 8809   4.074   3.577  15.175  0.5083  0.4483 -0.3888
  594MPD2    H3 8810   4.277   3.681  15.257 -2.3276  1.7337  1.2933
  594MPD2     N 8811   4.312   3.925  14.876  0.5759 -0.1387  0.3739
  594MPD2    H5 8812   4.246   3.968  14.811 -1.4974 -0.6600  2.1270
  594MPD2    N1 8813   3.951   3.620  14.963 -0.4097  0.2394  0.4225
  594MPD2    H7 8814   3.933   3.531  15.009  2.4244  0.0614  1.2339
  595TMC3    C1 8815   4.659   4.168  14.678 -0.2404 -0.7285 -0.4133
  595TMC3    C2 8816   4.599   4.055  14.727  0.5808 -0.3580 -0.4026
  595TMC3    C3 8817   4.476   4.066  14.788 -0.3145 -0.0120 -0.5074
  595TMC3    C4 8818   4.599   4.287  14.685  0.6089 -0.1299 -0.2029
  595TMC3    C5 8819   4.470   4.294  14.729 -0.2550 -0.4688  0.3333
  595TMC3    C6 8820   4.406   4.184  14.789 -0.6490 -0.0496 -0.3161
  595TMC3     C 8821   0.078   4.175  14.696  0.9308  0.3574 -0.0602
  595TMC3     O 8822   0.119   4.283  14.737  0.1517 -0.3505 -0.7347
  595TMC3     H 8823   4.653   3.961  14.725  0.2457 -0.5600  0.1907
  595TMC3    H1 8824   4.641   4.384  14.660 -1.0118  0.5886 -0.1629
  595TMC3    H2 8825   4.308   4.191  14.834 -1.0445  0.9324 -1.3537
  595TMC3    C7 8826   4.411   4.425  14.745 -0.2121 -0.4035 -0.0547
  595TMC3    C8 8827   4.442   3.962  14.875 -0.0986  1.0962  0.3365
  595TMC3    O1 8828   4.327   4.434  14.831 -0.2646  0.5298 -0.0910
  595TMC3    O2 8829   4.538   3.899  14.913 -0.2206  0.3426 -0.2576
  596MPD2     C 8830   2.728   1.387  16.830 -0.4802  0.2065 -1.0924
  596MPD2    C1 8831   2.736   1.514  16.787 -0.1982  0.4540  0.1613
  596MPD2    C2 8832   2.799   1.538  16.665 -0.1024  0.5978  0.4549
  596MPD2    C3 8833   2.854   1.432  16.592 -0.3116 -0.2484  0.1610
  596MPD2    C4 8834   2.865   1.311  16.651 -0.3283  0.8293 -0.0238
  596MPD2    C5 8835   2.796   1.286  16.769 -0.6107 -0.1346  0.3067
  596MPD2     H 8836   2.802   1.638  16.623 -1.1253  0.2918 -0.3412
  596MPD2    H1 8837   2.927   1.234  16.608  0.5909  2.1787 -1.1240
  596MPD2    H2 8838   2.673   1.368  16.922 -2.3117  2.2878 -1.7697
  596MPD2    H3 8839   2.799   1.189  16.818 -1.1502 -0.0669  0.4727
  596MPD2     N 8840   2.912   1.441  16.463  0.9052  0.1764  0.1075
  596MPD2    H5 8841   2.940   1.356  16.416  1.4812 -0.4085  1.5123
  596MPD2    N1 8842   2.683   1.620  16.854 -0.8688 -0.2196 -0.3615
  596MPD2    H7 8843   2.689   1.709  16.806 -0.6253 -0.1738 -0.2452
  597TMC3    C1 8844   2.544   1.743  17.004  0.1873  0.3657 -0.0951
  597TMC3    C2 8845   2.642   1.837  17.002  0.1294 -1.1376 -0.3436
  597TMC3    C3 8846   2.607   1.963  17.062  0.7009 -0.3295  0.4192
  597TMC3    C4 8847   2.421   1.752  17.070  0.2338 -0.8345  0.4059
  597TMC3    C5 8848   2.394   1.873  17.134  0.5207 -0.3873 -0.2034
  597TMC3    C6 8849   2.479   1.975  17.118 -0.1832 -0.7002  0.5351
  597TMC3     C 8850   2.590   1.610  16.959  0.1123  0.7432  0.4469
  597TMC3     O 8851   2.536   1.514  17.016  0.3529  0.1949  0.1077
  597TMC3     H 8852   2.743   1.808  16.973  0.9458 -0.4459  1.7290
  597TMC3    H1 8853   2.355   1.667  17.074  0.1426 -0.7786  0.1466
  597TMC3    H2 8854   2.470   2.068  17.173 -1.8096 -1.0462  0.8564
  597TMC3    C7 8855   2.258   1.893  17.163  0.3154 -0.0186 -1.0002
  597TMC3    C8 8856   2.690   2.078  17.080 -0.7710  0.2920 -0.3282
  597TMC3    O1 8857   2.179   1.800  17.153 -0.1493  0.1438 -0.4118
  597TMC3    O2 8858   2.667   2.172  17.154  0.2850  0.5691  0.3383
  598TMC3    C1 8859   1.115   3.586  15.646  0.2480  0.4779  0.1975
  598TMC3    C2 8860   0.997   3.520  15.631 -0.5650 -0.4209  0.9564
  598TMC3    C3 8861   0.978   3.452  15.515  0.1463  0.1180  0.2436
  598TMC3    C4 8862   1.216   3.582  15.550 -0.4728  0.1364  0.1908
  598TMC3    C5 8863   1.196   3.504  15.435  0.0011 -0.2507  1.3973
  598TMC3    C6 8864   1.076   3.440  15.421 -0.4422  0.2650  0.2013
  598TMC3     C 8865   1.143   3.628  15.779  0.7918  0.1567 -0.1759
  598TMC3     O 8866   1.070   3.574  15.865 -0.2814 -0.3981  0.1800
  598TMC3     H 8867   0.915   3.540  15.699 -2.3455  0.4709 -1.4395
  598TMC3    H1 8868   1.313   3.622  15.572 -0.4617  0.1875  0.0514
  598TMC3    H2 8869   1.049   3.406  15.322  1.7084 -0.0351 -0.2737
  598TMC3    C7 8870   1.304   3.501  15.332  0.7019  0.5524  0.8779
  598TMC3    C8 8871   0.882   3.344  15.520  0.0604 -0.6171  0.5457
  598TMC3    O1 8872   1.283   3.430  15.234  0.2288  0.8503  0.1016
  598TMC3    O2 8873   0.814   3.339  15.622 -0.6997  0.2245 -0.3613
  599MPD2     C 8874   1.443   0.824  15.932 -0.0671  0.7053 -0.9863
  599MPD2    C1 8875   1.408   0.709  15.998 -0.1545  0.1292 -0.0880
  599MPD2    C2 8876   1.284   0.707  16.060  0.4252 -0.1657 -0.1217
  599MPD2    C3 8877   1.202   0.820  16.058  0.5958 -0.5922 -0.3967
  599MPD2    C4 8878   1.244   0.937  15.993 -0.4021  0.1189  0.1484
  599MPD2    C5 8879   1.362   0.932  15.929 -0.4327  0.6312  0.3540
  599MPD2     H 8880   1.253   0.621  16.118  0.7492  0.6282  1.2110
  599MPD2    H1 8881   1.182   1.024  15.978 -0.6853  0.2679  2.1633
  599MPD2    H2 8882   1.540   0.828  15.882  1.2144  4.7809  1.8622
  599MPD2    H3 8883   1.390   1.019  15.870  1.4706  0.2795  0.7363
  599MPD2     N 8884   1.083   0.814  16.126 -0.4457  0.0325  0.0289
  599MPD2    H5 8885   1.063   0.726  16.174 -0.8143  0.1032 -0.0009
  599MPD2    N1 8886   1.482   0.591  16.021 -0.7788  0.1199 -0.6438
  599MPD2    H7 8887   1.437   0.522  16.080 -1.2386 -1.5868 -2.9942
  600TMC3    C1 8888   0.873   0.864  16.195 -0.4267 -0.4729  0.2827
  600TMC3    C2 8889   0.834   0.736  16.166 -0.0151 -0.4167  0.1496
  600TMC3    C3 8890   0.701   0.717  16.166  0.3813  0.4707 -0.1768
  600TMC3    C4 8891   0.790   0.967  16.231  0.5931  0.4141 -0.1167
  600TMC3    C5 8892   0.653   0.943  16.227 -0.2205  0.0412  0.5801
  600TMC3    C6 8893   0.603   0.816  16.199 -0.0010  1.1700 -0.0227
  600TMC3     C 8894   0.999   0.914  16.141  0.6348  0.2195  0.3801
  600TMC3     O 8895   1.025   1.034  16.127  0.6092 -0.3188 -0.0080
  600TMC3     H 8896   0.898   0.658  16.126  0.6455  0.1502  0.0821
  600TMC3    H1 8897   0.840   1.060  16.252 -0.6850  1.1226 -0.2257
  600TMC3    H2 8898   0.496   0.796  16.194 -0.5733  4.9433 -2.4783
  600TMC3    C7 8899   0.551   1.053  16.242  0.1438 -0.2630  0.2648
  600TMC3    C8 8900   0.646   0.582  16.192 -0.3469 -0.1641  0.6849
  600TMC3    O1 8901   0.438   1.025  16.272 -0.4251 -0.4919  0.7448
  600TMC3    O2 8902   0.723   0.492  16.211  0.3215 -0.0587 -0.3451
  601MPD2     C 8903   2.932   3.408   0.686  0.4633  0.3093 -0.3892
  601MPD2    C1 8904   2.894   3.460   0.565 -0.1977  0.2216 -0.4153
  601MPD2    C2 8905   2.760   3.482   0.533  0.2018  0.2387 -0.1715
  601MPD2    C3 8906   2.660   3.441   0.614  0.4314 -0.2892  0.5577
  601MPD2    C4 8907   2.694   3.376   0.731  0.0489 -0.5362  0.1535
  601MPD2    C5 8908   2.826   3.375   0.770 -0.7144 -0.7916  0.1917
  601MPD2     H 8909   2.744   3.542   0.444  0.3615  0.5900  0.0354
  601MPD2    H1 8910   2.629   3.325   0.801 -1.2372  0.3042 -0.4304
  601MPD2    H2 8911   3.035   3.395   0.715  0.5865 -1.3868 -1.5799
  601MPD2    H3 8912   2.837   3.323   0.864  1.3167 -0.2357  0.2528
  601MPD2     N 8913   2.521   3.454   0.589 -0.5795 -0.2941  0.7166
  601MPD2    H5 8914   2.456   3.425   0.661  0.1595 -1.4753  0.9181
  601MPD2    N1 8915   2.985   3.522   0.470 -0.4509 -0.9034  0.4039
  601MPD2    H7 8916   2.951   3.569   0.386 -0.7905  0.8009  1.5078
  602TMC3    C1 8917   3.166   3.625   0.384  0.2734  0.1707 -0.3958
  602TMC3    C2 8918   3.096   3.744   0.357 -0.4112  0.4726  0.9395
  602TMC3    C3 8919   3.155   3.824   0.262  0.4440  0.5194 -0.3419
  602TMC3    C4 8920   3.285   3.591   0.324  0.2379 -0.2753 -0.4395
  602TMC3    C5 8921   3.328   3.670   0.216  0.4333 -0.1233  0.2475
  602TMC3    C6 8922   3.265   3.787   0.192 -1.0286 -0.2950  0.1163
  602TMC3     C 8923   3.119   3.536   0.482 -0.0875 -0.1447  0.0962
  602TMC3     O 8924   3.198   3.464   0.538  0.2664 -0.2791 -0.0442
  602TMC3     H 8925   3.004   3.773   0.407  0.5744  3.5725  0.9782
  602TMC3    H1 8926   3.326   3.493   0.345  1.0353 -0.0165 -0.8115
  602TMC3    H2 8927   3.321   3.863   0.139 -1.7724  0.3291  0.2340
  602TMC3    C7 8928   3.391   3.599   0.103  0.4828  0.3972 -0.1355
  602TMC3    C8 8929   3.082   3.943   0.218 -0.3781  0.2635 -0.0406
  602TMC3    O1 8930   3.419   3.480   0.120 -0.5909  0.1056 -0.7598
  602TMC3    O2 8931   2.988   3.970   0.290  0.3006 -0.1426  0.3767
  603TMC3    C1 8932   1.530   3.944  11.100  0.7806 -0.2266  0.0791
  603TMC3    C2 8933   1.528   3.938  11.237 -0.3235 -0.7425  0.5185
  603TMC3    C3 8934   1.495   4.052  11.312 -0.6861 -0.3201  0.3626
  603TMC3    C4 8935   1.460   4.045  11.029  0.1266 -0.9198 -0.3623
  603TMC3    C5 8936   1.409   4.150  11.105 -0.3738  0.1989 -0.0333
  603TMC3    C6 8937   1.450   4.163  11.239 -0.0073  0.2416 -0.8620
  603TMC3     C 8938   1.537   3.808  11.036  0.3076 -0.2010  0.4813
  603TMC3     O 8939   1.513   3.715  11.108  0.1963  0.0918 -0.5538
  603TMC3     H 8940   1.569   3.848  11.281  0.7807 -0.4146  0.1469
  603TMC3    H1 8941   1.452   4.045  10.920  0.8280  1.1471 -0.4263
  603TMC3    H2 8942   1.418   4.257  11.283 -1.4268 -1.3721  1.5697
  603TMC3    C7 8943   1.362   4.262  11.024 -0.3447  0.0271  0.2154
  603TMC3    C8 8944   1.489   4.048  11.454  1.0714  0.3393 -0.2901
  603TMC3    O1 8945   1.399   4.371  11.061 -0.1376  0.1390  0.0364
  603TMC3    O2 8946   1.509   3.941  11.509  0.3225  0.5625  0.2408
  604MPD2     C 8947   1.121   2.801  16.101 -0.2558  0.2291  0.0850
  604MPD2    C1 8948   1.214   2.777  16.199  0.1713 -0.3568 -0.5006
  604MPD2    C2 8949   1.344   2.755  16.156  0.1477 -0.3711 -0.6268
  604MPD2    C3 8950   1.373   2.757  16.020  0.7047 -0.4271 -0.2875
  604MPD2    C4 8951   1.280   2.789  15.924  0.1421 -0.0734  0.0751
  604MPD2    C5 8952   1.158   2.823  15.971  0.6336  1.0123  0.5639
  604MPD2     H 8953   1.423   2.752  16.229  1.2975  1.8602 -1.7762
  604MPD2    H1 8954   1.294   2.799  15.817 -0.1198 -1.0813 -0.0519
  604MPD2    H2 8955   1.021   2.836  16.123 -1.6135 -2.4387 -1.9507
  604MPD2    H3 8956   1.090   2.874  15.905 -0.4480 -1.8615 -0.5119
  604MPD2     N 8957   1.505   2.732  15.982 -0.2799  0.0636  0.3375
  604MPD2    H5 8958   1.561   2.685  16.053  0.3566  0.0096 -0.2009
  604MPD2    N1 8959   1.176   2.782  16.333  0.2288  0.7597  0.0639
  604MPD2    H7 8960   1.089   2.831  16.353 -0.5185 -0.0973 -1.0560
  605TMC3    C1 8961   1.253   2.846  16.549 -0.7669 -0.2592  0.3187
  605TMC3    C2 8962   1.372   2.884  16.598  0.8855  0.0026  0.4102
  605TMC3    C3 8963   1.379   3.017  16.636  0.0289  0.2150  0.6314
  605TMC3    C4 8964   1.142   2.923  16.559  0.5015  0.3795 -0.2767
  605TMC3    C5 8965   1.156   3.053  16.600 -0.2774  0.2352  0.1501
  605TMC3    C6 8966   1.277   3.097  16.636  0.7032 -0.1387 -0.0814
  605TMC3     C 8967   1.253   2.743  16.442  0.2549  0.5800  0.3734
  605TMC3     O 8968   1.346   2.664  16.449 -0.0661  0.1705 -0.1966
  605TMC3     H 8969   1.461   2.827  16.576 -0.0263 -0.5166 -1.9396
  605TMC3    H1 8970   1.045   2.882  16.534 -0.4173  1.4950  1.4199
  605TMC3    H2 8971   1.286   3.201  16.666  0.3688 -0.4334  1.0442
  605TMC3    C7 8972   1.043   3.148  16.606  0.2233 -0.7917 -0.5494
  605TMC3    C8 8973   1.506   3.082  16.613  0.5694  0.0585 -1.1582
  605TMC3    O1 8974   1.064   3.271  16.598  0.2363  0.3348 -0.5658
  605TMC3    O2 8975   1.507   3.198  16.577  0.5863  0.0434 -0.2085
  606TMC3    C1 8976   2.040   1.730  17.582  0.2912 -0.2743 -0.2282
  606TMC3    C2 8977   1.957   1.669  17.671  0.0379  0.4244  0.2497
  606TMC3    C3 8978   1.950   1.533  17.658  0.0671  0.4163 -0.1285
  606TMC3    C4 8979   2.113   1.671  17.481  1.0182  0.3905 -0.0885
  606TMC3    C5 8980   2.099   1.537  17.473 -0.3112  0.6386 -0.5689
  606TMC3    C6 8981   2.018   1.468  17.559 -0.3370 -0.2393  0.3451
  606TMC3     C 8982   2.042   1.871  17.593 -0.1420 -0.4387 -0.7221
  606TMC3     O 8983   1.937   1.921  17.617  0.0278 -0.1011 -0.0789
  606TMC3     H 8984   1.904   1.726   0.060 -0.1075  0.1558  0.3466
  606TMC3    H1 8985   2.166   1.735  17.410  1.7591  0.0152  0.1257
  606TMC3    H2 8986   2.004   1.360  17.550 -0.0072 -0.1885 -0.7824
  606TMC3    C7 8987   2.203   1.468  17.389  0.5973 -0.0442  0.0989
  606TMC3    C8 8988   1.970   1.455   0.096  0.3714 -0.6780  0.5848
  606TMC3    O1 8989   2.270   1.538  17.313  0.6130 -0.3869  0.2131
  606TMC3    O2 8990   2.015   1.341   0.077  0.0766 -0.3495 -0.0866
  607MPD2     C 8991   0.381   4.327  11.804 -0.3020 -0.2132  1.2413
  607MPD2    C1 8992   0.451   4.417  11.880 -0.2379 -0.5633  0.1706
  607MPD2    C2 8993   0.446   4.398  12.015  0.1214  0.0650 -0.1755
  607MPD2    C3 8994   0.368   4.301  12.069  0.2618 -0.7229 -0.2647
  607MPD2    C4 8995   0.303   4.211  11.990  0.1652  0.2048  0.3026
  607MPD2    C5 8996   0.317   4.226  11.859 -0.1160 -0.5752  0.5487
  607MPD2     H 8997   0.504   4.468  12.075  2.3082 -1.3156 -0.6596
  607MPD2    H1 8998   0.257   4.122  12.032 -3.0792  1.2866 -1.0173
  607MPD2    H2 8999   0.379   4.329  11.695 -0.8184 -0.2657  1.2523
  607MPD2    H3 9000   0.279   4.146  11.797  1.6396  1.1029 -2.6838
  607MPD2     N 9001   0.369   4.297  12.207 -0.2148 -0.0907 -0.0774
  607MPD2    H5 9002   0.414   4.375  12.253 -1.0704  0.4584 -0.1726
  607MPD2    N1 9003   0.530   4.514  11.828 -0.2462 -0.5704  0.2472
  607MPD2    H7 9004   0.567   4.579  11.896 -1.6856  2.8223 -2.2517
  608TMC3    C1 9005   0.690   4.613  11.696  0.8284  0.5190 -0.3467
  608TMC3    C2 9006   0.766   4.614  11.812  0.6239  1.0959 -0.2864
  608TMC3    C3 9007   0.856   4.715  11.835  0.1834 -0.2979  0.2589
  608TMC3    C4 9008   0.709   4.703  11.595 -0.4936  0.4781  0.2110
  608TMC3    C5 9009   0.813   0.069  11.618  0.6342  0.1823  1.0177
  608TMC3    C6 9010   0.884   0.078  11.735 -0.2746  0.3359 -0.3782
  608TMC3     C 9011   0.576   4.523  11.701  0.4649  0.5018  0.4383
  608TMC3     O 9012   0.561   4.456  11.600 -0.8637  0.4462 -0.3190
  608TMC3     H 9013   0.753   4.533  11.884  1.7249  0.1394 -1.1505
  608TMC3    H1 9014   0.654   4.702  11.502  0.0222 -0.5799 -0.0726
  608TMC3    H2 9015   0.956   0.154  11.761  1.7698 -1.9547  0.6504
  608TMC3    C7 9016   0.872   0.122  11.493 -0.4138  0.1651 -0.1406
  608TMC3    C8 9017   0.930   4.714  11.962 -0.5822 -0.5682 -0.3124
  608TMC3    O1 9018   0.803   0.138  11.393 -0.5182  0.0323  0.0569
  608TMC3    O2 9019   1.040   0.046  11.968 -0.6945  0.0454 -0.3570
  609TMC3    C1 9020   3.801   4.007   9.356 -0.5635  0.1594  0.0785
  609TMC3    C2 9021   3.809   4.102   9.259 -0.2906  0.0910  0.0897
  609TMC3    C3 9022   3.880   4.078   9.147 -0.1141  0.0077  0.9780
  609TMC3    C4 9023   3.865   3.884   9.341 -0.1155 -0.2420 -0.2394
  609TMC3    C5 9024   3.929   3.861   9.226  1.1366 -0.4368 -0.0924
  609TMC3    C6 9025   3.944   3.956   9.127  0.2699 -0.3808  0.8598
  609TMC3     C 9026   3.701   4.017   9.462 -0.2872  0.8773  0.2195
  609TMC3     O 9027   3.686   3.921   9.538  0.3077 -0.4107 -0.1720
  609TMC3     H 9028   3.772   4.203   9.273 -0.3591 -0.1861  1.9113
  609TMC3    H1 9029   3.851   3.800   9.408 -0.7474 -0.2688 -0.4076
  609TMC3    H2 9030   4.000   3.922   9.041 -2.2160 -0.6642 -0.6738
  609TMC3    C7 9031   3.994   3.736   9.209 -0.2738 -0.0987  1.1132
  609TMC3    C8 9032   3.865   4.175   9.040 -0.2586  0.5985  0.7011
  609TMC3    O1 9033   4.017   3.684   9.315 -0.5125  0.2607  0.0295
  609TMC3    O2 9034   3.821   4.287   9.079  0.5198 -0.1928  0.0899
  610TMC3    C1 9035   1.035   4.121  12.736  0.3357 -0.3351 -0.1170
  610TMC3    C2 9036   1.089   4.185  12.629  0.0174 -0.8557  0.4372
  610TMC3    C3 9037   1.215   4.151  12.603 -0.3191 -0.2573 -0.0056
  610TMC3    C4 9038   1.093   4.020  12.813  0.9457  0.6611  0.7331
  610TMC3    C5 9039   1.224   3.989  12.776 -0.3023 -0.5629  0.2599
  610TMC3    C6 9040   1.285   4.055  12.670 -0.0485  0.5335 -0.2056
  610TMC3     C 9041   0.920   4.184  12.797 -0.5247  0.5956  0.3645
  610TMC3     O 9042   0.856   4.108  12.871 -0.3944 -0.3885 -0.1002
  610TMC3     H 9043   1.042   4.270  12.582 -0.9774 -1.3594  0.5199
  610TMC3    H1 9044   1.046   3.965  12.893  1.0458 -1.1365 -0.4696
  610TMC3    H2 9045   1.390   4.035  12.651 -0.0848  0.0500  0.0984
  610TMC3    C7 9046   1.308   3.907  12.863  0.2551 -0.0254  0.2318
  610TMC3    C8 9047   1.297   4.241  12.523  0.1995  0.5897  0.7016
  610TMC3    O1 9048   1.428   3.914  12.843 -0.5192 -0.1951 -0.2011
  610TMC3    O2 9049   1.419   4.232  12.540 -0.0736  0.1388  0.1786
  611MPD2     C 9050   0.195   3.991   9.849  0.2634  0.4944  0.3796
  611MPD2    C1 9051   0.209   4.045   9.977  0.1421  0.3417  0.2687
  611MPD2    C2 9052   0.337   4.070  10.031 -0.1631  0.1274  0.6431
  611MPD2    C3 9053   0.448   4.025   9.969  0.1860  0.0943  0.0954
  611MPD2    C4 9054   0.430   3.975   9.840  0.3797  0.4043  0.6013
  611MPD2    C5 9055   0.312   3.965   9.782  0.3976  0.1092  0.0439
  611MPD2     H 9056   0.351   4.123  10.124  3.3729  1.2813 -0.5508
  611MPD2    H1 9057   0.513   3.938   9.780  0.4417 -3.3985  3.0029
  611MPD2    H2 9058   0.101   3.975   9.797  0.6035 -1.2809  0.3301
  611MPD2    H3 9059   0.310   3.914   9.687 -2.2887  1.2076 -0.4908
  611MPD2     N 9060   0.582   4.033  10.023  0.6485 -0.0591  0.0150
  611MPD2    H5 9061   0.650   3.974   9.977  0.1966  0.0272 -0.7578
  611MPD2    N1 9062   0.091   4.058  10.054  0.3330 -0.4675 -0.7502
  611MPD2    H7 9063   0.006   4.010  10.025 -0.4781 -0.0503  0.9583
  612TMC3    C1 9064   0.749   4.082  10.182 -0.1143  0.8980  0.0427
  612TMC3    C2 9065   0.814   4.183  10.239  0.2153  0.2488  0.6630
  612TMC3    C3 9066   0.915   4.156  10.322  0.5353 -0.4431  0.1908
  612TMC3    C4 9067   0.771   3.949  10.204 -0.3354 -0.2608 -0.0899
  612TMC3    C5 9068   0.871   3.921  10.299  0.0923  0.3626 -0.2796
  612TMC3    C6 9069   0.952   4.029  10.351 -0.4365 -0.1430  0.3131
  612TMC3     C 9070   0.619   4.111  10.128  0.1781 -0.4449 -0.1366
  612TMC3     O 9071   0.556   4.196  10.190  0.0578 -0.4555 -0.7263
  612TMC3     H 9072   0.779   4.284  10.218  3.0439  0.6144 -2.4617
  612TMC3    H1 9073   0.702   3.868  10.183  1.1885 -1.6753  0.3827
  612TMC3    H2 9074   1.043   4.002  10.403  0.2384  0.6003 -0.4630
  612TMC3    C7 9075   0.901   3.779  10.315  0.1366 -0.0045 -0.3861
  612TMC3    C8 9076   0.958   4.264  10.414 -0.7546  0.3807  0.2322
  612TMC3    O1 9077   0.863   3.705  10.220 -1.0041  0.4201 -0.6954
  612TMC3    O2 9078   0.919   4.378  10.392 -0.4658 -0.1194  0.1726
  613MPD2     C 9079   3.936   0.873  16.687 -0.4504 -0.0767  0.2853
  613MPD2    C1 9080   3.863   0.981  16.638  0.5641 -0.8543  0.1516
  613MPD2    C2 9081   3.797   0.951  16.515  0.0736  0.1054 -0.2342
  613MPD2    C3 9082   3.830   0.844  16.442  0.4097 -0.8162  0.3613
  613MPD2    C4 9083   3.914   0.748  16.492 -0.3535 -0.4082  0.2036
  613MPD2    C5 9084   3.968   0.760  16.615 -0.0787  0.3256  0.5191
  613MPD2     H 9085   3.735   1.030  16.474 -0.3244  0.0581  0.2771
  613MPD2    H1 9086   3.950   0.671  16.424 -0.0877 -0.1634  0.0660
  613MPD2    H2 9087   3.962   0.887  16.791 -1.0785 -3.5772  0.9068
  613MPD2    H3 9088   4.040   0.686  16.648 -0.1654  1.2312  2.7344
  613MPD2     N 9089   3.781   0.821  16.312  0.3985  0.6403  0.6507
  613MPD2    H5 9090   3.820   0.745  16.257 -1.2648 -0.0234  0.3809
  613MPD2    N1 9091   3.839   1.088  16.727  0.2213 -0.4166 -0.1224
  613MPD2    H7 9092   3.867   1.066  16.822  2.6242 -2.7705 -1.3913
  614TMC3    C1 9093   3.794   1.269  16.558  0.4540 -0.4123 -0.2854
  614TMC3    C2 9094   3.889   1.241  16.470  0.6755  0.1627 -0.6617
  614TMC3    C3 9095   3.895   1.308  16.353  0.0988 -0.5204  1.2682
  614TMC3    C4 9096   3.711   1.375  16.541  0.2063  0.6364  0.3825
  614TMC3    C5 9097   3.712   1.437  16.419 -0.0270 -0.1281  0.0674
  614TMC3    C6 9098   3.803   1.406  16.329  0.3775 -0.5513  0.4400
  614TMC3     C 9099   3.789   1.214  16.700 -0.6746  0.3199  0.2053
  614TMC3     O 9100   3.763   1.296  16.785 -0.6642  0.0334  0.3195
  614TMC3     H 9101   3.969   1.175  16.501 -1.1873 -1.4189  0.7242
  614TMC3    H1 9102   3.641   1.407  16.618  0.0984  1.9616 -0.2666
  614TMC3    H2 9103   3.814   1.450  16.230  0.7862 -0.0548  0.7066
  614TMC3    C7 9104   3.674   1.573  16.418  0.2336  0.6529  0.0139
  614TMC3    C8 9105   3.936   1.223  16.239  0.6722  0.3098 -0.6266
  614TMC3    O1 9106   3.637   1.614  16.528 -0.0226 -0.4721  0.1628
  614TMC3    O2 9107   3.950   1.100  16.251  0.0649  0.5218  0.3974
  615MPD2     C 9108   3.252   3.119  16.689 -0.1856  0.1645  0.1737
  615MPD2    C1 9109   3.341   3.068  16.600  0.2632 -0.4982  0.2538
  615MPD2    C2 9110   3.315   3.068  16.466 -0.4746 -0.4265 -0.1824
  615MPD2    C3 9111   3.182   3.106  16.420  0.2189 -0.2787  0.2573
  615MPD2    C4 9112   3.094   3.163  16.512 -0.2106 -0.2406  0.4596
  615MPD2    C5 9113   3.129   3.159  16.647 -0.9132 -0.4530  0.1586
  615MPD2     H 9114   3.396   3.033  16.402  1.0202  1.2076  0.8073
  615MPD2    H1 9115   2.998   3.200  16.478 -0.6833 -0.5333  1.4728
  615MPD2    H2 9116   3.274   3.115  16.795  1.7095  1.3023 -0.1700
  615MPD2    H3 9117   3.057   3.196  16.719 -1.0786  1.2047 -0.8659
  615MPD2     N 9118   3.147   3.080  16.285  0.0742  0.0895 -0.2108
  615MPD2    H5 9119   3.223   3.059  16.221  0.6592  0.9095  0.2212
  615MPD2    N1 9120   3.462   3.018  16.660  0.0002  0.0987 -0.5331
  615MPD2    H7 9121   3.472   3.035  16.759  2.1190  0.1527 -0.7503
  616TMC3    C1 9122   3.646   2.877  16.688  1.0077 -0.3300 -0.0608
  616TMC3    C2 9123   3.768   2.844  16.633 -0.1679  0.2022  0.0738
  616TMC3    C3 9124   3.881   2.828  16.717  0.0596 -0.5961  0.0471
  616TMC3    C4 9125   3.635   2.887  16.826  0.2994 -0.5180  0.4497
  616TMC3    C5 9126   3.750   2.857  16.907 -0.6738 -0.1856  0.1254
  616TMC3    C6 9127   3.870   2.824  16.854 -0.3163  0.6880  0.0065
  616TMC3     C 9128   3.553   2.941  16.596 -0.2042  0.0810 -0.5606
  616TMC3     O 9129   3.547   2.896  16.480 -0.3522  0.5569 -0.1295
  616TMC3     H 9130   3.788   2.849  16.527 -0.8083  0.8119 -0.0217
  616TMC3    H1 9131   3.533   2.902  16.859  0.4100 -0.5825  0.8227
  616TMC3    H2 9132   3.955   2.812  16.920 -2.3984 -1.1794  2.3390
  616TMC3    C7 9133   3.749   2.860  17.048  0.3437 -0.4391 -0.5105
  616TMC3    C8 9134   4.010   2.862  16.655  0.6268  0.2720  0.2314
  616TMC3    O1 9135   3.821   2.781  17.112  0.3016  0.2896  0.1943
  616TMC3    O2 9136   3.998   2.938  16.554 -0.4458 -0.1804 -0.1353
  617MPD2     C 9137   1.474   1.543  14.100 -0.5924  0.3679  0.1962
  617MPD2    C1 9138   1.477   1.467  14.219 -0.5550  0.2885  0.1922
  617MPD2    C2 9139   1.362   1.392  14.249 -0.2101 -0.0919 -0.5289
  617MPD2    C3 9140   1.246   1.398  14.173  0.4656  0.2665  0.4864
  617MPD2    C4 9141   1.253   1.472  14.058 -0.0981 -0.3719  0.0776
  617MPD2    C5 9142   1.364   1.545  14.024  0.2667  0.1056  0.1036
  617MPD2     H 9143   1.360   1.329  14.337 -3.7896 -0.0524 -0.5678
  617MPD2    H1 9144   1.172   1.489  13.987 -0.5333 -1.8433  0.2305
  617MPD2    H2 9145   1.558   1.605  14.070  1.1551 -2.0648 -0.0219
  617MPD2    H3 9146   1.371   1.620  13.947 -2.3158 -0.8977 -1.0919
  617MPD2     N 9147   1.133   1.316  14.197  0.1548 -0.6682  0.2280
  617MPD2    H5 9148   1.059   1.310  14.129  0.2264 -1.3554  0.2158
  617MPD2    N1 9149   1.595   1.474  14.304  0.2044  0.4377 -0.4111
  617MPD2    H7 9150   1.660   1.547  14.279  1.2802 -0.5351 -0.4567
  618TMC3    C1 9151   1.767   1.408  14.437  0.0023 -0.0215  0.4115
  618TMC3    C2 9152   1.846   1.296  14.420 -0.1886 -0.2021 -0.3132
  618TMC3    C3 9153   1.964   1.295  14.356  0.4353 -0.1701 -0.0879
  618TMC3    C4 9154   1.826   1.529  14.390  0.3160 -0.4481 -0.2665
  618TMC3    C5 9155   1.951   1.525  14.325  1.2375 -0.1246 -0.2992
  618TMC3    C6 9156   2.024   1.412  14.312 -0.4120  0.9383 -0.0916
  618TMC3     C 9157   1.628   1.390  14.406  0.0029  0.5047 -0.2975
  618TMC3     O 9158   1.569   1.287  14.427 -0.2470  0.1841  0.3881
  618TMC3     H 9159   1.812   1.200  14.457 -0.9615  0.2091  0.0452
  618TMC3    H1 9160   1.781   1.626  14.407 -0.0174 -0.8415  1.1033
  618TMC3    H2 9161   2.129   1.416  14.285 -0.4683  1.0611 -0.2953
  618TMC3    C7 9162   2.012   1.657  14.326 -0.8125  0.0331 -0.4500
  618TMC3    C8 9163   1.992   1.171  14.286 -0.4694  0.2870  0.4526
  618TMC3    O1 9164   1.966   1.733  14.410 -0.1754 -0.0215 -0.0124
  618TMC3    O2 9165   1.948   1.071  14.343  0.3933  0.0718 -0.4165
  619MPD2     C 9166   3.242   2.550  13.882  0.2398 -0.2667  0.0533
  619MPD2    C1 9167   3.179   2.485  13.775 -0.2184 -0.0001 -0.4174
  619MPD2    C2 9168   3.047   2.465  13.776  0.4500 -0.4475 -0.2527
  619MPD2    C3 9169   2.974   2.532  13.868  0.8105  0.7957  1.2327
  619MPD2    C4 9170   3.033   2.587  13.977 -0.6582 -0.5091 -0.7113
  619MPD2    C5 9171   3.166   2.591  13.991 -0.2758 -0.1338  0.0001
  619MPD2     H 9172   3.006   2.414  13.689 -0.6424 -0.1068  0.0685
  619MPD2    H1 9173   2.978   2.634  14.058 -1.0208 -2.3162  0.0784
  619MPD2    H2 9174   3.347   2.573  13.896  0.5489 -1.0240 -1.0217
  619MPD2    H3 9175   3.215   2.641  14.073 -1.0214 -0.2344  0.5024
  619MPD2     N 9176   2.832   2.530  13.862 -0.1461 -0.0187 -0.5140
  619MPD2    H5 9177   2.790   2.585  13.937 -0.1294 -1.3290  0.4676
  619MPD2    N1 9178   3.253   2.432  13.670 -0.3221 -0.5273  0.2337
  619MPD2    H7 9179   3.197   2.390  13.597  1.9191 -1.8396 -0.7342
  620TMC3    C1 9180   3.427   2.415  13.513 -0.3389 -0.6953 -0.6344
  620TMC3    C2 9181   3.327   2.421  13.416 -0.2062  0.4443  1.0221
  620TMC3    C3 9182   3.347   2.490  13.303  0.6123  0.8271 -0.0054
  620TMC3    C4 9183   3.547   2.468  13.488 -0.0547 -0.1608  0.2346
  620TMC3    C5 9184   3.567   2.530  13.368  0.2092 -0.1929  0.5543
  620TMC3    C6 9185   3.469   2.529  13.277 -0.4676  0.8155 -0.3934
  620TMC3     C 9186   3.391   2.417  13.661  0.0930  0.2200  0.5286
  620TMC3     O 9187   3.480   2.455  13.737  0.4409 -0.2119 -0.5028
  620TMC3     H 9188   3.234   2.367  13.431 -0.0231 -0.1257  0.1155
  620TMC3    H1 9189   3.627   2.461  13.560  1.1529 -0.9474 -1.2066
  620TMC3    H2 9190   3.491   2.579  13.184  0.7215  0.8671 -0.0837
  620TMC3    C7 9191   3.608   2.657  13.396 -0.5818 -0.1776  0.4602
  620TMC3    C8 9192   3.252   2.594  13.282 -0.1612  0.3431  0.2261
  620TMC3    O1 9193   3.572   2.688  13.512  0.1574 -0.2002 -0.4260
  620TMC3    O2 9194   3.282   2.710  13.263  0.7477  0.4437  0.6346
  621MPD2     C 9195   3.236   2.956   9.147 -0.3869  0.0600 -0.0771
  621MPD2    C1 9196   3.242   2.888   9.267  0.1968  0.4312  1.2932
  621MPD2    C2 9197   3.324   2.937   9.365 -0.5176 -0.0719  0.5507
  621MPD2    C3 9198   3.401   3.051   9.350 -0.8335  0.2000 -0.4773
  621MPD2    C4 9199   3.401   3.111   9.226  0.5257  0.1077 -0.0964
  621MPD2    C5 9200   3.313   3.070   9.128 -0.8231  0.0817 -0.9209
  621MPD2     H 9201   3.335   2.886   9.460  3.5341  1.5539  0.9615
  621MPD2    H1 9202   3.457   3.199   9.198 -0.3004  0.1790 -1.4873
  621MPD2    H2 9203   3.178   2.920   9.062  1.0171  0.2678 -1.1308
  621MPD2    H3 9204   3.306   3.118   9.030  0.9608 -0.7325 -1.4479
  621MPD2     N 9205   3.482   3.097   9.456  0.2131  0.1665  0.0978
  621MPD2    H5 9206   3.462   3.046   9.542  0.1057  1.7300  1.0096
  621MPD2    N1 9207   3.170   2.774   9.297 -0.4777  0.1057  0.0607
  621MPD2    H7 9208   3.200   2.727   9.381  0.4389  0.1718 -0.2301
  622TMC3    C1 9209   2.998   2.614   9.288 -0.5167 -0.2897  0.0078
  622TMC3    C2 9210   3.046   2.560   9.405  0.0634  0.1784 -0.1958
  622TMC3    C3 9211   2.960   2.511   9.496 -0.6217  0.3080  0.7010
  622TMC3    C4 9212   2.861   2.613   9.265  0.0384 -0.4493 -0.3734
  622TMC3    C5 9213   2.778   2.566   9.364 -0.2253  0.5111  0.7508
  622TMC3    C6 9214   2.820   2.513   9.480  0.1456  0.9250  0.4835
  622TMC3     C 9215   3.069   2.722   9.223  0.6280  0.1684  0.0781
  622TMC3     O 9216   3.005   2.780   9.133 -0.0097 -0.3251 -1.0319
  622TMC3     H 9217   3.151   2.575   9.424  0.9014 -2.7488 -2.6020
  622TMC3    H1 9218   2.831   2.661   9.173  2.8472  0.4299 -0.8267
  622TMC3    H2 9219   2.745   2.467   9.544  1.2075 -1.2932  0.1354
  622TMC3    C7 9220   2.645   2.622   9.377 -0.4087  1.2118  0.4207
  622TMC3    C8 9221   2.991   2.534   9.637 -0.3195  1.0662 -0.1806
  622TMC3    O1 9222   2.620   2.665   9.490 -0.3048 -0.4584  0.3045
  622TMC3    O2 9223   3.108   2.518   9.659  0.2652  0.2484  0.4530
  623MPD2     C 9224   2.019   3.999  15.816 -0.3476  0.2584  0.2694
  623MPD2    C1 9225   1.922   3.972  15.907 -0.5402  1.1236  0.4129
  623MPD2    C2 9226   1.950   3.896  16.018  0.8086 -0.4685 -0.0986
  623MPD2    C3 9227   2.071   3.833  16.040  0.3090  0.3421  0.6619
  623MPD2    C4 9228   2.166   3.843  15.941  0.4207 -0.4620 -0.9060
  623MPD2    C5 9229   2.143   3.939  15.838  0.0515 -0.2201  0.0442
  623MPD2     H 9230   1.867   3.886  16.087  0.2334  1.3140 -0.5402
  623MPD2    H1 9231   2.260   3.788  15.940  1.6179  1.5420  0.1278
  623MPD2    H2 9232   2.013   4.066  15.731  0.7117  1.2108  0.9361
  623MPD2    H3 9233   2.221   3.955  15.765  0.9619  0.3727  1.1301
  623MPD2     N 9234   2.085   3.757  16.154  0.1002  0.6660  0.2669
  623MPD2    H5 9235   2.006   3.766  16.217 -0.8250  0.5777 -0.9010
  623MPD2    N1 9236   1.793   4.028  15.900 -0.1685  0.4798 -1.1845
  623MPD2    H7 9237   1.727   3.989  15.967  0.1489  1.0568 -0.5338
  624TMC3    C1 9238   2.310   3.482  16.458  0.1226  0.6933  0.3422
  624TMC3    C2 9239   2.202   3.416  16.498 -0.5157 -0.0207 -0.4613
  624TMC3    C3 9240   2.086   3.454  16.435  0.1410  0.3007  0.3648
  624TMC3    C4 9241   2.306   3.578  16.367  0.2897 -0.0366  0.2983
  624TMC3    C5 9242   2.190   3.611  16.307 -0.1157 -0.2586  0.0169
  624TMC3    C6 9243   2.076   3.552  16.338  0.5347 -0.1976 -0.1020
  624TMC3     C 9244   2.433   3.445  16.523 -0.6069 -0.3951  0.7173
  624TMC3     O 9245   2.419   3.410  16.638 -0.1795 -0.0358  0.0021
  624TMC3     H 9246   2.202   3.344  16.579  1.1511 -0.7536 -1.1016
  624TMC3    H1 9247   2.398   3.632  16.345  1.7408 -3.1772 -1.3625
  624TMC3    H2 9248   1.983   3.572  16.287  1.1896  2.2224 -0.3428
  624TMC3    C7 9249   2.198   3.691  16.186 -0.9609 -0.1889 -0.3450
  624TMC3    C8 9250   1.970   3.364  16.451  0.1029 -0.0648 -0.0133
  624TMC3    O1 9251   2.314   3.688  16.138  0.0272 -0.3722 -0.2487
  624TMC3    O2 9252   1.855   3.405  16.444 -0.3759  0.5086 -0.0646
  625MPD2     C 9253   2.554   3.937   0.322  0.5904  0.0651 -0.2083
  625MPD2    C1 9254   2.465   3.936   0.428  0.4872  0.5684 -0.3732
  625MPD2    C2 9255   2.515   3.873   0.539 -0.1742 -0.2101  0.0592
  625MPD2    C3 9256   2.640   3.827   0.549 -0.3129  0.0175  0.0041
  625MPD2    C4 9257   2.716   3.815   0.444 -0.6409 -0.2382  0.0348
  625MPD2    C5 9258   2.673   3.871   0.327  0.0530 -0.0337  0.0468
  625MPD2     H 9259   2.446   3.873   0.622 -1.9070 -1.1907 -1.3731
  625MPD2    H1 9260   2.813   3.766   0.449  0.5289  2.2549  2.0120
  625MPD2    H2 9261   2.533   4.006   0.241  1.0524  0.0662 -0.3282
  625MPD2    H3 9262   2.743   3.871   0.245 -0.4909 -0.5892 -0.4241
  625MPD2     N 9263   2.683   3.800   0.677 -0.4767  0.5656 -0.3452
  625MPD2    H5 9264   2.612   3.786   0.749 -0.2404 -1.2594 -0.4678
  625MPD2    N1 9265   2.337   3.993   0.428 -0.3186  0.1809 -0.0490
  625MPD2    H7 9266   2.294   3.996   0.520 -0.9820 -2.5197 -0.2662
  626TMC3    C1 9267   2.147   4.117   0.371  0.3644  0.3625  0.4479
  626TMC3    C2 9268   2.087   4.192   0.280  0.3303 -0.0016  0.3072
  626TMC3    C3 9269   2.032   4.307   0.321 -0.0072  0.4593 -0.3729
  626TMC3    C4 9270   2.136   4.141   0.511  0.1059 -0.2263  0.2483
  626TMC3    C5 9271   2.076   4.260   0.549  0.6138 -0.3266 -0.9378
  626TMC3    C6 9272   2.021   4.341   0.449 -0.5103 -0.1522  0.1201
  626TMC3     C 9273   2.266   4.053   0.332  0.8260 -0.5239  0.2576
  626TMC3     O 9274   2.294   4.058   0.209  0.7048 -0.3766 -0.2822
  626TMC3     H 9275   2.101   4.176   0.173  0.1751 -1.3308  0.4876
  626TMC3    H1 9276   2.158   4.072   0.592 -2.2237 -1.9405 -0.5690
  626TMC3    H2 9277   1.948   4.416   0.477  0.5501  0.9628 -0.1012
  626TMC3    C7 9278   2.090   4.301   0.688  0.6994 -0.6484  0.1922
  626TMC3    C8 9279   1.978   4.400   0.219 -0.3080  0.1091 -0.3783
  626TMC3    O1 9280   2.133   4.208   0.754 -1.2705 -1.0129  0.4943
  626TMC3    O2 9281   1.981   4.361   0.107 -0.3097  0.2119 -0.6203
  627MPD2     C 9282   1.148   0.368  14.638 -0.6928  0.4608  0.3896
  627MPD2    C1 9283   1.196   0.268  14.724  0.0625 -0.1455 -0.0662
  627MPD2    C2 9284   1.138   0.139  14.717 -0.3546  0.0774  0.7503
  627MPD2    C3 9285   1.034   0.112  14.629  0.0742 -0.0602 -0.1930
  627MPD2    C4 9286   0.983   0.217  14.551  0.8952  0.2125  0.5999
  627MPD2    C5 9287   1.031   0.338  14.565 -0.2579  0.0945 -0.3456
  627MPD2     H 9288   1.173   0.064  14.786 -0.3837 -1.6710 -1.1189
  627MPD2    H1 9289   0.890   0.209  14.496  0.1197  0.2105  1.9050
  627MPD2    H2 9290   1.191   0.467  14.640  0.6431 -0.1264  0.9563
  627MPD2    H3 9291   0.988   0.419  14.507  0.4332  0.9423  0.3339
  627MPD2     N 9292   0.966   4.709  14.612  0.5839  0.2219 -0.5854
  627MPD2    H5 9293   0.883   4.703  14.555  0.6716  0.6652 -0.7614
  627MPD2    N1 9294   1.295   0.299  14.813  0.2181  0.2980 -0.1161
  627MPD2    H7 9295   1.333   0.219  14.862  0.0952 -1.1963 -2.5249
  628TMC3    C1 9296   1.439   0.424  14.938 -0.0473  0.1926  1.2067
  628TMC3    C2 9297   1.550   0.344  14.900 -0.5299  0.0157 -0.0705
  628TMC3    C3 9298   1.675   0.387  14.927 -0.2398  0.8809  0.4889
  628TMC3    C4 9299   1.461   0.547  15.000 -0.4935 -0.2394  0.3146
  628TMC3    C5 9300   1.588   0.593  15.009 -0.2433  0.0555  0.1388
  628TMC3    C6 9301   1.699   0.513  14.988 -0.0664 -0.3306 -0.1656
  628TMC3     C 9302   1.323   0.419  14.854 -0.0456  0.3466 -0.0591
  628TMC3     O 9303   1.256   0.517  14.854 -0.0732  0.0429  0.0776
  628TMC3     H 9304   1.533   0.260  14.835 -4.3548  1.3589 -0.8121
  628TMC3    H1 9305   1.378   0.611  15.029  0.3515  0.1045  1.9908
  628TMC3    H2 9306   1.797   0.559  14.989 -0.9147  1.4611  0.2809
  628TMC3    C7 9307   1.600   0.717  14.926 -0.3372 -0.4358  0.5360
  628TMC3    C8 9308   1.782   0.315  14.868 -0.3415 -0.1822  0.2059
  628TMC3    O1 9309   1.702   0.781  14.933  0.5315 -0.2914 -0.1704
  628TMC3    O2 9310   1.747   0.227  14.796 -0.3270 -0.2940 -0.4117
  629MPD2     C 9311   4.492   3.003  16.701 -0.4013  0.0272  0.0715
  629MPD2    C1 9312   4.380   3.075  16.674  0.3997 -0.2514  0.7417
  629MPD2    C2 9313   4.261   3.013  16.668 -0.0065  0.2695 -0.8599
  629MPD2    C3 9314   4.242   2.878  16.708 -0.4098 -0.0298 -0.0482
  629MPD2    C4 9315   4.359   2.805  16.751  0.2679 -0.1895  0.6296
  629MPD2    C5 9316   4.482   2.871  16.738 -0.1418  0.5552  0.0082
  629MPD2     H 9317   4.175   3.071  16.634  1.2219  1.4279 -1.9919
  629MPD2    H1 9318   4.350   2.703  16.786  0.6107 -0.6978 -0.7644
  629MPD2    H2 9319   4.588   3.053  16.713  0.2136 -1.3317  0.8623
  629MPD2    H3 9320   4.575   2.819  16.757  0.5755  1.3429 -1.3324
  629MPD2     N 9321   4.115   2.823  16.724  0.4054 -0.9997 -0.2352
  629MPD2    H5 9322   4.108   2.749  16.794 -0.8932 -0.5546  0.1006
  629MPD2    N1 9323   4.377   3.215  16.664  0.0313 -0.0498 -0.2712
  629MPD2    H7 9324   4.453   3.268  16.706 -2.1538  3.3711 -0.6413
  630TMC3    C1 9325   4.275   3.413  16.679  0.5568  0.7139  0.3138
  630TMC3    C2 9326   4.236   3.532  16.618 -0.5330 -0.5565 -0.5303
  630TMC3    C3 9327   4.252   3.651  16.682 -0.7948 -0.1223  0.1667
  630TMC3    C4 9328   4.334   3.423  16.808 -0.5407 -0.2546 -0.5611
  630TMC3    C5 9329   4.317   3.538  16.873 -0.0587 -0.6550 -0.3574
  630TMC3    C6 9330   4.283   3.654  16.814 -1.1126  0.2604  0.4222
  630TMC3     C 9331   4.274   3.286  16.612 -0.3615  0.0101  0.6350
  630TMC3     O 9332   4.178   3.262  16.532 -0.4593 -0.0896  0.0335
  630TMC3     H 9333   4.195   3.526  16.518 -0.2429 -1.2873 -0.6051
  630TMC3    H1 9334   4.332   3.339  16.877 -0.1842  0.1266 -0.0899
  630TMC3    H2 9335   4.280   3.739  16.880  1.3003  0.4943  0.2296
  630TMC3    C7 9336   4.416   3.550  16.977 -0.4010  1.0013 -0.5911
  630TMC3    C8 9337   4.331   3.765  16.620  0.4993 -0.2169  0.2814
  630TMC3    O1 9338   4.410   3.473  17.074 -0.3191 -0.0821 -0.4458
  630TMC3    O2 9339   4.393   3.830  16.709  0.3618 -0.2282  0.0639
  631MPD2     C 9340   3.329   3.834  15.645  0.3623  0.2903  0.0804
  631MPD2    C1 9341   3.202   3.798  15.599 -0.0191  0.3600 -0.4049
  631MPD2    C2 9342   3.152   3.677  15.650  0.6810  0.1855  0.2463
  631MPD2    C3 9343   3.215   3.598  15.751 -0.1070  0.7535  0.5478
  631MPD2    C4 9344   3.341   3.646  15.791  1.0237  0.1289  0.2052
  631MPD2    C5 9345   3.398   3.757  15.737  0.0426  0.2903 -0.2766
  631MPD2     H 9346   3.056   3.643  15.612  0.6732  2.1242 -1.4552
  631MPD2    H1 9347   3.403   3.592  15.862  0.1581  0.4361  1.1981
  631MPD2    H2 9348   3.378   3.919  15.600  2.2413 -1.5226 -1.3256
  631MPD2    H3 9349   3.493   3.785  15.782  0.4825 -1.1829 -0.2728
  631MPD2     N 9350   3.138   3.501  15.820  0.1304  0.8049  0.0919
  631MPD2    H5 9351   3.049   3.479  15.774  1.0305  0.7823 -1.6468
  631MPD2    N1 9352   3.133   3.882  15.518 -0.4476  0.2031  0.1055
  631MPD2    H7 9353   3.181   3.964  15.485 -2.2490  1.3538  0.3458
  632TMC3    C1 9354   2.948   4.012  15.444 -0.8722 -0.1064  0.4400
  632TMC3    C2 9355   2.824   4.046  15.476  0.2185  0.0707  0.0655
  632TMC3    C3 9356   2.748   4.112  15.386 -0.2865 -0.7362  0.8260
  632TMC3    C4 9357   3.002   4.040  15.321  0.4097  0.4680 -0.2856
  632TMC3    C5 9358   2.931   4.116  15.234  0.3180  0.3511  0.8064
  632TMC3    C6 9359   2.804   4.154  15.257 -0.1553 -1.7137  0.5210
  632TMC3     C 9360   2.992   3.892  15.511  0.3246 -0.0726  0.7268
  632TMC3     O 9361   2.905   3.825  15.567 -0.1703  0.6174  0.0109
  632TMC3     H 9362   2.778   4.020  15.571  1.2658 -2.6872 -0.1879
  632TMC3    H1 9363   3.094   3.992  15.289  0.3486  0.2941 -0.2022
  632TMC3    H2 9364   2.748   4.219  15.191 -0.9345 -1.5910  1.2925
  632TMC3    C7 9365   2.991   4.169  15.114  0.1553  0.3130  0.8400
  632TMC3    C8 9366   2.609   4.137  15.419  0.4683  0.0125  0.4518
  632TMC3    O1 9367   2.919   4.230  15.036  0.4067  0.0789  0.0272
  632TMC3    O2 9368   2.578   4.131  15.536  0.3076  0.1338 -0.8654
  633MPD2     C 9369   1.910   1.222  17.292  0.2582  0.0471 -0.5507
  633MPD2    C1 9370   2.001   1.152  17.222  0.3644 -0.3566  0.0778
  633MPD2    C2 9371   2.001   1.008  17.235  0.0835 -0.0569 -0.1462
  633MPD2    C3 9372   1.937   0.953  17.341  0.1138  0.1736  0.7002
  633MPD2    C4 9373   1.855   1.028  17.422  0.3834 -0.5157  0.8444
  633MPD2    C5 9374   1.846   1.159  17.400 -0.7286  0.2451 -0.2754
  633MPD2     H 9375   2.068   0.946  17.178 -0.0920 -1.4412  1.1346
  633MPD2    H1 9376   1.794   0.986  17.502  1.3813  0.2830  2.0187
  633MPD2    H2 9377   1.891   1.327  17.272 -1.6764 -0.3908 -1.0299
  633MPD2    H3 9378   1.790   1.216  17.473 -1.5454  0.0921 -0.7798
  633MPD2     N 9379   1.940   0.814  17.360  0.0460 -0.7130 -0.1428
  633MPD2    H5 9380   1.915   0.780  17.452 -0.0771  1.3348  0.5919
  633MPD2    N1 9381   2.071   1.208  17.109 -0.0046 -0.3545 -0.1171
  633MPD2    H7 9382   2.110   1.137  17.048 -1.1427 -0.8504 -0.2693
  634TMC3    C1 9383   2.145   1.376  16.949  1.0630  0.0549  0.5862
  634TMC3    C2 9384   2.238   1.288  16.898  0.3431  0.2025 -0.3070
  634TMC3    C3 9385   2.329   1.333  16.807  0.0052 -0.7148 -0.2418
  634TMC3    C4 9386   2.150   1.510  16.917 -0.3447  0.1568  0.5688
  634TMC3    C5 9387   2.250   1.556  16.828  0.6550 -0.5896  0.2822
  634TMC3    C6 9388   2.337   1.468  16.768  0.0641  0.1578 -0.3941
  634TMC3     C 9389   2.068   1.343  17.077  0.1459 -0.7798 -0.2269
  634TMC3     O 9390   2.008   1.434  17.131  0.0034  0.1275  0.7949
  634TMC3     H 9391   2.223   1.183  16.917  1.5542  0.3336  1.4017
  634TMC3    H1 9392   2.081   1.576  16.969 -1.5583  0.1417 -1.0511
  634TMC3    H2 9393   2.416   1.503  16.702  1.1087 -0.8238  0.3337
  634TMC3    C7 9394   2.251   1.688  16.776  0.4055 -0.5020  0.9865
  634TMC3    C8 9395   2.406   1.228  16.730  0.0008  0.3753  0.2609
  634TMC3    O1 9396   2.333   1.721  16.689  0.3304 -0.0268  0.1705
  634TMC3    O2 9397   2.416   1.119  16.785 -0.1535  0.1297 -0.0082
  635TMC3    C1 9398   1.910   2.753   0.048  0.2720 -0.2192  0.7735
  635TMC3    C2 9399   1.962   2.760  17.615 -0.1534  0.2913  0.5413
  635TMC3    C3 9400   1.955   2.646  17.530  0.0383 -0.6312  1.1403
  635TMC3    C4 9401   1.835   2.651   0.094  0.2628  0.8399 -0.1249
  635TMC3    C5 9402   1.821   2.544   0.011  0.4078  0.0848 -0.0239
  635TMC3    C6 9403   1.879   2.542  17.569 -0.3326  0.4248  0.2417
  635TMC3     C 9404   1.908   2.880   0.121  0.2189 -0.6344 -0.0386
  635TMC3     O 9405   2.011   2.940   0.106 -0.5294 -0.5675  0.0063
  635TMC3     H 9406   2.014   2.846  17.576  2.2757 -1.4841 -0.1507
  635TMC3    H1 9407   1.807   2.646   0.199  1.6859 -1.3353  0.1519
  635TMC3    H2 9408   1.876   2.456  17.504  1.4197 -0.1774  0.9456
  635TMC3    C7 9409   1.768   2.423   0.064 -0.0256 -0.5959  0.2550
  635TMC3    C8 9410   2.011   2.635  17.402  0.5266 -0.0441  0.2797
  635TMC3    O1 9411   1.822   2.316   0.031  0.2057  0.2409  0.1584
  635TMC3    O2 9412   1.934   2.606  17.311  0.1247 -0.3829 -0.3065
  636MPD2     C 9413   3.398   1.511  15.744  0.9605 -0.1084  0.5573
  636MPD2    C1 9414   3.383   1.487  15.878  0.9586 -0.3881 -0.0864
  636MPD2    C2 9415   3.403   1.352  15.925 -0.2845  0.0050  0.2964
  636MPD2    C3 9416   3.440   1.251  15.838 -0.3737  0.1744 -0.9694
  636MPD2    C4 9417   3.449   1.275  15.705  0.6025 -0.2871 -0.2671
  636MPD2    C5 9418   3.432   1.406  15.656  0.1961 -0.2459 -0.4448
  636MPD2     H 9419   3.388   1.321  16.028 -0.0094  1.7091  0.8357
  636MPD2    H1 9420   3.486   1.210  15.627  4.0966  1.5493 -0.1821
  636MPD2    H2 9421   3.368   1.605  15.698  1.6592 -0.6582 -1.0381
  636MPD2    H3 9422   3.435   1.435  15.551 -0.1802  1.9651  0.1370
  636MPD2     N 9423   3.460   1.120  15.893 -0.0618 -0.3914  0.3769
  636MPD2    H5 9424   3.447   1.107  15.993  0.5015  0.8052  0.6097
  636MPD2    N1 9425   3.352   1.583  15.976  0.2480  0.2988 -0.5985
  636MPD2    H7 9426   3.315   1.549  16.064  3.3031  0.5969  0.8126
  637TMC3    C1 9427   3.578   0.914  15.904  0.4045 -0.0552 -0.2196
  637TMC3    C2 9428   3.578   0.926  16.039 -0.3609 -0.0636  0.6976
  637TMC3    C3 9429   3.658   0.851  16.115  1.2228 -0.4886 -0.0552
  637TMC3    C4 9430   3.661   0.828  15.837 -0.3944 -1.1581 -0.0584
  637TMC3    C5 9431   3.761   0.779  15.909 -0.1895 -0.0799 -0.4537
  637TMC3    C6 9432   3.753   0.782  16.047  0.5596 -0.9963  0.3050
  637TMC3     C 9433   3.513   1.014  15.826  0.3078 -0.6893  0.5792
  637TMC3     O 9434   3.528   1.006  15.706  0.4673 -0.3558  0.3856
  637TMC3     H 9435   3.495   0.975  16.089  0.4545  2.9542 -0.8775
  637TMC3    H1 9436   3.658   0.822  15.729 -3.5009  0.0007 -0.0430
  637TMC3    H2 9437   3.818   0.717  16.104 -0.7205 -1.5435  1.1633
  637TMC3    C7 9438   3.888   0.816  15.855 -0.2559 -0.6024 -0.6081
  637TMC3    C8 9439   3.679   0.895  16.248 -0.1544  0.3524 -0.0818
  637TMC3    O1 9440   3.973   0.814  15.947  0.1330 -0.1273  0.3732
  637TMC3    O2 9441   3.613   0.988  16.296  0.2076 -0.5570  0.1197
  638MPD2     C 9442   3.512   1.026  14.684  0.5791 -0.1781  0.2666
  638MPD2    C1 9443   3.504   0.903  14.618 -0.1607  0.1285  0.4007
  638MPD2    C2 9444   3.502   0.783  14.691  0.1949  0.0015  0.6238
  638MPD2    C3 9445   3.511   0.794  14.827 -0.3542 -0.5695  0.2186
  638MPD2    C4 9446   3.508   0.918  14.891  0.3804  0.3580 -0.4316
  638MPD2    C5 9447   3.509   1.031  14.816 -0.1809  0.0691  0.1041
  638MPD2     H 9448   3.500   0.685  14.645 -0.0252  0.4127 -0.2347
  638MPD2    H1 9449   3.509   0.924  15.000 -0.5895 -0.2758 -0.3804
  638MPD2    H2 9450   3.509   1.122  14.634  0.0668 -0.8205 -0.9394
  638MPD2    H3 9451   3.515   1.132  14.856  2.3600  0.4470 -1.2287
  638MPD2     N 9452   3.528   0.673  14.900 -0.1953  0.5051  0.0134
  638MPD2    H5 9453   3.530   0.583  14.852  0.4220 -0.2979  1.5551
  638MPD2    N1 9454   3.487   0.906  14.478  0.3623 -0.8135 -0.7051
  638MPD2    H7 9455   3.470   0.996  14.435  0.1139 -2.1744 -3.4421
  639TMC3    C1 9456   3.502   0.523  15.071 -0.7463 -0.0558 -0.3552
  639TMC3    C2 9457   3.406   0.452  15.005 -0.0245 -0.2022 -0.3017
  639TMC3    C3 9458   3.347   0.348  15.070  0.2113 -0.9330 -0.3475
  639TMC3    C4 9459   3.544   0.489  15.199 -0.8624  0.2843 -0.1303
  639TMC3    C5 9460   3.489   0.376  15.256  0.0008  0.5990  0.1495
  639TMC3    C6 9461   3.389   0.308  15.189  0.0990  0.1466  0.1216
  639TMC3     C 9462   3.544   0.652  15.033 -0.1431 -0.5695 -0.0771
  639TMC3     O 9463   3.564   0.732  15.120  0.0652  0.2239 -0.3042
  639TMC3     H 9464   3.373   0.489  14.909 -1.1454 -0.6185 -0.0694
  639TMC3    H1 9465   3.627   0.537  15.249  0.4609 -2.6629  0.4816
  639TMC3    H2 9466   3.355   0.223  15.246 -0.8571  0.4679  0.0350
  639TMC3    C7 9467   3.572   0.285  15.336  0.3430 -0.1887 -0.1246
  639TMC3    C8 9468   3.276   0.252  14.984  0.0577 -0.0928 -0.2982
  639TMC3    O1 9469   3.516   0.217  15.418  0.0511 -0.1914  0.2036
  639TMC3    O2 9470   3.303   0.272  14.865 -0.0340  0.1519 -0.5046
  640MPD2     C 9471   3.860   3.745  10.083 -0.2771 -0.2803  0.8994
  640MPD2    C1 9472   3.877   3.877  10.033  0.1670  0.3352  0.7180
  640MPD2    C2 9473   3.817   3.972  10.117 -0.2392 -0.2202  0.3710
  640MPD2    C3 9474   3.747   3.945  10.234 -0.7142 -0.3309  0.5003
  640MPD2    C4 9475   3.739   3.816  10.274  0.2800 -0.7762 -0.0551
  640MPD2    C5 9476   3.802   3.715  10.202 -0.4067  0.0159 -0.2073
  640MPD2     H 9477   3.819   4.074  10.079 -1.0990 -1.1555 -2.1625
  640MPD2    H1 9478   3.671   3.793  10.354 -1.3843 -0.0965 -1.2762
  640MPD2    H2 9479   3.894   3.660  10.024 -0.5675  0.1925  0.0461
  640MPD2    H3 9480   3.787   3.609  10.220 -1.1266  0.3486  1.1339
  640MPD2     N 9481   3.688   4.042  10.313 -0.2279 -0.3449  0.4608
  640MPD2    H5 9482   3.654   4.010  10.403 -0.2300 -0.0734  0.5549
  640MPD2    N1 9483   3.943   3.884   9.909  0.1139  0.4991  0.2512
  640MPD2    H7 9484   3.962   3.797   9.860 -0.2802  0.1142  0.7945
  641TMC3    C1 9485   4.046   3.972   9.725 -0.9682  0.1330  0.2036
  641TMC3    C2 9486   4.116   3.852   9.724  0.2524 -0.4979 -0.1354
  641TMC3    C3 9487   4.205   3.839   9.621  0.9110  0.1272  0.2458
  641TMC3    C4 9488   4.060   4.063   9.621 -0.0741  0.0101  0.4774
  641TMC3    C5 9489   4.150   4.037   9.519 -0.1943  0.1778 -0.2194
  641TMC3    C6 9490   4.223   3.927   9.524 -0.1419  0.6376 -0.5161
  641TMC3     C 9491   3.969   3.998   9.839  0.0542 -0.7398 -0.0616
  641TMC3     O 9492   3.974   4.109   9.885 -0.2366 -0.2134  0.3773
  641TMC3     H 9493   4.112   3.777   9.802  2.3567  0.5599  0.9785
  641TMC3    H1 9494   4.001   4.154   9.622  0.1851  0.1828 -0.1129
  641TMC3    H2 9495   4.274   3.892   9.435  1.2156 -0.7183  0.7873
  641TMC3    C7 9496   4.164   4.132   9.416 -0.1406  0.4770  0.2962
  641TMC3    C8 9497   4.281   3.718   9.609  0.2038  0.4329  0.2229
  641TMC3    O1 9498   4.081   4.220   9.432 -0.2779  0.5754 -0.0514
  641TMC3    O2 9499   4.331   3.704   9.499  0.1234  0.3357  0.3853
  642TMC3    C1 9500   0.071   0.506  12.392 -0.2285  0.0479 -0.9812
  642TMC3    C2 9501   0.152   0.518  12.502 -0.3211 -0.0739 -0.5076
  642TMC3    C3 9502   0.207   0.406  12.566 -0.3080 -0.3696 -0.3470
  642TMC3    C4 9503   0.023   0.385  12.358  0.1364 -0.8894 -0.1090
  642TMC3    C5 9504   0.074   0.275  12.432 -0.7245  0.0073 -0.1585
  642TMC3    C6 9505   0.156   0.287  12.539  0.1912  0.1402 -1.2576
  642TMC3     C 9506   4.715   0.617  12.344  0.5529  0.4132 -0.0141
  642TMC3     O 9507   4.688   0.631  12.221  0.1997 -0.3281 -0.4140
  642TMC3     H 9508   0.169   0.613  12.550  1.3653 -0.3685 -0.5033
  642TMC3    H1 9509   4.683   0.384  12.268  1.0288 -3.4585 -0.7021
  642TMC3    H2 9510   0.215   0.206  12.578 -1.3673  0.0638  0.9855
  642TMC3    C7 9511   0.015   0.150  12.390  0.2091 -0.0058 -0.0946
  642TMC3    C8 9512   0.299   0.434  12.676 -0.3348 -0.4588 -0.1949
  642TMC3    O1 9513   4.681   0.136  12.285  0.3679  0.2291 -0.4730
  642TMC3    O2 9514   0.305   0.363  12.774 -0.4988  0.0663  0.4335
  643TMC3    C1 9515   3.883   4.177   0.762 -0.4581 -0.4251 -0.1471
  643TMC3    C2 9516   3.855   4.219   0.630  0.9031 -0.5697 -0.5191
  643TMC3    C3 9517   3.885   4.135   0.528  0.3865  0.4513 -0.1469
  643TMC3    C4 9518   3.935   4.056   0.792 -0.3099  0.1168  0.0097
  643TMC3    C5 9519   3.961   3.977   0.686  0.1741 -0.6773 -0.1052
  643TMC3    C6 9520   3.930   4.008   0.552 -0.2672  0.1857 -0.3611
  643TMC3     C 9521   3.896   4.288   0.858  0.0460 -0.1532 -1.1192
  643TMC3     O 9522   3.878   4.394   0.810 -0.6752 -0.3236 -0.0471
  643TMC3     H 9523   3.817   4.318   0.607 -2.2482 -1.5324  0.5452
  643TMC3    H1 9524   3.955   4.023   0.894  1.0299  1.8977  0.3258
  643TMC3    H2 9525   3.934   3.942   0.466 -1.5193 -0.0061 -0.2629
  643TMC3    C7 9526   4.004   3.837   0.720  0.4307 -0.5424  0.2221
  643TMC3    C8 9527   3.823   4.168   0.402 -0.0466 -1.3756  0.9018
  643TMC3    O1 9528   3.945   3.783   0.814 -0.4451 -0.0280  0.2313
  643TMC3    O2 9529   3.786   4.077   0.329 -0.2767  0.1968  0.3723
  644MPD2     C 9530   4.316   0.367   9.397 -0.1067  0.1270  0.0490
  644MPD2    C1 9531   4.221   0.267   9.425 -0.1638  0.3631  0.0462
  644MPD2    C2 9532   4.097   0.293   9.489  0.5991 -0.6755 -0.0096
  644MPD2    C3 9533   4.066   0.426   9.514 -0.3472 -0.6399  0.1064
  644MPD2    C4 9534   4.159   0.525   9.483 -0.0198  0.2907 -0.4548
  644MPD2    C5 9535   4.285   0.493   9.428  0.5226  0.0335 -0.2782
  644MPD2     H 9536   4.032   0.210   9.512 -0.7781  0.8074  1.4474
  644MPD2    H1 9537   4.149   0.631   9.504  1.3044  0.4290 -0.4852
  644MPD2    H2 9538   4.407   0.349   9.340 -0.6093 -2.2522 -0.0119
  644MPD2    H3 9539   4.352   0.576   9.407 -1.0811  1.0318 -1.3978
  644MPD2     N 9540   3.939   0.464   9.562 -0.5215  0.3223  0.2544
  644MPD2    H5 9541   3.872   0.388   9.570 -0.4138  0.6738  4.1966
  644MPD2    N1 9542   4.257   0.134   9.377 -0.1595  0.3656 -0.4123
  644MPD2    H7 9543   4.350   0.128   9.335 -0.4775  1.9268 -1.3399
  645TMC3    C1 9544   3.764   0.577   9.661 -0.3874 -0.3761 -0.7070
  645TMC3    C2 9545   3.740   0.462   9.726  0.0497 -0.7744  0.0587
  645TMC3    C3 9546   3.606   0.419   9.726  0.1076 -0.7438 -0.0614
  645TMC3    C4 9547   3.668   0.650   9.594  0.0002 -0.9420  0.4798
  645TMC3    C5 9548   3.541   0.598   9.589  0.6921  0.5100  0.0538
  645TMC3    C6 9549   3.510   0.480   9.652 -1.0662 -0.3453 -0.0832
  645TMC3     C 9550   3.892   0.588   9.595  0.5863 -0.0849  0.0341
  645TMC3     O 9551   3.948   0.689   9.560  0.7569  0.4395 -0.3348
  645TMC3     H 9552   3.822   0.400   9.762  0.8254 -0.7932 -1.7746
  645TMC3    H1 9553   3.698   0.743   9.547 -1.1776 -0.0063  1.5910
  645TMC3    H2 9554   3.405   0.451   9.655 -0.7701 -1.3125  1.1805
  645TMC3    C7 9555   3.431   0.665   9.520  0.1247  0.1332 -0.4334
  645TMC3    C8 9556   3.590   0.285   9.771  0.3363  0.0056 -0.0048
  645TMC3    O1 9557   3.322   0.617   9.541  0.2071  0.0170  0.1796
  645TMC3    O2 9558   3.681   0.223   9.819 -0.1173 -0.0524 -0.1931
  646MPD2     C 9559   3.991   4.390  14.674 -0.5687 -0.5977 -0.2037
  646MPD2    C1 9560   3.882   4.356  14.746 -0.4673 -0.5689  0.2386
  646MPD2    C2 9561   3.753   4.354  14.690  0.2328  0.5293 -0.4440
  646MPD2    C3 9562   3.737   4.383  14.549  0.3608  0.1258  0.0176
  646MPD2    C4 9563   3.855   4.423  14.484  0.3276 -0.3358  0.9622
  646MPD2    C5 9564   3.978   4.429  14.548 -0.3762  0.5920 -0.0003
  646MPD2     H 9565   3.664   4.320  14.741 -0.2256 -0.0742 -1.6442
  646MPD2    H1 9566   3.852   4.465  14.384 -2.2143  0.1697  1.2496
  646MPD2    H2 9567   4.085   4.388  14.729  0.2747 -1.0931 -1.6583
  646MPD2    H3 9568   4.065   4.458  14.490 -0.1383  1.4460  0.7838
  646MPD2     N 9569   3.609   4.390  14.497 -0.1299 -0.4840  0.0408
  646MPD2    H5 9570   3.533   4.351  14.552  0.7109 -0.6777  1.0455
  646MPD2    N1 9571   3.902   4.313  14.879 -0.0142 -0.5383 -0.4843
  646MPD2    H7 9572   3.994   4.276  14.903  1.9434  1.8941 -4.1830
  647TMC3    C1 9573   3.870   4.212  15.071 -0.2263 -0.1406 -0.1283
  647TMC3    C2 9574   3.799   4.097  15.082  0.1261  0.2118  0.1660
  647TMC3    C3 9575   3.843   4.001  15.167 -0.5946 -0.7782 -0.3892
  647TMC3    C4 9576   3.996   4.227  15.121 -0.4487 -0.0386 -0.3589
  647TMC3    C5 9577   4.038   4.121  15.204 -0.1668 -0.1744 -0.4736
  647TMC3    C6 9578   3.952   4.018  15.243 -0.4000 -0.0908 -0.4998
  647TMC3     C 9579   3.808   4.299  14.974 -0.2197  0.7626  0.5731
  647TMC3     O 9580   3.688   4.310  14.970  0.4870  0.7635 -0.7250
  647TMC3     H 9581   3.706   4.085  15.028  0.4316 -2.5070  0.2437
  647TMC3    H1 9582   4.053   4.317  15.107 -1.6271  0.7098 -0.3433
  647TMC3    H2 9583   4.001   3.936  15.295 -1.4064  0.3092  1.0583
  647TMC3    C7 9584   4.167   4.122  15.274  0.0413 -0.3165  0.2305
  647TMC3    C8 9585   3.755   3.885  15.206  0.0027  0.1836  0.6375
  647TMC3    O1 9586   4.184   4.054  15.376  0.0456 -0.1906  0.2220
  647TMC3    O2 9587   3.777   3.838  15.318 -0.4359 -0.6356  0.1762
  648TMC3    C1 9588   2.942   1.533  16.256 -0.7161 -0.2633 -0.1421
  648TMC3    C2 9589   2.944   1.407  16.199  0.1640 -0.1832 -0.1392
  648TMC3    C3 9590   2.974   1.394  16.069  0.6715 -0.1372 -0.1649
  648TMC3    C4 9591   2.948   1.652  16.183 -0.6637  0.3852 -0.1101
  648TMC3    C5 9592   2.984   1.637  16.050  0.2466  0.2857 -0.0273
  648TMC3    C6 9593   2.995   1.506  15.991 -0.2118  0.3586  0.2312
  648TMC3     C 9594   2.929   1.557  16.393  0.6764  0.3745 -0.3593
  648TMC3     O 9595   2.938   1.672  16.443  0.4975 -0.2646  0.2250
  648TMC3     H 9596   2.919   1.313  16.247 -0.7008  0.1501  0.0526
  648TMC3    H1 9597   2.943   1.751  16.226  0.2997 -0.0997  1.1242
  648TMC3    H2 9598   3.020   1.491  15.886 -0.2343 -0.9392  0.4141
  648TMC3    C7 9599   2.944   1.743  15.953 -0.9355  0.0206  0.0399
  648TMC3    C8 9600   2.988   1.258  16.008  0.1816 -1.0725 -0.9856
  648TMC3    O1 9601   2.977   1.734  15.834 -0.0624 -0.4791  0.0935
  648TMC3    O2 9602   2.945   1.170  16.078  0.0024 -0.2702 -0.1508
  649TMC3    C1 9603   1.751   2.630  12.784  0.0056  0.4512  0.4737
  649TMC3    C2 9604   1.887   2.653  12.790  0.3434 -0.0715  0.0681
  649TMC3    C3 9605   1.950   2.611  12.901  0.4486  0.2984  0.1551
  649TMC3    C4 9606   1.682   2.562  12.884  1.1185  0.0692  0.6506
  649TMC3    C5 9607   1.753   2.511  12.990 -0.1826  0.4760  0.1695
  649TMC3    C6 9608   1.888   2.544  13.002  0.1308  0.1428 -0.4176
  649TMC3     C 9609   1.670   2.683  12.677 -0.3887  0.1111 -0.1495
  649TMC3     O 9610   1.550   2.713  12.697 -0.5523 -0.0299 -0.4775
  649TMC3     H 9611   1.933   2.719  12.719 -0.8066 -0.8354 -1.3870
  649TMC3    H1 9612   1.575   2.546  12.871  0.5385  1.6435  3.4776
  649TMC3    H2 9613   1.955   2.511  13.081 -0.7840 -2.0703 -0.5409
  649TMC3    C7 9614   1.695   2.418  13.089  0.7039 -0.5952 -0.2237
  649TMC3    C8 9615   2.088   2.599  12.906 -0.2324 -0.1397 -0.3166
  649TMC3    O1 9616   1.767   2.397  13.185  0.1351  0.2012 -0.1944
  649TMC3    O2 9617   2.141   2.567  13.013 -0.3508  0.2448 -0.2544
  650TMC3    C1 9618   4.248   4.275  12.993 -0.3740  0.2872  0.6064
  650TMC3    C2 9619   4.207   4.395  13.040 -0.4299  0.1078  0.7515
  650TMC3    C3 9620   4.236   4.508  12.967  0.5775  0.3198 -0.1754
  650TMC3    C4 9621   4.307   4.262  12.874 -0.0042  0.4641 -0.0059
  650TMC3    C5 9622   4.335   4.378  12.806 -0.1848 -0.1249  0.1947
  650TMC3    C6 9623   4.303   4.502  12.854 -0.0996 -0.3302  1.3106
  650TMC3     C 9624   4.205   4.161  13.071 -0.0075 -0.6242  0.0991
  650TMC3     O 9625   4.121   4.193  13.152 -0.3121 -0.5544  0.2201
  650TMC3     H 9626   4.153   4.406  13.134  0.2990 -0.2955  1.2231
  650TMC3    H1 9627   4.317   4.164  12.828  0.7100 -0.0266  1.1872
  650TMC3    H2 9628   4.340   4.587  12.797  0.4563  0.4540  2.8404
  650TMC3    C7 9629   4.372   4.359  12.669  0.1634  0.3982 -0.0365
  650TMC3    C8 9630   4.193   4.644  12.999 -0.2542  0.2837 -0.6073
  650TMC3    O1 9631   4.424   4.248  12.639 -0.2754  0.4738  0.3718
  650TMC3    O2 9632   4.248   0.018  12.946 -0.5517 -0.1421  0.6228
  651MPD2     C 9633   3.448   1.345  11.014  0.3179  0.7995 -0.0059
  651MPD2    C1 9634   3.425   1.450  10.921  0.1515 -0.1055 -0.3641
  651MPD2    C2 9635   3.531   1.482  10.842 -0.2148 -0.6929 -0.2128
  651MPD2    C3 9636   3.653   1.414  10.852 -0.0805 -0.4538 -0.0784
  651MPD2    C4 9637   3.671   1.307  10.936 -0.0500 -0.0260 -0.0289
  651MPD2    C5 9638   3.561   1.275  11.013 -0.5352  0.2566 -0.4299
  651MPD2     H 9639   3.519   1.568  10.778 -0.1546 -1.9163 -1.8520
  651MPD2    H1 9640   3.761   1.246  10.939  0.1379  0.2247 -0.5331
  651MPD2    H2 9641   3.374   1.324  11.091 -0.6166  1.0105 -0.8522
  651MPD2    H3 9642   3.578   1.198  11.087  0.5584  2.9593  2.1158
  651MPD2     N 9643   3.763   1.466  10.781 -0.3925 -0.1660  0.7921
  651MPD2    H5 9644   3.748   1.546  10.720 -2.0522 -1.7571 -0.9196
  651MPD2    N1 9645   3.298   1.528  10.919 -0.8752  1.3247  0.2671
  651MPD2    H7 9646   3.233   1.509  10.994  1.0006 -2.1278  1.0045
  652TMC3    C1 9647   4.184   1.474  10.582 -0.2272  0.4252  0.0420
  652TMC3    C2 9648   4.099   1.462  10.688  0.0158  1.3977  0.3584
  652TMC3    C3 9649   3.966   1.487  10.680  0.3968 -0.1261  0.3431
  652TMC3    C4 9650   4.129   1.499  10.457 -0.1755  0.7927 -0.2354
  652TMC3    C5 9651   3.998   1.539  10.459  0.4780 -0.2163  0.2224
  652TMC3    C6 9652   3.910   1.529  10.562  0.6035  0.4325 -0.4263
  652TMC3     C 9653   4.319   1.460  10.610  0.4586 -0.1017  0.5148
  652TMC3     O 9654   4.353   1.381  10.697 -0.4368  0.5900 -0.2639
  652TMC3     H 9655   4.134   1.429  10.785 -0.4721 -1.4406 -0.4258
  652TMC3    H1 9656   4.192   1.502  10.369  0.6920  1.9381  0.4330
  652TMC3    H2 9657   3.803   1.537  10.549  0.3837 -0.1126  0.9724
  652TMC3    C7 9658   3.940   1.574  10.327 -0.9237  0.0705 -0.2371
  652TMC3    C8 9659   3.883   1.407  10.765 -0.2559  0.3948 -0.2502
  652TMC3    O1 9660   3.993   1.538  10.221 -0.1882  0.4244 -0.2301
  652TMC3    O2 9661   3.937   1.313  10.828  0.2517 -0.2813  0.1164
  653MPD2     C 9662   1.609   1.478   0.028  0.2714 -0.3869 -0.0076
  653MPD2    C1 9663   1.567   1.554  17.603  0.7475  0.2913  0.0841
  653MPD2    C2 9664   1.519   1.480  17.496 -0.5788 -0.4103  0.1377
  653MPD2    C3 9665   1.499   1.339  17.502  0.0049 -0.3345 -0.6822
  653MPD2    C4 9666   1.532   1.269  17.617  0.2228 -0.3778 -0.0047
  653MPD2    C5 9667   1.595   1.343   0.029  0.2367 -0.9198 -0.4280
  653MPD2     H 9668   1.488   1.521  17.401 -1.4832 -1.6234 -0.0935
  653MPD2    H1 9669   1.518   1.162  17.625  2.0983 -0.7110 -0.9906
  653MPD2    H2 9670   1.661   1.518   0.115  0.9085 -0.7649 -0.2103
  653MPD2    H3 9671   1.626   1.284   0.115 -1.0212 -0.0215  0.6477
  653MPD2     N 9672   1.436   1.275  17.392 -0.0955  0.9301  0.6710
  653MPD2    H5 9673   1.394   1.339  17.325  0.2941  0.1612 -0.3084
  653MPD2    N1 9674   1.560   1.695  17.604  0.5884  0.0737 -0.2983
  653MPD2    H7 9675   1.547   1.743  17.516  2.2355 -0.1466 -0.6658
  654TMC3    C1 9676   1.369   1.117  17.235 -0.3594  0.0255  0.6490
  654TMC3    C2 9677   1.273   1.208  17.184 -0.5842  0.6442 -0.0546
  654TMC3    C3 9678   1.210   1.167  17.065  0.8719 -0.6219  0.3865
  654TMC3    C4 9679   1.417   1.010  17.160 -0.5553 -0.3920  0.3656
  654TMC3    C5 9680   1.366   0.989  17.037 -0.0295 -0.3731  0.4152
  654TMC3    C6 9681   1.255   1.054  16.993  0.2462 -0.8861 -0.1010
  654TMC3     C 9682   1.449   1.150  17.351  0.0516 -0.5611 -0.0200
  654TMC3     O 9683   1.511   1.059  17.407  0.1510 -0.1127  0.6650
  654TMC3     H 9684   1.243   1.298  17.238  1.1359  0.6062  0.9701
  654TMC3    H1 9685   1.491   0.948  17.209 -0.1785 -1.5861 -1.7077
  654TMC3    H2 9686   1.217   1.027  16.895  0.4052 -0.4958 -0.2722
  654TMC3    C7 9687   1.423   0.893  16.947 -0.5108 -0.4237  0.3568
  654TMC3    C8 9688   1.132   1.274  16.997 -0.8422 -0.0912  0.6109
  654TMC3    O1 9689   1.359   0.876  16.841  0.0216 -0.6367  0.4866
  654TMC3    O2 9690   1.067   1.348  17.076  0.2564 -0.3125  0.4099
  655MPD2     C 9691   3.187   1.966  15.647 -0.1718  0.9369 -0.4231
  655MPD2    C1 9692   3.138   2.095  15.621  0.0940 -0.5844 -0.1429
  655MPD2    C2 9693   3.141   2.135  15.486  0.2492 -0.5688  0.0103
  655MPD2    C3 9694   3.172   2.052  15.380 -0.2176 -0.0068 -0.5875
  655MPD2    C4 9695   3.216   1.927  15.413 -0.0984 -0.0374  0.1567
  655MPD2    C5 9696   3.230   1.884  15.543 -0.4944 -0.1106  0.5852
  655MPD2     H 9697   3.112   2.237  15.464 -2.0241 -1.0840  0.6329
  655MPD2    H1 9698   3.228   1.853  15.335  2.8000  0.2313  0.3212
  655MPD2    H2 9699   3.201   1.928  15.747  1.4073 -0.0880 -1.0476
  655MPD2    H3 9700   3.266   1.785  15.567 -2.0299 -1.0579 -1.0660
  655MPD2     N 9701   3.132   2.075  15.243  0.4980 -0.1318  0.1060
  655MPD2    H5 9702   3.141   1.997  15.178 -2.1666 -2.5613  2.6565
  655MPD2    N1 9703   3.086   2.185  15.715 -0.1862 -0.1563 -0.0576
  655MPD2    H7 9704   3.057   2.273  15.674 -0.7460  0.0080  0.6672
  656TMC3    C1 9705   2.989   2.256  15.922 -0.5256 -0.8304  0.1083
  656TMC3    C2 9706   2.969   2.217  16.053  0.1719 -0.3237 -0.0892
  656TMC3    C3 9707   2.863   2.266  16.114  0.6330  0.1022  0.1351
  656TMC3    C4 9708   2.905   2.345  15.851 -0.4999 -0.1156 -0.0007
  656TMC3    C5 9709   2.798   2.384  15.922  0.0972 -0.9635 -0.2040
  656TMC3    C6 9710   2.768   2.342  16.049 -0.5773 -0.0148  1.2910
  656TMC3     C 9711   3.083   2.163  15.853  0.9119  0.2419 -0.8184
  656TMC3     O 9712   3.149   2.079  15.918  0.2198  0.8535 -0.5192
  656TMC3     H 9713   3.038   2.152  16.106 -3.0020 -2.9676  0.7906
  656TMC3    H1 9714   2.913   2.352  15.743 -2.5673  0.8321 -0.0878
  656TMC3    H2 9715   2.669   2.356  16.091 -1.9311  0.5764 -2.0840
  656TMC3    C7 9716   2.719   2.483  15.847 -0.1668  0.1115 -0.4233
  656TMC3    C8 9717   2.827   2.185  16.229 -0.4264 -0.2427 -0.8548
  656TMC3    O1 9718   2.758   2.499  15.733  0.5686 -0.0104 -0.1377
  656TMC3    O2 9719   2.854   2.068  16.216 -0.2074  0.1130 -0.0350
  657TMC3    C1 9720   1.997   1.392  15.172  0.0496 -0.3211  0.5402
  657TMC3    C2 9721   2.020   1.272  15.238 -0.6795  0.0034  0.5466
  657TMC3    C3 9722   1.927   1.245  15.337  0.6424 -0.0729 -0.1861
  657TMC3    C4 9723   1.884   1.468  15.194 -0.4050  0.9985 -0.3219
  657TMC3    C5 9724   1.792   1.421  15.288 -0.8637 -0.5869  0.3124
  657TMC3    C6 9725   1.813   1.310  15.364 -0.1905  0.7359  0.0875
  657TMC3     C 9726   2.088   1.438  15.066  0.4818 -0.9500  0.1514
  657TMC3     O 9727   2.056   1.547  15.020  0.0758 -0.1043  0.1427
  657TMC3     H 9728   2.122   1.238  15.250 -1.1748 -1.0507  1.8192
  657TMC3    H1 9729   1.860   1.549  15.125 -2.7627  3.1736  3.1023
  657TMC3    H2 9730   1.750   1.275  15.444  2.6521  0.6720  2.2738
  657TMC3    C7 9731   1.655   1.471  15.276 -0.6236  0.2756 -0.4257
  657TMC3    C8 9732   1.956   1.123  15.417 -0.1686  0.8544 -0.1226
  657TMC3    O1 9733   1.652   1.567  15.205 -0.9284  0.5807  0.1694
  657TMC3    O2 9734   1.918   1.126  15.535 -0.6842 -0.0972  0.0272
  658MPD2     C 9735   2.821   1.816  14.478  0.5063 -0.3382  0.5137
  658MPD2    C1 9736   2.921   1.890  14.540  0.0664 -0.0458 -0.2861
  658MPD2    C2 9737   3.026   1.947  14.467 -0.4001 -0.1366  0.0734
  658MPD2    C3 9738   3.029   1.908  14.333 -0.3391  0.2536 -0.4742
  658MPD2    C4 9739   2.938   1.824  14.274  0.1438 -0.2021 -0.0886
  658MPD2    C5 9740   2.835   1.781  14.349  0.0255 -0.2366 -0.4237
  658MPD2     H 9741   3.105   2.010  14.509 -0.9363  1.6907 -1.6576
  658MPD2    H1 9742   2.940   1.795  14.169 -1.6103 -0.6563  0.0052
  658MPD2    H2 9743   2.732   1.769  14.517  0.2985  1.9546  2.8210
  658MPD2    H3 9744   2.764   1.708  14.313 -0.6829  0.1775  0.1461
  658MPD2     N 9745   3.149   1.940  14.268 -0.0167 -0.3633 -0.2735
  658MPD2    H5 9746   3.208   2.004  14.321  1.2214 -0.9561 -0.9649
  658MPD2    N1 9747   2.908   1.922  14.675 -0.5172 -0.4636 -0.5408
  658MPD2    H7 9748   2.815   1.895  14.706  0.5674  0.4345  3.5269
  659TMC3    C1 9749   2.955   2.012  14.895 -0.4955  0.0904  0.3120
  659TMC3    C2 9750   3.041   2.083  14.979 -0.0905 -0.0673 -0.2857
  659TMC3    C3 9751   2.988   2.155  15.087  0.8386 -0.7212  0.1676
  659TMC3    C4 9752   2.816   2.031  14.910 -0.3805 -0.2857  0.1441
  659TMC3    C5 9753   2.771   2.120  15.001  0.1286  0.7526 -0.6111
  659TMC3    C6 9754   2.855   2.183  15.094 -0.0263 -0.3457  1.3049
  659TMC3     C 9755   3.001   1.978  14.760 -0.4790 -0.0219 -0.4930
  659TMC3     O 9756   3.118   1.998  14.740 -0.5358  0.7961 -0.5614
  659TMC3     H 9757   3.149   2.076  14.967 -0.5837 -5.1469 -1.9886
  659TMC3    H1 9758   2.738   1.973  14.863  0.4647 -1.3567  0.0429
  659TMC3    H2 9759   2.811   2.223  15.184 -0.3798  3.1230 -0.3900
  659TMC3    C7 9760   2.651   2.072  15.060  0.0218  0.8640 -0.6609
  659TMC3    C8 9761   3.064   2.185  15.203 -0.8001  0.1213  0.4670
  659TMC3    O1 9762   2.629   1.950  15.063 -0.4668 -0.5023  0.4736
  659TMC3    O2 9763   3.036   2.284  15.267  0.3749  1.0085  0.0817
  660MPD2     C 9764   1.720   0.440  12.893 -0.3066 -0.1308 -0.0310
  660MPD2    C1 9765   1.656   0.360  12.800  0.1583 -0.1632  0.0944
  660MPD2    C2 9766   1.650   0.220  12.805  0.4381 -0.3917 -0.2840
  660MPD2    C3 9767   1.711   0.159  12.918  0.2866 -1.1182  0.2917
  660MPD2    C4 9768   1.773   0.241  13.012 -0.1628 -0.5393  0.3569
  660MPD2    C5 9769   1.770   0.378  13.004  1.0304  0.3895  0.8725
  660MPD2     H 9770   1.597   0.163  12.729 -1.8239  1.0317  0.1969
  660MPD2    H1 9771   1.828   0.195  13.093  0.4642  1.5095  1.0924
  660MPD2    H2 9772   1.722   0.548  12.888 -0.0150 -0.0983  0.8147
  660MPD2    H3 9773   1.828   0.432  13.078  3.1960 -0.7966  0.0186
  660MPD2     N 9774   1.704   0.016  12.947 -0.3021  0.0531  0.0924
  660MPD2    H5 9775   1.762   4.702  13.022  1.0287  0.3075 -0.8167
  660MPD2    N1 9776   1.581   0.433  12.704 -0.2071  0.0982  0.3543
  660MPD2    H7 9777   1.556   0.529  12.725  2.6695  0.8360  0.4236
  661TMC3    C1 9778   1.509   0.494  12.489  0.0153  0.5364  0.0302
  661TMC3    C2 9779   1.537   0.484  12.350 -0.0258 -0.6036 -0.3223
  661TMC3    C3 9780   1.444   0.559  12.274 -0.5326  0.7529 -0.9452
  661TMC3    C4 9781   1.405   0.571  12.542 -0.0090 -0.4215 -0.3368
  661TMC3    C5 9782   1.314   0.624  12.457 -0.1645  0.1802  0.3864
  661TMC3    C6 9783   1.331   0.620  12.321 -0.4029 -0.2204 -0.2824
  661TMC3     C 9784   1.564   0.389  12.572  0.2962  0.1611 -1.0215
  661TMC3     O 9785   1.616   0.290  12.514 -0.0177 -0.3947 -0.6241
  661TMC3     H 9786   1.612   0.421  12.305 -0.5885 -3.1346  2.2426
  661TMC3    H1 9787   1.388   0.567  12.649  0.9170 -1.1966 -0.2136
  661TMC3    H2 9788   1.253   0.676  12.271 -0.7534 -0.2408  0.2437
  661TMC3    C7 9789   1.179   0.631  12.510  0.4469 -0.6193  0.1754
  661TMC3    C8 9790   1.468   0.582  12.135  0.5917  0.9313  0.4979
  661TMC3    O1 9791   1.170   0.649  12.631 -0.0349  0.2372 -0.3193
  661TMC3    O2 9792   1.540   0.495  12.086 -0.1513  0.3658  0.0978
  662MPD2     C 9793   1.564   4.711  17.400  0.5214 -0.0840 -0.2990
  662MPD2    C1 9794   1.549   4.625  17.504 -0.1810 -0.0031 -0.3037
  662MPD2    C2 9795   1.468   4.662  17.610  0.2763  0.1948 -0.1725
  662MPD2    C3 9796   1.391   0.051  17.610 -0.3632  0.1248 -0.1835
  662MPD2    C4 9797   1.402   0.136  17.501 -0.3599 -0.5908 -0.1182
  662MPD2    C5 9798   1.497   0.108  17.404 -0.2420  0.0860 -0.5076
  662MPD2     H 9799   1.449   4.592   0.004  2.2322 -1.8837 -1.4853
  662MPD2    H1 9800   1.343   0.227  17.494  1.7644  0.7051 -1.1728
  662MPD2    H2 9801   1.625   4.695  17.311 -0.2621  2.3988 -1.2799
  662MPD2    H3 9802   1.520   0.183  17.328 -0.7030  0.0279 -0.7006
  662MPD2     N 9803   1.291   0.078   0.024 -0.0300 -0.4646 -0.0949
  662MPD2    H5 9804   1.242   0.167   0.017 -0.7397 -0.7817  0.8144
  662MPD2    N1 9805   1.624   4.502  17.517 -0.1521 -0.4496 -0.2642
  662MPD2    H7 9806   1.615   4.445  17.600 -2.0453  1.2100  0.6700
  663TMC3    C1 9807   1.704   4.293  17.439 -0.5792  0.0112  0.1323
  663TMC3    C2 9808   1.746   4.254  17.561 -0.2735 -0.4280 -0.5553
  663TMC3    C3 9809   1.769   4.124  17.586 -0.2568  1.0267 -0.2481
  663TMC3    C4 9810   1.666   4.204  17.340 -0.1790  0.6970  0.2328
  663TMC3    C5 9811   1.665   4.074  17.375  0.2043  0.4257 -0.5973
  663TMC3    C6 9812   1.705   4.035  17.499  0.5510  0.3461  0.4037
  663TMC3     C 9813   1.683   4.435  17.412 -0.1130  0.0160 -0.3012
  663TMC3     O 9814   1.696   4.463  17.294  0.0309  0.0930 -0.0793
  663TMC3     H 9815   1.797   4.320  17.631 -3.5539  1.6163 -0.0746
  663TMC3    H1 9816   1.627   4.230  17.243  0.0840 -1.0793 -0.3551
  663TMC3    H2 9817   1.722   3.929  17.512 -4.0594 -0.1826  2.0482
  663TMC3    C7 9818   1.578   3.985  17.300 -0.4124 -0.1529  0.8513
  663TMC3    C8 9819   1.781   4.071   0.035  0.0169  0.2281  0.3341
  663TMC3    O1 9820   1.610   3.967  17.183 -0.2935  0.4291 -0.0814
  663TMC3    O2 9821   1.789   3.949   0.044  0.3111 -0.0782 -0.2358
  664MPD2     C 9822   4.449   2.983   0.090  0.3664  1.0651  0.3499
  664MPD2    C1 9823   4.481   3.103   0.155 -0.0379  0.4794 -0.2919
  664MPD2    C2 9824   4.436   3.122   0.282  0.3707  0.2339  0.0632
  664MPD2    C3 9825   4.352   3.026   0.335  0.5772 -0.0851  0.0630
  664MPD2    C4 9826   4.308   2.920   0.265 -0.3430  0.3406 -0.5399
  664MPD2    C5 9827   4.364   2.889   0.145 -0.0298  0.2538  0.3902
  664MPD2     H 9828   4.445   3.216   0.336 -2.3226  0.4463  0.1565
  664MPD2    H1 9829   4.252   2.838   0.308  1.0495 -0.2557  0.1106
  664MPD2    H2 9830   4.472   2.960  17.674 -2.2446 -4.0779  0.8689
  664MPD2    H3 9831   4.348   2.796   0.092  0.7536  0.3428  0.0070
  664MPD2     N 9832   4.301   3.045   0.466 -0.1968 -0.5450 -0.4235
  664MPD2    H5 9833   4.338   3.125   0.517 -2.9170  0.7457 -0.4494
  664MPD2    N1 9834   4.544   3.217   0.095  0.3132  1.2733  0.8248
  664MPD2    H7 9835   4.555   3.300   0.153  0.8145  0.8134  1.3968
  665TMC3    C1 9836   4.185   3.017   0.667  0.6984 -0.1374  0.0067
  665TMC3    C2 9837   4.053   3.016   0.704 -0.4473  1.0516 -0.7539
  665TMC3    C3 9838   4.033   3.055   0.840  0.5984 -0.2038  0.8446
  665TMC3    C4 9839   4.295   3.031   0.747 -0.0615 -0.1300  0.0692
  665TMC3    C5 9840   4.270   3.069   0.872  0.4009  0.1479  0.5495
  665TMC3    C6 9841   4.139   3.085   0.923 -0.4416  0.1084  0.5104
  665TMC3     C 9842   4.205   2.975   0.530  0.1982 -0.1012  0.7890
  665TMC3     O 9843   4.124   2.889   0.491 -0.2402 -0.5165 -0.2683
  665TMC3     H 9844   3.971   2.994   0.636  0.3753 -2.5077 -0.5853
  665TMC3    H1 9845   4.395   3.013   0.709  0.8919 -0.6398  2.8380
  665TMC3    H2 9846   4.117   3.115   1.024 -0.3040 -0.2247  0.6402
  665TMC3    C7 9847   4.388   3.087   0.958 -0.4336 -0.3846  0.1634
  665TMC3    C8 9848   3.906   3.112   0.874  0.4907 -0.7710 -0.2652
  665TMC3    O1 9849   4.493   3.062   0.898 -0.3321 -0.2094  0.3101
  665TMC3    O2 9850   3.894   3.162   0.984  0.1085  0.1552  0.0037
  666TMC3    C1 9851   3.649   3.227   9.569  0.0707  0.6176  0.1223
  666TMC3    C2 9852   3.700   3.115   9.615  0.0313 -0.3195  0.1321
  666TMC3    C3 9853   3.767   3.117   9.732 -0.3488 -0.4176 -0.1027
  666TMC3    C4 9854   3.649   3.343   9.642 -0.3023 -0.0174  0.0462
  666TMC3    C5 9855   3.708   3.345   9.770 -0.3103  0.3896 -0.5600
  666TMC3    C6 9856   3.769   3.231   9.809  0.3585 -0.1613  0.2683
  666TMC3     C 9857   3.559   3.214   9.460  0.0289  0.5481  0.7426
  666TMC3     O 9858   3.540   3.314   9.389  0.3290  0.0239 -0.4073
  666TMC3     H 9859   3.708   3.030   9.548 -0.9500 -1.0072  0.8855
  666TMC3    H1 9860   3.580   3.422   9.614 -1.5546 -1.0405  0.2472
  666TMC3    H2 9861   3.806   3.229   9.911  0.1827  0.5424  0.3465
  666TMC3    C7 9862   3.656   3.426   9.877 -0.0226 -0.3081  0.5866
  666TMC3    C8 9863   3.782   2.993   9.802  0.2676  0.1774  0.7138
  666TMC3    O1 9864   3.640   3.370   9.989 -1.2456 -0.1699 -0.1179
  666TMC3    O2 9865   3.708   2.904   9.767 -0.0692  0.5359 -0.2604
  667MPD2     C 9866   0.757   3.068  14.769 -0.2438 -0.0994 -0.6922
  667MPD2    C1 9867   0.650   3.130  14.833 -0.0501 -0.2388 -0.2760
  667MPD2    C2 9868   0.520   3.088  14.818  0.4153  0.0001  0.0390
  667MPD2    C3 9869   0.496   3.002  14.717  0.9019  0.1870  0.5279
  667MPD2    C4 9870   0.602   2.951  14.637 -0.1412  0.5757 -0.0743
  667MPD2    C5 9871   0.733   2.980  14.662  0.0835  0.2231 -0.4077
  667MPD2     H 9872   0.449   3.139  14.882  1.8871  0.9767  0.9055
  667MPD2    H1 9873   0.586   2.875  14.562 -1.4994  1.7586 -0.9760
  667MPD2    H2 9874   0.861   3.092  14.787 -0.5205 -0.1916  1.0893
  667MPD2    H3 9875   0.822   2.946  14.610  0.6864  2.7391 -1.0634
  667MPD2     N 9876   0.365   2.959  14.687  0.3722 -0.2179  0.9490
  667MPD2    H5 9877   0.359   2.892  14.611  2.3530  1.9918 -1.1844
  667MPD2    N1 9878   0.668   3.226  14.935  0.6727  0.1646 -0.0220
  667MPD2    H7 9879   0.587   3.269  14.979  0.6746  0.5115 -0.3569
  668TMC3    C1 9880   0.768   3.365  15.105  0.1268 -0.4268  0.5303
  668TMC3    C2 9881   0.844   3.480  15.102  0.5936 -0.5486  0.0334
  668TMC3    C3 9882   0.819   3.576  15.198 -0.4545 -0.5373  0.6227
  668TMC3    C4 9883   0.663   3.344  15.183  0.2355 -0.2380 -0.3801
  668TMC3    C5 9884   0.634   3.450  15.266 -0.4847 -0.1765 -0.0468
  668TMC3    C6 9885   0.715   3.560  15.292 -0.8315 -0.3055 -0.0656
  668TMC3     C 9886   0.787   3.272  14.995 -0.2978 -0.6384 -0.2495
  668TMC3     O 9887   0.903   3.239  14.966 -0.2218 -0.0613  0.4934
  668TMC3     H 9888   0.930   3.486  15.036 -0.5666  2.1732 -1.2297
  668TMC3    H1 9889   0.598   3.260  15.161  0.4626 -0.1782 -1.2947
  668TMC3    H2 9890   0.693   3.630  15.372  2.1940  0.0459  0.4397
  668TMC3    C7 9891   0.544   3.415  15.375  0.9513  0.1692 -0.0073
  668TMC3    C8 9892   0.922   3.663  15.244  0.4510  0.0451  0.1186
  668TMC3    O1 9893   0.563   3.469  15.486  0.2003 -0.0241  0.0994
  668TMC3    O2 9894   0.882   3.747  15.321 -0.6784  0.0334  0.5491
  669TMC3    C1 9895   3.596   3.422  14.927  0.1441  0.5364 -0.0916
  669TMC3    C2 9896   3.543   3.411  14.798 -0.5757  0.2693  0.5936
  669TMC3    C3 9897   3.608   3.478  14.696  0.2592  0.1251 -0.1840
  669TMC3    C4 9898   3.706   3.497  14.958 -0.3577  0.2702  0.0327
  669TMC3    C5 9899   3.766   3.561  14.848  0.1347  0.1918  0.6269
  669TMC3    C6 9900   3.717   3.553  14.719  0.2002 -0.2949  0.3763
  669TMC3     C 9901   3.541   3.325  15.026  0.3361 -0.9130  0.2248
  669TMC3     O 9902   3.429   3.277  15.016 -0.3754 -0.1526  0.3516
  669TMC3     H 9903   3.463   3.341  14.779  0.8792 -1.6761  1.6990
  669TMC3    H1 9904   3.740   3.521  15.058  0.3635 -0.4555 -0.0392
  669TMC3    H2 9905   3.769   3.610  14.642 -2.6310 -1.2349 -2.2160
  669TMC3    C7 9906   3.869   3.657  14.863  0.0676  0.1569  0.1331
  669TMC3    C8 9907   3.546   3.472  14.570 -0.4963 -0.2563  0.6627
  669TMC3    O1 9908   3.863   3.756  14.792  0.2137  0.6863 -0.1481
  669TMC3    O2 9909   3.462   3.383  14.565  0.4476 -0.2891 -0.3574
  670MPD2     C 9910   1.517   0.737  13.821  0.6034  0.0402 -0.0040
  670MPD2    C1 9911   1.543   0.843  13.903 -0.4756 -0.3431  0.1639
  670MPD2    C2 9912   1.540   0.821  14.038  0.4731 -0.0824  0.2523
  670MPD2    C3 9913   1.501   0.703  14.097 -0.0901  0.3952 -0.5317
  670MPD2    C4 9914   1.456   0.603  14.008 -0.8079 -0.7746 -0.5853
  670MPD2    C5 9915   1.472   0.618  13.874  0.6567  0.3264  0.3089
  670MPD2     H 9916   1.575   0.899  14.105  0.5099 -1.3249  1.6772
  670MPD2    H1 9917   1.400   0.515  14.035  0.0996 -1.8408 -2.2173
  670MPD2    H2 9918   1.551   0.731  13.718 -1.4229  2.2279 -0.8177
  670MPD2    H3 9919   1.433   0.546  13.804 -2.2045  2.0254  0.1467
  670MPD2     N 9920   1.474   0.679  14.230 -1.0316  0.0155 -0.1784
  670MPD2    H5 9921   1.446   0.583  14.246 -0.3356 -0.2168 -0.3330
  670MPD2    N1 9922   1.598   0.966  13.848 -0.0698  0.1617  0.1299
  670MPD2    H7 9923   1.638   1.024  13.921 -1.2561  0.9016  0.1841
  671TMC3    C1 9924   1.505   0.676  14.452 -0.1549  0.5249  0.3690
  671TMC3    C2 9925   1.618   0.642  14.517 -0.0528 -0.0840 -0.0075
  671TMC3    C3 9926   1.625   0.507  14.546 -0.6244  0.4160  0.0156
  671TMC3    C4 9927   1.394   0.586  14.446 -0.3357  0.1906  0.6627
  671TMC3    C5 9928   1.409   0.455  14.482 -0.6158  0.4192 -0.4841
  671TMC3    C6 9929   1.531   0.418  14.532 -0.1351 -0.3639 -0.0238
  671TMC3     C 9930   1.528   0.751  14.330 -0.3981  0.1225  0.3337
  671TMC3     O 9931   1.616   0.836  14.335  0.0110 -0.4759  0.0259
  671TMC3     H 9932   1.711   0.693  14.492 -0.7501  1.4600  0.5968
  671TMC3    H1 9933   1.305   0.617  14.392 -0.8057 -1.5027  0.4536
  671TMC3    H2 9934   1.561   0.315  14.547  0.1056 -0.0048  1.9830
  671TMC3    C7 9935   1.341   0.365  14.383 -1.3491  0.3569  0.2874
  671TMC3    C8 9936   1.759   0.451  14.529  0.3971  0.0606 -0.1934
  671TMC3    O1 9937   1.306   0.424  14.279 -0.7440  0.1847 -0.3118
  671TMC3    O2 9938   1.768   0.347  14.468  0.5056  0.9573 -0.3284
  672MPD2     C 9939   0.852   1.041   1.177 -0.5757 -0.2949  1.0008
  672MPD2    C1 9940   0.835   1.142   1.083  1.0833  0.0460 -0.2637
  672MPD2    C2 9941   0.861   1.274   1.122  0.1258 -0.2536  0.1694
  672MPD2    C3 9942   0.913   1.304   1.241 -0.0681 -0.5862  0.7519
  672MPD2    C4 9943   0.932   1.205   1.336  0.6157 -0.4049  0.2706
  672MPD2    C5 9944   0.898   1.076   1.300  0.0518 -0.0451  0.1339
  672MPD2     H 9945   0.841   1.347   1.044  1.3912 -2.1294 -1.8998
  672MPD2    H1 9946   0.977   1.224   1.432  0.3595  1.4735  0.0077
  672MPD2    H2 9947   0.826   0.937   1.161 -1.9871  0.7836 -3.7812
  672MPD2    H3 9948   0.905   0.993   1.370 -1.4905 -0.0590  0.2763
  672MPD2     N 9949   0.951   1.438   1.284  0.0911  0.6888 -0.5933
  672MPD2    H5 9950   0.992   1.453   1.375  1.4438 -1.5859 -0.8133
  672MPD2    N1 9951   0.782   1.111   0.957 -0.3695 -0.1102  0.0116
  672MPD2    H7 9952   0.768   1.191   0.898 -1.6394 -0.3070  0.0597
  673TMC3    C1 9953   0.716   0.994   0.762  0.1655 -0.2306  0.3420
  673TMC3    C2 9954   0.812   0.940   0.676 -0.5989 -0.3150 -0.6291
  673TMC3    C3 9955   0.819   0.994   0.554 -0.1947 -0.0250 -0.0489
  673TMC3    C4 9956   0.649   1.105   0.721  0.7412 -0.1417  0.0919
  673TMC3    C5 9957   0.655   1.153   0.597  0.0653 -0.0841 -0.1304
  673TMC3    C6 9958   0.757   1.111   0.509 -0.8797  0.2988  0.0221
  673TMC3     C 9959   0.759   0.990   0.902  0.0727 -0.1447 -0.9875
  673TMC3     O 9960   0.783   0.879   0.939  0.0707 -0.2741 -0.1366
  673TMC3     H 9961   0.871   0.850   0.688  2.3164  1.7255  0.1160
  673TMC3    H1 9962   0.569   1.132   0.789 -1.1344  1.6272 -2.7922
  673TMC3    H2 9963   0.765   1.148   0.407  3.1837  2.4199  1.0990
  673TMC3    C7 9964   0.579   1.270   0.566 -0.2055 -0.3946  0.2623
  673TMC3    C8 9965   0.951   0.988   0.490  0.5555  0.2765  0.7203
  673TMC3    O1 9966   0.480   1.295   0.629  1.0098  0.1946 -0.2415
  673TMC3    O2 9967   0.951   1.005   0.368 -0.8493  0.3340  0.3505
  674MPD2     C 9968   1.328   1.408   0.273 -0.1155 -0.4537  0.7334
  674MPD2    C1 9969   1.329   1.273   0.285  0.0933 -0.3293  0.4749
  674MPD2    C2 9970   1.210   1.211   0.256  0.0413 -0.2368 -0.5869
  674MPD2    C3 9971   1.102   1.282   0.208 -0.0194  0.2078 -0.3354
  674MPD2    C4 9972   1.105   1.417   0.200  0.0868 -0.2538 -0.4806
  674MPD2    C5 9973   1.220   1.481   0.230 -0.5342 -0.0442 -0.0613
  674MPD2     H 9974   1.206   1.103   0.259  1.6163 -0.1964  2.1009
  674MPD2    H1 9975   1.026   1.475   0.154 -1.3032 -1.6766  0.1408
  674MPD2    H2 9976   1.424   1.457   0.283  0.3819 -1.5799  1.4386
  674MPD2    H3 9977   1.225   1.583   0.195  0.7308 -0.0927 -0.0121
  674MPD2     N 9978   0.985   1.214   0.166  0.0346  0.4450 -0.0126
  674MPD2    H5 9979   0.974   1.119   0.200  1.7844  0.2261 -0.0454
  674MPD2    N1 9980   1.445   1.195   0.318  1.2370 -0.2156 -0.3992
  674MPD2    H7 9981   1.420   1.098   0.304 -0.8142  0.0309  1.5444
  675TMC3    C1 9982   1.678   1.171   0.367  0.0038  0.0670 -0.0590
  675TMC3    C2 9983   1.684   1.065   0.288 -0.1875 -0.1423  0.7408
  675TMC3    C3 9984   1.786   0.981   0.308  0.3898  0.8145 -0.2003
  675TMC3    C4 9985   1.783   1.206   0.452 -0.7753 -0.3160 -0.0517
  675TMC3    C5 9986   1.894   1.121   0.468  0.1322 -0.3859  0.9690
  675TMC3    C6 9987   1.893   1.010   0.389 -0.0162  0.7005  0.0974
  675TMC3     C 9988   1.559   1.249   0.379  0.2002  0.2739 -0.0911
  675TMC3     O 9989   1.574   1.351   0.443  0.0298 -0.3435 -0.1143
  675TMC3     H 9990   1.607   1.052   0.213 -0.1712 -0.5154  0.7911
  675TMC3    H1 9991   1.784   1.302   0.502  1.4174 -0.8048  0.8432
  675TMC3    H2 9992   1.964   0.930   0.403  0.5945  1.3254  0.6068
  675TMC3    C7 9993   1.960   1.097   0.594  0.3891 -0.6183 -0.5364
  675TMC3    C8 9994   1.772   0.838   0.278 -0.6665  0.7932 -0.1271
  675TMC3    O1 9995   2.027   1.000   0.600  0.8616 -0.4285  0.1000
  675TMC3    O2 9996   1.737   0.807   0.167  0.0327  0.0103  0.6173
  676MPD2     C 9997   4.479   4.054  11.059  0.4719  0.3667 -0.1688
  676MPD2    C1 9998   4.425   3.979  11.161  0.8914  0.1998 -0.1916
  676MPD2    C2 9999   4.432   3.842  11.158  0.4720  0.3790 -0.4769
  676MPD2    C310000   4.501   3.779  11.053  0.1043 -0.8051  0.3184
  676MPD2    C410001   4.564   3.854  10.960  0.0834 -0.0219 -0.3596
  676MPD2    C510002   4.545   3.993  10.957  0.4173 -0.6434 -0.0635
  676MPD2     H10003   4.396   3.785  11.242  0.6390 -1.8976 -1.9629
  676MPD2    H110004   4.622   3.819  10.876  2.0329 -0.8928  1.3324
  676MPD2    H210005   4.472   4.162  11.056 -1.7969  0.1914 -0.9384
  676MPD2    H310006   4.586   4.049  10.874  1.0319  1.1934  1.4861
  676MPD2     N10007   4.507   3.638  11.027 -0.1751  0.0160  0.5146
  676MPD2    H510008   4.545   3.607  10.939  0.7130  0.5879  0.6991
  676MPD2    N110009   4.346   4.038  11.264 -0.2397 -0.6205 -0.2442
  676MPD2    H710010   4.308   3.969  11.329 -1.6984  2.4618  2.1425
  677TMC3    C110011   4.239   4.191  11.395 -0.1600 -0.4916  0.1760
  677TMC3    C210012   4.136   4.091  11.413 -0.0923 -0.7230  0.3000
  677TMC3    C310013   4.087   4.084  11.537 -0.3089  0.4286  0.0334
  677TMC3    C410014   4.259   4.291  11.486  0.0393  0.4868 -0.3878
  677TMC3    C510015   4.195   4.285  11.603  0.5343  0.9746  0.1700
  677TMC3    C610016   4.102   4.188  11.623 -0.3826  0.0291 -0.2388
  677TMC3     C10017   4.339   4.171  11.296 -0.2013  0.1132  0.1893
  677TMC3     O10018   4.380   4.271  11.244  0.0834 -0.5813 -0.0241
  677TMC3     H10019   4.116   4.012  11.342 -2.2176 -0.2316  0.3504
  677TMC3    H110020   4.341   4.358  11.462  0.9314 -0.4791 -0.0224
  677TMC3    H210021   4.060   4.177  11.722 -2.1178 -0.4112 -1.0230
  677TMC3    C710022   4.249   4.351  11.725  0.4723  0.0927  0.1538
  677TMC3    C810023   3.980   3.982  11.555 -0.2744 -0.0334 -0.1955
  677TMC3    O110024   4.188   4.336  11.831 -0.2290  0.5206 -0.0969
  677TMC3    O210025   3.924   3.951  11.451  0.4508  0.0661 -0.4993
  678MPD2     C10026   0.681   4.279   1.881 -0.5380 -0.2638  0.1289
  678MPD2    C110027   0.672   4.188   1.778  0.0074  0.6259  0.0461
  678MPD2    C210028   0.557   4.112   1.768  0.3764 -0.5716 -0.2620
  678MPD2    C310029   0.461   4.123   1.861  0.4268  0.3834 -0.1120
  678MPD2    C410030   0.473   4.217   1.962  0.4950 -0.4708 -0.4533
  678MPD2    C510031   0.583   4.293   1.976 -0.6454 -0.1661  0.6951
  678MPD2     H10032   0.559   4.033   1.694  0.1791 -1.6135  0.8492
  678MPD2    H110033   0.391   4.229   2.032 -0.6231 -1.2229 -1.6287
  678MPD2    H210034   0.773   4.330   1.904 -0.2527 -0.8594  0.3223
  678MPD2    H310035   0.587   4.361   2.060 -2.5522 -0.0905  0.7097
  678MPD2     N10036   0.357   4.030   1.855  0.5621  0.6277 -0.6618
  678MPD2    H510037   0.375   3.954   1.791 -1.2853 -0.0213 -0.3889
  678MPD2    N110038   0.756   4.179   1.667  0.0924 -0.1475 -0.2567
  678MPD2    H710039   0.743   4.094   1.614 -0.2893 -1.2852  1.6733
  679TMC3    C110040   0.987   4.023   1.391 -0.0802 -0.5148  0.1226
  679TMC3    C210041   0.892   4.099   1.453 -0.1284 -0.0794 -0.2152
  679TMC3    C310042   0.937   4.212   1.522 -0.4287  0.1316  0.3388
  679TMC3    C410043   1.124   4.055   1.395 -0.5703 -0.4183  0.1930
  679TMC3    C510044   1.158   4.167   1.471 -0.0917 -0.0652  0.4117
  679TMC3    C610045   1.067   4.254   1.536  1.1657 -1.0412  0.0862
  679TMC3     C10046   0.936   3.960   1.273  0.2463  0.2396  0.2232
  679TMC3     O10047   0.819   3.931   1.269 -0.6199  0.3085  0.5673
  679TMC3     H10048   0.787   4.078   1.435 -0.2297  1.8330 -1.8738
  679TMC3    H110049   1.198   4.001   1.338 -0.8764  0.3685 -0.9570
  679TMC3    H210050   1.085   4.350   1.582 -1.2399 -1.8508  2.7902
  679TMC3    C710051   1.293   4.226   1.439 -0.1026 -0.6051  0.0135
  679TMC3    C810052   0.849   4.269   1.627 -0.5237 -0.5376  0.2789
  679TMC3    O110053   1.352   4.152   1.363  0.1337  0.5086  0.1351
  679TMC3    O210054   0.864   4.383   1.665  0.0165  0.4715 -0.1850
  680MPD2     C10055   1.883   2.562  13.806 -0.1302  0.3017  0.8568
  680MPD2    C110056   1.783   2.556  13.901  0.2070 -0.5382  0.3545
  680MPD2    C210057   1.763   2.669  13.984  0.1371  0.5245  0.0011
  680MPD2    C310058   1.847   2.779  13.974 -0.0138 -0.6586 -0.4700
  680MPD2    C410059   1.949   2.780  13.885 -0.4377 -0.0915  0.6334
  680MPD2    C510060   1.964   2.672  13.805 -0.6023 -0.2478 -0.0965
  680MPD2     H10061   1.679   2.661  14.052 -0.5196  0.1331 -0.8697
  680MPD2    H110062   2.009   2.870  13.875 -1.2082  0.3324 -0.0724
  680MPD2    H210063   1.903   2.483  13.735 -0.8384  1.1859 -0.3352
  680MPD2    H310064   2.045   2.674  13.732 -1.9191  0.1767 -1.5532
  680MPD2     N10065   1.838   2.900  14.050  0.1109 -0.0888  0.3347
  680MPD2    H510066   1.910   2.971  14.039 -0.4207  0.8958  3.0490
  680MPD2    N110067   1.688   2.449  13.911  0.4707 -0.0866  0.3709
  680MPD2    H710068   1.597   2.459  13.956  1.3741  0.5934  2.0425
  681TMC3    C110069   1.577   2.264  13.844  0.3775 -0.0013 -0.7703
  681TMC3    C210070   1.494   2.265  13.954 -0.4523  0.2243 -0.4255
  681TMC3    C310071   1.372   2.202  13.932 -0.4342 -0.2971  0.2739
  681TMC3    C410072   1.535   2.230  13.715 -0.0279  0.3551 -0.5779
  681TMC3    C510073   1.416   2.171  13.704  0.4939  0.0340 -0.8366
  681TMC3    C610074   1.331   2.150  13.814  0.4158 -0.0279 -0.4744
  681TMC3     C10075   1.700   2.329  13.849 -0.2916  0.3929  0.6525
  681TMC3     O10076   1.780   2.292  13.771  0.6974  0.2618 -0.3020
  681TMC3     H10077   1.522   2.304  14.051  0.4115 -0.9228 -0.2155
  681TMC3    H110078   1.609   2.230  13.635 -0.2950  0.5708 -0.8258
  681TMC3    H210079   1.239   2.093  13.806  1.7737 -2.2833  0.0431
  681TMC3    C710080   1.356   2.138  13.577  0.0339 -0.2204 -0.3027
  681TMC3    C810081   1.292   2.168  14.048 -0.0815  0.1051 -0.3997
  681TMC3    O110082   1.250   2.078  13.565 -0.1814  0.2337  0.0687
  681TMC3    O210083   1.217   2.071  14.061 -0.0973  0.2732 -0.5019
  682MPD2     C10084   3.351   3.978  11.065  0.1457 -0.1818  0.3345
  682MPD2    C110085   3.357   3.838  11.046  0.9750  0.0853  0.0995
  682MPD2    C210086   3.381   3.754  11.151 -0.1116  0.4962 -0.8133
  682MPD2    C310087   3.402   3.806  11.281 -0.0247 -0.5647 -0.5005
  682MPD2    C410088   3.392   3.949  11.299 -0.7547 -0.0797  0.2100
  682MPD2    C510089   3.370   4.034  11.188  0.4044 -0.6092 -0.8944
  682MPD2     H10090   3.405   3.651  11.125  1.2807  0.6773 -0.2936
  682MPD2    H110091   3.396   3.988  11.400 -1.1095  0.8659 -0.1419
  682MPD2    H210092   3.318   4.046  10.988  0.0243 -1.9617 -1.1897
  682MPD2    H310093   3.359   4.141  11.202  2.0246 -0.0906 -3.5299
  682MPD2     N10094   3.419   3.729  11.395 -0.1862 -0.1239 -0.5220
  682MPD2    H510095   3.423   3.775  11.485 -1.0835  1.4526 -1.2874
  682MPD2    N110096   3.338   3.775  10.918 -0.2706  0.4254  0.2565
  682MPD2    H710097   3.341   3.674  10.910 -0.1578  0.4205  0.3715
  683TMC3    C110098   3.526   3.578  11.744 -0.5260  0.6446 -0.2725
  683TMC3    C210099   3.502   3.444  11.780  0.0892  0.7021 -0.0415
  683TMC3    C310100   3.449   3.362  11.681 -0.0326  0.6221  0.2517
  683TMC3    C410101   3.501   3.625  11.620 -0.5588  0.1417 -0.0493
  683TMC3    C510102   3.433   3.544  11.541  0.4296  0.8150  0.5550
  683TMC3    C610103   3.413   3.411  11.563  0.1360 -0.2114 -0.1411
  683TMC3     C10104   3.591   3.667  11.843 -0.3303 -0.9848  0.4624
  683TMC3     O10105   3.595   3.785  11.804  0.0250  0.4250 -0.2783
  683TMC3     H10106   3.518   3.406  11.880  0.9353 -0.2075 -0.5152
  683TMC3    H110107   3.550   3.715  11.584  1.2716 -1.6009 -1.9263
  683TMC3    H210108   3.363   3.347  11.492 -0.2929  0.9526 -0.9016
  683TMC3    C710109   3.423   3.594  11.402  0.1055 -0.1348  0.4870
  683TMC3    C810110   3.455   3.212  11.687  0.0323  0.6697 -0.4317
  683TMC3    O110111   3.416   3.511  11.312 -0.6261 -0.3768 -0.0305
  683TMC3    O210112   3.387   3.155  11.608  0.0809 -0.1299 -0.0555
  684MPD2     C10113   1.515   4.090  16.480 -0.4514 -0.5207 -0.0138
  684MPD2    C110114   1.581   4.173  16.399  0.3540  0.1768  0.1989
  684MPD2    C210115   1.692   4.232  16.449 -0.0156  0.1892  0.1689
  684MPD2    C310116   1.741   4.209  16.572 -0.5303 -0.7507 -0.2594
  684MPD2    C410117   1.661   4.129  16.657 -0.7329 -0.3748 -0.0824
  684MPD2    C510118   1.555   4.059  16.602 -0.0850 -0.2195 -0.1927
  684MPD2     H10119   1.745   4.309  16.394  2.0756 -1.8227 -0.5789
  684MPD2    H110120   1.687   4.111  16.761 -2.6836  1.9794  0.8098
  684MPD2    H210121   1.425   4.040  16.445 -0.8672  1.5803 -1.9907
  684MPD2    H310122   1.496   3.989  16.660  2.1438 -0.7763  1.4085
  684MPD2     N10123   1.870   4.268  16.607  1.0759 -0.4874  0.6058
  684MPD2    H510124   1.920   4.322  16.537  1.1488 -0.8885  0.3486
  684MPD2    N110125   1.552   4.197  16.258  0.5796 -0.2994 -0.2419
  684MPD2    H710126   1.617   4.242  16.194 -1.2529  0.6579 -1.4483
  685TMC3    C110127   1.464   4.156  16.048 -0.4104 -0.0317  0.7138
  685TMC3    C210128   1.358   4.161  15.963 -0.1891  0.5239  0.8671
  685TMC3    C310129   1.383   4.164  15.830  0.2315 -0.4325 -0.2036
  685TMC3    C410130   1.590   4.164  15.999  0.5322 -0.0973  0.0762
  685TMC3    C510131   1.612   4.166  15.862  0.4818  0.2623  0.0672
  685TMC3    C610132   1.507   4.170  15.772  0.9511 -0.0229 -0.2723
  685TMC3     C10133   1.441   4.150  16.195  0.2693  0.2672 -0.8330
  685TMC3     O10134   1.325   4.141  16.239 -0.5829  0.1077  0.1557
  685TMC3     H10135   1.257   4.156  16.003 -0.4574  2.8706  0.5012
  685TMC3    H110136   1.673   4.163  16.069 -1.1352 -0.7019  2.0459
  685TMC3    H210137   1.527   4.164  15.665  1.6624 -1.3601 -0.0705
  685TMC3    C710138   1.738   4.115  15.805  1.2087 -0.1382  0.1434
  685TMC3    C810139   1.275   4.130  15.737  0.4972 -0.3804  0.1348
  685TMC3    O110140   1.773   4.165  15.702 -0.0869 -0.4222 -0.1876
  685TMC3    O210141   1.305   4.119  15.620  0.0877  0.1615 -0.2029
  686MPD2     C10142   2.319   3.556  15.753  0.2511 -0.2314 -0.1921
  686MPD2    C110143   2.315   3.465  15.852 -0.7460 -0.0097  0.4600
  686MPD2    C210144   2.436   3.401  15.896  0.0480  0.0318  0.3241
  686MPD2    C310145   2.555   3.442  15.839  0.2527 -0.0796  0.2958
  686MPD2    C410146   2.557   3.528  15.729  0.4622 -0.9843 -0.0446
  686MPD2    C510147   2.435   3.581  15.693 -0.4914 -0.4112  0.6099
  686MPD2     H10148   2.429   3.314  15.961 -1.5682 -0.1823 -0.1271
  686MPD2    H110149   2.641   3.560  15.668  1.3530  1.1636  2.2971
  686MPD2    H210150   2.231   3.606  15.714 -0.5704 -0.8225  0.9037
  686MPD2    H310151   2.436   3.656  15.615 -1.6746 -2.0929 -1.0075
  686MPD2     N10152   2.680   3.385  15.863  0.1551 -0.2676 -0.1885
  686MPD2    H510153   2.750   3.402  15.792  2.9871  0.6822  2.8183
  686MPD2    N110154   2.190   3.446  15.915 -0.0851 -0.2596 -0.1866
  686MPD2    H710155   2.110   3.494  15.876  0.1523  1.2847  1.2311
  687TMC3    C110156   2.853   3.278  15.982  0.4280 -0.6011  0.0952
  687TMC3    C210157   2.940   3.370  15.941  0.6500  0.0075  0.5862
  687TMC3    C310158   3.070   3.358  15.989 -0.2527 -0.2210  0.4008
  687TMC3    C410159   2.898   3.165  16.046 -0.2784 -0.5266 -0.1033
  687TMC3    C510160   3.024   3.145  16.088 -0.1574 -0.3806  0.7731
  687TMC3    C610161   3.104   3.245  16.061 -0.5279 -0.0928 -0.3137
  687TMC3     C10162   2.711   3.305  15.974  0.0157 -0.4540  0.6667
  687TMC3     O10163   2.643   3.272  16.070 -0.3463  0.0321  0.1122
  687TMC3     H10164   2.905   3.464  15.900  2.8803 -0.4301 -2.3666
  687TMC3    H110165   2.824   3.098  16.086  0.8827 -1.0571  1.1448
  687TMC3    H210166   3.209   3.240  16.090 -0.5644 -1.3750 -0.4145
  687TMC3    C710167   3.021   3.106  16.229  0.0954  0.2002 -0.2544
  687TMC3    C810168   3.176   3.440  15.938  0.1376 -0.0522 -0.0270
  687TMC3    O110169   2.919   3.112  16.288  0.8362  0.1343 -0.3959
  687TMC3    O210170   3.284   3.440  15.998 -0.5860 -0.0229  0.0347
  688MPD2     C10171   1.893   2.248  17.253 -0.0100  0.4773  0.0106
  688MPD2    C110172   1.892   2.123  17.301  0.0661 -0.0430 -0.4111
  688MPD2    C210173   2.005   2.046  17.290 -0.1098 -0.5025 -0.4573
  688MPD2    C310174   2.123   2.094  17.226 -0.4134 -0.8346  0.2773
  688MPD2    C410175   2.120   2.228  17.194  0.0761 -0.1099 -0.3410
  688MPD2    C510176   2.008   2.297  17.195  0.3158 -0.5075 -0.2992
  688MPD2     H10177   1.990   1.945  17.325 -0.0407 -0.3314  0.0786
  688MPD2    H110178   2.204   2.280  17.149  0.5563  1.3435  2.2902
  688MPD2    H210179   1.819   2.326  17.269 -0.1811  0.5562 -1.2140
  688MPD2    H310180   2.009   2.399  17.161 -0.9909 -0.5920 -0.5591
  688MPD2     N10181   2.240   2.027  17.194  0.4169 -0.4697 -0.0607
  688MPD2    H510182   2.309   2.097  17.167 -0.7302  0.5342 -0.3553
  688MPD2    N110183   1.782   2.069  17.377  0.1406  0.1157 -0.8442
  688MPD2    H710184   1.795   1.979  17.423  0.9012  0.0108 -1.2596
  689TMC3    C110185   1.585   2.059  17.500  0.5360 -0.4587  0.2102
  689TMC3    C210186   1.475   2.128  17.549 -0.3251  0.6888  0.1890
  689TMC3    C310187   1.411   2.089  17.663 -0.9794  0.0987 -0.0981
  689TMC3    C410188   1.631   1.954  17.569 -0.3623 -0.7619  0.2967
  689TMC3    C510189   1.561   1.915  17.679 -0.3538  0.1120 -0.1936
  689TMC3    C610190   1.455   1.982   0.045 -0.1629 -0.6234 -0.0529
  689TMC3     C10191   1.667   2.135  17.404 -0.3078  0.4467  0.7402
  689TMC3     O10192   1.626   2.239  17.360  0.1395  0.4269  0.4401
  689TMC3     H10193   1.422   2.194  17.482 -2.3704 -2.9380 -1.7649
  689TMC3    H110194   1.712   1.886  17.543 -1.1357 -1.9795  1.0783
  689TMC3    H210195   1.411   1.944   0.136 -2.2456  0.5746 -0.5640
  689TMC3    C710196   1.571   1.774   0.027  0.0778 -0.0259  0.0495
  689TMC3    C810197   1.303   2.171   0.036  0.4348  0.0394 -0.3624
  689TMC3    O110198   1.565   1.749   0.146  0.0212 -0.0640 -0.2842
  689TMC3    O210199   1.249   2.132   0.134  0.0648  0.5923 -0.4500
  690MPD2     C10200   4.504   4.308  16.202  0.1284 -0.3929 -0.5760
  690MPD2    C110201   4.443   4.286  16.079  0.5796  0.7472  0.0492
  690MPD2    C210202   4.520   4.314  15.966 -0.3727  0.0677 -0.0173
  690MPD2    C310203   4.655   4.347  15.972 -0.6888 -0.4066  0.5018
  690MPD2    C410204   4.716   4.361  16.096  0.1284 -0.5029  0.1666
  690MPD2    C510205   4.638   4.344  16.208 -0.3428 -0.6475 -0.6221
  690MPD2     H10206   4.482   4.296  15.865  1.6898 -2.2620 -0.3621
  690MPD2    H110207   0.096   4.397  16.109 -0.1673  0.4675 -0.2287
  690MPD2    H210208   4.451   4.293  16.295  2.6109  1.5418  1.1555
  690MPD2    H310209   4.681   4.372  16.304 -0.3665  0.5557 -0.9587
  690MPD2     N10210   0.009   4.376  15.854 -0.2734  0.1060 -0.2127
  690MPD2    H510211   4.684   4.364  15.764  0.4335  0.8385 -0.6757
  690MPD2    N110212   4.307   4.246  16.064  0.2314  0.0028  0.3786
  690MPD2    H710213   4.276   4.228  15.969  2.4250  1.1636 -0.5667
  691TMC3    C110214   4.107   4.165  16.114 -0.1954  0.5516 -0.0903
  691TMC3    C210215   3.990   4.177  16.188 -0.4165  0.4965  0.1572
  691TMC3    C310216   3.883   4.082  16.172  0.1757  0.7451 -0.5641
  691TMC3    C410217   4.122   4.050  16.038  0.2186 -0.7543 -0.5614
  691TMC3    C510218   4.016   3.961  16.031  0.1672  0.1669 -0.6867
  691TMC3    C610219   3.900   3.967  16.106 -0.4010 -0.2978  0.7321
  691TMC3     C10220   4.221   4.227  16.166  0.0166  0.4461 -0.1070
  691TMC3     O10221   4.234   4.247  16.285 -0.2281 -0.0003  0.2834
  691TMC3     H10222   3.991   4.257  16.261  0.1048  1.0267 -0.4353
  691TMC3    H110223   4.218   4.031  15.991 -0.6140 -1.8129 -1.8326
  691TMC3    H210224   3.825   3.888  16.114  1.5331 -2.2200 -0.1392
  691TMC3    C710225   4.044   3.836  15.974  0.1249 -0.2018 -0.1546
  691TMC3    C810226   3.761   4.110  16.237 -0.4486 -0.2121  0.1444
  691TMC3    O110227   4.163   3.801  15.969  0.1519  0.5557 -0.7112
  691TMC3    O210228   3.685   4.016  16.250  0.4159  0.1571 -0.1550
  692TMC3    C110229   1.663   0.445  16.040  0.1631 -0.1808 -0.1090
  692TMC3    C210230   1.614   0.410  16.163 -0.3653  0.4511 -0.4211
  692TMC3    C310231   1.640   0.283  16.203 -0.1971  1.0315 -0.1560
  692TMC3    C410232   1.721   0.358  15.953  0.5471  0.3557 -0.2105
  692TMC3    C510233   1.751   0.239  15.999  0.1905  0.1251 -0.1830
  692TMC3    C610234   1.709   0.197  16.123  0.4238 -0.2205 -0.0698
  692TMC3     C10235   1.607   0.567  15.976  0.1072  0.3072  0.9976
  692TMC3     O10236   1.670   0.625  15.893 -0.3582  0.4770  0.2509
  692TMC3     H10237   1.587   0.481  16.240 -1.4714  0.8652 -1.1923
  692TMC3    H110238   1.735   0.379  15.848 -1.1542  1.8866 -0.1415
  692TMC3    H210239   1.701   0.091  16.143 -1.2277  0.1058  1.0202
  692TMC3    C710240   1.872   0.183  15.958 -0.5309 -0.3008 -0.5545
  692TMC3    C810241   1.683   0.273  16.343  0.6237  0.2317  0.2155
  692TMC3    O110242   1.885   0.167  15.837 -0.8039 -0.2146 -0.6181
  692TMC3    O210243   1.793   0.225  16.367  0.6394 -0.5427 -0.4444
  693MPD2     C10244   0.713   3.303  10.918 -0.1966 -0.3006 -0.2734
  693MPD2    C110245   0.694   3.215  10.801  0.1993 -0.1265 -0.2798
  693MPD2    C210246   0.803   3.136  10.765  0.2510 -0.0396 -0.0513
  693MPD2    C310247   0.921   3.141  10.838  0.3350 -0.3219 -0.0335
  693MPD2    C410248   0.939   3.230  10.944  1.0062 -0.1818  0.2804
  693MPD2    C510249   0.835   3.318  10.982  0.3743  1.0507 -0.0978
  693MPD2     H10250   0.799   3.070  10.680  0.9287 -0.8202  0.5273
  693MPD2    H110251   1.030   3.228  11.002 -0.6854  2.8832  3.0525
  693MPD2    H210252   0.634   3.357  10.968  0.2644  0.1898 -0.0757
  693MPD2    H310253   0.842   3.382  11.069  0.7877 -1.0147  1.3903
  693MPD2     N10254   1.031   3.060  10.815  0.6085 -0.2005 -0.5315
  693MPD2    H510255   1.100   3.043  10.888 -0.2160  0.8199  0.4934
  693MPD2    N110256   0.559   3.188  10.753 -0.7041 -0.1091 -0.5880
  693MPD2    H710257   0.478   3.219  10.805 -0.7616  1.3356 -1.5567
  694TMC3    C110258   0.420   3.009  10.708  0.6495 -0.4093  0.6665
  694TMC3    C210259   0.372   2.915  10.620 -0.4591  0.3699  0.5390
  694TMC3    C310260   0.283   2.824  10.668  0.3816  0.3744 -0.0304
  694TMC3    C410261   0.375   3.012  10.840 -0.4058 -0.6659  0.3322
  694TMC3    C510262   0.291   2.914  10.887 -1.0443  0.0735  0.7032
  694TMC3    C610263   0.247   2.815  10.800 -0.1619 -0.0239  0.2607
  694TMC3     C10264   0.527   3.091  10.662  0.2694  0.1670 -0.3573
  694TMC3     O10265   0.602   3.041  10.580  0.1093 -0.0749  1.0457
  694TMC3     H10266   0.409   2.918  10.518  1.8102 -1.6081  1.3015
  694TMC3    H110267   0.413   3.068  10.924 -1.9827  0.7725  0.1017
  694TMC3    H210268   0.183   2.734  10.834  0.6722 -0.3961  0.9607
  694TMC3    C710269   0.283   2.893  11.028  0.2298  0.0355 -0.9573
  694TMC3    C810270   0.209   2.737  10.579 -0.1409  0.0874 -0.0712
  694TMC3    O110271   0.319   2.982  11.102  0.1873  0.1120  0.0476
  694TMC3    O210272   0.194   2.620  10.614 -0.1680 -0.3471 -0.4048
  695MPD2     C10273   1.972   4.682  13.641  0.3888  0.6886  0.4377
  695MPD2    C110274   1.927   0.019  13.760  0.1792 -0.4226  0.2756
  695MPD2    C210275   1.795   0.054  13.771  0.6362 -0.5864  0.1307
  695MPD2    C310276   1.706   0.041  13.665 -0.7319 -0.5108  0.8726
  695MPD2    C410277   1.753   4.705  13.550  0.2590  0.0407 -0.0460
  695MPD2    C510278   1.884   4.675  13.543  0.9588 -0.7035 -0.2066
  695MPD2     H10279   1.766   0.113  13.858 -0.1313  0.9365 -1.1635
  695MPD2    H110280   1.688   4.679  13.467  0.9345 -0.4141 -0.4319
  695MPD2    H210281   2.076   4.659  13.618  0.3973  1.3339 -0.1693
  695MPD2    H310282   1.909   4.633  13.446 -1.7030 -0.5252 -0.9741
  695MPD2     N10283   1.571   0.078  13.685  0.0670 -0.8048 -0.3829
  695MPD2    H510284   1.540   0.129  13.767  0.7929 -0.4763 -0.3108
  695MPD2    N110285   2.019   0.045  13.861  0.1519 -0.8188 -0.1421
  695MPD2    H710286   1.970   0.096  13.934 -0.4937 -0.7559 -0.6173
  696TMC3    C110287   1.352   0.130  13.626  0.1647 -0.0694 -0.6445
  696TMC3    C210288   1.304   0.087  13.752 -0.2183 -0.1455  0.3455
  696TMC3    C310289   1.191   0.145  13.799 -0.1067  0.2064  0.1431
  696TMC3    C410290   1.277   0.212  13.547 -0.2786 -0.7508  0.0950
  696TMC3    C510291   1.175   0.273  13.605  0.2581 -0.0411 -0.1500
  696TMC3    C610292   1.128   0.243  13.726 -0.5253 -0.9054  0.2605
  696TMC3     C10293   1.477   0.078  13.581  0.4900  0.1474 -0.7461
  696TMC3     O10294   1.479   0.036  13.468 -0.7559 -0.2494  0.2469
  696TMC3     H10295   1.370   0.036  13.821  2.6558  3.4190  0.2335
  696TMC3    H110296   1.300   0.234  13.443  2.3464  1.8599  1.2072
  696TMC3    H210297   1.033   0.274  13.769  0.7119  0.0275  2.3402
  696TMC3    C710298   1.175   0.415  13.567  0.4932 -0.5179 -0.8166
  696TMC3    C810299   1.174   0.146  13.941  0.6087  0.8088 -0.1957
  696TMC3    O110300   1.241   0.448  13.469 -0.0800 -0.7287  0.3112
  696TMC3    O210301   1.127   0.242  13.996  0.5322  0.4779  0.1461
  697MPD2     C10302   0.848   1.994  15.931  0.0006  0.0112  0.5882
  697MPD2    C110303   0.883   1.979  15.799  0.3771  0.3313  0.8829
  697MPD2    C210304   0.909   2.095  15.727 -0.2710  0.6898 -0.1273
  697MPD2    C310305   0.912   2.224  15.782 -0.4062  0.1717 -0.3054
  697MPD2    C410306   0.888   2.234  15.918 -0.0560  0.8895  0.6220
  697MPD2    C510307   0.856   2.119  15.987  0.1682 -0.1130 -0.3283
  697MPD2     H10308   0.953   2.097  15.628 -1.6602  1.7336 -0.7221
  697MPD2    H110309   0.880   2.331  15.966  0.1694  0.1324  2.1848
  697MPD2    H210310   0.824   1.909  15.993  0.7527 -0.6247 -0.0028
  697MPD2    H310311   0.841   2.120  16.094  0.3097  0.1106 -0.3102
  697MPD2     N10312   0.938   2.336  15.698  0.2677  0.8963 -0.1106
  697MPD2    H510313   0.971   2.314  15.604 -0.0645 -0.5757  0.1187
  697MPD2    N110314   0.886   1.851  15.744  0.0758  0.0233 -0.9665
  697MPD2    H710315   0.882   1.846  15.642 -0.3151 -0.1959 -0.9445
  698TMC3    C110316   0.957   2.567  15.630  0.1255  0.0088 -0.1563
  698TMC3    C210317   0.944   2.697  15.671 -0.2531  0.4182 -0.2616
  698TMC3    C310318   0.971   2.798  15.580 -0.2681  0.2593 -0.6428
  698TMC3    C410319   0.984   2.536  15.502  0.2099  0.7137  0.4662
  698TMC3    C510320   1.005   2.640  15.409  0.5579 -0.3034  0.3244
  698TMC3    C610321   1.004   2.773  15.449 -0.0577  0.3500 -0.1517
  698TMC3     C10322   0.933   2.472  15.733  0.4710 -0.0458  0.3083
  698TMC3     O10323   0.919   2.515  15.847 -0.1678  0.5007 -0.5919
  698TMC3     H10324   0.931   2.725  15.775  0.4642 -1.5316  0.3510
  698TMC3    H110325   0.978   2.438  15.457  1.4745 -0.8075  3.7013
  698TMC3    H210326   1.005   2.853  15.375  1.0566  0.2088 -0.2785
  698TMC3    C710327   0.997   2.611  15.269 -0.5059 -0.5569 -0.4488
  698TMC3    C810328   0.997   2.930  15.635 -0.3215  0.4914  0.6372
  698TMC3    O110329   0.921   2.528  15.216 -0.1002  0.4818 -0.0507
  698TMC3    O210330   0.944   2.956  15.740 -0.2590 -0.9204  0.5250
  699TMC3    C110331   1.624   4.514  12.918  0.2100  0.4835 -0.7367
  699TMC3    C210332   1.715   4.473  13.009  0.8141 -0.4239 -0.7373
  699TMC3    C310333   1.684   4.381  13.109 -0.0941 -0.0886 -0.6420
  699TMC3    C410334   1.495   4.467  12.913 -0.3222  0.4284  0.3378
  699TMC3    C510335   1.468   4.373  13.014  0.3617  0.3195  0.5972
  699TMC3    C610336   1.557   4.326  13.111  0.9547 -0.2913  0.2486
  699TMC3     C10337   1.636   4.652  12.862 -0.6653  0.6534  0.2105
  699TMC3     O10338   1.552   4.678  12.773  0.2212 -0.1043 -0.0466
  699TMC3     H10339   1.816   4.511  13.000  0.9545 -0.4125  0.8624
  699TMC3    H110340   1.421   4.506  12.846 -0.7525 -1.6672 -0.4249
  699TMC3    H210341   1.519   4.257  13.185 -0.2472  2.0056  1.7535
  699TMC3    C710342   1.324   4.343  13.028  0.9983 -0.0774  0.2119
  699TMC3    C810343   1.774   4.363  13.215  1.1254  0.1287  0.0748
  699TMC3    O110344   1.248   4.433  13.006  0.1276  0.2714 -0.3100
  699TMC3    O210345   1.867   4.436  13.228 -0.3810 -0.4944 -0.4633
  700TMC3    C110346   4.469   2.380  17.341 -0.8448  0.5279 -0.3947
  700TMC3    C210347   4.571   2.299  17.300 -0.9738  0.7844  0.1202
  700TMC3    C310348   4.613   2.214  17.397 -0.2429 -0.3156 -0.7123
  700TMC3    C410349   4.432   2.393  17.473  0.1845 -0.5564 -0.2250
  700TMC3    C510350   4.485   2.309  17.571 -0.1168 -0.0768 -0.2854
  700TMC3    C610351   4.573   2.214  17.528 -0.5799 -0.6408  0.2067
  700TMC3     C10352   4.456   2.501  17.263 -0.3227 -0.1559 -0.1896
  700TMC3     O10353   4.543   2.532  17.188  0.0943  0.0025 -0.6761
  700TMC3     H10354   4.587   2.281  17.194  0.5613  0.5457  0.4014
  700TMC3    H110355   4.363   2.471  17.502 -0.1646 -0.6900 -0.6995
  700TMC3    H210356   4.642   2.165  17.596 -1.3494 -0.5535  1.0348
  700TMC3    C710357   4.516   2.372   0.013 -0.9441 -0.0315  0.2188
  700TMC3    C810358   0.004   2.149  17.352  0.3253  1.0792 -0.0770
  700TMC3    O110359   4.633   2.368   0.056  0.2846  0.1233 -0.0823
  700TMC3    O210360   0.079   2.212  17.280  0.0506 -0.3405  0.7175
  701TMC3    C110361   0.349   1.348  15.451 -0.4862  0.5327 -0.4756
  701TMC3    C210362   0.354   1.346  15.317 -0.8282 -0.2163  0.8446
  701TMC3    C310363   0.418   1.456  15.260  0.1895 -0.8911  0.0113
  701TMC3    C410364   0.396   1.454  15.525 -0.4331 -0.8306  0.2710
  701TMC3    C510365   0.472   1.544  15.460  0.4752 -0.1229 -0.3547
  701TMC3    C610366   0.493   1.544  15.327 -0.1713 -0.6777  0.6634
  701TMC3     C10367   0.270   1.249  15.508 -0.1895  0.3470 -0.2729
  701TMC3     O10368   0.220   1.276  15.616 -0.4004 -0.1990 -0.3012
  701TMC3     H10369   0.316   1.261  15.260  0.7139 -0.8771  0.8071
  701TMC3    H110370   0.375   1.456  15.631  1.7870 -3.6367  0.7749
  701TMC3    H210371   0.552   1.611  15.266 -2.6164  0.4858 -0.4236
  701TMC3    C710372   0.508   1.667  15.524 -0.0369  0.2480 -0.1312
  701TMC3    C810373   0.394   1.488  15.120  0.1974 -0.0293 -0.6048
  701TMC3    O110374   0.533   1.758  15.443  0.4062  0.0640 -0.0783
  701TMC3    O210375   0.422   1.598  15.084  0.3577  0.4472 -0.4458
  702MPD2     C10376   4.473   3.289  10.460 -0.4958  0.7360  0.4485
  702MPD2    C110377   4.491   3.387  10.552 -0.5395 -0.1471 -0.0684
  702MPD2    C210378   4.489   3.524  10.514 -0.4872 -0.4958 -0.4443
  702MPD2    C310379   4.464   3.560  10.386  0.2545  0.2776  0.6552
  702MPD2    C410380   4.438   3.462  10.291  0.4814 -0.2127 -0.9366
  702MPD2    C510381   4.446   3.329  10.328 -0.0876 -0.5459 -0.4060
  702MPD2     H10382   4.512   3.595  10.593  0.7832 -1.1387 -0.2402
  702MPD2    H110383   4.407   3.478  10.189 -1.4797  3.0634  0.1760
  702MPD2    H210384   4.495   3.186  10.487 -0.7660  0.3540 -0.7800
  702MPD2    H310385   4.433   3.261  10.244  0.6125  1.2101 -1.9225
  702MPD2     N10386   4.481   3.703  10.372 -0.6488 -0.4469 -0.1061
  702MPD2    H510387   4.496   3.764  10.451 -1.5379 -3.7568  2.6218
  702MPD2    N110388   4.514   3.358  10.689  0.2504 -0.7142 -0.0915
  702MPD2    H710389   4.523   3.432  10.758  2.1850 -1.1281  0.1120
  703TMC3    C110390   4.519   3.913  10.274 -0.2094  0.2847 -0.4521
  703TMC3    C210391   4.472   3.973  10.391  0.1508 -0.0722  0.0488
  703TMC3    C310392   4.511   4.109  10.413  0.6603  0.1966 -0.3833
  703TMC3    C410393   4.611   3.973  10.196 -0.6590  0.0543 -0.2581
  703TMC3    C510394   4.659   4.097  10.227 -0.4835 -0.0277 -0.8823
  703TMC3    C610395   4.612   4.163  10.338 -1.1464 -0.9129 -0.5425
  703TMC3     C10396   4.480   3.772  10.253 -0.2175 -0.0137 -0.2684
  703TMC3     O10397   4.461   3.722  10.141  0.4649  0.2263  0.0454
  703TMC3     H10398   4.384   3.930  10.436  0.4618 -0.4517  0.2949
  703TMC3    H110399   4.644   3.907  10.116 -2.2355 -0.2932 -0.6136
  703TMC3    H210400   4.660   4.255  10.371  1.6766 -2.0936 -1.3924
  703TMC3    C710401   0.081   4.112  10.176  0.0634 -0.3636 -0.2873
  703TMC3    C810402   4.477   4.180  10.537 -0.3377  0.2203  0.3072
  703TMC3    O110403   0.171   4.167  10.237  0.0083  0.8198  0.4423
  703TMC3    O210404   4.557   4.257  10.585  0.1224 -0.1114  0.0020
  704TMC3    C110405   1.975   1.527  12.754 -0.1390 -0.6932  0.1110
  704TMC3    C210406   2.091   1.583  12.718  0.5327  0.0478  0.4163
  704TMC3    C310407   2.199   1.547  12.787  0.3262 -0.5706 -0.5195
  704TMC3    C410408   1.969   1.419  12.840  0.1685 -0.4440 -0.0709
  704TMC3    C510409   2.084   1.378  12.906  0.3019  0.3180  0.1914
  704TMC3    C610410   2.200   1.459  12.888 -0.3212 -0.5582 -0.0072
  704TMC3     C10411   1.859   1.532  12.662 -1.0081 -0.2345  0.6814
  704TMC3     O10412   1.752   1.487  12.685 -0.5306  0.0844  0.1568
  704TMC3     H10413   2.101   1.655  12.638  2.8428 -1.1468 -0.3703
  704TMC3    H110414   1.878   1.360  12.838  0.2430 -0.6431  2.4240
  704TMC3    H210415   2.298   1.418  12.910 -0.6500 -1.0602  0.5137
  704TMC3    C710416   2.110   1.237  12.898  0.4764  0.6101 -0.9299
  704TMC3    C810417   2.329   1.549  12.722 -0.1381  0.2473  0.0794
  704TMC3    O110418   2.219   1.211  12.842  0.2539 -0.3681 -0.3252
  704TMC3    O210419   2.322   1.522  12.600  0.3359 -0.5537  0.1430
  705MPD2     C10420   2.132   4.603  16.906 -0.1826 -0.3513 -0.1547
  705MPD2    C110421   2.039   4.633  16.801 -0.0650 -0.4492  0.4047
  705MPD2    C210422   1.905   4.610  16.819  0.7565 -0.7173  1.0665
  705MPD2    C310423   1.854   4.553  16.931  0.4220 -0.1341 -0.7026
  705MPD2    C410424   1.939   4.524  17.033  0.2800  0.0451  0.6542
  705MPD2    C510425   2.074   4.529  17.013  0.0308  0.6430 -0.4848
  705MPD2     H10426   1.844   4.652  16.740  0.2325 -2.1718  0.7027
  705MPD2    H110427   1.903   4.475  17.123  0.0995 -0.6205  0.2239
  705MPD2    H210428   2.238   4.611  16.888 -0.2333  1.9298  0.5797
  705MPD2    H310429   2.140   4.495  17.091 -0.1548  0.7121 -0.2989
  705MPD2     N10430   1.716   4.526  16.962  0.4515 -0.6125  0.3604
  705MPD2    H510431   1.696   4.493  17.056  4.1915  0.4316  1.5371
  705MPD2    N110432   2.078   4.705  16.685  0.0822  0.1465  0.6487
  705MPD2    H710433   2.009   0.003  16.613  0.2311  0.1897  0.5188
  706TMC3    C110434   2.402   0.116  16.361  0.2156 -0.2051  0.5053
  706TMC3    C210435   2.333   0.222  16.311 -0.3189 -0.2576  0.2435
  706TMC3    C310436   2.208   0.245  16.365 -0.1002  0.1138 -0.1945
  706TMC3    C410437   2.357   0.048  16.470 -0.8463 -0.6576  0.9973
  706TMC3    C510438   2.236   0.078  16.520  0.0619  0.8082 -0.3781
  706TMC3    C610439   2.161   0.179  16.476  0.0132 -0.4517 -0.4829
  706TMC3     C10440   2.496   0.042  16.278  0.1424 -0.4881 -0.7258
  706TMC3     O10441   2.534   4.669  16.339 -0.7322 -0.6965  0.2335
  706TMC3     H10442   2.374   0.285  16.232  0.0462 -1.1623 -0.2956
  706TMC3    H110443   2.414   4.687  16.511  1.2481  0.8999  1.1983
  706TMC3    H210444   2.070   0.214  16.523  0.8431  2.0997 -0.7539
  706TMC3    C710445   2.211   0.018  16.655  0.2911 -0.0736 -0.3265
  706TMC3    C810446   2.138   0.361  16.307 -0.1644 -0.1093 -0.5523
  706TMC3    O110447   2.316   4.705  16.706  0.6211 -0.1171  0.3652
  706TMC3    O210448   2.194   0.410  16.213  0.6389  0.0364  0.1337
  707TMC3    C110449   2.505   3.902   1.661  0.3379 -0.2070 -0.2102
  707TMC3    C210450   2.538   3.794   1.589  0.1017 -0.5659 -0.6215
  707TMC3    C310451   2.443   3.754   1.503  0.5021 -0.4530  0.3373
  707TMC3    C410452   2.397   3.973   1.645 -0.1247  0.6412 -0.0456
  707TMC3    C510453   2.302   3.929   1.566  0.0518 -0.4044  0.6306
  707TMC3    C610454   2.326   3.815   1.491  0.0941  0.2060  0.4295
  707TMC3     C10455   2.627   3.964   1.716 -0.1414  0.3395  0.6140
  707TMC3     O10456   2.716   3.888   1.738  0.1253  0.1511 -0.1185
  707TMC3     H10457   2.640   3.756   1.590  1.0731  2.0485  0.3366
  707TMC3    H110458   2.368   4.053   1.713  0.2686  0.9550 -0.2451
  707TMC3    H210459   2.261   3.781   1.412  0.4247 -1.3632  0.8301
  707TMC3    C710460   2.180   4.001   1.563  0.3708  0.1285  0.1670
  707TMC3    C810461   2.459   3.650   1.401  0.1623  0.1390  0.1232
  707TMC3    O110462   2.166   4.111   1.620 -0.3148 -0.3784  0.7508
  707TMC3    O210463   2.359   3.598   1.347 -0.0934 -0.1248 -0.2666
  708MPD2     C10464   0.979   3.365  13.912  0.2081 -0.1704 -0.0646
  708MPD2    C110465   0.878   3.444  13.940 -0.1527 -0.6150 -0.3292
  708MPD2    C210466   0.800   3.416  14.046  0.2252 -0.0756  0.7158
  708MPD2    C310467   0.816   3.298  14.119  0.6354 -0.1882 -0.0791
  708MPD2    C410468   0.916   3.215  14.090 -0.2682  0.6625  0.4818
  708MPD2    C510469   0.997   3.253  13.989 -0.5120  0.4947  0.1689
  708MPD2     H10470   0.703   3.459  14.069 -0.6717 -1.5827 -0.2621
  708MPD2    H110471   0.940   3.123  14.143 -2.1817 -0.2111 -0.1754
  708MPD2    H210472   1.042   3.374  13.824  0.7475 -0.0258  0.3372
  708MPD2    H310473   1.085   3.202  13.951 -0.2454  1.5544 -0.6665
  708MPD2     N10474   0.724   3.284  14.232 -0.5396 -0.0598 -0.0623
  708MPD2    H510475   0.643   3.344  14.238  0.9079  1.8179  0.5291
  708MPD2    N110476   0.865   3.559  13.859 -0.7521  0.0463 -0.7335
  708MPD2    H710477   0.924   3.566  13.777 -0.0387  2.3943 -0.0173
  709TMC3    C110478   0.744   3.732  13.764  0.0095 -0.6031 -0.1560
  709TMC3    C210479   0.719   3.654  13.655 -0.7144  0.6477  0.0420
  709TMC3    C310480   0.594   3.647  13.597  0.4693 -0.7418  0.7146
  709TMC3    C410481   0.640   3.814  13.807  0.0730 -0.4765 -0.1037
  709TMC3    C510482   0.518   3.804  13.745  0.0705  0.0919 -0.2129
  709TMC3    C610483   0.488   3.717  13.648  0.6430  1.6474  0.1437
  709TMC3     C10484   0.769   3.655  13.882  0.0578  0.2428 -0.0116
  709TMC3     O10485   0.710   3.679  13.986  0.2721 -0.3116  0.1276
  709TMC3     H10486   0.799   3.592  13.616 -1.4191 -0.1101 -0.1950
  709TMC3    H110487   0.659   3.871  13.897 -0.2342 -1.4571  0.5794
  709TMC3    H210488   0.385   3.710  13.614  0.0878  2.7314  1.6102
  709TMC3    C710489   0.407   3.814  13.835  0.5702 -0.0116 -0.0163
  709TMC3    C810490   0.572   3.524  13.524 -0.4621 -0.6655  0.5821
  709TMC3    O110491   0.288   3.835  13.799 -0.6349  0.1601 -0.1869
  709TMC3    O210492   0.648   3.432  13.558  0.1891  0.7525  0.0624
  710TMC3    C110493   1.582   4.682   0.827 -0.3021  0.4593 -0.4328
  710TMC3    C210494   1.612   4.615   0.707  0.4188  0.1311  0.0326
  710TMC3    C310495   1.659   4.488   0.716  0.0432 -0.0579 -0.0165
  710TMC3    C410496   1.593   4.630   0.953  0.0848 -0.2297 -0.3643
  710TMC3    C510497   1.648   4.502   0.950 -0.2461  0.1538  0.4506
  710TMC3    C610498   1.681   4.432   0.837 -0.2841  0.8209 -0.7688
  710TMC3     C10499   1.488   0.071   0.807 -0.8779 -0.2505 -0.2748
  710TMC3     O10500   1.519   0.148   0.720 -0.1812  0.1614 -0.5300
  710TMC3     H10501   1.585   4.665   0.615  1.7477 -1.0554 -1.0024
  710TMC3    H110502   1.562   4.675   1.047  1.3739 -1.1887  0.4966
  710TMC3    H210503   1.726   4.334   0.847 -0.1772  0.6628 -2.6669
  710TMC3    C710504   1.635   4.426   1.070 -0.8360 -0.6473 -0.1269
  710TMC3    C810505   1.687   4.413   0.597 -0.2992 -0.0736  0.3392
  710TMC3    O110506   1.615   4.305   1.073 -0.2051  0.1248 -0.1039
  710TMC3    O210507   1.716   4.486   0.502  0.1754  0.5147  0.1885
  711TMC3    C110508   0.884   0.739  15.235  0.5888 -0.1690  0.6764
  711TMC3    C210509   0.899   0.829  15.330  0.4441 -0.0334 -0.0561
  711TMC3    C310510   1.008   0.816  15.416 -0.1216  0.1836  0.1327
  711TMC3    C410511   0.971   0.636  15.212 -0.3187 -0.1250 -0.3927
  711TMC3    C510512   1.088   0.632  15.284 -0.1517 -0.2067 -0.5810
  711TMC3    C610513   1.103   0.715  15.390  0.9209 -0.3862  1.0494
  711TMC3     C10514   0.772   0.743  15.140 -0.7585 -0.2060 -0.4343
  711TMC3     O10515   0.745   0.642  15.079 -0.2474  0.3756  0.4068
  711TMC3     H10516   0.831   0.913  15.339 -0.6258 -0.9990  0.8281
  711TMC3    H110517   0.959   0.573  15.124  5.2313 -0.2181 -1.0874
  711TMC3    H210518   1.180   0.698  15.464  2.1015  0.3536 -0.0166
  711TMC3    C710519   1.180   0.515  15.273  0.2518  0.1760  0.4167
  711TMC3    C810520   1.037   0.929  15.500 -0.4256 -0.2095 -0.4539
  711TMC3    O110521   1.291   0.512  15.333  0.3163  0.1737 -0.5171
  711TMC3    O210522   0.944   1.005  15.524 -0.3901  0.1109 -0.2428
  712MPD2     C10523   2.252   1.754  13.610  0.4494 -0.1479  0.6526
  712MPD2    C110524   2.161   1.857  13.633  0.1617 -0.3640  0.0570
  712MPD2    C210525   2.207   1.984  13.666  0.3458  0.3575 -0.3805
  712MPD2    C310526   2.340   2.007  13.649  0.1296  0.4587  0.1573
  712MPD2    C410527   2.427   1.902  13.625  0.7309 -0.1487 -0.4482
  712MPD2    C510528   2.382   1.774  13.611 -0.8559 -0.0491 -0.6251
  712MPD2     H10529   2.136   2.062  13.693  1.3368  1.2471 -0.3473
  712MPD2    H110530   2.534   1.922  13.629  0.8263 -0.6614 -0.4874
  712MPD2    H210531   2.209   1.656  13.592 -0.8763  0.9627 -2.2821
  712MPD2    H310532   2.444   1.686  13.597 -1.3053 -0.1610 -1.9112
  712MPD2     N10533   2.398   2.137  13.663  0.2077  0.9278  0.0831
  712MPD2    H510534   2.499   2.150  13.661  0.2028  0.8978 -0.3799
  712MPD2    N110535   2.022   1.827  13.640  0.4729 -0.0020  0.1101
  712MPD2    H710536   1.963   1.899  13.682 -1.1161 -1.1022 -0.2817
  713TMC3    C110537   2.404   2.360  13.745  0.4971  0.0788  0.4151
  713TMC3    C210538   2.541   2.352  13.756 -0.0701  0.1270  0.8914
  713TMC3    C310539   2.613   2.459  13.803  0.0183 -0.3798 -0.2060
  713TMC3    C410540   2.343   2.478  13.752 -0.6579  1.0677 -0.6395
  713TMC3    C510541   2.422   2.586  13.787 -0.5506 -0.6919 -0.6758
  713TMC3    C610542   2.557   2.587  13.812  0.3084  0.6226 -0.3988
  713TMC3     C10543   2.326   2.245  13.703 -0.5831  0.2540  0.7442
  713TMC3     O10544   2.207   2.270  13.710 -0.3319  0.5489  0.1082
  713TMC3     H10545   2.593   2.259  13.736  0.6344  1.0970 -1.7495
  713TMC3    H110546   2.235   2.488  13.746 -0.5779  0.6917 -2.4779
  713TMC3    H210547   2.618   2.676  13.822  0.0178  0.5849  1.7633
  713TMC3    C710548   2.370   2.721  13.782 -0.0274 -0.1098  0.9547
  713TMC3    C810549   2.751   2.453  13.770 -0.1154  0.4451  0.3453
  713TMC3    O110550   2.425   2.809  13.842 -0.1765 -0.1267 -0.0990
  713TMC3    O210551   2.780   2.369  13.683  0.4090  0.1156 -0.3376
  714MPD2     C10552   3.605   1.046   1.675  0.3245  0.0566  1.0285
  714MPD2    C110553   3.586   0.917   1.690 -0.1765  0.0146 -0.1359
  714MPD2    C210554   3.470   0.855   1.650 -0.8409  0.6297 -0.1543
  714MPD2    C310555   3.367   0.931   1.608 -0.0561 -0.2230 -0.5703
  714MPD2    C410556   3.376   1.071   1.607 -0.2072 -0.4252  0.3095
  714MPD2    C510557   3.499   1.123   1.639  0.1538 -0.6347 -0.0377
  714MPD2     H10558   3.454   0.748   1.663 -2.1710  0.8605  0.1060
  714MPD2    H110559   3.297   1.138   1.575  0.9241  0.3083 -0.9671
  714MPD2    H210560   3.697   1.096   1.702  1.0742 -0.7442 -0.0240
  714MPD2    H310561   3.512   1.231   1.635  0.6168 -0.6703  0.5789
  714MPD2     N10562   3.249   0.866   1.568 -0.0888  0.1424 -0.4408
  714MPD2    H510563   3.255   0.766   1.581 -0.5309 -0.0128 -1.4416
  714MPD2    N110564   3.695   0.828   1.728 -0.9547 -0.2351  0.3474
  714MPD2    H710565   3.788   0.866   1.739 -1.0759 -0.3008  1.6519
  715TMC3    C110566   3.816   0.649   1.837 -0.6609 -0.2528 -0.2878
  715TMC3    C210567   3.820   0.511   1.857  0.4462  0.3326 -0.4500
  715TMC3    C310568   3.946   0.459   1.876  0.5235  0.2697 -0.0306
  715TMC3    C410569   3.926   0.726   1.846  0.1048  1.1916 -0.6347
  715TMC3    C510570   4.046   0.666   1.867  0.2929 -0.1825 -0.5068
  715TMC3    C610571   4.062   0.529   1.877 -0.1859  0.0710 -0.5607
  715TMC3     C10572   3.691   0.701   1.784  0.3249 -0.3471  0.0099
  715TMC3     O10573   3.599   0.627   1.788  0.4038  0.1788 -0.8906
  715TMC3     H10574   3.729   0.456   1.837 -0.0595  0.9031  0.2824
  715TMC3    H110575   3.912   0.833   1.830  0.0145  1.2343 -0.2739
  715TMC3    H210576   4.160   0.483   1.890 -0.3484  0.0007  0.4240
  715TMC3    C710577   4.158   0.748   1.897  0.2115 -0.3233 -1.1135
  715TMC3    C810578   3.951   0.316   1.897  0.2725 -0.3424 -0.0360
  715TMC3    O110579   4.266   0.694   1.876  0.0508 -0.1740  0.8732
  715TMC3    O210580   4.057   0.265   1.868  0.4574  0.2435  0.5393
  716MPD2     C10581   4.397   3.447   9.852  0.1860 -0.5422 -0.5471
  716MPD2    C110582   4.363   3.513   9.731 -0.1128  0.5320  0.5109
  716MPD2    C210583   4.375   3.432   9.623 -0.2464  0.3680 -0.4917
  716MPD2    C310584   4.410   3.297   9.627  0.3657 -0.8990 -0.1244
  716MPD2    C410585   4.462   3.240   9.738  0.1177 -0.5468 -0.4153
  716MPD2    C510586   4.448   3.316   9.852  0.0807 -0.1576  0.3074
  716MPD2     H10587   4.356   3.467   9.522  0.1974 -0.1242 -0.7475
  716MPD2    H110588   4.480   3.134   9.747 -0.3343 -0.5704  0.2576
  716MPD2    H210589   4.379   3.504   9.943  0.5896 -1.0988 -0.1197
  716MPD2    H310590   4.482   3.282   9.949 -0.6417  0.0332  0.6350
  716MPD2     N10591   4.400   3.221   9.510  0.4035 -0.6309 -0.2396
  716MPD2    H510592   4.344   3.271   9.442  1.7605  2.6479  1.0453
  716MPD2    N110593   4.307   3.649   9.726  0.1878 -0.2245 -0.0542
  716MPD2    H710594   4.297   3.689   9.819 -1.8475 -4.9119  1.7549
  717TMC3    C110595   4.407   3.031   9.367  0.1311  0.0473 -0.0742
  717TMC3    C210596   4.341   3.105   9.278  0.4857 -0.4396 -1.1843
  717TMC3    C310597   4.269   3.042   9.182 -0.2948  0.0578  0.0795
  717TMC3    C410598   4.407   2.891   9.362  0.3513 -0.1083  0.3896
  717TMC3    C510599   4.353   2.825   9.253  0.3191  0.1288  0.9227
  717TMC3    C610600   4.277   2.903   9.168  0.3539 -0.0894  0.2200
  717TMC3     C10601   4.449   3.090   9.490  0.3207 -0.7215 -0.0093
  717TMC3     O10602   4.534   3.026   9.554  0.3259  0.5847  0.0799
  717TMC3     H10603   4.358   3.212   9.278 -3.0623  0.1395 -0.1324
  717TMC3    H110604   4.468   2.845   9.439 -0.1127 -1.7240 -0.2058
  717TMC3    H210605   4.220   2.849   9.093  1.2527  0.0934 -0.5887
  717TMC3    C710606   4.330   2.678   9.254 -0.4351 -0.7619 -0.6427
  717TMC3    C810607   4.185   3.113   9.085  0.4240  0.5835 -0.2256
  717TMC3    O110608   4.230   2.635   9.188  0.8059 -0.1841  0.0074
  717TMC3    O210609   4.166   3.051   8.980 -1.1334  0.1638 -0.4743
  718MPD2     C10610   3.832   1.805  13.179  1.0709  0.1483 -0.7784
  718MPD2    C110611   3.806   1.793  13.047 -0.3036  0.1925  0.3652
  718MPD2    C210612   3.669   1.790  13.011  0.9579  0.4708  0.3826
  718MPD2    C310613   3.567   1.793  13.102  0.2189  0.0548 -0.3062
  718MPD2    C410614   3.600   1.793  13.237 -0.4048 -0.2395  0.1920
  718MPD2    C510615   3.732   1.800  13.274 -0.8175  0.7138  0.2496
  718MPD2     H10616   3.640   1.767  12.909 -1.4397  0.9072  0.9673
  718MPD2    H110617   3.524   1.791  13.315 -1.0605 -2.4310 -0.4978
  718MPD2    H210618   3.929   1.835  13.216  0.4730  2.3697 -0.9745
  718MPD2    H310619   3.768   1.808  13.376 -0.5431 -4.4112  0.5507
  718MPD2     N10620   3.439   1.801  13.045  0.0194 -0.2124 -0.2677
  718MPD2    H510621   3.446   1.787  12.944 -1.7959  0.4901 -0.4846
  718MPD2    N110622   3.916   1.813  12.962 -0.1294 -0.1859 -0.3190
  718MPD2    H710623   4.007   1.811  13.006 -1.2506  1.2537  2.0963
  719TMC3    C110624   4.021   1.813  12.745 -0.4022  0.4546 -0.6280
  719TMC3    C210625   3.973   1.756  12.629  0.5886 -0.0917  0.2260
  719TMC3    C310626   4.009   1.815  12.512 -0.5059 -0.7673  0.3500
  719TMC3    C410627   4.097   1.929  12.735 -0.2925  1.2339  0.0902
  719TMC3    C510628   4.141   1.985  12.611 -0.5927  1.1958 -0.0006
  719TMC3    C610629   4.102   1.914  12.499  1.0771  0.0524  0.4462
  719TMC3     C10630   3.901   1.833  12.824 -0.0198 -0.3545 -0.5751
  719TMC3     O10631   3.797   1.857  12.762  0.4080  0.3249 -0.1888
  719TMC3     H10632   3.901   1.675  12.636  0.5336  0.2060  3.4098
  719TMC3    H110633   4.129   1.976  12.827 -0.3075  0.9488  0.2396
  719TMC3    H210634   4.131   1.949  12.400 -0.2380  0.3139  0.1599
  719TMC3    C710635   4.178   2.120  12.607  0.3378  0.6527 -0.2048
  719TMC3    C810636   3.896   1.844  12.420 -0.6688  0.7288 -0.1062
  719TMC3    O110637   4.174   2.161  12.493  0.4586  0.4909 -0.2472
  719TMC3    O210638   3.912   1.897  12.310 -0.1076 -0.2999 -0.5680
  720MPD2     C10639   2.417   4.127  14.096 -0.3496  1.1727 -0.0898
  720MPD2    C110640   2.490   4.097  13.987  0.0235 -0.6817  0.1277
  720MPD2    C210641   2.618   4.056  14.018 -0.1218 -0.4245 -0.3161
  720MPD2    C310642   2.664   4.022  14.143 -0.8339  1.0463  0.0195
  720MPD2    C410643   2.576   4.030  14.257  0.3646  0.6324  0.0592
  720MPD2    C510644   2.456   4.087  14.222 -0.3458 -0.1856  0.4236
  720MPD2     H10645   2.685   4.052  13.934  0.7449  2.7747  0.2074
  720MPD2    H110646   2.591   3.999  14.360 -0.1260 -0.2123 -0.1241
  720MPD2    H210647   2.313   4.157  14.088  0.0074  2.0685 -1.2300
  720MPD2    H310648   2.378   4.089  14.297 -1.3756 -0.2517 -0.6523
  720MPD2     N10649   2.798   3.980  14.157 -0.0736  0.7851  0.7587
  720MPD2    H510650   2.854   3.988  14.073  0.6425  0.5918  1.2183
  720MPD2    N110651   2.461   4.121  13.851  0.0028 -0.8292  0.0668
  720MPD2    H710652   2.531   4.101  13.781 -0.7015 -0.7981 -0.6359
  721TMC3    C110653   2.992   3.974  14.269  0.2803  0.4308 -0.2703
  721TMC3    C210654   3.045   4.026  14.387 -0.2748  0.0476  0.4713
  721TMC3    C310655   3.158   4.111  14.379 -0.3136  0.1040 -0.8263
  721TMC3    C410656   3.056   3.990  14.147  0.0222 -0.4853  0.4730
  721TMC3    C510657   3.173   4.057  14.149 -0.3750 -0.1515  0.1456
  721TMC3    C610658   3.222   4.121  14.258 -0.0351  0.4093 -0.8420
  721TMC3     C10659   2.852   3.936  14.281  0.2454 -0.2151 -0.2497
  721TMC3     O10660   2.803   3.902  14.385  0.7950  0.7459 -0.1593
  721TMC3     H10661   3.000   4.013  14.484 -3.2191 -1.0461 -1.0226
  721TMC3    H110662   3.003   3.957  14.059 -2.4954 -1.2162  2.2442
  721TMC3    H210663   3.317   4.173  14.256 -0.8267  1.9773  2.8206
  721TMC3    C710664   3.243   4.068  14.026  0.2854 -0.4339 -0.2985
  721TMC3    C810665   3.240   4.137  14.505  0.0674  0.4617 -0.5314
  721TMC3    O110666   3.330   4.157  14.025 -0.1867 -0.0433  0.2131
  721TMC3    O210667   3.362   4.148  14.478 -0.9438  0.1407  0.5685
  722MPD2     C10668   1.352   2.587  13.302 -0.3660 -0.3584 -0.2505
  722MPD2    C110669   1.349   2.648  13.183  0.1918  0.5076  0.1437
  722MPD2    C210670   1.241   2.622  13.093  0.2631 -0.5946  0.1818
  722MPD2    C310671   1.134   2.550  13.126 -0.4269  0.5025 -0.5672
  722MPD2    C410672   1.146   2.478  13.245  0.3019  0.4854  0.2177
  722MPD2    C510673   1.247   2.503  13.334 -0.0070 -0.8494  0.3316
  722MPD2     H10674   1.233   2.673  12.998 -1.1428 -1.3652 -0.1170
  722MPD2    H110675   1.083   2.393  13.271 -0.6249  1.3922  0.9248
  722MPD2    H210676   1.426   2.601  13.381 -1.3494 -0.1014  0.6264
  722MPD2    H310677   1.248   2.451  13.430  0.8143  1.6439  1.6672
  722MPD2     N10678   1.031   2.528  13.040 -0.7370 -0.5044  0.1066
  722MPD2    H510679   1.025   2.590  12.960  2.0609 -0.2101  0.1211
  722MPD2    N110680   1.447   2.740  13.141 -0.0246 -0.0154 -0.5003
  722MPD2    H710681   1.434   2.797  13.057 -0.4708 -1.6066 -1.5086
  723TMC3    C110682   0.819   2.480  12.971 -0.2720  1.3787 -0.3107
  723TMC3    C210683   0.705   2.403  12.994 -0.8735 -0.1483  0.1153
  723TMC3    C310684   0.580   2.459  12.974 -0.0592 -0.2018  0.3048
  723TMC3    C410685   0.803   2.611  12.932 -0.4919  0.8154 -0.2020
  723TMC3    C510686   0.675   2.656  12.921  0.1856  0.0273  0.1134
  723TMC3    C610687   0.562   2.584  12.940 -0.7911  0.6192 -0.0174
  723TMC3     C10688   0.923   2.449  13.067 -0.3841  0.7843  0.0134
  723TMC3     O10689   0.882   2.381  13.160 -0.7765  0.7281 -0.0322
  723TMC3     H10690   0.716   2.296  13.009 -1.6972 -0.1094  0.9549
  723TMC3    H110691   0.891   2.673  12.919 -0.2930  0.9641  1.7704
  723TMC3    H210692   0.461   2.617  12.918 -1.4590 -1.6318 -0.2982
  723TMC3    C710693   0.662   2.791  12.866  0.2353 -0.2067 -0.6539
  723TMC3    C810694   0.457   2.377  13.007 -0.1333  0.5579 -0.4021
  723TMC3    O110695   0.559   2.856  12.884  0.5549 -0.3544  0.3072
  723TMC3    O210696   0.360   2.429  13.060  0.0056 -0.7352  0.1083
  724TMC3    C110697   1.205   0.832  10.521  0.0243 -0.1536  0.3455
  724TMC3    C210698   1.113   0.867  10.429 -0.6344  0.5373  0.1552
  724TMC3    C310699   1.146   0.953  10.336  0.7438 -1.0419  1.0564
  724TMC3    C410700   1.321   0.893  10.531 -0.3096 -0.1614  0.6592
  724TMC3    C510701   1.358   0.973  10.424  0.2813 -0.0394 -0.0341
  724TMC3    C610702   1.274   1.005  10.321 -0.1966 -0.5453  0.0293
  724TMC3     C10703   1.182   0.719  10.603  0.3289  0.2673  0.2150
  724TMC3     O10704   1.255   0.708  10.705  0.1569  0.5474 -0.6379
  724TMC3     H10705   1.014   0.825  10.417 -1.2799  1.8535  0.8317
  724TMC3    H110706   1.392   0.861  10.607  2.3280 -0.3470 -1.8842
  724TMC3    H210707   1.302   1.060  10.232  1.3104 -3.1567 -1.1081
  724TMC3    C710708   1.503   0.989  10.394  0.1972  0.2838  0.6715
  724TMC3    C810709   1.047   0.987  10.230 -0.8157  0.1467 -0.5909
  724TMC3    O110710   1.534   0.988  10.275  0.5575 -0.1060 -0.5180
  724TMC3    O210711   0.980   0.898  10.183  0.3493  0.2829 -0.1601
  725TMC3    C110712   2.788   4.208  12.906 -0.2111 -0.3042 -0.0016
  725TMC3    C210713   2.689   4.213  12.809 -1.1599 -0.1234 -0.4167
  725TMC3    C310714   2.653   4.097  12.747 -0.6789  1.1216  0.5083
  725TMC3    C410715   2.854   4.097  12.941 -0.1883  0.3474 -0.0791
  725TMC3    C510716   2.795   3.980  12.893 -0.4131 -0.5839  0.0617
  725TMC3    C610717   2.691   3.977  12.804 -0.3024  0.5614  0.1607
  725TMC3     C10718   2.830   4.327  12.975  0.2938  1.0713  0.6958
  725TMC3     O10719   2.815   4.429  12.906 -0.0600  0.5347  0.1844
  725TMC3     H10720   2.643   4.306  12.775  0.6380  1.2530  0.9574
  725TMC3    H110721   2.949   4.095  12.992 -1.2536  0.6527  1.9055
  725TMC3    H210722   2.637   3.889  12.769  1.4019  0.0657 -1.1940
  725TMC3    C710723   2.898   3.888  12.852 -0.0811  0.4254 -0.0253
  725TMC3    C810724   2.594   4.099  12.622 -0.2036  0.1173 -0.7904
  725TMC3    O110725   3.008   3.938  12.837  0.4347  0.2378 -0.3778
  725TMC3    O210726   2.522   4.002  12.591  0.2443 -0.0016 -0.1397
  726MPD2     C10727   0.696   1.126  10.204 -0.3536  0.1488 -0.0787
  726MPD2    C110728   0.682   1.163  10.337 -0.6394 -0.4913  0.3257
  726MPD2    C210729   0.601   1.096  10.417  0.3595  0.0872 -1.0010
  726MPD2    C310730   0.527   0.983  10.373  0.8333  0.0227 -0.1984
  726MPD2    C410731   0.550   0.950  10.242  0.0484 -0.5618 -0.6051
  726MPD2    C510732   0.626   1.029  10.158 -0.1004 -0.3461 -0.6817
  726MPD2     H10733   0.587   1.116  10.522 -1.7294  0.1155 -1.2789
  726MPD2    H110734   0.481   0.876  10.202 -1.4815  0.0854  0.8382
  726MPD2    H210735   0.766   1.176  10.138  0.1229  0.6218  0.7740
  726MPD2    H310736   0.639   1.010  10.052  0.5084 -0.7043 -0.5417
  726MPD2     N10737   0.440   0.913  10.457 -0.0248  0.5064 -0.0929
  726MPD2    H510738   0.374   0.850  10.412  1.0867 -1.0382  0.4414
  726MPD2    N110739   0.742   1.277  10.399 -0.2772 -0.1017  0.5932
  726MPD2    H710740   0.720   1.292  10.497 -1.9907 -1.4254  0.4072
  727TMC3    C110741   0.832   1.486  10.424 -0.0463 -0.7068  0.5026
  727TMC3    C210742   0.910   1.464  10.534 -0.1377  0.0933  0.4593
  727TMC3    C310743   0.953   1.571  10.606  0.0904 -0.0365 -0.2450
  727TMC3    C410744   0.810   1.610  10.375  0.2624 -0.5707 -0.6425
  727TMC3    C510745   0.846   1.717  10.457 -0.4110 -0.4956 -0.0430
  727TMC3    C610746   0.918   1.696  10.573  0.3551 -0.0008  0.0411
  727TMC3     C10747   0.814   1.377  10.333  0.4846  0.3074  0.1708
  727TMC3     O10748   0.841   1.391  10.213  0.4001 -0.4805  0.0119
  727TMC3     H10749   0.940   1.365  10.563  0.5056  1.0149  2.9409
  727TMC3    H110750   0.747   1.614  10.287 -1.8795 -1.7924  0.8253
  727TMC3    H210751   0.920   1.776  10.646  0.9910 -1.4269  1.5808
  727TMC3    C710752   0.834   1.854  10.412  0.5706 -0.7435 -0.0983
  727TMC3    C810753   1.053   1.572  10.706 -0.2684  0.0753 -0.2757
  727TMC3    O110754   0.743   1.875  10.335 -0.3576  0.0260  0.2588
  727TMC3    O210755   1.118   1.673  10.727 -0.3984 -0.4409  0.6660
  728TMC3    C110756   0.185   4.470  15.726  0.2645  0.4400 -0.0192
  728TMC3    C210757   0.316   4.464  15.705 -0.0953 -0.4805 -1.0832
  728TMC3    C310758   0.368   4.534  15.599 -0.7495  0.1303 -0.1590
  728TMC3    C410759   0.094   4.549  15.656 -0.2166  0.0474 -0.7797
  728TMC3    C510760   0.158   4.629  15.558 -0.0028  0.0568 -0.0913
  728TMC3    C610761   0.292   4.627  15.534  0.3729 -0.1655 -0.0779
  728TMC3     C10762   0.146   4.413  15.853 -0.3920  0.3042  0.1100
  728TMC3     O10763   0.238   4.388  15.938 -0.2500  0.3103 -0.3966
  728TMC3     H10764   0.378   4.382  15.740  1.4521  1.5830  1.0157
  728TMC3    H110765   4.711   4.562  15.681 -0.2924  0.3199 -1.2411
  728TMC3    H210766   0.336   4.688  15.456 -0.5574  0.2528 -0.2722
  728TMC3    C710767   0.066   4.637  15.441 -0.1602  0.1949  0.5952
  728TMC3    C810768   0.476   4.478  15.523 -0.3256 -0.0466  0.3467
  728TMC3    O110769   4.682   4.574  15.452 -0.1682  0.8190  0.3282
  728TMC3    O210770   0.465   4.480  15.403 -0.4213  0.5719  0.3253
  729MPD2     C10771   2.149   0.626  16.593  0.0349 -0.0961  0.3070
  729MPD2    C110772   2.256   0.561  16.645  1.0170  0.5195 -0.1713
  729MPD2    C210773   2.267   0.545  16.779  0.5106 -0.5113 -0.0991
  729MPD2    C310774   2.168   0.592  16.869  0.2505  0.1852  0.5277
  729MPD2    C410775   2.052   0.651  16.814  0.5541 -0.1768 -0.1014
  729MPD2    C510776   2.048   0.668  16.678  0.1856 -0.1796 -0.0013
  729MPD2     H10777   2.358   0.504  16.823  1.7067  3.0298  0.7111
  729MPD2    H110778   1.973   0.682  16.881  1.9505  0.8838  1.0614
  729MPD2    H210779   2.144   0.655  16.489 -1.4328  1.2610  0.7561
  729MPD2    H310780   1.975   0.738  16.638 -0.3576 -0.5588  0.3211
  729MPD2     N10781   2.169   0.573  17.002 -0.5653  0.2751 -0.2643
  729MPD2    H510782   2.100   0.624  17.056 -0.1595 -0.2712  0.7733
  729MPD2    N110783   2.363   0.524  16.564  0.6929 -0.2233  0.5459
  729MPD2    H710784   2.362   0.563  16.470  0.6369  1.6946  1.3328
  730TMC3    C110785   2.234   0.495  17.219  0.1235  0.5447  0.4681
  730TMC3    C210786   2.334   0.560  17.288 -0.3909  0.2831  0.3699
  730TMC3    C310787   2.292   0.648  17.386  0.1275 -0.3782 -0.0873
  730TMC3    C410788   2.104   0.523  17.257  0.1862  0.5200 -1.1284
  730TMC3    C510789   2.059   0.611  17.350 -0.0263  0.2822  0.4358
  730TMC3    C610790   2.159   0.665  17.425  0.4087 -0.7563 -0.0490
  730TMC3     C10791   2.256   0.489  17.075  0.2526  1.1977  0.6610
  730TMC3     O10792   2.362   0.441  17.041  0.1484 -0.0622 -0.5766
  730TMC3     H10793   2.438   0.538  17.268 -0.0116  0.6577  1.8978
  730TMC3    H110794   2.024   0.485  17.195 -1.5380  1.3821  0.5940
  730TMC3    H210795   2.132   0.734  17.505  1.1005 -0.7782  0.2018
  730TMC3    C710796   1.988   0.718  17.280 -0.3348 -0.2540  0.3352
  730TMC3    C810797   2.363   0.772  17.360  0.0329 -0.3295  0.3788
  730TMC3    O110798   1.997   0.722  17.161  0.0492  0.1385  0.2749
  730TMC3    O210799   2.466   0.754  17.288  0.0017 -0.0244  0.1333
  731MPD2     C10800   2.458   3.111  12.093  0.1306  0.2400 -0.2817
  731MPD2    C110801   2.558   3.050  12.163  0.1017 -0.5577  0.2557
  731MPD2    C210802   2.548   3.029  12.299  0.8288 -0.4225 -0.3011
  731MPD2    C310803   2.431   3.076  12.372 -0.1015 -0.6233  0.8414
  731MPD2    C410804   2.337   3.149  12.299 -0.2848 -0.4145  0.0021
  731MPD2    C510805   2.357   3.165  12.164 -0.3912 -1.0671 -0.3833
  731MPD2     H10806   2.627   2.970  12.344  0.5733 -0.4276  0.1365
  731MPD2    H110807   2.246   3.188  12.343  0.2991  0.3977  0.4945
  731MPD2    H210808   2.468   3.118  11.986 -2.1723  4.0557 -0.2625
  731MPD2    H310809   2.275   3.201  12.103 -0.6572  1.9410  1.7216
  731MPD2     N10810   2.427   3.057  12.513 -0.1469  0.0814  0.2275
  731MPD2    H510811   2.489   2.986  12.550  0.1192  0.5558  0.6792
  731MPD2    N110812   2.671   3.008  12.087 -0.4727 -0.3136 -0.6064
  731MPD2    H710813   2.674   3.024  11.987  0.2522 -0.2739 -0.5766
  732TMC3    C110814   2.855   2.898  12.011 -0.6015  0.2935 -1.0559
  732TMC3    C210815   2.765   2.823  11.938 -0.1544 -0.6215 -0.2380
  732TMC3    C310816   2.763   2.830  11.805 -0.1311 -0.3300 -0.0269
  732TMC3    C410817   2.948   2.974  11.944  0.4450 -0.1032 -0.6811
  732TMC3    C510818   2.954   2.970  11.808  0.1625 -0.4500 -0.7139
  732TMC3    C610819   2.855   2.903  11.735 -0.0035  0.5438 -0.3782
  732TMC3     C10820   2.792   2.955  12.130  0.8604  0.4813 -0.0495
  732TMC3     O10821   2.846   2.953  12.241 -0.0968 -0.2915 -0.2523
  732TMC3     H10822   2.698   2.751  11.983  0.0158 -0.5674  0.1044
  732TMC3    H110823   3.019   3.037  11.997  1.8896 -1.9151 -0.4499
  732TMC3    H210824   2.839   2.906  11.628  0.6888 -0.2255 -0.5086
  732TMC3    C710825   3.001   3.083  11.739  0.0131  0.6755 -0.6513
  732TMC3    C810826   2.630   2.815  11.743 -0.1201 -0.3545  0.2181
  732TMC3    O110827   2.950   3.129  11.637 -0.4851 -0.0555  0.0929
  732TMC3    O210828   2.634   2.815  11.622 -0.4700 -0.4936  0.5950
  733TMC3    C110829   3.014   1.935  12.949  0.1477  0.3520  0.3694
  733TMC3    C210830   3.106   1.886  13.039 -0.1658  0.0458  0.6282
  733TMC3    C310831   3.234   1.887  13.001  0.1797 -0.3401  0.0475
  733TMC3    C410832   3.054   1.975  12.827 -0.7588  1.0382  0.0368
  733TMC3    C510833   3.190   1.975  12.788 -0.4419 -0.2985  0.3165
  733TMC3    C610834   3.282   1.926  12.880  0.3613  0.5992  0.0418
  733TMC3     C10835   2.868   1.948  12.980  0.2556 -0.4394  0.2365
  733TMC3     O10836   2.807   1.996  12.886  0.6347  0.1052 -0.2450
  733TMC3     H10837   3.073   1.868  13.140 -1.2774 -1.9086 -0.0800
  733TMC3    H110838   2.983   2.011  12.753  0.4400  1.3910 -0.9482
  733TMC3    H210839   3.389   1.928  12.860  0.3387  1.2974 -0.0145
  733TMC3    C710840   3.230   2.008  12.653  0.1370  0.3780 -0.1410
  733TMC3    C810841   3.327   1.853  13.103 -0.9033  0.1476 -0.1137
  733TMC3    O110842   3.170   2.083  12.581 -0.5039 -0.0701  0.3351
  733TMC3    O210843   3.304   1.880  13.215  0.1765 -0.2065  0.0553
  734MPD2     C10844   0.921   4.562  12.456 -0.0712  0.2161  0.1161
  734MPD2    C110845   0.792   4.550  12.404 -0.7937  0.6054 -0.1540
  734MPD2    C210846   0.768   4.597  12.279 -0.0822 -0.1439  0.1986
  734MPD2    C310847   0.875   4.644  12.200  0.2998  0.3130 -0.4583
  734MPD2    C410848   1.006   4.655  12.253  0.0516 -0.0289 -0.7276
  734MPD2    C510849   1.020   4.618  12.385 -0.5663  0.1490  0.3709
  734MPD2     H10850   0.671   4.601  12.231  0.9419 -2.3871 -2.0299
  734MPD2    H110851   1.094   4.694  12.203 -0.5434 -0.0770 -1.8077
  734MPD2    H210852   0.933   4.520  12.555  1.0172 -0.8254 -0.4520
  734MPD2    H310853   1.122   4.633  12.416 -0.7029  0.0930  0.8414
  734MPD2     N10854   0.845   4.673  12.061 -0.1081 -0.1277 -0.1770
  734MPD2    H510855   0.748   4.671  12.032 -0.3608 -2.9598  0.8757
  734MPD2    N110856   0.694   4.488  12.483  0.3816  0.1869 -0.2712
  734MPD2    H710857   0.719   4.456  12.576  1.0171  1.8054  0.0998
  735TMC3    C110858   0.491   4.377  12.520 -0.1267 -0.1392  0.0936
  735TMC3    C210859   0.373   4.349  12.464 -0.0350 -0.2170  0.5562
  735TMC3    C310860   0.341   4.223  12.427  0.3613  0.9303 -0.5713
  735TMC3    C410861   0.575   4.268  12.555 -0.3225 -0.2289  0.5907
  735TMC3    C510862   0.534   4.142  12.534 -0.0982  0.2060  0.2656
  735TMC3    C610863   0.414   4.115  12.467  0.2084 -0.0617 -0.0883
  735TMC3     C10864   0.563   4.477  12.450 -0.7483 -0.3229 -0.3994
  735TMC3     O10865   0.500   4.513  12.351 -0.7487 -0.0263  0.3610
  735TMC3     H10866   0.308   4.432  12.439 -3.4052 -3.0264 -0.0205
  735TMC3    H110867   0.666   4.275  12.613  0.0080  0.1962  0.0240
  735TMC3    H210868   0.384   4.018  12.429 -1.8039  0.5666 -0.1181
  735TMC3    C710869   0.647   4.048  12.532  0.5319  0.8831  0.0978
  735TMC3    C810870   0.301   4.209  12.286  0.0691 -0.0295 -0.6218
  735TMC3    O110871   0.759   4.100  12.508  0.4253 -0.5318  0.2174
  735TMC3    O210872   0.244   4.105  12.257 -0.1347 -0.2759 -0.5905
  736MPD2     C10873   0.651   3.690  12.556  0.0485  0.3515 -0.3147
  736MPD2    C110874   0.710   3.812  12.544 -0.4855  0.0282  0.7748
  736MPD2    C210875   0.841   3.824  12.510 -0.2587  0.8636  1.2893
  736MPD2    C310876   0.914   3.708  12.483  0.0654  0.2577 -0.0879
  736MPD2    C410877   0.854   3.586  12.506 -0.0658  0.2878  0.3072
  736MPD2    C510878   0.724   3.572  12.536  0.0371  0.1055 -0.3126
  736MPD2     H10879   0.884   3.922  12.491 -1.8596  1.8099  2.5004
  736MPD2    H110880   0.909   3.495  12.486 -1.9910 -1.0592  1.1896
  736MPD2    H210881   0.545   3.684  12.578 -0.3232  0.4825 -2.0687
  736MPD2    H310882   0.682   3.473  12.543  3.1381 -1.0460  1.8705
  736MPD2     N10883   1.044   3.707  12.427  0.3887 -0.5159  0.5456
  736MPD2    H510884   1.071   3.614  12.397 -2.1712 -0.8508 -0.7436
  736MPD2    N110885   0.614   3.918  12.552 -0.1256 -0.2248  0.4122
  736MPD2    H710886   0.516   3.896  12.569 -0.5625  1.6639  0.4535
  737TMC3    C110887   1.229   3.789  12.315  0.6428  0.1407  0.3519
  737TMC3    C210888   1.311   3.891  12.276  0.2109  1.0429  0.2030
  737TMC3    C310889   1.388   3.881  12.164 -0.0932 -0.1774  0.3763
  737TMC3    C410890   1.240   3.666  12.248  0.2823  1.1592 -0.2303
  737TMC3    C510891   1.331   3.654  12.147  0.2640 -0.8751 -0.4328
  737TMC3    C610892   1.411   3.760  12.097 -0.8699  0.4021 -0.6952
  737TMC3     C10893   1.127   3.815  12.407 -0.0283 -0.3611  0.0160
  737TMC3     O10894   1.111   3.935  12.428 -0.7260 -0.3673  0.3731
  737TMC3     H10895   1.293   3.994  12.306  1.2192  1.4532 -0.5815
  737TMC3    H110896   1.194   3.571  12.274  1.4195  1.4894  3.0045
  737TMC3    H210897   1.483   3.746  12.017 -2.8779  2.3969 -2.8986
  737TMC3    C710898   1.306   3.541  12.052  0.1830  0.1785 -1.0974
  737TMC3    C810899   1.433   4.012  12.107  0.4163 -0.3467  0.6712
  737TMC3    O110900   1.199   3.489  12.061  0.0914 -0.2552  0.3724
  737TMC3    O210901   1.462   4.104  12.186 -0.4040 -0.0441  0.3756
  738MPD2     C10902   1.134   3.169  15.728 -0.3515 -0.5768  1.2897
  738MPD2    C110903   1.173   3.100  15.612 -0.0046 -0.1993 -0.1587
  738MPD2    C210904   1.288   3.126  15.547 -0.6402 -0.2046 -0.1904
  738MPD2    C310905   1.363   3.236  15.581  0.7549  0.3193 -0.0706
  738MPD2    C410906   1.333   3.307  15.694 -1.0609  0.2060  0.3546
  738MPD2    C510907   1.216   3.267  15.760 -0.5405  0.2076  0.1861
  738MPD2     H10908   1.309   3.071  15.457 -2.2720  0.3074 -0.8912
  738MPD2    H110909   1.394   3.393  15.721  1.7063 -1.6762  0.0438
  738MPD2    H210910   1.047   3.152  15.789 -1.0635 -1.2203  0.1138
  738MPD2    H310911   1.198   3.312  15.857 -1.3690 -0.1324  0.1887
  738MPD2     N10912   1.478   3.280  15.509  0.3865 -0.5303  0.1298
  738MPD2    H510913   1.525   3.353  15.560 -1.9789  0.2927  1.1317
  738MPD2    N110914   1.104   2.987  15.565  0.0908 -0.0083  0.3264
  738MPD2    H710915   1.139   2.954  15.476 -1.8939  0.5861 -0.6845
  739TMC3    C110916   1.654   3.264  15.337 -0.1226  0.2640 -0.7380
  739TMC3    C210917   1.691   3.231  15.205  0.0636 -0.2998 -0.2934
  739TMC3    C310918   1.796   3.297  15.150  0.3846 -0.1586  0.0861
  739TMC3    C410919   1.721   3.366  15.404 -0.0887  0.0331  0.7057
  739TMC3    C510920   1.826   3.426  15.342 -0.1697  0.1355 -0.3438
  739TMC3    C610921   1.862   3.399  15.214 -0.1805  0.0876  0.2462
  739TMC3     C10922   1.522   3.228  15.388 -0.6568  0.7261 -0.2680
  739TMC3     O10923   1.449   3.157  15.322  0.1082 -0.9303  0.2913
  739TMC3     H10924   1.633   3.160  15.147 -1.0139  0.7109 -0.4623
  739TMC3    H110925   1.701   3.386  15.509 -1.0433  0.3174  0.4772
  739TMC3    H210926   1.950   3.452  15.178 -0.6498  0.2900 -0.5934
  739TMC3    C710927   1.890   3.542  15.401 -0.2363 -0.2001 -0.8037
  739TMC3    C810928   1.810   3.288  15.000  0.7278 -0.3831 -0.4297
  739TMC3    O110929   1.817   3.592  15.490  0.0650  0.2255 -0.2274
  739TMC3    O210930   1.739   3.224  14.928  0.5744 -0.0473 -0.1160
  740TMC3    C110931   2.588   4.408  14.359 -0.6594  0.2456 -0.9160
  740TMC3    C210932   2.627   4.333  14.462  0.1369  0.7103  0.5494
  740TMC3    C310933   2.750   4.277  14.455 -1.1611  0.1756 -0.4214
  740TMC3    C410934   2.659   4.412  14.243 -0.1690  0.4635 -0.2269
  740TMC3    C510935   2.783   4.356  14.237  0.8771 -0.4472 -0.5569
  740TMC3    C610936   2.836   4.301  14.347 -0.0799  0.7031  0.3310
  740TMC3     C10937   2.439   4.435  14.347 -0.5706 -0.2513  0.3648
  740TMC3     O10938   2.392   4.488  14.249 -0.5537  0.1234 -0.5835
  740TMC3     H10939   2.571   4.322  14.554 -0.1119  0.7766  0.4061
  740TMC3    H110940   2.626   4.480  14.165  0.5850 -2.2579 -2.9382
  740TMC3    H210941   2.931   4.248  14.343 -0.6287 -0.3113  0.9088
  740TMC3    C710942   2.840   4.310  14.113  0.3281  0.3301 -0.3957
  740TMC3    C810943   2.786   4.188  14.557  0.4240 -0.4706  0.7037
  740TMC3    O110944   2.952   4.268  14.117  0.0509 -0.2704 -0.2209
  740TMC3    O210945   2.907   4.196  14.585 -0.3739 -0.0378 -0.1189
  741TMC3    C110946   2.270   3.813  14.015 -0.0943  0.1699 -0.1519
  741TMC3    C210947   2.142   3.831  14.075 -0.0598 -0.2194  0.0474
  741TMC3    C310948   2.133   3.806  14.213 -0.3222  0.1971  0.5759
  741TMC3    C410949   2.373   3.761  14.084 -0.2184 -0.3391 -0.7358
  741TMC3    C510950   2.358   3.730  14.221 -0.2940 -0.3655  0.5709
  741TMC3    C610951   2.235   3.752  14.285 -0.3042  0.1226  0.1045
  741TMC3     C10952   2.293   3.838  13.880  0.9634 -0.0339  0.2859
  741TMC3     O10953   2.408   3.819  13.831 -0.2306 -0.2542 -0.5751
  741TMC3     H10954   2.050   3.848  14.020 -0.7538  0.9687  1.5735
  741TMC3    H110955   2.467   3.744  14.034 -0.4426 -1.1857 -0.8651
  741TMC3    H210956   2.215   3.708  14.382 -0.2181  0.0299  0.0799
  741TMC3    C710957   2.459   3.646  14.287  0.3104 -0.0523 -0.0096
  741TMC3    C810958   2.000   3.796  14.267  0.1952  0.2303  0.3581
  741TMC3    O110959   2.460   3.649  14.410  0.6290 -0.6573 -0.3120
  741TMC3    O210960   1.908   3.785  14.187 -0.0558 -0.0359  0.5838
  742TMC3    C110961   1.543   2.003  15.354 -0.6045  0.4798  0.7491
  742TMC3    C210962   1.530   2.012  15.217  0.0898 -0.5042  1.2055
  742TMC3    C310963   1.628   1.951  15.137  0.2094 -0.0634 -0.2030
  742TMC3    C410964   1.628   1.917  15.415 -0.4061  0.1431 -0.1943
  742TMC3    C510965   1.719   1.861  15.335 -0.2043 -0.0580  0.5693
  742TMC3    C610966   1.720   1.865  15.196  0.4219  0.3196  0.8982
  742TMC3     C10967   1.480   2.103  15.435 -0.3212  0.4528  0.1430
  742TMC3     O10968   1.406   2.182  15.372  0.0013 -0.4872  0.3742
  742TMC3     H10969   1.462   2.078  15.165  1.9404  1.5969  1.4766
  742TMC3    H110970   1.631   1.893  15.521  1.2360 -2.4551 -0.8282
  742TMC3    H210971   1.791   1.807  15.139  0.1016  1.2280 -0.4310
  742TMC3    C710972   1.821   1.769  15.392 -0.5858 -0.1649  0.0576
  742TMC3    C810973   1.595   1.952  14.998  0.5309  0.0593  0.1929
  742TMC3    O110974   1.927   1.761  15.336  0.3602  0.0186  0.2632
  742TMC3    O210975   1.474   1.938  14.971 -0.3400 -0.6899 -1.2941
  743MPD2     C10976   3.326   3.465   1.969 -0.0959 -0.2372  0.5854
  743MPD2    C110977   3.401   3.396   1.870 -0.4900 -0.2158  0.3429
  743MPD2    C210978   3.524   3.345   1.914  0.8720 -0.0838 -0.2581
  743MPD2    C310979   3.568   3.373   2.047 -0.8404 -0.5340  0.0987
  743MPD2    C410980   3.482   3.437   2.136 -1.1911  0.2686  0.1435
  743MPD2    C510981   3.361   3.476   2.100 -0.5392 -0.4281 -0.3731
  743MPD2     H10982   3.587   3.282   1.851 -0.9102 -1.4118 -0.6923
  743MPD2    H110983   3.504   3.453   2.241 -3.4356  3.2056  0.1379
  743MPD2    H210984   3.229   3.507   1.943  0.2239  1.2523  1.8460
  743MPD2    H310985   3.291   3.515   2.173 -0.5996 -0.6526 -0.3107
  743MPD2     N10986   3.700   3.323   2.084  0.2219  0.0868 -0.5609
  743MPD2    H510987   3.745   3.264   2.015  2.0866 -2.2703  2.6884
  743MPD2    N110988   3.359   3.394   1.733  0.4073  0.6798 -0.1912
  743MPD2    H710989   3.273   3.446   1.721 -1.1840 -1.2808  2.5390
  744TMC3    C110990   3.358   3.318   1.502 -0.4148 -0.1224  0.1646
  744TMC3    C210991   3.224   3.344   1.490 -0.2707 -0.6807  0.1076
  744TMC3    C310992   3.167   3.321   1.367  0.7100 -0.3897  0.4282
  744TMC3    C410993   3.436   3.263   1.402 -0.5039 -0.2432  0.1365
  744TMC3    C510994   3.378   3.261   1.280 -0.6333  0.0413  0.6596
  744TMC3    C610995   3.248   3.296   1.260 -0.0456  0.3739  0.2533
  744TMC3     C10996   3.428   3.353   1.621  0.0008  0.0467 -0.3133
  744TMC3     O10997   3.537   3.306   1.630 -0.0700  0.4051 -0.5770
  744TMC3     H10998   3.162   3.371   1.575 -0.4816 -2.0228  0.3952
  744TMC3    H110999   3.539   3.234   1.417 -0.3203  1.6077  2.4673
  744TMC3    H211000   3.205   3.269   1.164  1.1790  1.6730 -0.6418
  744TMC3    C711001   3.472   3.217   1.174  0.4015  0.7003  0.2428
  744TMC3    C811002   3.042   3.385   1.351  0.0208  0.4839 -0.6943
  744TMC3    O111003   3.571   3.156   1.210  0.3172 -0.5513  0.0968
  744TMC3    O211004   3.013   3.457   1.447 -0.2374  0.0920  0.1862
  745TMC3    C111005   1.816   1.718  13.635 -0.4211 -0.3615  0.3178
  745TMC3    C211006   1.789   1.767  13.757  0.0360  0.4398 -0.5774
  745TMC3    C311007   1.671   1.834  13.776 -0.4509 -0.0113  0.1754
  745TMC3    C411008   1.725   1.720  13.528  0.5879  0.7050 -0.1951
  745TMC3    C511009   1.597   1.758  13.551 -0.6561 -0.6421 -0.2876
  745TMC3    C611010   1.574   1.814  13.679 -0.3225 -0.2942  0.2613
  745TMC3     C11011   1.955   1.720  13.588  0.1503  0.0896  0.2006
  745TMC3     O11012   2.000   1.634  13.514  0.5225 -0.4026 -0.2326
  745TMC3     H11013   1.865   1.748  13.831 -1.3301 -0.2887  0.6446
  745TMC3    H111014   1.759   1.686  13.431  0.3694 -1.9188  0.6458
  745TMC3    H211015   1.474   1.855  13.694 -0.0956  0.4170 -0.1941
  745TMC3    C711016   1.527   1.812  13.437  0.2883  0.6505  0.0038
  745TMC3    C811017   1.633   1.894  13.904 -0.4599  0.3924 -0.3515
  745TMC3    O111018   1.408   1.788  13.424 -0.0250 -0.6754  0.4916
  745TMC3    O211019   1.515   1.910  13.924  0.2554  0.5815  0.5938
  746TMC3    C111020   4.435   3.402  11.054  0.4091 -0.0781 -0.0675
  746TMC3    C211021   4.500   3.376  10.936 -0.3160  0.0382  0.4532
  746TMC3    C311022   4.469   3.253  10.885 -0.1132  0.1724 -0.4986
  746TMC3    C411023   4.355   3.314  11.119  0.0741 -0.7378 -0.5157
  746TMC3    C511024   4.336   3.191  11.061 -0.3541  0.0342  0.6547
  746TMC3    C611025   4.397   3.155  10.944  0.0737  0.1070 -0.4736
  746TMC3     C11026   4.435   3.542  11.105  0.0177  0.3548 -0.2449
  746TMC3     O11027   4.366   3.561  11.204 -0.3209  0.0601  0.2705
  746TMC3     H11028   4.582   3.438  10.900 -0.0328  0.3403  1.6099
  746TMC3    H111029   4.312   3.339  11.215 -0.8966 -0.1245 -1.1125
  746TMC3    H211030   4.390   3.057  10.898 -0.1918  1.1353 -2.6113
  746TMC3    C711031   4.224   3.106  11.096 -0.6166 -0.1054 -0.1269
  746TMC3    C811032   4.503   3.236  10.745  0.0643  0.3996  0.0099
  746TMC3    O111033   4.191   3.019  11.017  0.3815 -0.0131  0.4549
  746TMC3    O211034   4.506   3.122  10.695 -0.8530  0.1426  0.0145
  747TMC3    C111035   1.874   3.605  11.307  0.2133  0.3761  0.0803
  747TMC3    C211036   1.759   3.528  11.300  0.4743  0.3538 -0.2720
  747TMC3    C311037   1.755   3.402  11.366  0.3712  0.9370  0.3817
  747TMC3    C411038   1.986   3.572  11.377  0.2568  0.3284 -0.7232
  747TMC3    C511039   1.982   3.450  11.443 -0.4921 -0.6142 -0.0565
  747TMC3    C611040   1.873   3.363  11.430  0.0812  0.2492  0.3963
  747TMC3     C11041   1.898   3.709  11.207  0.2715 -0.2652 -0.2954
  747TMC3     O11042   1.974   3.800  11.234  0.1111  0.3380 -0.3176
  747TMC3     H11043   1.673   3.552  11.238 -0.0551  1.7190  1.0059
  747TMC3    H111044   2.072   3.638  11.375  2.1210 -2.0624  0.3817
  747TMC3    H211045   1.866   3.281  11.500 -0.6700 -0.9564 -1.1027
  747TMC3    C711046   2.103   3.426  11.515 -0.3726  0.2340  0.5457
  747TMC3    C811047   1.627   3.375  11.424 -0.6001  0.4340 -0.0536
  747TMC3    O111048   2.174   3.519  11.542  0.5468  0.5014  0.0021
  747TMC3    O211049   1.534   3.409  11.349 -0.1687 -0.1878  0.0385
  748MPD2     C11050   3.136   4.179   2.774 -0.6688  0.0074 -0.6836
  748MPD2    C111051   3.089   4.183   2.640  0.6124  0.1877 -0.6913
  748MPD2    C211052   3.188   4.168   2.543 -0.1912 -0.1344 -0.1051
  748MPD2    C311053   3.318   4.158   2.575  0.0718 -0.0833  0.3616
  748MPD2    C411054   3.360   4.154   2.702  0.2310  0.0686 -0.1434
  748MPD2    C511055   3.276   4.162   2.803  0.1172  0.2311  0.2985
  748MPD2     H11056   3.152   4.160   2.441 -2.6447 -0.8051  0.8190
  748MPD2    H111057   3.466   4.150   2.724  0.5667  0.3877 -1.6984
  748MPD2    H211058   3.061   4.178   2.852 -1.1406 -0.7514 -1.1407
  748MPD2    H311059   3.313   4.157   2.905  1.2676  1.7057 -0.0467
  748MPD2     N11060   3.426   4.153   2.478  0.6508  0.0917  0.2356
  748MPD2    H511061   3.522   4.137   2.507  0.7634  2.1840  1.0287
  748MPD2    N111062   2.952   4.188   2.621  0.5730 -0.0025 -0.3560
  748MPD2    H711063   2.889   4.201   2.700  1.8231 -2.5536  1.0284
  749TMC3    C111064   3.533   4.142   2.273 -0.0848  0.3229  0.8317
  749TMC3    C211065   3.631   4.058   2.324  0.5867  0.0150 -0.4812
  749TMC3    C311066   3.721   4.007   2.235  0.7591  0.1198 -0.2885
  749TMC3    C411067   3.546   4.191   2.141 -0.0738  0.2827  0.0314
  749TMC3    C511068   3.651   4.145   2.062 -0.3142  0.6453  0.7215
  749TMC3    C611069   3.742   4.055   2.107 -0.6498  0.9181 -0.3853
  749TMC3     C11070   3.418   4.177   2.346 -0.2624  0.0375 -0.1252
  749TMC3     O11071   3.318   4.216   2.281 -0.1127 -0.3839 -0.3780
  749TMC3     H11072   3.623   4.016   2.423 -1.2039 -1.2817 -1.1627
  749TMC3    H111073   3.471   4.257   2.099 -0.0229 -0.3462 -1.0473
  749TMC3    H211074   3.828   4.034   2.046  0.1115 -0.0406  1.0108
  749TMC3    C711075   3.647   4.175   1.919 -0.0580 -0.1203 -0.2395
  749TMC3    C811076   3.815   3.919   2.304 -0.5065 -0.3921  0.2858
  749TMC3    O111077   3.577   4.265   1.881  0.3948  0.2645  0.1085
  749TMC3    O211078   3.828   3.940   2.425  0.0841  0.2008  0.1639
  750MPD2     C11079   4.532   0.785  11.373  0.4579  0.3960  0.4093
  750MPD2    C111080   4.425   0.736  11.445  0.1393 -0.9515  0.6993
  750MPD2    C211081   4.394   0.598  11.438  0.2113  0.3675 -1.1527
  750MPD2    C311082   4.475   0.514  11.368  0.0688 -0.3053 -0.5368
  750MPD2    C411083   4.576   0.565  11.300  0.0172  0.6413  0.0701
  750MPD2    C511084   4.607   0.696  11.306  0.3380  0.0313 -0.1807
  750MPD2     H11085   4.297   0.562  11.471  0.9145  0.6080  1.1386
  750MPD2    H111086   4.645   0.499  11.248  0.0893  1.1843 -0.5255
  750MPD2    H211087   4.549   0.892  11.370  1.0076  0.3487  2.1146
  750MPD2    H311088   4.695   0.745  11.264  1.7470 -1.7155  0.7432
  750MPD2     N11089   4.448   0.367  11.355 -0.7668 -0.0284  0.3401
  750MPD2    H511090   4.511   0.321  11.290 -2.2876 -1.2573 -0.2414
  750MPD2    N111091   4.356   0.829  11.524  0.6148  0.1685  0.1722
  750MPD2    H711092   4.395   0.923  11.520  1.1303  0.0187  1.7138
  751TMC3    C111093   4.372   0.148  11.413 -0.6116 -0.0439 -0.4382
  751TMC3    C211094   4.253   0.082  11.436 -0.0160  0.1343  0.2816
  751TMC3    C311095   4.230   4.692  11.356  0.0691  0.1364  0.0318
  751TMC3    C411096   4.458   0.108  11.314 -0.2248 -0.5400  0.0090
  751TMC3    C511097   4.426   4.715  11.240  0.0970  0.6294 -0.6257
  751TMC3    C611098   4.315   4.648  11.260  0.5522 -0.1440 -0.3316
  751TMC3     C11099   4.353   0.295  11.424  0.4121  0.0597 -0.2089
  751TMC3     O11100   4.297   0.326  11.527  0.4291  0.4132 -0.3429
  751TMC3     H11101   4.172   0.122  11.495  0.7887  0.2816  1.2894
  751TMC3    H111102   4.558   0.150  11.306 -1.3333  1.9974 -0.2633
  751TMC3    H211103   4.295   4.557  11.204 -1.8627  0.1241  0.1083
  751TMC3    C711104   4.510   4.676  11.133 -0.5589  0.1669  0.4557
  751TMC3    C811105   4.108   4.619  11.364  0.0115 -0.4411  0.2259
  751TMC3    O111106   4.552   0.045  11.059 -0.5906  0.1226  0.4170
  751TMC3    O211107   4.049   4.598  11.258  0.0157  0.2881  1.1239
  752TMC3    C111108   2.753   0.073  17.417 -0.2445  0.0203 -0.5323
  752TMC3    C211109   2.779   4.700  17.515  0.0238  0.1655  0.3331
  752TMC3    C311110   2.689   4.683  17.619  0.8067 -0.3200  0.5808
  752TMC3    C411111   2.630   0.140  17.410 -0.1539  0.0013  0.2204
  752TMC3    C511112   2.555   0.131  17.526 -0.2350 -1.1565  0.3005
  752TMC3    C611113   2.577   0.045  17.632  0.2173  0.3887  0.2635
  752TMC3     C11114   2.864   0.116  17.330 -0.2541  1.2258  0.2775
  752TMC3     O11115   2.975   0.091  17.377 -0.7193  0.0277 -0.1018
  752TMC3     H11116   2.863   4.632  17.503  1.3989  1.8995  0.1337
  752TMC3    H111117   2.599   0.209  17.333 -0.3756  0.6297  0.8752
  752TMC3    H211118   2.507   0.020   0.023 -0.0221 -1.0071 -0.3938
  752TMC3    C711119   2.430   0.209  17.539  0.1314 -0.0449 -0.1694
  752TMC3    C811120   2.719   4.574   0.027 -0.3789  0.2628 -0.0229
  752TMC3    O111121   2.373   0.233  17.434  0.3496 -0.0441 -0.0378
  752TMC3    O211122   2.787   4.482  17.665  0.0456 -0.9270 -0.2526
  753TMC3    C111123   0.557   1.484  14.084 -0.1095 -0.4044 -0.0109
  753TMC3    C211124   0.589   1.545  14.204  0.6170 -0.2968  0.1033
  753TMC3    C311125   0.638   1.470  14.305  0.0547 -0.4446 -0.7292
  753TMC3    C411126   0.567   1.350  14.065 -0.4109  0.5693 -0.1615
  753TMC3    C511127   0.617   1.286  14.178 -0.4582  0.2364  0.6495
  753TMC3    C611128   0.661   1.337  14.292  0.5025  0.0244 -0.3481
  753TMC3     C11129   0.514   1.556  13.966 -0.2982 -0.1908 -1.1503
  753TMC3     O11130   0.463   1.482  13.881 -0.0475 -0.1197  0.1218
  753TMC3     H11131   0.568   1.651  14.210  0.6180 -0.3077  0.3014
  753TMC3    H111132   0.549   1.297  13.972 -0.0461 -1.2747  0.8196
  753TMC3    H211133   0.723   1.284  14.364  1.8573  1.0749 -0.7389
  753TMC3    C711134   0.623   1.140  14.171 -0.4283  0.2578  0.3407
  753TMC3    C811135   0.714   1.536  14.411 -0.3162  0.1019 -0.1888
  753TMC3    O111136   0.641   1.095  14.059 -0.1444  0.4116  0.0856
  753TMC3    O211137   0.787   1.457  14.467 -0.6995  0.3363  0.1695
  754MPD2     C11138   3.510   0.901  13.143  0.0367  0.3961  0.2320
  754MPD2    C111139   3.515   0.782  13.068 -0.0957  0.9883  0.4343
  754MPD2    C211140   3.406   0.699  13.084 -0.2986  0.0004  0.4537
  754MPD2    C311141   3.295   0.732  13.158  0.3397 -0.2806 -0.6321
  754MPD2    C411142   3.293   0.853  13.219 -0.1099 -0.0478 -0.4875
  754MPD2    C511143   3.405   0.931  13.228  0.2139  0.1351  0.2346
  754MPD2     H11144   3.402   0.610  13.022  0.5043  1.4290 -1.6124
  754MPD2    H111145   3.214   0.882  13.286  0.0395 -1.5992  0.3612
  754MPD2    H211146   3.590   0.975  13.146  1.1608 -0.8775  1.4938
  754MPD2    H311147   3.405   1.024  13.284  2.1987 -0.3042  0.9771
  754MPD2     N11148   3.192   0.645  13.170  0.6874  0.7638  0.0645
  754MPD2    H511149   3.110   0.677  13.221  0.0609  0.6981 -0.9224
  754MPD2    N111150   3.632   0.753  12.990  0.4300 -0.2731 -0.0615
  754MPD2    H711151   3.694   0.832  12.973  2.7439 -2.3277 -1.0563
  755MPD2     C11152   2.226   0.706  13.058 -0.0397  0.9770  0.6230
  755MPD2    C111153   2.332   0.779  13.106 -0.1576  0.7424 -0.2698
  755MPD2    C211154   2.461   0.725  13.091 -0.6666 -0.2593  0.0693
  755MPD2    C311155   2.474   0.598  13.034  0.1013  0.4334  0.0272
  755MPD2    C411156   2.362   0.529  12.997  0.7111  0.0828 -0.0331
  755MPD2    C511157   2.236   0.579  13.010 -0.5995 -0.0672  0.5412
  755MPD2     H11158   2.542   0.786  13.130 -2.5452  2.7581 -0.7005
  755MPD2    H111159   2.359   0.425  12.966 -0.6002  0.3893 -0.9566
  755MPD2    H211160   2.127   0.749  13.069  0.3436  1.6954  1.3320
  755MPD2    H311161   2.145   0.525  12.990 -0.8032 -0.0892  1.5084
  755MPD2     N11162   2.593   0.522  13.054 -0.6743 -0.8727  0.1236
  755MPD2    H511163   2.576   0.422  13.050 -0.2676 -0.9454  0.2096
  755MPD2    N111164   2.315   0.903  13.172 -0.4441 -0.9265  0.3179
  755MPD2    H711165   2.391   0.964  13.200 -0.3146 -0.7624 -0.3926
  756MPD2     C11166   3.749   1.036   9.601 -0.2434  0.3490  0.2470
  756MPD2    C111167   3.679   0.978   9.710 -0.0136  0.4280 -0.1674
  756MPD2    C211168   3.543   0.982   9.717  0.4034  0.1230  0.0552
  756MPD2    C311169   3.466   1.026   9.616  0.3105  0.1298 -0.7688
  756MPD2    C411170   3.531   1.084   9.504  0.1781  0.1109  0.4614
  756MPD2    C511171   3.671   1.097   9.503  0.3187 -0.3978 -0.6016
  756MPD2     H11172   3.493   0.952   9.808  0.0858  1.9668  0.4848
  756MPD2    H111173   3.478   1.125   9.419  0.1722 -0.3078  0.2672
  756MPD2    H211174   3.858   1.035   9.598 -0.2800  2.7408 -1.3637
  756MPD2    H311175   3.714   1.137   9.412 -0.5678  1.5428 -0.1608
  756MPD2     N11176   3.327   1.007   9.619 -0.0482 -0.4333  0.0202
  756MPD2    H511177   3.307   0.950   9.701 -0.7729 -0.3319 -0.0879
  756MPD2    N111178   3.740   0.927   9.820 -0.3234  0.2088  0.1151
  756MPD2    H711179   3.686   0.872   9.887 -2.2606  0.8853 -0.8871
  757MPD2     C11180   3.029   0.328   9.962 -0.2503 -0.7079  1.2919
  757MPD2    C111181   3.145   0.403   9.968  0.1513  0.3093  0.3374
  757MPD2    C211182   3.142   0.510   9.879 -0.3450 -0.1541 -0.5072
  757MPD2    C311183   3.027   0.542   9.813 -0.0881 -0.4087  0.7775
  757MPD2    C411184   2.913   0.465   9.818 -0.2799  0.2448  0.4477
  757MPD2    C511185   2.921   0.360   9.896 -0.6767 -0.0733  0.0839
  757MPD2     H11186   3.236   0.558   9.854 -0.5506  0.1942 -0.6050
  757MPD2    H111187   2.825   0.488   9.759  0.1616  0.0339 -0.2966
  757MPD2    H211188   3.024   0.241  10.027 -2.3564 -1.2074  0.4548
  757MPD2    H311189   2.827   0.309   9.918 -0.2167  0.3304  2.9439
  757MPD2     N11190   3.029   0.658   9.739 -0.2912  0.2334  0.8181
  757MPD2    H511191   3.114   0.712   9.754  0.6982 -1.9069  3.0434
  757MPD2    N111192   3.253   0.362  10.042  0.3231  0.2205  0.4457
  757MPD2    H711193   3.245   0.279  10.100  1.0540 -0.8193 -0.9458
  758MPD2     C11194   3.718   0.093  16.345 -0.0816 -0.4946  0.0578
  758MPD2    C111195   3.826   0.081  16.427  0.4846  0.0329 -0.2673
  758MPD2    C211196   3.812   0.103  16.565 -0.2704  1.1861  0.3719
  758MPD2    C311197   3.685   0.121  16.617 -0.0091 -0.3751 -0.3340
  758MPD2    C411198   3.575   0.127  16.530  0.8865 -0.4048  0.9856
  758MPD2    C511199   3.591   0.119  16.398  0.3027 -0.6640  0.0904
  758MPD2     H11200   3.906   0.112  16.617  0.8387 -0.3880 -1.3289
  758MPD2    H111201   3.475   0.151  16.565  0.6941 -1.2795  1.0427
  758MPD2    H211202   3.731   0.090  16.237 -0.2321  1.8833 -0.0212
  758MPD2    H311203   3.514   0.157  16.332  1.3464 -1.4616 -1.5812
  758MPD2     N11204   3.662   0.142  16.759 -0.4221  0.4214  0.2292
  758MPD2    H511205   3.568   0.171  16.786  0.2038  0.9089  1.8893
  758MPD2    N111206   3.966   0.061  16.387  0.4371  0.2346 -0.7836
  758MPD2    H711207   4.036   0.070  16.460 -2.5530  0.7169  2.0245
  759MPD2     C11208   2.524   3.461  10.354 -0.6463  0.4263 -0.2129
  759MPD2    C111209   2.579   3.368  10.264  0.1460 -0.7126  0.4821
  759MPD2    C211210   2.694   3.410  10.191 -0.5799 -0.0710  0.3089
  759MPD2    C311211   2.737   3.540  10.198  0.1544 -0.2172  0.0648
  759MPD2    C411212   2.676   3.624  10.285  0.0097 -0.2529 -0.1881
  759MPD2    C511213   2.578   3.583  10.371 -0.0491  0.0992 -0.2874
  759MPD2     H11214   2.740   3.339  10.123  0.8334 -1.8188  3.0764
  759MPD2    H111215   2.706   3.728  10.285  0.2675 -0.3283 -0.0596
  759MPD2    H211216   2.433   3.441  10.410 -0.7281 -1.0007 -0.8562
  759MPD2    H311217   2.534   3.662  10.431 -1.2756 -1.5996  1.0496
  759MPD2     N11218   2.849   3.580  10.129 -0.2101  0.6458 -0.3217
  759MPD2    H511219   2.897   3.501  10.087 -2.2220 -0.4932 -0.4576
  759MPD2    N111220   2.527   3.244  10.240 -0.5564  0.0360 -0.0894
  759MPD2    H711221   2.571   3.189  10.167 -2.0044 -2.3762  0.8532
  760MPD2     C11222   2.367   0.679  11.781  0.0540 -0.5055  0.4819
  760MPD2    C111223   2.507   0.684  11.769 -0.0830 -0.0596 -0.6185
  760MPD2    C211224   2.584   0.572  11.806 -0.2366 -0.1569  0.2192
  760MPD2    C311225   2.521   0.451  11.839  0.0359  0.5135 -0.4014
  760MPD2    C411226   2.386   0.447  11.844  0.5443 -0.5185  0.2131
  760MPD2    C511227   2.313   0.559  11.821  0.0616  0.3663  0.0383
  760MPD2     H11228   2.689   0.573  11.780 -0.1765  1.0459  0.5314
  760MPD2    H111229   2.315   0.368  11.865  0.4156 -0.6938 -0.8811
  760MPD2    H211230   2.306   0.761  11.748  1.3141  0.3895  0.3734
  760MPD2    H311231   2.206   0.552  11.838  0.1362 -2.9466 -0.9499
  760MPD2     N11232   2.591   0.330  11.865  0.1292  0.1330 -0.3377
  760MPD2    H511233   2.528   0.251  11.875  0.2166  0.4021  2.4000
  760MPD2    N111234   2.582   0.798  11.716  0.5180  0.3264 -0.1761
  760MPD2    H711235   2.683   0.793  11.726  0.4660 -0.5844 -0.0518
  761MPD2     C11236   3.761   4.312  11.584  0.5509 -0.3206  0.5949
  761MPD2    C111237   3.826   4.308  11.459  0.5353 -0.2172 -1.3256
  761MPD2    C211238   3.919   4.401  11.420  0.4589 -0.5877  0.0544
  761MPD2    C311239   3.952   4.504  11.508 -0.8300  0.2884  0.4142
  761MPD2    C411240   3.894   4.500  11.632  0.0966 -0.5245  0.0468
  761MPD2    C511241   3.802   4.405  11.671 -0.0664 -0.2484 -0.2758
  761MPD2     H11242   3.970   4.388  11.325 -0.3979  1.2294 -0.6538
  761MPD2    H111243   3.931   4.574  11.701  2.0385 -1.1190 -0.3704
  761MPD2    H211244   3.685   4.238  11.607 -0.1074 -0.2062 -1.2378
  761MPD2    H311245   3.754   4.422  11.767 -1.1165 -0.1321 -0.8221
  761MPD2     N11246   4.058   4.597  11.488  0.1654 -0.4845 -0.5991
  761MPD2    H511247   4.084   4.663  11.561  0.0118  0.9806 -1.8816
  761MPD2    N111248   3.779   4.201  11.380  0.0304  0.3415 -0.3103
  761MPD2    H711249   3.706   4.141  11.415 -0.1255  0.4334 -0.4791
  762MPD2     C11250   4.175   4.279  10.950  0.6388  0.1387  0.4783
  762MPD2    C111251   4.122   4.169  10.879  0.0681 -0.0226  0.2757
  762MPD2    C211252   4.185   4.130  10.759 -0.0724 -0.6564  0.6382
  762MPD2    C311253   4.300   4.186  10.715 -0.0548 -0.2682 -0.2188
  762MPD2    C411254   4.354   4.295  10.780 -0.0787  0.0027 -0.5952
  762MPD2    C511255   4.298   4.328  10.906 -0.1450 -0.2935 -0.0205
  762MPD2     H11256   4.140   4.047  10.705 -1.0367 -0.5881  1.3427
  762MPD2    H111257   4.440   4.353  10.747  0.7932 -0.7489  0.3469
  762MPD2    H211258   4.129   4.325  11.036  2.7699 -0.6133  2.0074
  762MPD2    H311259   4.346   4.414  10.953 -1.3472 -0.2970  1.2023
  762MPD2     N11260   4.358   4.142  10.591 -0.2657  0.1862 -0.3842
  762MPD2    H511261   4.297   4.080  10.539 -1.6146  1.2709 -0.0747
  762MPD2    N111262   3.999   4.122  10.926 -0.7759  0.1873  0.2793
  762MPD2    H711263   3.958   4.175  11.002 -0.9463  0.1570  0.2068
  763MPD2     C11264   1.422   0.061  16.119  0.6141 -0.1077 -0.6410
  763MPD2    C111265   1.306   0.117  16.083 -0.8386 -0.1876 -0.1405
  763MPD2    C211266   1.208   0.132  16.183  0.6595 -0.0540 -0.0882
  763MPD2    C311267   1.239   0.100  16.314  0.1626 -0.2759  0.5891
  763MPD2    C411268   1.360   0.043  16.345 -0.1715 -0.0577  0.1277
  763MPD2    C511269   1.444   0.013  16.246 -0.6079 -1.2259 -0.2851
  763MPD2     H11270   1.113   0.181  16.165  0.9671  0.8842  0.8532
  763MPD2    H111271   1.373   0.010  16.448  0.4318 -0.3786 -0.0495
  763MPD2    H211272   1.503   0.043  16.048  0.4517 -2.7141 -0.1499
  763MPD2    H311273   1.539   4.699  16.285  0.7400 -0.0395 -2.4874
  763MPD2     N11274   1.153   0.130  16.428 -0.3252 -0.6853 -0.3401
  763MPD2    H511275   1.189   0.096  16.517 -0.1954 -1.8612 -0.8376
  763MPD2    N111276   1.275   0.155  15.949  0.1309  1.0223 -0.4940
  763MPD2    H711277   1.177   0.163  15.924  0.6312  0.0347 -2.7526
  764MPD2     C11278   2.788   0.842  17.501  0.5704  0.0673 -0.1561
  764MPD2    C111279   2.767   0.979  17.514  0.7069  0.5032 -0.9325
  764MPD2    C211280   2.745   1.029  17.644  0.5229 -0.5126  0.2428
  764MPD2    C311281   2.738   0.951   0.070 -0.7496 -0.4905 -0.6310
  764MPD2    C411282   2.753   0.813   0.055 -0.8387 -0.5255 -1.0798
  764MPD2    C511283   2.788   0.758  17.614 -0.2625 -0.4392  0.1661
  764MPD2     H11284   2.719   1.134  17.646  0.9497 -0.3567 -2.2159
  764MPD2    H111285   2.751   0.737   0.131  0.6862 -0.0368 -0.5353
  764MPD2    H211286   2.791   0.789  17.406  0.4383  1.3128 -0.8712
  764MPD2    H311287   2.811   0.654  17.599  1.0071 -0.2519  0.7370
  764MPD2     N11288   2.709   1.015   0.193 -0.3739 -0.1659 -0.3822
  764MPD2    H511289   2.701   1.116   0.184 -2.0559 -0.1016  1.8605
  764MPD2    N111290   2.773   1.075  17.410 -0.2483  0.4131 -0.1400
  764MPD2    H711291   2.761   1.173  17.435  0.2557  0.8023 -1.4066
  765MPD2     C11292   3.380   4.446  16.290 -0.0121  0.0163  0.4896
  765MPD2    C111293   3.482   4.502  16.216  0.0655 -0.2297 -0.3811
  765MPD2    C211294   3.598   4.431  16.210  0.0023 -0.6493 -0.3322
  765MPD2    C311295   3.625   4.320  16.278 -0.6688  0.4365  0.3236
  765MPD2    C411296   3.522   4.262  16.342  0.1614 -0.2357 -0.2307
  765MPD2    C511297   3.398   4.326  16.354  0.2699 -0.1346 -0.2003
  765MPD2     H11298   3.674   4.467  16.142  1.6863 -0.2748  1.7654
  765MPD2    H111299   3.538   4.163  16.386 -2.0032 -0.9084 -0.9739
  765MPD2    H211300   3.283   4.493  16.286 -0.0163 -0.0622 -0.3335
  765MPD2    H311301   3.318   4.276  16.407  0.3312  0.6823  0.6454
  765MPD2     N11302   3.746   4.251  16.243 -0.1532 -0.7609  0.0881
  765MPD2    H511303   3.819   4.296  16.188  0.4678  0.6268  2.0498
  765MPD2    N111304   3.456   4.621  16.142 -0.7222  0.0302  0.0413
  765MPD2    H711305   3.360   4.651  16.136  0.1695  2.7743 -0.4867
  766MPD2     C11306   3.280   4.507  15.409 -0.5505 -0.3294 -0.3989
  766MPD2    C111307   3.368   4.614  15.415 -0.2108  1.0425  0.0944
  766MPD2    C211308   3.431   4.648  15.294  0.7300 -0.4194  0.1091
  766MPD2    C311309   3.418   4.571  15.179 -0.5868  0.4859  0.0157
  766MPD2    C411310   3.330   4.465  15.177  0.2837 -0.5181  0.0164
  766MPD2    C511311   3.269   4.431  15.296 -0.5916 -0.0709 -0.1554
  766MPD2     H11312   3.490   0.018  15.291 -0.6014  0.4027 -0.9520
  766MPD2    H111313   3.302   4.407  15.089  1.5801 -1.2698  0.1121
  766MPD2    H211314   3.208   4.479  15.485 -0.0621 -2.2680 -0.6474
  766MPD2    H311315   3.192   4.355  15.298  0.6294 -1.3519 -1.5380
  766MPD2     N11316   3.480   4.612  15.065  0.2688  0.0279 -0.1128
  766MPD2    H511317   3.448   4.556  14.986  1.4886  0.6856 -1.0723
  766MPD2    N111318   3.388   4.698  15.528  1.2331  0.0222  0.6424
  766MPD2    H711319   3.435   0.066  15.514 -0.0242  0.3332 -1.5757
  767MPD2     C11320   3.078   4.663  15.062 -0.9692  0.3181 -0.0366
  767MPD2    C111321   3.161   0.027  14.986  0.2910  0.1712 -0.0733
  767MPD2    C211322   3.201   4.715  14.860  0.3714 -0.3573 -0.1834
  767MPD2    C311323   3.147   4.605  14.800 -0.1823 -0.0531  0.4257
  767MPD2    C411324   3.056   4.526  14.863  0.3197 -0.1183 -0.0842
  767MPD2    C511325   3.030   4.549  14.997 -0.0858  0.2319  0.2012
  767MPD2     H11326   3.247   0.069  14.797  2.1813 -0.6955  0.7415
  767MPD2    H111327   3.005   4.437  14.826  2.8308 -1.3445 -0.6256
  767MPD2    H211328   3.068   4.680  15.169 -5.3284  2.5584 -0.7965
  767MPD2    H311329   2.957   4.484  15.045 -1.0598  0.7767 -0.5327
  767MPD2     N11330   3.195   4.559  14.674  0.3781 -0.1692  0.2357
  767MPD2    H511331   3.282   4.599  14.639  1.0597 -1.8503  0.0318
  767MPD2    N111332   3.209   0.152  15.051  0.1571 -0.4491 -0.4563
  767MPD2    H711333   3.181   0.176  15.146 -1.1586 -0.3536 -0.8609
  768MPD2     C11334   4.015   2.671  10.607  0.3194 -0.3507  0.1958
  768MPD2    C111335   3.989   2.681  10.746  0.3987  0.1210  0.2067
  768MPD2    C211336   4.095   2.690  10.831 -0.0924 -0.4734 -0.0435
  768MPD2    C311337   4.220   2.701  10.783  0.3490  0.0938 -0.5230
  768MPD2    C411338   4.247   2.698  10.652 -0.0401  0.2926 -0.1189
  768MPD2    C511339   4.142   2.674  10.564  0.2981 -0.5332  1.1176
  768MPD2     H11340   4.072   2.692  10.937 -1.1714 -0.0902 -0.2846
  768MPD2    H111341   4.346   2.711  10.609  1.8856 -1.0142  3.8596
  768MPD2    H211342   3.933   2.652  10.539  0.4017 -0.7260  0.1974
  768MPD2    H311343   4.160   2.653  10.459  0.9438 -0.7879  1.2753
  768MPD2     N11344   4.335   2.708  10.867  0.3286 -0.7233 -0.6611
  768MPD2    H511345   4.425   2.715  10.821  0.9548  1.8907  0.9176
  768MPD2    N111346   3.861   2.674  10.810 -0.5945 -0.4193  0.0682
  768MPD2    H711347   3.861   2.692  10.910  3.9451  1.0982 -0.1929
  769MPD2     C11348   0.318   1.421  14.631  0.5871 -0.3520 -0.2158
  769MPD2    C111349   0.236   1.328  14.687 -0.3184  0.6835 -0.6405
  769MPD2    C211350   0.243   1.327  14.830 -1.2068 -0.2086 -0.3460
  769MPD2    C311351   0.321   1.416  14.905  0.8477 -0.5085  0.3510
  769MPD2    C411352   0.410   1.496  14.831 -0.3040 -0.1339  0.0938
  769MPD2    C511353   0.410   1.495  14.694  0.2832  0.1417 -0.0564
  769MPD2     H11354   0.179   1.268  14.895 -2.7597 -0.3086 -1.9731
  769MPD2    H111355   0.480   1.569  14.872  0.8646 -0.8105 -0.7212
  769MPD2    H211356   0.335   1.421  14.524 -0.9198  0.8035 -0.4648
  769MPD2    H311357   0.480   1.560  14.641  1.4717  1.8299  3.5949
  769MPD2     N11358   0.327   1.397  15.043 -0.0910  0.6311  0.0462
  769MPD2    H511359   0.285   1.311  15.080  1.0514 -0.0845 -0.3226
  769MPD2    N111360   0.151   1.253  14.602  0.2676  0.1938  0.1396
  769MPD2    H711361   0.167   1.250  14.502 -0.7022 -1.2593  0.0280
  770MPD2     C11362   4.461   0.319  14.766 -0.3883 -0.0634  0.0164
  770MPD2    C111363   4.505   0.413  14.859 -0.8698  0.0918 -0.3430
  770MPD2    C211364   4.536   0.537  14.815  0.8125  0.1578 -0.0480
  770MPD2    C311365   4.551   0.562  14.678 -0.0611  0.3739  0.1914
  770MPD2    C411366   4.533   0.459  14.586  0.1586 -0.5873 -0.3213
  770MPD2    C511367   4.493   0.336  14.631  0.1524 -0.1791 -0.0131
  770MPD2     H11368   4.561   0.621  14.879  0.7785  1.0175 -1.1599
  770MPD2    H111369   4.546   0.483  14.482  1.2094  1.2951  0.2415
  770MPD2    H211370   4.410   0.229  14.799  0.5485 -0.3572  0.6706
  770MPD2    H311371   4.476   0.247  14.572  0.5491 -0.0629 -0.3024
  770MPD2     N11372   4.570   0.700  14.639 -0.0008  0.2025 -0.0341
  770MPD2    H511373   4.583   0.765  14.716 -1.5654 -1.8932  1.9799
  770MPD2    N111374   4.487   0.378  14.999 -0.8531  0.1706  0.2135
  770MPD2    H711375   4.434   0.296  15.027 -0.9587 -0.3687 -1.6112
  771MPD2     C11376   1.077   3.569  13.590  0.2063  0.4084 -0.1524
  771MPD2    C111377   1.037   3.699  13.559  0.2109  0.2731 -0.0832
  771MPD2    C211378   0.951   3.712  13.451  0.7050  0.2583 -0.1993
  771MPD2    C311379   0.923   3.606  13.367  0.2035  0.0542  0.2049
  771MPD2    C411380   0.963   3.477  13.398 -0.2184 -0.1025 -0.2352
  771MPD2    C511381   1.046   3.465  13.507  0.3326  0.0934  0.4016
  771MPD2     H11382   0.908   3.809  13.428  0.0851  0.1612  0.5296
  771MPD2    H111383   0.944   3.382  13.350  0.0964  0.1934 -0.9316
  771MPD2    H211384   1.134   3.552  13.680  0.7201 -3.4536 -1.1994
  771MPD2    H311385   1.075   3.366  13.541  0.8823 -1.4488 -4.5011
  771MPD2     N11386   0.831   3.607  13.257 -0.4423  0.0988 -0.6864
  771MPD2    H511387   0.817   3.519  13.208  1.0652 -0.4317 -0.1390
  771MPD2    N111388   1.067   3.810  13.641 -0.5228 -0.3166  0.1807
  771MPD2    H711389   1.027   3.901  13.621  1.3987 -0.1182 -2.7406
  772MPD2     C11390   0.900   4.260  14.238  0.5668  0.0315  0.0532
  772MPD2    C111391   0.875   4.197  14.119  0.7849 -0.3553 -0.2456
  772MPD2    C211392   0.749   4.183  14.077  0.4153 -0.2748  0.6179
  772MPD2    C311393   0.638   4.222  14.156 -0.1281 -0.0605 -0.2246
  772MPD2    C411394   0.669   4.284  14.272  0.5676  0.4823 -0.0703
  772MPD2    C511395   0.795   4.308  14.310  0.4075  0.1161 -0.2141
  772MPD2     H11396   0.735   4.144  13.977 -0.8461  1.9570 -0.0774
  772MPD2    H111397   0.588   4.320  14.335  0.5329 -0.7167  0.5686
  772MPD2    H211398   0.998   4.271  14.281  0.4545  0.6275  0.1545
  772MPD2    H311399   0.810   4.351  14.408  0.4940 -0.1692 -0.1026
  772MPD2     N11400   0.498   4.205  14.122  0.2112 -0.0769  0.2400
  772MPD2    H511401   0.434   4.243  14.191  0.3108 -0.8012  0.7295
  772MPD2    N111402   0.980   4.144  14.044  0.0682  0.0723  0.1366
  772MPD2    H711403   0.959   4.117  13.948 -1.1425  1.0066  0.1366
  773MPD2     C11404   4.460   0.197   0.359 -0.2051  0.8515  0.2063
  773MPD2    C111405   4.337   0.142   0.375 -0.3696  0.3090 -0.0208
  773MPD2    C211406   4.310   0.063   0.491 -0.5503  0.0908  0.8791
  773MPD2    C311407   4.411   0.043   0.583 -0.0451 -0.0133 -0.4296
  773MPD2    C411408   4.539   0.093   0.567  0.1152  0.4857 -0.7863
  773MPD2    C511409   4.559   0.181   0.456 -0.1787 -0.6857  0.4997
  773MPD2     H11410   4.209   0.027   0.507 -0.7318  0.6433  0.9690
  773MPD2    H111411   4.619   0.072   0.637 -1.8057  1.8942  1.8536
  773MPD2    H211412   4.472   0.276   0.287 -4.2869 -0.1410 -1.5412
  773MPD2    H311413   4.657   0.228   0.446 -0.9936  0.3505 -2.3579
  773MPD2     N11414   4.397   4.688   0.699 -0.9526 -0.7383 -0.4824
  773MPD2    H511415   4.483   4.667   0.749 -1.7606 -0.8847  0.8366
  773MPD2    N111416   4.234   0.150   0.274  0.1654  0.0608  0.0606
  773MPD2    H711417   4.151   0.094   0.290 -0.3469  1.5701  2.7339
  774MPD2     C11418   3.623   4.363  13.057 -0.9501 -0.0161 -0.9249
  774MPD2    C111419   3.709   4.415  13.151  0.3073 -0.4240  0.3722
  774MPD2    C211420   3.732   4.552  13.156  0.0563 -0.4426 -0.3215
  774MPD2    C311421   3.673   4.642  13.075 -0.1376 -0.4838  0.2322
  774MPD2    C411422   3.581   4.588  12.984  0.8403  0.4070  0.0501
  774MPD2    C511423   3.562   4.452  12.975 -0.4680 -0.0958 -0.6991
  774MPD2     H11424   3.796   4.599  13.230  1.1904  1.8812 -2.8037
  774MPD2    H111425   3.526   4.654  12.918 -0.5540 -0.0117  0.7648
  774MPD2    H211426   3.596   4.258  13.058  1.2930 -0.5853  0.1662
  774MPD2    H311427   3.491   4.421  12.900 -1.2062 -0.3139  0.0927
  774MPD2     N11428   3.691   0.058  13.091  0.1495 -0.2365 -0.1493
  774MPD2    H511429   3.743   0.089  13.173 -1.2641  1.6197  0.0500
  774MPD2    N111430   3.757   4.328  13.249 -0.2798  0.1020 -0.2733
  774MPD2    H711431   3.699   4.246  13.266  0.4811  0.1907  2.7300
  775MPD2     C11432   0.664   0.825  15.835 -0.4376 -0.0697 -0.5346
  775MPD2    C111433   0.608   0.947  15.856  0.5269 -0.9332 -0.2599
  775MPD2    C211434   0.698   1.052  15.858  0.2586  0.2810  0.0910
  775MPD2    C311435   0.831   1.047  15.830 -0.5698 -0.0717  0.2470
  775MPD2    C411436   0.881   0.923  15.801  0.3074  0.0179  0.1876
  775MPD2    C511437   0.798   0.813  15.805  0.2243  0.4661  0.1247
  775MPD2     H11438   0.655   1.148  15.887  0.5889  0.3901  0.2127
  775MPD2    H111439   0.983   0.918  15.765 -0.4283 -0.8099 -1.7759
  775MPD2    H211440   0.597   0.740  15.838  1.9057 -1.9450 -1.3944
  775MPD2    H311441   0.829   0.720  15.758  0.4473  0.2432  0.7207
  775MPD2     N11442   0.912   1.159  15.809  0.4517  0.2098 -0.2141
  775MPD2    H511443   1.003   1.151  15.766 -0.3318  0.2780 -1.8929
  775MPD2    N111444   0.466   0.965  15.867  0.5310 -0.6991 -0.4088
  775MPD2    H711445   0.409   0.881  15.874 -0.7825  0.2336  0.1114
  776MPD2     C11446   4.402   1.545  11.969 -0.1587 -0.0031  0.5643
  776MPD2    C111447   4.403   1.474  11.859  0.2556 -0.1660  0.4187
  776MPD2    C211448   4.466   1.535  11.748 -0.5821  0.3457 -0.5520
  776MPD2    C311449   4.541   1.653  11.751 -1.0905 -0.0709  0.3475
  776MPD2    C411450   4.532   1.726  11.867  0.5394  0.2254 -0.1857
  776MPD2    C511451   4.466   1.663  11.974  0.1354 -0.4117 -0.0285
  776MPD2     H11452   4.462   1.495  11.647  1.4391 -0.9011 -0.1327
  776MPD2    H111453   4.581   1.822  11.875  0.9994  0.0236 -0.5868
  776MPD2    H211454   4.357   1.501  12.057 -3.3235 -0.3540 -1.2578
  776MPD2    H311455   4.466   1.718  12.068 -2.1003 -0.9305  0.2835
  776MPD2     N11456   4.617   1.707  11.642 -0.0454  0.1747  0.7336
  776MPD2    H511457   4.641   1.804  11.657  0.6530 -0.2501  2.4836
  776MPD2    N111458   4.333   1.347  11.854 -0.0423 -0.3201  0.6885
  776MPD2    H711459   4.284   1.312  11.936  0.3631  3.2837  2.4740
  777MPD2     C11460   4.670   3.217   1.370 -0.0512 -0.3432  0.5128
  777MPD2    C111461   4.535   3.219   1.400  0.3827  0.0205  0.0985
  777MPD2    C211462   4.431   3.194   1.314 -0.1268  0.4747 -0.0924
  777MPD2    C311463   4.464   3.156   1.186  0.3181 -0.5345 -0.3212
  777MPD2    C411464   4.599   3.154   1.154 -0.6742 -0.3341  0.0770
  777MPD2    C511465   4.697   3.175   1.245  0.4298  0.0459  0.2190
  777MPD2     H11466   4.325   3.212   1.328 -0.8772 -2.8895 -1.3201
  777MPD2    H111467   4.623   3.128   1.051  0.0755  2.3564 -0.4548
  777MPD2    H211468   0.024   3.240   1.444 -1.1832  2.9550  0.6443
  777MPD2    H311469   0.079   3.165   1.214  0.4248  0.1629  0.1643
  777MPD2     N11470   4.364   3.127   1.090  1.0994  0.7979 -0.3806
  777MPD2    H511471   4.269   3.139   1.125  0.5491 -0.2603 -1.5306
  777MPD2    N111472   4.503   3.255   1.536  0.5356  0.2049 -0.6042
  777MPD2    H711473   4.587   3.261   1.592  1.6014 -1.1171 -2.0724
  778MPD2     C11474   1.155   3.846  15.292  0.6979 -0.7901  0.1976
  778MPD2    C111475   1.143   3.757  15.186  0.4955 -1.1599  0.4688
  778MPD2    C211476   1.243   3.762  15.091 -0.1544  0.4419 -0.5404
  778MPD2    C311477   1.349   3.859  15.087 -0.2376  0.7234  0.6956
  778MPD2    C411478   1.352   3.943  15.196 -0.1042  0.3586  0.6399
  778MPD2    C511479   1.266   3.925  15.302  0.4428  0.0722  0.1038
  778MPD2     H11480   1.238   3.688  15.012  1.2403  0.4378 -0.6262
  778MPD2    H111481   1.432   4.015  15.211  0.4610 -0.1830  0.2202
  778MPD2    H211482   1.093   3.852  15.381  1.0207  1.1845  0.2737
  778MPD2    H311483   1.282   3.978  15.396  3.0782 -0.0315 -0.2993
  778MPD2     N11484   1.425   3.864  14.970  0.0078 -0.3300 -0.1598
  778MPD2    H511485   1.400   3.802  14.894 -0.4356  0.5347 -0.7189
  778MPD2    N111486   1.033   3.668  15.165 -0.2629  0.6343 -0.4907
  778MPD2    H711487   1.039   3.621  15.075  0.8800 -1.0164  0.4361
  779MPD2     C11488   1.135   2.746  13.975 -0.5178 -0.0801  0.2049
  779MPD2    C111489   1.102   2.761  14.105 -0.2155 -0.1276 -0.7090
  779MPD2    C211490   1.145   2.876  14.169  0.4334 -0.1379 -0.1789
  779MPD2    C311491   1.207   2.978  14.109  0.4407 -0.2233 -0.3789
  779MPD2    C411492   1.231   2.968  13.972  0.6775 -0.8679  0.7672
  779MPD2    C511493   1.193   2.857  13.913  0.4682 -0.1446 -0.2892
  779MPD2     H11494   1.129   2.872  14.276  2.2048 -1.4672  0.0350
  779MPD2    H111495   1.288   3.044  13.920 -1.3806  0.3004  0.2235
  779MPD2    H211496   1.105   2.659  13.918  1.1762  0.1028 -0.9486
  779MPD2    H311497   1.216   2.842  13.808  0.7645  2.9328 -0.6509
  779MPD2     N11498   1.241   3.086  14.190 -0.0005 -0.1174 -0.8501
  779MPD2    H511499   1.194   3.099  14.279  1.6640  0.1180 -0.0192
  779MPD2    N111500   1.041   2.666  14.191 -0.2151 -0.8579  0.3848
  779MPD2    H711501   1.022   2.692  14.287  0.3110  0.1664  0.2157
  780MPD2     C11502   3.462   1.745   0.411 -0.0615  0.3087 -0.3882
  780MPD2    C111503   3.484   1.616   0.415  0.4037 -0.1770 -0.6678
  780MPD2    C211504   3.612   1.577   0.446 -0.4453  0.0630  0.6016
  780MPD2    C311505   3.714   1.662   0.478 -0.5024  0.0158  0.3884
  780MPD2    C411506   3.680   1.802   0.485  0.3398 -0.1956 -0.4020
  780MPD2    C511507   3.555   1.839   0.444 -0.9367 -1.0839  0.0059
  780MPD2     H11508   3.636   1.471   0.448 -0.0132  0.1119 -1.4847
  780MPD2    H111509   3.738   1.893   0.497 -0.7680  0.5974 -1.0663
  780MPD2    H211510   3.369   1.783   0.370  0.1464  4.0226  2.5226
  780MPD2    H311511   3.528   1.943   0.431 -0.5982 -0.8534  1.1256
  780MPD2     N11512   3.843   1.610   0.505  0.0084  0.1285 -0.0064
  780MPD2    H511513   3.860   1.510   0.494  0.4922  0.4548 -2.1978
  780MPD2    N111514   3.378   1.527   0.394  0.2960  0.3137 -0.2792
  780MPD2    H711515   3.281   1.554   0.412  0.6991  3.2541 -2.4277
  781MPD2     C11516   2.222   4.026  11.910 -0.6195 -0.3868 -0.5533
  781MPD2    C111517   2.259   3.967  12.025 -0.8009 -0.1403  0.7539
  781MPD2    C211518   2.380   3.897  12.028 -0.0410 -0.3023  0.1029
  781MPD2    C311519   2.451   3.865  11.909  0.4641 -0.8925  0.1228
  781MPD2    C411520   2.406   3.919  11.791 -0.2887 -0.1401 -0.6126
  781MPD2    C511521   2.292   4.002  11.798 -0.1942 -0.1954 -0.5017
  781MPD2     H11522   2.411   3.862  12.126 -3.4736 -1.7746  0.6702
  781MPD2    H111523   2.459   3.906  11.698  0.0648 -0.5292 -0.3556
  781MPD2    H211524   2.129   4.079  11.892 -0.9934 -1.1741 -0.9594
  781MPD2    H311525   2.270   4.057  11.707  1.4662  0.8379 -0.2704
  781MPD2     N11526   2.565   3.783  11.912 -0.8392  0.8755  0.7807
  781MPD2    H511527   2.603   3.764  11.820 -1.1971  2.3124  0.3364
  781MPD2    N111528   2.179   3.984  12.139 -0.6010 -0.3100 -0.3754
  781MPD2    H711529   2.214   3.944  12.226 -0.4612  1.5231  0.4161
  782MPD2     C11530   4.586   0.317  10.244  0.0464 -0.4013  0.8915
  782MPD2    C111531   4.631   0.263  10.362 -0.2073  0.7926  0.0144
  782MPD2    C211532   4.657   0.348  10.471  0.4556  0.2145  0.5678
  782MPD2    C311533   4.642   0.490  10.447  0.3229  0.0103 -0.0315
  782MPD2    C411534   4.593   0.538  10.322 -0.1741 -0.0483 -0.6432
  782MPD2    C511535   4.562   0.448  10.220 -0.3251  1.3437 -0.4042
  782MPD2     H11536   4.711   0.308  10.555 -0.9811 -0.7477  1.0451
  782MPD2    H111537   4.594   0.643  10.296  1.5394 -0.0383 -0.5850
  782MPD2    H211538   4.570   0.253  10.158 -0.9349  2.6881 -1.2149
  782MPD2    H311539   4.535   0.489  10.123  0.3362 -1.8290 -1.9289
  782MPD2     N11540   4.704   0.569  10.550  0.1745  1.0459 -0.5016
  782MPD2    H511541   0.023   0.524  10.631 -0.5560  1.7714  0.2626
  782MPD2    N111542   4.688   0.136  10.349  0.1843 -0.5486  0.1091
  782MPD2    H711543   4.690   0.090  10.258 -1.8348  0.0472 -0.2345
  783MPD2     C11544   4.679   4.351  11.099 -0.3053  0.0617  0.2674
  783MPD2    C111545   4.635   4.481  11.060  0.6774 -0.4694 -0.2761
  783MPD2    C211546   4.676   4.538  10.939  0.0507 -0.3927  0.0325
  783MPD2    C311547   0.045   4.466  10.858  0.5891 -0.0921 -0.8707
  783MPD2    C411548   0.089   4.346  10.901 -0.5171 -0.0769 -0.0465
  783MPD2    C511549   0.041   4.281  11.015  0.1204 -0.3069 -0.2584
  783MPD2     H11550   4.635   4.632  10.907 -0.7395 -0.2748  1.3944
  783MPD2    H111551   0.157   4.281  10.846  0.6031  1.0252  0.0487
  783MPD2    H211552   4.654   4.303  11.193  3.1151  3.1194  2.7740
  783MPD2    H311553   0.080   4.183  11.040  0.2577  0.3600  2.1569
  783MPD2     N11554   0.090   4.533  10.743  0.3092  0.3701  0.1576
  783MPD2    H511555   0.043   4.613  10.702  1.7594  1.5753  0.8486
  783MPD2    N111556   4.556   4.547  11.152  0.2513  0.2161 -0.2646
  783MPD2    H711557   4.520   4.495  11.231  0.5044 -0.0661 -0.3341
  784MPD2     C11558   1.444   0.874   0.486 -0.6803  0.3306 -0.2887
  784MPD2    C111559   1.415   0.913   0.615 -0.0880  0.0239 -0.3466
  784MPD2    C211560   1.282   0.948   0.637 -0.5743 -0.2270 -0.8286
  784MPD2    C311561   1.188   0.950   0.542 -0.7210  0.2827 -0.4433
  784MPD2    C411562   1.223   0.917   0.420  0.1580  0.7075 -0.5012
  784MPD2    C511563   1.354   0.880   0.385  0.6935  0.0206 -0.4364
  784MPD2     H11564   1.254   0.973   0.738  0.0331 -2.7494 -0.0304
  784MPD2    H111565   1.156   0.913   0.335  1.1007  0.7128 -1.2536
  784MPD2    H211566   1.540   0.831   0.461 -2.1073 -2.0312 -1.7296
  784MPD2    H311567   1.384   0.853   0.285 -0.7367 -1.7737 -0.3931
  784MPD2     N11568   1.053   0.976   0.579  0.3874  0.0467  0.6947
  784MPD2    H511569   1.037   0.999   0.677  2.7832  2.3184  0.5605
  784MPD2    N111570   1.492   0.914   0.730 -0.8130  0.3710 -0.2609
  784MPD2    H711571   1.442   0.926   0.818  0.9515  0.7481  0.7116
  785MPD2     C11572   3.000   3.712  11.334 -0.4737 -0.0577  0.3519
  785MPD2    C111573   2.897   3.805  11.353  0.6989  0.1302  0.2955
  785MPD2    C211574   2.774   3.786  11.292 -0.3648  0.5861 -0.1100
  785MPD2    C311575   2.753   3.671  11.218 -0.2663  0.6594  0.5794
  785MPD2    C411576   2.860   3.585  11.198  0.1064 -0.0881 -0.5036
  785MPD2    C511577   2.987   3.607  11.249  0.4814 -0.1882 -0.3577
  785MPD2     H11578   2.693   3.859  11.294 -0.5989  0.3922 -2.1085
  785MPD2    H111579   2.855   3.498  11.133 -1.2981 -0.4079  0.0287
  785MPD2    H211580   3.090   3.733  11.390  0.3731  0.7006 -1.2996
  785MPD2    H311581   3.069   3.536  11.244  1.0100  0.6248 -3.8388
  785MPD2     N11582   2.617   3.644  11.182 -0.2171 -0.1416  0.2888
  785MPD2    H511583   2.550   3.701  11.233 -1.1300  0.0714 -1.1548
  785MPD2    N111584   2.925   3.917  11.435 -0.5286 -0.0502  0.6518
  785MPD2    H711585   3.022   3.936  11.457 -0.6984  2.8330 -1.0726
  786MPD2     C11586   1.667   1.941  14.497  0.0327 -0.4008 -0.2256
  786MPD2    C111587   1.563   1.900  14.577 -0.8474  0.6396 -0.0306
  786MPD2    C211588   1.567   1.919  14.708 -0.2935  0.1091  0.4047
  786MPD2    C311589   1.684   1.956  14.768 -0.1632  0.3466  0.2498
  786MPD2    C411590   1.797   1.982  14.689  0.1187  0.2686 -0.7108
  786MPD2    C511591   1.790   1.977  14.552  0.7459  0.0401  0.1387
  786MPD2     H11592   1.471   1.909  14.758 -0.2467  2.5690  0.9895
  786MPD2    H111593   1.875   2.036  14.741  0.9935 -2.0198  0.3543
  786MPD2    H211594   1.648   1.952  14.391  0.3362 -0.3234 -0.2719
  786MPD2    H311595   1.871   2.015  14.491  2.8168  0.8088  3.3084
  786MPD2     N11596   1.701   1.963  14.910  0.0667  0.6470  0.2599
  786MPD2    H511597   1.790   1.992  14.949  0.1938 -0.4286  0.7486
  786MPD2    N111598   1.444   1.841  14.530 -0.5101  0.3487 -0.0395
  786MPD2    H711599   1.372   1.823  14.600  0.3300  0.1293  0.7711
  787MPD2     C11600   0.906   1.240  14.706  0.7830 -0.1433 -0.3924
  787MPD2    C111601   1.019   1.312  14.713  0.3424  0.3183  0.1556
  787MPD2    C211602   1.108   1.280  14.813  0.1847 -0.0495  0.4460
  787MPD2    C311603   1.098   1.156  14.878  0.0881 -0.5345  0.3167
  787MPD2    C411604   0.982   1.080  14.871 -0.3356  0.2217 -0.0917
  787MPD2    C511605   0.888   1.122  14.778  0.0619 -0.0621 -0.4230
  787MPD2     H11606   1.200   1.336  14.831 -0.1308  0.4753  0.4231
  787MPD2    H111607   0.974   0.983  14.919 -0.1330  0.3546  0.2113
  787MPD2    H211608   0.835   1.261  14.627 -1.7318  0.1455  1.9593
  787MPD2    H311609   0.796   1.065  14.776 -0.3418  0.5617  0.4340
  787MPD2     N11610   1.214   1.121  14.954  0.0121  0.3066 -0.1209
  787MPD2    H511611   1.291   1.187  14.944 -2.1410  3.1105  1.5841
  787MPD2    N111612   1.039   1.410  14.617 -0.2500  0.4602 -0.0672
  787MPD2    H711613   0.971   1.427  14.544  2.0623  0.3953 -2.2326
  788MPD2     C11614   2.451   4.129   1.269 -0.2247 -0.1394  0.4912
  788MPD2    C111615   2.506   4.133   1.148  0.1760 -0.5747 -0.2256
  788MPD2    C211616   2.486   4.243   1.071  0.2975 -0.1994  0.1792
  788MPD2    C311617   2.404   4.352   1.113  0.8457  0.5377  0.5258
  788MPD2    C411618   2.340   4.341   1.236  0.0982 -0.4428  0.8850
  788MPD2    C511619   2.357   4.225   1.310  0.5934  0.7012  0.1588
  788MPD2     H11620   2.526   4.244   0.970 -0.5335  1.5061 -0.1359
  788MPD2    H111621   2.270   4.410   1.281  3.0600  0.7099  3.7251
  788MPD2    H211622   2.468   4.048   1.339  1.3847 -0.3254 -0.1084
  788MPD2    H311623   2.316   4.212   1.409 -0.3288 -1.2321 -0.4705
  788MPD2     N11624   2.386   4.463   1.032 -0.8273 -0.8346 -0.9440
  788MPD2    H511625   2.345   4.546   1.074 -2.9205 -2.0193 -0.6688
  788MPD2    N111626   2.599   4.046   1.098 -0.2376  0.5936 -0.5910
  788MPD2    H711627   2.618   4.064   1.000  2.9170 -3.5919 -0.7492
  789MPD2     C11628   3.704   4.339  16.725  0.2839  0.3070  0.6699
  789MPD2    C111629   3.601   4.240  16.719 -0.2520 -0.2746  0.2165
  789MPD2    C211630   3.466   4.287  16.727  0.9753  0.0153 -0.3135
  789MPD2    C311631   3.444   4.423  16.741  0.1093 -0.6092 -0.3087
  789MPD2    C411632   3.547   4.514  16.732  0.2944 -0.0204 -0.3845
  789MPD2    C511633   3.674   4.473  16.726 -0.6192  0.3879 -0.1722
  789MPD2     H11634   3.383   4.217  16.730  1.0009 -0.0179 -0.3938
  789MPD2    H111635   3.521   4.618  16.740 -2.8462 -0.6404 -2.7307
  789MPD2    H211636   3.810   4.322  16.713  0.2859 -1.0076  2.6372
  789MPD2    H311637   3.752   4.548  16.724 -2.6619  2.4903 -0.8343
  789MPD2     N11638   3.313   4.485  16.766  0.6823  0.5586  0.1179
  789MPD2    H511639   3.322   4.585  16.775  3.0197  0.3179  0.7232
  789MPD2    N111640   3.624   4.109  16.699  0.2671 -0.0767  0.1409
  789MPD2    H711641   3.544   4.048  16.681  2.0867 -1.6867 -2.3460
  790MPD2     C11642   4.321   1.633  14.021 -0.9083 -0.0966  0.1276
  790MPD2    C111643   4.420   1.561  13.953 -0.3217 -0.5372 -0.6747
  790MPD2    C211644   4.385   1.514  13.828 -0.6636 -0.3660 -0.8547
  790MPD2    C311645   4.261   1.531  13.777  0.9517 -0.7663  0.7057
  790MPD2    C411646   4.168   1.604  13.844 -0.2751  0.1642  0.4857
  790MPD2    C511647   4.205   1.658  13.966 -0.5744  0.3670  0.0777
  790MPD2     H11648   4.455   1.458  13.768  3.3058  1.0882  2.4184
  790MPD2    H111649   4.073   1.622  13.796  1.0818 -0.9238 -2.5873
  790MPD2    H211650   4.343   1.667  14.121 -2.6064 -0.6632  0.6881
  790MPD2    H311651   4.127   1.714  14.016 -1.2389 -1.7979  1.4775
  790MPD2     N11652   4.221   1.481  13.649  0.0941 -0.9735  0.7101
  790MPD2    H511653   4.125   1.488  13.617  0.2593  1.3089  0.7121
  790MPD2    N111654   4.542   1.532  14.012  0.0071 -0.2592  0.5011
  790MPD2    H711655   4.575   1.589  14.088  0.9686  1.0024 -0.8647
  791MPD2     C11656   3.646   1.392  13.459  0.5415 -0.6008  0.2906
  791MPD2    C111657   3.725   1.313  13.380 -0.4161 -0.0369 -0.3188
  791MPD2    C211658   3.667   1.247  13.276 -0.6280 -0.4229 -0.0420
  791MPD2    C311659   3.545   1.291  13.224 -0.2715  0.1104 -0.0297
  791MPD2    C411660   3.468   1.373  13.307 -0.5287  0.5346 -0.0543
  791MPD2    C511661   3.517   1.415  13.424 -0.1348  0.3451  0.2654
  791MPD2     H11662   3.726   1.193  13.203 -0.1947 -1.5584  1.1574
  791MPD2    H111663   3.363   1.398  13.290 -0.7517  0.6498  1.5588
  791MPD2    H211664   3.681   1.433  13.553  1.4695 -0.8962  0.0670
  791MPD2    H311665   3.453   1.476  13.487 -0.7356 -0.6537  0.6199
  791MPD2     N11666   3.499   1.236  13.102  0.2140  0.0775 -0.3668
  791MPD2    H511667   3.554   1.174  13.043  1.8659  1.7189 -0.5422
  791MPD2    N111668   3.862   1.300  13.414  0.2413 -0.9721  0.5144
  791MPD2    H711669   3.903   1.361  13.483  2.0409 -1.1846 -0.3576
  792MPD2     C11670   4.426   1.518  11.007 -0.1408 -0.2137 -0.3112
  792MPD2    C111671   4.503   1.411  11.058  0.3757 -0.1844 -0.5964
  792MPD2    C211672   4.444   1.285  11.078 -0.6887  0.4126 -0.8292
  792MPD2    C311673   4.304   1.281  11.071 -0.4961 -0.5685 -0.0835
  792MPD2    C411674   4.229   1.396  11.043  0.1144 -0.0357 -0.0032
  792MPD2    C511675   4.293   1.509  11.002 -0.5542 -0.6764  0.0458
  792MPD2     H11676   4.501   1.199  11.112 -0.7405  0.8026  0.2634
  792MPD2    H111677   4.121   1.391  11.028  0.0036  2.2725  0.0265
  792MPD2    H211678   4.456   1.618  10.977 -1.4470 -0.4304 -2.3191
  792MPD2    H311679   4.235   1.591  10.961 -0.5078 -1.5334 -1.7094
  792MPD2     N11680   4.225   1.175  11.090  0.6523 -0.3275 -0.2462
  792MPD2    H511681   4.125   1.190  11.080  0.8523 -0.7652 -2.9561
  792MPD2    N111682   4.636   1.439  11.072  0.8630 -0.4522 -0.0578
  792MPD2    H711683   4.659   1.529  11.032  0.4116 -0.0336  0.6136
  793MPD2     C11684   3.601   1.003  10.565 -0.8881  0.0594 -0.0936
  793MPD2    C111685   3.725   0.942  10.556 -0.4463  0.1472 -0.3391
  793MPD2    C211686   3.798   0.919  10.670 -0.1438  0.1442  0.2714
  793MPD2    C311687   3.744   0.947  10.797  0.1013 -0.1082  0.1266
  793MPD2    C411688   3.614   0.984  10.802  0.7644  0.1162 -0.8534
  793MPD2    C511689   3.548   1.022  10.688  0.5573  0.2991 -1.0363
  793MPD2     H11690   3.893   0.868  10.661  1.0835  2.6984 -1.1709
  793MPD2    H111691   3.559   0.995  10.894  3.2075 -2.4800  0.9208
  793MPD2    H211692   3.544   1.006  10.473  0.5880 -1.1066 -1.0581
  793MPD2    H311693   3.445   1.047  10.710  0.6645  1.3700 -1.7535
  793MPD2     N11694   3.823   0.921  10.905  0.7224  0.3189 -0.6668
  793MPD2    H511695   3.916   0.883  10.887  0.2111 -1.0219 -0.4904
  793MPD2    N111696   3.792   0.894  10.436 -0.2734  0.5640 -0.5859
  793MPD2    H711697   3.888   0.865  10.453 -0.4136  0.7808  0.5664
  794MPD2     C11698   4.231   0.270  17.094  0.7197  0.4676  0.2931
  794MPD2    C111699   4.104   0.304  17.153 -0.9748  0.5309 -0.4929
  794MPD2    C211700   4.006   0.369  17.086 -0.1589  0.4109  1.1244
  794MPD2    C311701   4.030   0.410  16.952 -0.0096  0.2063  0.5915
  794MPD2    C411702   4.159   0.395  16.904 -0.2933 -0.2960  0.0472
  794MPD2    C511703   4.251   0.319  16.965 -0.0741  0.2531  0.5200
  794MPD2     H11704   3.908   0.374  17.134 -1.2166  0.0560 -1.0278
  794MPD2    H111705   4.191   0.421  16.804  0.8091 -0.7057  0.2886
  794MPD2    H211706   4.310   0.222  17.150 -0.2676 -1.0874  0.3337
  794MPD2    H311707   4.350   0.318  16.920 -0.1325 -1.0905  0.4242
  794MPD2     N11708   3.936   0.474  16.872 -0.0962  0.0487  0.1205
  794MPD2    H511709   3.948   0.477  16.772 -0.2089  1.0680  0.1391
  794MPD2    N111710   4.070   0.253  17.280  0.2478  0.4793  0.3263
  794MPD2    H711711   3.977   0.269  17.318  1.5544  1.3652  3.1720
  795MPD2     C11712   2.062   3.085  13.587 -0.3216  0.3201 -0.2947
  795MPD2    C111713   2.047   2.968  13.510 -0.1285  0.1674 -0.2735
  795MPD2    C211714   2.121   2.854  13.549 -0.2993  0.1252 -0.0206
  795MPD2    C311715   2.208   2.862  13.657  0.2271  0.2980  0.0170
  795MPD2    C411716   2.232   2.979  13.716  0.2830 -0.1459  0.1427
  795MPD2    C511717   2.155   3.090  13.687 -0.0344  0.2484  0.6090
  795MPD2     H11718   2.118   2.771  13.480  0.4729  0.0520  0.0352
  795MPD2    H111719   2.297   2.982  13.803 -0.6596  0.5622  0.8180
  795MPD2    H211720   1.998   3.171  13.576  0.1171  0.6748 -0.0954
  795MPD2    H311721   2.166   3.177  13.751 -3.3649  0.4439  0.8998
  795MPD2     N11722   2.282   2.746  13.679 -0.6133 -0.8005  0.0279
  795MPD2    H511723   2.251   2.667  13.624 -0.5859 -1.6643  1.2556
  795MPD2    N111724   1.958   2.949  13.403 -0.3979  0.9081  0.2926
  795MPD2    H711725   1.977   2.866  13.347 -1.8609 -0.0661  1.2507
  796MPD2     C11726   2.246   4.574  16.051  0.4513 -0.0236  0.1890
  796MPD2    C111727   2.184   4.592  16.168 -0.0592 -0.6477 -0.8813
  796MPD2    C211728   2.075   4.686  16.172  0.4906 -0.5834  0.4921
  796MPD2    C311729   2.035   0.027  16.058  0.1266 -0.0338  0.3314
  796MPD2    C411730   2.110   0.014  15.944  0.3394 -0.2634 -0.1039
  796MPD2    C511731   2.215   4.651  15.935  0.1167  1.0113 -0.5455
  796MPD2     H11732   2.024   4.710  16.265  1.0182 -0.2515  0.6954
  796MPD2    H111733   2.092   0.076  15.857  1.4862 -0.2925 -0.3698
  796MPD2    H211734   2.321   4.497  16.037 -0.7384 -0.9646 -1.0231
  796MPD2    H311735   2.272   4.639  15.844  0.2782  1.5138 -0.5101
  796MPD2     N11736   1.926   0.116  16.069 -0.2221 -0.3767 -0.3470
  796MPD2    H511737   1.878   0.127  16.157 -0.8690 -1.4484 -0.5663
  796MPD2    N111738   2.221   4.510  16.277  0.2919 -0.6185  0.6530
  796MPD2    H711739   2.312   4.466  16.279  0.5176 -0.0506  2.7748
  797MPD2     C11740   3.419   3.477  17.525 -0.3372  0.5943  0.8562
  797MPD2    C111741   3.384   3.611  17.544  0.2460  0.4802  0.4434
  797MPD2    C211742   3.328   3.684  17.438 -0.4709 -0.8303 -0.4094
  797MPD2    C311743   3.312   3.640  17.309  0.2713 -0.6737  0.1648
  797MPD2    C411744   3.352   3.508  17.296  0.4649 -0.9120  0.3712
  797MPD2    C511745   3.400   3.433  17.395  0.5953  0.0650  0.1384
  797MPD2     H11746   3.279   3.779  17.454  0.9548 -0.0103 -0.9888
  797MPD2    H111747   3.315   3.452  17.211 -1.0165 -1.2223  1.2055
  797MPD2    H211748   3.466   3.419  17.603 -1.4858  0.2592  1.2999
  797MPD2    H311749   3.420   3.329  17.371 -3.0731  0.0762 -3.0186
  797MPD2     N11750   3.230   3.713  17.228  0.3831  0.8694 -0.8411
  797MPD2    H511751   3.183   3.790  17.276 -1.7871  0.0497 -1.6448
  797MPD2    N111752   3.364   3.668  17.672  0.3942 -0.2510  0.6456
  797MPD2    H711753   3.352   3.769  17.676 -2.2937 -0.4260 -2.5989
  798MPD2     C11754   2.830   4.170  17.523  0.3110 -0.3296 -0.5144
  798MPD2    C111755   2.947   4.126  17.472  0.1515 -0.2023 -0.2055
  798MPD2    C211756   3.045   4.072  17.559 -0.0151  0.1973 -0.0914
  798MPD2    C311757   3.021   4.056   0.007  0.2159 -0.2127  0.6560
  798MPD2    C411758   2.907   4.119   0.057  0.5612 -0.1735 -0.3624
  798MPD2    C511759   2.815   4.175  17.654 -0.7396 -0.3918 -0.4188
  798MPD2     H11760   3.132   4.020  17.519  1.2931  0.1783  2.8259
  798MPD2    H111761   2.879   4.120   0.161  0.7058  1.3901 -0.3318
  798MPD2    H211762   2.752   4.217  17.465  0.0582  0.9391  0.8525
  798MPD2    H311763   2.723   4.220   0.001 -0.7371  0.3680 -1.4083
  798MPD2     N11764   3.109   3.986   0.089  0.5647 -1.0264 -0.0931
  798MPD2    H511765   3.189   3.950   0.038 -0.2219 -1.7059 -0.8390
  798MPD2    N111766   2.947   4.104  17.327  0.2117 -0.1661 -0.4316
  798MPD2    H711767   2.854   4.111  17.288  0.3946 -0.0806 -0.8431
  799MPD2     C11768   1.551   0.960  14.754  0.0562  0.0605  0.3187
  799MPD2    C111769   1.464   0.857  14.765  0.0976  0.6332 -0.7989
  799MPD2    C211770   1.347   0.861  14.701 -0.3169 -0.1269 -0.0791
  799MPD2    C311771   1.314   0.971  14.619  0.6625  0.0196  0.7951
  799MPD2    C411772   1.405   1.076  14.606  0.7812  0.0303 -0.4097
  799MPD2    C511773   1.522   1.073  14.680  0.2370  0.1946 -0.4248
  799MPD2     H11774   1.285   0.776  14.727  0.8527 -0.7321  0.6888
  799MPD2    H111775   1.394   1.158  14.536 -0.3291  0.9661  0.8676
  799MPD2    H211776   1.644   0.967  14.809 -0.5604 -2.0481  1.6127
  799MPD2    H311777   1.599   1.146  14.661  2.0481 -0.9688  2.5195
  799MPD2     N11778   1.203   0.981  14.537  1.0572  0.0263 -0.3120
  799MPD2    H511779   1.185   1.071  14.493 -1.5211  0.0760  0.8813
  799MPD2    N111780   1.488   0.739  14.847 -0.1945  0.5650  0.2269
  799MPD2    H711781   1.433   0.654  14.844 -0.4172  0.6310  2.5877
  800MPD2     C11782   1.729   2.261  14.250 -0.3083 -0.4245  0.1111
  800MPD2    C111783   1.841   2.238  14.171 -0.2170 -0.6068  0.0222
  800MPD2    C211784   1.841   2.126  14.090 -0.9636 -1.1932 -0.1815
  800MPD2    C311785   1.731   2.048  14.076 -0.1109 -0.2387 -0.1964
  800MPD2    C411786   1.626   2.065  14.156  0.5131 -0.7955  0.9100
  800MPD2    C511787   1.630   2.164  14.246 -0.2047  0.5163 -0.7828
  800MPD2     H11788   1.923   2.122  14.020 -0.8478 -0.0491 -0.1025
  800MPD2    H111789   1.533   2.010  14.148 -0.1269  0.2764  0.8906
  800MPD2    H211790   1.720   2.347  14.315  0.3331 -0.3946  0.1680
  800MPD2    H311791   1.539   2.162  14.305 -0.1076 -0.7655 -0.6629
  800MPD2     N11792   1.742   1.945  13.976  0.1550  0.1710  0.2761
  800MPD2    H511793   1.837   1.932  13.941  1.0296  1.0990  2.3260
  800MPD2    N111794   1.939   2.342  14.171 -0.3966  0.1913  0.2873
  800MPD2    H711795   1.915   2.426  14.222  1.6169  1.5283 -0.9491
  801MPD2     C11796   2.106   2.994  14.392 -0.6191  0.3712  0.3445
  801MPD2    C111797   2.043   2.874  14.367 -0.0306  0.4399  0.0588
  801MPD2    C211798   1.965   2.819  14.462  0.7597 -0.0950  0.4445
  801MPD2    C311799   1.923   2.894  14.569  0.4909 -0.2291  0.4579
  801MPD2    C411800   1.972   3.022  14.585  0.1646 -0.1865 -0.4990
  801MPD2    C511801   2.059   3.074  14.493 -0.0474 -0.9212  0.7137
  801MPD2     H11802   1.932   2.717  14.448  0.0381  0.3651 -1.3056
  801MPD2    H111803   1.949   3.085  14.670  1.5626 -0.6559  0.2162
  801MPD2    H211804   2.186   3.026  14.326 -0.1909 -1.5864 -0.0994
  801MPD2    H311805   2.086   3.179  14.502  0.6674 -0.8634 -2.3423
  801MPD2     N11806   1.825   2.844  14.661 -0.5899  0.3166  0.3695
  801MPD2    H511807   1.795   2.893  14.745 -0.6294 -0.0244  0.5547
  801MPD2    N111808   2.079   2.785  14.265 -0.3551 -0.1735 -0.2570
  801MPD2    H711809   2.044   2.690  14.268  2.1228 -1.1312 -1.6925
  802MPD2     C11810   0.755   1.842  17.432  0.3446 -0.6272  0.0445
  802MPD2    C111811   0.709   1.966  17.409  0.2292  0.2630 -0.2839
  802MPD2    C211812   0.768   2.040  17.311 -0.3563 -0.4958  0.7213
  802MPD2    C311813   0.878   1.997  17.234 -0.2155 -0.2759  0.2185
  802MPD2    C411814   0.937   1.883  17.280 -0.0774 -0.1197  0.1063
  802MPD2    C511815   0.873   1.805  17.372  0.9756  0.2064  0.5456
  802MPD2     H11816   0.726   2.135  17.280 -0.6856 -1.0143 -0.4007
  802MPD2    H111817   1.029   1.848  17.235 -0.0923 -0.8178  0.6218
  802MPD2    H211818   0.724   1.765  17.502  2.9909  0.4809  2.4168
  802MPD2    H311819   0.914   1.710  17.404 -2.2498 -2.2920 -2.7737
  802MPD2     N11820   0.914   2.072  17.123 -0.1119 -0.3751  0.1804
  802MPD2    H511821   0.846   2.144  17.102 -0.2967 -1.6079 -3.3524
  802MPD2    N111822   0.589   2.021  17.467 -0.0217 -0.5469  0.2728
  802MPD2    H711823   0.559   2.111  17.432  0.8678  0.0212  1.0075
  803MPD2     C11824   2.412   1.153  11.974  0.3882  0.1877 -0.0112
  803MPD2    C111825   2.493   1.143  12.088  0.4267 -0.0766 -0.3944
  803MPD2    C211826   2.475   1.045  12.176 -0.0978 -0.2106 -0.4048
  803MPD2    C311827   2.378   0.945  12.154  0.9763  0.1230  0.0652
  803MPD2    C411828   2.287   0.966  12.055 -0.3218  0.0856  0.1595
  803MPD2    C511829   2.309   1.070  11.962 -0.0454 -0.3474  0.4706
  803MPD2     H11830   2.545   1.043  12.259 -0.3406  1.2488 -0.1733
  803MPD2    H111831   2.205   0.898  12.034 -0.2259  0.3349 -1.0086
  803MPD2    H211832   2.425   1.231  11.901 -0.3384 -0.2338 -0.5976
  803MPD2    H311833   2.246   1.075  11.874 -0.1049 -1.7238  0.4270
  803MPD2     N11834   2.363   0.836  12.242 -0.3136 -0.1641 -0.3016
  803MPD2    H511835   2.276   0.784  12.237 -0.2656 -0.2413 -0.3470
  803MPD2    N111836   2.598   1.228  12.116  0.1427 -0.3428 -0.2378
  803MPD2    H711837   2.649   1.234  12.204 -2.1035  1.7506  0.9050
  804MPD2     C11838   1.875   2.469  16.731 -0.3800  0.0962 -0.6668
  804MPD2    C111839   1.825   2.427  16.859  1.2578  0.5349  0.4655
  804MPD2    C211840   1.847   2.524  16.964 -0.0906 -0.2224 -0.1499
  804MPD2    C311841   1.925   2.634  16.942  0.4678 -0.2328  0.4101
  804MPD2    C411842   1.987   2.657  16.827  0.5102 -0.3420  0.8516
  804MPD2    C511843   1.956   2.576  16.722 -0.8225  0.2885 -0.1512
  804MPD2     H11844   1.799   2.514  17.061 -0.8010  0.7530 -0.3964
  804MPD2    H111845   2.055   2.738  16.805  0.3943 -0.3628  0.4215
  804MPD2    H211846   1.861   2.410  16.641 -2.4099 -1.8741  0.9353
  804MPD2    H311847   1.998   2.602  16.626  0.2883  1.5763  0.6704
  804MPD2     N11848   1.937   2.727  17.049  0.8536 -0.1013  0.3069
  804MPD2    H511849   1.899   2.703  17.140  0.4810  2.3979  0.7893
  804MPD2    N111850   1.747   2.312  16.882  0.0931  0.3832  0.5464
  804MPD2    H711851   1.722   2.298  16.979 -0.7157 -1.3054  0.0976
  805MPD2     C11852   1.190   1.143  15.622 -0.2187  0.2157 -0.5820
  805MPD2    C111853   1.251   1.031  15.583 -0.0631  0.1288 -0.2935
  805MPD2    C211854   1.390   1.009  15.607  0.7387  0.7251  0.3795
  805MPD2    C311855   1.462   1.117  15.662 -0.5428 -0.2301 -0.7290
  805MPD2    C411856   1.401   1.238  15.684  0.1710 -0.8613  0.4088
  805MPD2    C511857   1.268   1.239  15.677 -0.4291 -0.2335 -0.1763
  805MPD2     H11858   1.431   0.911  15.590 -0.3308 -0.1336  2.7896
  805MPD2    H111859   1.453   1.327  15.716  0.6071 -0.4140 -1.5236
  805MPD2    H211860   1.093   1.174  15.584  0.3039  0.9681 -1.3008
  805MPD2    H311861   1.227   1.339  15.690  1.3353  0.5718 -0.9124
  805MPD2     N11862   1.596   1.087  15.697 -0.1260 -0.1131  0.0717
  805MPD2    H511863   1.626   0.991  15.685  1.1480  0.1577  1.0791
  805MPD2    N111864   1.176   0.932  15.518 -0.3843 -0.5178  0.3673
  805MPD2    H711865   1.229   0.859  15.471  1.3116  0.6127  0.5434
  806MPD2     C11866   1.710   0.368   0.442 -0.4842  0.6289  0.6167
  806MPD2    C111867   1.723   0.452   0.556 -0.7829 -0.6826 -0.1640
  806MPD2    C211868   1.745   0.588   0.533  0.0682 -0.4113  0.2337
  806MPD2    C311869   1.755   0.632   0.401  0.0905 -0.8591  0.1813
  806MPD2    C411870   1.749   0.546   0.296 -1.9723  0.7141 -0.0099
  806MPD2    C511871   1.719   0.411   0.311  0.4002  0.6526 -0.6751
  806MPD2     H11872   1.752   0.661   0.613 -0.4407 -0.2164  0.0993
  806MPD2    H111873   1.761   0.577   0.192 -1.9434 -1.2813 -0.5892
  806MPD2    H211874   1.693   0.263   0.460  1.2756  0.1456 -0.5820
  806MPD2    H311875   1.706   0.332   0.238 -0.1798 -0.8370  1.0325
  806MPD2     N11876   1.778   0.769   0.390 -0.3576 -0.1766  0.2389
  806MPD2    H511877   1.790   0.819   0.477  1.5304  2.3841 -1.4989
  806MPD2    N111878   1.711   0.404   0.688 -0.8546  0.1415 -0.2847
  806MPD2    H711879   1.721   0.304   0.707 -1.0378  0.2277  0.2639
  807MPD2     C11880   1.379   0.524   1.502  0.1272 -0.4923 -0.3987
  807MPD2    C111881   1.412   0.399   1.455 -0.2555  0.0014  1.2377
  807MPD2    C211882   1.390   0.297   1.546 -0.0002 -0.1999 -0.0617
  807MPD2    C311883   1.330   0.314   1.670  0.4732 -0.2210 -0.3555
  807MPD2    C411884   1.297   0.443   1.708  0.4163  0.1132 -0.4357
  807MPD2    C511885   1.315   0.547   1.625  0.2747  0.2428  0.2235
  807MPD2     H11886   1.420   0.196   1.520 -2.6131 -1.0021  0.0189
  807MPD2    H111887   1.250   0.460   1.804 -0.0925  0.6049 -0.7717
  807MPD2    H211888   1.391   0.608   1.436  0.9338  0.7181  1.2972
  807MPD2    H311889   1.296   0.649   1.656 -0.5241 -0.6163  2.5351
  807MPD2     N11890   1.320   0.204   1.758  0.2049 -0.2023 -0.1547
  807MPD2    H511891   1.365   0.115   1.735 -1.0360 -0.3892 -1.9060
  807MPD2    N111892   1.492   0.367   1.341 -1.0665  0.1979  0.1050
  807MPD2    H711893   1.520   0.270   1.325  0.2757  0.7222 -0.6818
  808MPD2     C11894   1.082   2.158   9.512 -0.8959 -0.0555  0.8177
  808MPD2    C111895   1.166   2.186   9.618 -1.0944 -0.2948 -0.2798
  808MPD2    C211896   1.218   2.312   9.631 -0.5811  0.8205 -0.1364
  808MPD2    C311897   1.182   2.417   9.537 -0.5541  0.6813  0.3152
  808MPD2    C411898   1.084   2.381   9.440 -0.6945  0.7090  0.0422
  808MPD2    C511899   1.049   2.255   9.426  0.8605 -1.0410 -0.3952
  808MPD2     H11900   1.273   2.353   9.715 -1.4419  1.0331  0.3195
  808MPD2    H111901   1.051   2.452   9.365 -0.5584 -0.1432 -0.8440
  808MPD2    H211902   1.046   2.058   9.491 -3.1963  1.1598 -0.9206
  808MPD2    H311903   0.973   2.224   9.356 -2.7549  0.9733  2.6158
  808MPD2     N11904   1.237   2.546   9.523  0.1810 -0.4488  0.1243
  808MPD2    H511905   1.211   2.592   9.436  1.0849  1.7984  1.0672
  808MPD2    N111906   1.211   2.100   9.714 -0.0924 -0.1399 -0.3391
  808MPD2    H711907   1.271   2.137   9.787 -1.3242 -0.4969  0.8546
  809MPD2     C11908   1.519   2.712   8.799 -0.6646 -0.4123 -0.3955
  809MPD2    C111909   1.624   2.756   8.879 -0.1891  0.4837 -0.1164
  809MPD2    C211910   1.600   2.793   9.009  0.6469 -0.4926 -0.0887
  809MPD2    C311911   1.466   2.810   9.058 -0.1892 -0.3199  0.1308
  809MPD2    C411912   1.363   2.767   8.974 -0.2481 -0.3278 -0.7054
  809MPD2    C511913   1.392   2.727   8.845 -0.6333 -0.4682 -0.3515
  809MPD2     H11914   1.688   2.819   9.067 -0.5896  2.5539  0.3961
  809MPD2    H111915   1.261   2.776   9.011 -0.7882 -1.6440 -1.8826
  809MPD2    H211916   1.531   2.672   8.699 -0.9873  0.7512 -0.9058
  809MPD2    H311917   1.309   2.705   8.779 -0.7841  0.1140 -0.3504
  809MPD2     N11918   1.429   2.838   9.196 -0.2384 -0.1515 -0.0980
  809MPD2    H511919   1.329   2.841   9.213 -0.2792  0.3313 -0.4210
  809MPD2    N111920   1.756   2.747   8.836  0.2424 -0.2642  0.3512
  809MPD2    H711921   1.829   2.772   8.902  0.5211  1.4124 -0.5848
  810MPD2     C11922   1.905   1.749  10.259 -0.0223 -0.4639 -0.5458
  810MPD2    C111923   1.834   1.649  10.328  0.4504 -0.4462  0.4733
  810MPD2    C211924   1.881   1.597  10.449 -0.0411 -0.0671 -0.5368
  810MPD2    C311925   2.002   1.647  10.494  0.1948 -0.5472 -0.0977
  810MPD2    C411926   2.079   1.737  10.422  0.7240 -0.1270 -0.0961
  810MPD2    C511927   2.035   1.786  10.302 -0.0941  1.2481 -0.0213
  810MPD2     H11928   1.822   1.541  10.521  1.8700 -1.5308 -0.0819
  810MPD2    H111929   2.178   1.772  10.451  0.7187  0.7833 -1.1893
  810MPD2    H211930   1.859   1.774  10.164 -0.9762  0.8224  0.2542
  810MPD2    H311931   2.097   1.855  10.245  0.9147  1.3155  1.1726
  810MPD2     N11932   2.055   1.599  10.617  0.1712  0.2887  0.1880
  810MPD2    H511933   2.157   1.599  10.619  0.1749  0.6956 -0.1024
  810MPD2    N111934   1.703   1.621  10.291 -1.2579  0.3402  0.5553
  810MPD2    H711935   1.662   1.670  10.212  0.0287  1.9897  0.9211
  811MPD2     C11936   0.896   1.680  10.043  0.4604 -0.1484 -0.1255
  811MPD2    C111937   0.999   1.755  10.107  0.4675 -0.0037 -0.3920
  811MPD2    C211938   1.011   1.889  10.082  0.8378 -0.7326  0.0739
  811MPD2    C311939   0.943   1.937   9.978 -0.2514  0.7713  0.4483
  811MPD2    C411940   0.862   1.860   9.900  0.3788  0.3789 -0.6592
  811MPD2    C511941   0.844   1.732   9.931 -0.6457 -0.4235 -0.1471
  811MPD2     H11942   1.065   1.961  10.142 -1.6082 -0.7438  2.2785
  811MPD2    H111943   0.803   1.891   9.814 -1.0134  0.2325  0.2517
  811MPD2    H211944   0.886   1.573  10.062 -2.0817  0.2462  0.7365
  811MPD2    H311945   0.772   1.675   9.874  1.0189 -2.3788 -0.2994
  811MPD2     N11946   0.953   2.080   9.953  0.0857  0.2840 -0.1184
  811MPD2    H511947   0.994   2.136  10.027 -1.1893  0.5078  0.4130
  811MPD2    N111948   1.085   1.685  10.191 -0.2236 -1.0655 -0.0210
  811MPD2    H711949   1.066   1.586  10.199  2.6197 -1.6836 -0.9065
  812MPD2     C11950   0.502   1.220  12.175  0.3246  0.4220  0.3121
  812MPD2    C111951   0.458   1.293  12.279  0.1623 -0.9387 -0.7532
  812MPD2    C211952   0.391   1.230  12.387  0.2028 -0.0544 -0.2981
  812MPD2    C311953   0.377   1.093  12.390 -0.1513 -0.1253 -0.6205
  812MPD2    C411954   0.430   1.025  12.283  0.0946  0.0702 -0.3431
  812MPD2    C511955   0.487   1.089  12.175 -0.1103 -0.1999 -0.0483
  812MPD2     H11956   0.354   1.286  12.471 -1.8909 -0.7672 -0.7625
  812MPD2    H111957   0.423   0.917  12.284  0.1197  0.0636 -1.1777
  812MPD2    H211958   0.544   1.275  12.092 -0.0331 -1.1041 -0.8682
  812MPD2    H311959   0.523   1.042  12.085  0.7574 -0.5499  0.4822
  812MPD2     N11960   0.308   1.043  12.500  0.4400 -0.1582  0.3714
  812MPD2    H511961   0.273   1.103  12.574 -1.3428 -0.1087 -0.5314
  812MPD2    N111962   0.474   1.428  12.272 -1.0791 -0.1145 -0.0146
  812MPD2    H711963   0.546   1.470  12.214 -0.7660  0.1595  0.5685
  813MPD2     C11964   4.336   2.891  13.393 -0.0582 -0.3593 -0.7295
  813MPD2    C111965   4.293   3.014  13.353 -0.1689  0.8314  0.0298
  813MPD2    C211966   4.175   3.065  13.405 -0.4048  0.3527  0.6041
  813MPD2    C311967   4.089   2.988  13.483 -0.9629 -0.1518  0.0138
  813MPD2    C411968   4.125   2.861  13.516 -0.2259  0.0626  0.5031
  813MPD2    C511969   4.246   2.816  13.470 -0.9808  0.1128  0.4810
  813MPD2     H11970   4.146   3.163  13.369  1.0769  1.2548  1.8559
  813MPD2    H111971   4.075   2.790  13.581  3.1664 -1.3313  1.6221
  813MPD2    H211972   4.423   2.837  13.356  0.3880 -1.2831  1.6596
  813MPD2    H311973   4.273   2.719  13.510 -3.1206 -1.4387 -1.7386
  813MPD2     N11974   3.971   3.050  13.539 -0.5425  0.5368 -0.4023
  813MPD2    H511975   3.956   3.148  13.517  0.3994  1.0942  1.4499
  813MPD2    N111976   4.363   3.108  13.278 -0.3492 -0.8294  0.1055
  813MPD2    H711977   4.300   3.183  13.250  0.1506  0.2697  1.9455
  814MPD2     C11978   4.703   4.366  12.453 -0.2141 -0.6143 -0.0068
  814MPD2    C111979   4.707   4.434  12.335 -0.2918  0.1453 -0.0753
  814MPD2    C211980   4.714   4.571  12.348  0.3158 -0.4690 -0.0472
  814MPD2    C311981   0.004   4.633  12.473  0.0877 -0.7865 -0.6049
  814MPD2    C411982   4.712   4.555  12.587  0.5071 -0.4987 -0.0130
  814MPD2    C511983   4.698   4.419  12.575 -0.2216 -0.5813  0.3236
  814MPD2     H11984   4.719   4.633  12.259 -0.9812  1.2399  1.0515
  814MPD2    H111985   0.004   4.602  12.684 -0.4533 -1.2629  0.4827
  814MPD2    H211986   4.697   4.258  12.438 -0.9562 -0.3385 -1.6717
  814MPD2    H311987   4.679   4.353  12.659  1.5866 -0.8861  0.4899
  814MPD2     N11988   0.023   0.053  12.489 -0.1009 -0.3571  0.3944
  814MPD2    H511989   0.055   0.076  12.582  2.1709 -0.2946 -0.3933
  814MPD2    N111990   4.710   4.380  12.208  0.5003 -0.1991  0.3268
  814MPD2    H711991   0.005   4.446  12.133  1.0003 -0.0035  0.6087
  815MPD2     C11992   0.466   3.052  11.924 -0.8675  0.3046  0.2999
  815MPD2    C111993   0.440   2.927  11.889 -0.0962 -0.6200  0.1941
  815MPD2    C211994   0.329   2.866  11.953 -0.0008  0.0380 -0.6921
  815MPD2    C311995   0.251   2.927  12.046 -0.1890  0.1606 -0.3612
  815MPD2    C411996   0.283   3.057  12.085  0.3636 -0.6342  0.1185
  815MPD2    C511997   0.386   3.117  12.019 -0.2166 -0.3891 -0.1517
  815MPD2     H11998   0.297   2.769  11.918  1.1588 -0.9132  0.8845
  815MPD2    H111999   0.223   3.117  12.153 -3.0972 -1.3237 -2.3241
  815MPD2    H212000   0.548   3.107  11.879 -0.2690 -0.4677  0.4503
  815MPD2    H312001   0.409   3.222  12.037  2.4955 -0.9765 -0.2087
  815MPD2     N12002   0.136   2.862  12.090 -0.4921  0.2826 -1.1844
  815MPD2    H512003   0.124   2.772  12.045  1.0662 -1.4339  1.8445
  815MPD2    N112004   0.526   2.875  11.794  0.7454  0.2512 -0.1846
  815MPD2    H712005   0.602   2.936  11.766 -0.3883  0.8198 -2.0718
  816MPD2     C12006   0.162   1.841  17.461 -0.2325 -1.1344 -0.3301
  816MPD2    C112007   0.146   1.956  17.391 -0.2783  0.3800 -0.1405
  816MPD2    C212008   0.237   1.975  17.289 -0.1247  0.8480  0.3326
  816MPD2    C312009   0.342   1.887  17.257  0.4283  0.1987 -0.0675
  816MPD2    C412010   0.359   1.771  17.334  0.4189  1.0992  0.3272
  816MPD2    C512011   0.261   1.751  17.434 -0.1930  0.3668 -0.3949
  816MPD2     H12012   0.238   2.063  17.227  0.4004  0.4060 -0.2789
  816MPD2    H112013   0.435   1.694  17.322 -0.2127  0.6370 -0.6611
  816MPD2    H212014   0.096   1.819  17.544 -0.6859  0.1614 -0.3544
  816MPD2    H312015   0.259   1.672  17.508  1.1023  0.1367 -0.6127
  816MPD2     N12016   0.432   1.918  17.157  0.2883 -0.3793  0.6092
  816MPD2    H512017   0.421   2.012  17.122  0.7050 -0.5221  0.1056
  816MPD2    N112018   0.035   2.037  17.416 -0.1525 -0.1267 -0.1141
  816MPD2    H712019   4.682   2.001  17.476 -0.4738  0.3963 -0.2026
  817MPD2     C12020   4.513   3.915   9.867  0.1432 -0.6044 -0.0026
  817MPD2    C112021   4.569   3.917   9.739 -0.3562 -0.3795 -0.0534
  817MPD2    C212022   4.550   4.025   9.656 -0.7404  0.0140 -0.0131
  817MPD2    C312023   4.478   4.138   9.685  0.0684  0.0702 -0.4854
  817MPD2    C412024   4.416   4.133   9.807  0.0752 -0.1675 -0.3767
  817MPD2    C512025   4.439   4.026   9.897 -0.3597 -0.0972 -0.0458
  817MPD2     H12026   4.582   4.032   9.553  1.1510 -0.3756  0.5452
  817MPD2    H112027   4.352   4.208   9.853  2.4557  1.3793  0.3881
  817MPD2    H212028   4.527   3.833   9.937 -0.8074 -1.6032 -0.9892
  817MPD2    H312029   4.388   4.031   9.993 -0.2990  0.7855 -0.0541
  817MPD2     N12030   4.462   4.237   9.584  0.0083  0.2347 -0.1864
  817MPD2    H512031   4.533   4.227   9.512 -0.1712 -0.2706 -0.2913
  817MPD2    N112032   4.646   3.806   9.691 -0.0642 -0.3351  0.5309
  817MPD2    H712033   4.693   3.823   9.603 -1.8129 -3.5845 -1.0280
  818MPD2     C12034   3.477   3.870  10.065 -0.4299 -0.8192 -0.4710
  818MPD2    C112035   3.453   3.740  10.108 -0.1585 -0.7857  0.1217
  818MPD2    C212036   3.498   3.639  10.031 -0.4685 -0.7046 -0.4405
  818MPD2    C312037   3.557   3.658   9.907 -0.3923 -0.6108 -0.3191
  818MPD2    C412038   3.557   3.784   9.852  0.1868 -0.0116 -0.7356
  818MPD2    C512039   3.515   3.889   9.931  0.3529 -0.3009 -0.3632
  818MPD2     H12040   3.499   3.540  10.075  2.8119 -0.9351 -0.9837
  818MPD2    H112041   3.602   3.802   9.755 -0.8095 -1.0130 -1.3663
  818MPD2    H212042   3.455   3.963  10.116  0.3103  0.3345 -2.2530
  818MPD2    H312043   3.518   3.991   9.894 -0.1576  0.5020  1.7715
  818MPD2     N12044   3.628   3.557   9.841 -0.1438 -0.7394 -0.3375
  818MPD2    H512045   3.675   3.572   9.752  2.0021  2.6493  1.3362
  818MPD2    N112046   3.400   3.706  10.233 -0.8073 -0.2635  0.9389
  818MPD2    H712047   3.382   3.609  10.257 -0.5164 -0.7282 -0.6912
  819MPD2     C12048   1.913   0.470  15.682 -0.0795  0.0860  0.3713
  819MPD2    C112049   1.996   0.384  15.621 -0.4230  0.2630 -0.1947
  819MPD2    C212050   2.117   0.349  15.684  1.0819 -0.3717  0.4726
  819MPD2    C312051   2.163   0.415  15.796  0.1107 -0.3574 -0.3024
  819MPD2    C412052   2.080   0.501  15.858  0.1415  0.0929 -0.3852
  819MPD2    C512053   1.955   0.526  15.804  0.1151  0.9397 -0.5022
  819MPD2     H12054   2.183   0.276  15.638  0.3554 -0.7021 -0.0462
  819MPD2    H112055   2.095   0.561  15.947 -0.7352 -1.3695  0.7459
  819MPD2    H212056   1.812   0.486  15.645 -0.4607 -1.8533  0.5582
  819MPD2    H312057   1.892   0.602  15.850 -1.8505 -1.3950  0.6936
  819MPD2     N12058   2.300   0.399  15.823  0.1112  0.1157 -0.5544
  819MPD2    H512059   2.354   0.337  15.764 -1.5176 -2.0266  0.2267
  819MPD2    N112060   1.951   0.335  15.496 -0.2019 -0.2449 -0.6412
  819MPD2    H712061   1.862   0.376  15.470  0.4204  1.3199 -0.3139
  820MPD2     C12062   1.090   0.211  15.086 -0.0628 -0.2375 -0.3705
  820MPD2    C112063   1.173   0.288  15.160  0.2803  0.1710  0.4265
  820MPD2    C212064   1.302   0.252  15.190 -1.0172  0.2306  0.0482
  820MPD2    C312065   1.354   0.133  15.144  0.1952  0.0135 -0.3782
  820MPD2    C412066   1.276   0.049  15.069 -0.3753  0.1052  0.0725
  820MPD2    C512067   1.142   0.091  15.039  0.2451 -0.0773  0.4427
  820MPD2     H12068   1.355   0.324  15.251 -1.6339 -0.1862  1.0754
  820MPD2    H112069   1.317   4.676  15.036  0.8816  0.2506  1.2042
  820MPD2    H212070   0.997   0.244  15.041  0.8459  0.4786 -1.7408
  820MPD2    H312071   1.091   0.016  14.979  0.2647 -0.9982  1.5717
  820MPD2     N12072   1.490   0.099  15.160 -0.5564 -1.0010 -0.3494
  820MPD2    H512073   1.516   0.011  15.117 -1.4694 -1.9744  1.1135
  820MPD2    N112074   1.119   0.420  15.193 -0.0447 -0.2067  0.4077
  820MPD2    H712075   1.023   0.428  15.162 -0.8067  1.7549  3.1984
  821MPD2     C12076   1.494   1.911  13.152 -0.1803 -0.2689  0.2595
  821MPD2    C112077   1.612   1.917  13.225  0.0132  0.0384 -0.0790
  821MPD2    C212078   1.727   1.974  13.173 -0.0938  0.2292 -0.5704
  821MPD2    C312079   1.722   2.038  13.047 -0.0082 -0.4837  0.2572
  821MPD2    C412080   1.608   2.024  12.971  0.4786 -0.1200 -0.3633
  821MPD2    C512081   1.497   1.957  13.021 -0.4697 -0.5682 -0.2198
  821MPD2     H12082   1.817   1.967  13.232 -2.3779 -0.2614  2.8750
  821MPD2    H112083   1.598   2.076  12.877 -0.7998  0.4353  0.0795
  821MPD2    H212084   1.409   1.857  13.191 -0.6630  0.6361  0.4654
  821MPD2    H312085   1.412   1.943  12.955 -0.2345 -2.2222 -0.1808
  821MPD2     N12086   1.831   2.101  12.995  0.7084 -0.1535 -0.0560
  821MPD2    H512087   1.814   2.117  12.897 -0.6815 -0.4006  0.1538
  821MPD2    N112088   1.618   1.874  13.356  0.0417  0.1125 -0.1869
  821MPD2    H712089   1.714   1.868  13.388 -0.4836 -1.2941  1.1899
  822MPD2     C12090   2.812   1.976  15.818  1.0339 -0.3985  0.2297
  822MPD2    C112091   2.763   1.912  15.933  0.8434  0.5442  0.1634
  822MPD2    C212092   2.652   1.951  15.987  0.0226  0.0618  0.1935
  822MPD2    C312093   2.581   2.058  15.948 -0.1433 -1.2728 -0.3737
  822MPD2    C412094   2.621   2.122  15.833  0.5091  0.1363 -0.1322
  822MPD2    C512095   2.733   2.079  15.774  0.2125  0.0712  0.3467
  822MPD2     H12096   2.616   1.910  16.081  0.6257  2.3232  1.4115
  822MPD2    H112097   2.571   2.203  15.780 -1.1343 -0.3270  0.7039
  822MPD2    H212098   2.903   1.952  15.765  0.1535 -1.7405 -0.6663
  822MPD2    H312099   2.770   2.133  15.687 -1.2480  0.2120 -0.1995
  822MPD2     N12100   2.464   2.090  16.028  0.5045 -0.4975 -1.0226
  822MPD2    H512101   2.450   2.033  16.111  3.1690  0.3726 -0.0004
  822MPD2    N112102   2.835   1.807  16.003 -0.2522  0.2173 -0.0325
  822MPD2    H712103   2.795   1.783  16.094  1.5410 -2.2810  0.1144
  823MPD2     C12104   2.077   2.162  16.778 -0.6930 -0.1644  0.6661
  823MPD2    C112105   2.126   2.092  16.672  0.2384 -0.3349 -0.6512
  823MPD2    C212106   2.165   1.955  16.689 -0.5949  0.2935 -0.0472
  823MPD2    C312107   2.129   1.894  16.815 -0.1661 -0.1898 -0.8953
  823MPD2    C412108   2.066   1.970  16.916 -0.2715 -0.0470 -0.3543
  823MPD2    C512109   2.037   2.105  16.898 -0.1426 -0.5089  0.5071
  823MPD2     H12110   2.213   1.902  16.608 -0.0046  0.2398  0.3366
  823MPD2    H112111   2.039   1.929  17.013  1.0652 -0.8083 -0.3063
  823MPD2    H212112   2.054   2.267  16.761  2.8551  0.2519 -1.6224
  823MPD2    H312113   1.996   2.160  16.981  0.7858  0.1462  0.5392
  823MPD2     N12114   2.169   1.763  16.848 -0.0988 -0.5075 -0.3532
  823MPD2    H512115   2.141   1.725  16.938  1.2921  2.3893  1.3016
  823MPD2    N112116   2.139   2.158  16.545  0.3237  0.1283  0.0183
  823MPD2    H712117   2.125   2.258  16.546 -1.4860 -0.1157 -0.3814
  824MPD2     C12118   3.017   1.024  15.823  0.5153  0.1648  0.0297
  824MPD2    C112119   3.053   1.154  15.791 -0.1039 -0.0798  0.5629
  824MPD2    C212120   3.116   1.174  15.667 -0.1278 -0.4868  0.0258
  824MPD2    C312121   3.146   1.060  15.586  0.6226 -0.6942 -0.2789
  824MPD2    C412122   3.108   0.935  15.628 -0.9737 -0.1895 -0.4161
  824MPD2    C512123   3.041   0.920  15.745 -0.2253  0.0596 -0.9253
  824MPD2     H12124   3.155   1.269  15.633 -0.3358  0.0696  1.3577
  824MPD2    H112125   3.106   0.853  15.557 -2.6310 -1.4615  1.0968
  824MPD2    H212126   2.987   1.009  15.926 -0.0397 -0.5738 -0.2349
  824MPD2    H312127   2.998   0.827  15.779  0.4288  0.8172  1.9467
  824MPD2     N12128   3.235   1.081  15.486 -0.4431  0.6655  0.0369
  824MPD2    H512129   3.280   1.170  15.471 -0.7621  1.1406  1.8999
  824MPD2    N112130   3.043   1.264  15.881  0.5601 -0.6743 -0.8093
  824MPD2    H712131   3.082   1.350  15.844  1.8640 -1.3650 -1.0291
  825MPD2     C12132   3.435   1.602  15.121 -0.4357  0.1355 -0.1825
  825MPD2    C112133   3.493   1.566  15.239  0.3961 -0.2490  0.6530
  825MPD2    C212134   3.535   1.659  15.325  0.4159  0.0183 -0.0602
  825MPD2    C312135   3.519   1.797  15.299  0.3732  0.3583 -0.1968
  825MPD2    C412136   3.462   1.838  15.183 -0.3683  0.4983 -0.3123
  825MPD2    C512137   3.422   1.737  15.102  0.2141 -0.3624  0.1582
  825MPD2     H12138   3.567   1.627  15.423  0.3407 -1.0940 -0.3959
  825MPD2    H112139   3.447   1.944  15.162 -0.4670  0.3147 -1.1699
  825MPD2    H212140   3.395   1.538  15.043  1.1194 -1.0937  0.0422
  825MPD2    H312141   3.368   1.759  15.011 -0.1202 -0.6247  0.2932
  825MPD2     N12142   3.547   1.898  15.390 -0.3467  0.1016  0.4558
  825MPD2    H512143   3.514   1.991  15.368  0.4043  0.6728  1.7222
  825MPD2    N112144   3.505   1.426  15.259  0.2415  0.2776  0.2323
  825MPD2    H712145   3.457   1.361  15.197 -1.9360  1.8144  0.2990
  826MPD2     C12146   3.130   1.274  13.988 -0.3266  0.6047 -0.0149
  826MPD2    C112147   3.023   1.278  13.899  0.6120  0.5932  0.1829
  826MPD2    C212148   2.969   1.400  13.868 -0.7335 -0.3479 -0.5809
  826MPD2    C312149   3.023   1.512  13.913  0.5886  0.4145 -0.0334
  826MPD2    C412150   3.122   1.505  14.004 -0.0029  0.5871  0.0604
  826MPD2    C512151   3.183   1.389  14.032 -0.4280 -0.2620  0.3608
  826MPD2     H12152   2.884   1.409  13.801 -1.0691 -0.2596 -0.1441
  826MPD2    H112153   3.172   1.593  14.043 -0.3537  1.2142 -0.9131
  826MPD2    H212154   3.172   1.182  14.027  2.7421  0.9056 -2.5480
  826MPD2    H312155   3.273   1.387  14.093  0.5134 -1.2772 -1.0601
  826MPD2     N12156   2.983   1.640  13.876  0.0074 -0.2982  0.3937
  826MPD2    H512157   3.021   1.720  13.926 -0.0412  0.8713 -1.4531
  826MPD2    N112158   2.971   1.155  13.855  0.0198  0.1761  0.3081
  826MPD2    H712159   3.038   1.079  13.865  1.0017  0.9282 -0.5699
  827MPD2     C12160   4.074   2.599   9.928 -0.3824  0.0654 -0.4772
  827MPD2    C112161   4.054   2.473   9.978  0.3698  0.6660  0.7846
  827MPD2    C212162   3.958   2.388   9.925 -0.2379 -0.6099  0.5290
  827MPD2    C312163   3.883   2.432   9.812  0.4188 -1.3064  0.1197
  827MPD2    C412164   3.890   2.563   9.782 -0.5184 -0.4867 -0.1958
  827MPD2    C512165   3.977   2.644   9.847  0.6345 -0.1920  0.0270
  827MPD2     H12166   3.942   2.287   9.962 -2.9417 -0.9783 -1.7043
  827MPD2    H112167   3.834   2.621   9.710  2.8826 -0.4300 -2.7837
  827MPD2    H212168   4.148   2.669   9.967 -0.7121  1.0335 -1.6003
  827MPD2    H312169   3.981   2.750   9.821  0.9500 -0.3430 -0.5543
  827MPD2     N12170   3.792   2.341   9.758 -0.3036 -0.0499  0.0864
  827MPD2    H512171   3.783   2.253   9.807 -0.5128  1.0406  2.0301
  827MPD2    N112172   4.113   2.436  10.100 -0.5200 -0.2092  0.0708
  827MPD2    H712173   4.182   2.505  10.129  0.0734 -0.6342 -0.3293
  828MPD2     C12174   2.236   1.889  12.755  0.1879  0.7635  0.7301
  828MPD2    C112175   2.269   1.914  12.621 -0.2672 -0.1337 -0.8449
  828MPD2    C212176   2.401   1.931  12.593 -0.6796 -0.0075 -0.1613
  828MPD2    C312177   2.503   1.915  12.690  0.3089  0.2511  0.5293
  828MPD2    C412178   2.470   1.903  12.821 -0.5596  0.8957  0.6588
  828MPD2    C512179   2.335   1.889  12.854  0.0494  0.0568 -0.1526
  828MPD2     H12180   2.418   1.951  12.488  0.3336 -2.4007 -0.4634
  828MPD2    H112181   2.553   1.890  12.889 -0.6511  0.1674  0.6360
  828MPD2    H212182   2.130   1.885  12.778  0.0168 -0.3950 -0.2873
  828MPD2    H312183   2.298   1.864  12.953  0.5113  0.5455  0.1434
  828MPD2     N12184   2.638   1.902  12.649 -0.4416  0.1322 -0.0734
  828MPD2    H512185   2.705   1.901  12.725 -2.3131  0.2610  1.5847
  828MPD2    N112186   2.181   1.923  12.515 -0.1095  0.0636  0.4242
  828MPD2    H712187   2.225   1.930  12.423  0.2781  1.5968  0.7242
  829MPD2     C12188   2.431   2.136  11.747 -0.0760  0.1373 -0.4201
  829MPD2    C112189   2.300   2.162  11.721  0.3868  0.4900 -0.2039
  829MPD2    C212190   2.207   2.141  11.821 -0.4967 -1.0233 -0.0830
  829MPD2    C312191   2.251   2.106  11.954  0.6992 -0.2354  0.0432
  829MPD2    C412192   2.389   2.094  11.980  0.4062  0.0732 -0.2035
  829MPD2    C512193   2.477   2.109  11.873 -0.4926 -0.1284 -0.5184
  829MPD2     H12194   2.105   2.173  11.808 -0.5860 -0.7129  1.3872
  829MPD2    H112195   2.428   2.061  12.076  0.3644  0.2949 -0.1100
  829MPD2    H212196   2.512   2.145  11.676 -0.1860 -0.3748 -0.6099
  829MPD2    H312197   2.583   2.111  11.893 -0.9437 -2.0984  2.1533
  829MPD2     N12198   2.162   2.099  12.061  0.0887  0.3005 -0.4093
  829MPD2    H512199   2.206   2.088  12.152  0.0983  1.5728 -0.2613
  829MPD2    N112200   2.272   2.191  11.585  0.5271  0.0966  0.6788
  829MPD2    H712201   2.353   2.188  11.524 -0.1281 -1.2818 -0.1024
  830MPD2     C12202   3.111   0.432  15.541  0.3839 -0.0395  0.0641
  830MPD2    C112203   2.980   0.462  15.538  0.6778  0.2403 -0.2315
  830MPD2    C212204   2.945   0.562  15.444 -0.5231  1.3564  0.6942
  830MPD2    C312205   3.034   0.607  15.349  0.0894 -0.1243  0.5668
  830MPD2    C412206   3.162   0.578  15.363  0.5512  0.5434  0.3256
  830MPD2    C512207   3.207   0.497  15.466  0.2675  0.4743  0.1983
  830MPD2     H12208   2.844   0.601  15.438 -1.5310 -1.3684 -0.1774
  830MPD2    H112209   3.243   0.623  15.308  1.8895 -1.4367  0.6889
  830MPD2    H212210   3.137   0.347  15.602  3.4466  1.1505  0.4187
  830MPD2    H312211   3.312   0.469  15.473  0.2818  1.0033  2.1228
  830MPD2     N12212   3.003   0.697  15.239 -0.1922  0.0847 -0.2649
  830MPD2    H512213   3.078   0.737  15.185 -0.5784  1.5142  0.2753
  830MPD2    N112214   2.902   0.408  15.651 -0.2112  0.6437 -0.5602
  830MPD2    H712215   2.944   0.362  15.731 -1.9538  1.2358  0.6827
  831MPD2     C12216   2.602   2.224  16.518  0.5709  0.3207 -0.9320
  831MPD2    C112217   2.660   2.154  16.413 -0.0122  0.0130 -0.3843
  831MPD2    C212218   2.634   2.018  16.395  0.4392  0.4199  0.1399
  831MPD2    C312219   2.560   1.943  16.480  0.6086  0.2686  0.9845
  831MPD2    C412220   2.500   2.018  16.581 -0.5299  0.3213 -0.0870
  831MPD2    C512221   2.519   2.151  16.603  0.2665  0.0164  0.2621
  831MPD2     H12222   2.679   1.969  16.310 -0.4029 -0.3497  0.1397
  831MPD2    H112223   2.432   1.964  16.646  0.1199 -1.6328 -1.0256
  831MPD2    H212224   2.616   2.329  16.540 -1.5995  0.0840  1.6419
  831MPD2    H312225   2.471   2.197  16.688 -2.4827 -1.0358 -0.7437
  831MPD2     N12226   2.523   1.808  16.453  0.7138  0.1646 -0.1341
  831MPD2    H512227   2.443   1.775  16.506  0.4404 -1.6128 -1.6416
  831MPD2    N112228   2.737   2.241  16.323  0.0732  0.1570  0.6780
  831MPD2    H712229   2.751   2.339  16.343  4.5302 -0.2102 -0.6807
  832MPD2     C12230   0.771   3.084  17.326  1.0585  0.4348 -0.1929
  832MPD2    C112231   0.695   3.193  17.361 -0.0792 -0.0773  0.4394
  832MPD2    C212232   0.570   3.209  17.311 -0.0219 -0.6620  0.1858
  832MPD2    C312233   0.509   3.111  17.227 -0.4037  0.0037  0.0591
  832MPD2    C412234   0.585   3.003  17.196 -0.0358 -0.2021 -0.2161
  832MPD2    C512235   0.707   2.987  17.250  0.2173  0.4591 -0.4793
  832MPD2     H12236   0.508   3.292  17.343 -0.2952 -1.1761  0.9824
  832MPD2    H112237   0.546   2.923  17.134  0.0062 -1.3440  1.2258
  832MPD2    H212238   0.875   3.074  17.357  0.7435 -2.3538 -0.0705
  832MPD2    H312239   0.766   2.902  17.218 -0.2964 -0.1496  0.2112
  832MPD2     N12240   0.372   3.119  17.177  0.1685 -0.0899  0.2989
  832MPD2    H512241   0.338   3.032  17.137 -0.6737  0.7956 -0.9020
  832MPD2    N112242   0.759   3.290  17.446 -0.4833  0.5144 -0.0852
  832MPD2    H712243   0.860   3.297  17.454 -0.3930 -1.3362  0.3695
  833MPD2     C12244   3.152   4.543  12.741 -0.7257 -0.1719  0.4406
  833MPD2    C112245   3.217   4.628  12.656 -0.3967  0.3227  0.9326
  833MPD2    C212246   3.343   4.584  12.605  0.5543  0.4230 -0.0542
  833MPD2    C312247   3.393   4.457  12.639 -0.0260  0.5468 -0.6455
  833MPD2    C412248   3.320   4.377  12.719 -0.8427  0.2194  0.9942
  833MPD2    C512249   3.204   4.420  12.778  0.0004  0.2581  0.2849
  833MPD2     H12250   3.412   4.628  12.534  2.7032 -2.2711  0.4070
  833MPD2    H112251   3.345   4.278  12.755  2.2378  0.0499 -1.6028
  833MPD2    H212252   3.056   4.566  12.786 -1.2006 -0.4652 -0.4315
  833MPD2    H312253   3.147   4.352  12.840 -0.4832  0.4917  0.0966
  833MPD2     N12254   3.518   4.425  12.583 -0.1045 -0.2005  0.2085
  833MPD2    H512255   3.564   4.494  12.525 -0.4142  1.3276  1.7624
  833MPD2    N112256   3.154   0.027  12.612 -0.8173  0.1314 -0.1017
  833MPD2    H712257   3.058   0.051  12.637 -1.6539 -3.2034 -0.1690
  834MPD2     C12258   3.807   3.596  12.140  0.1733 -0.4183  0.0795
  834MPD2    C112259   3.725   3.671  12.052  0.0014 -0.3193 -0.3732
  834MPD2    C212260   3.687   3.797  12.100 -0.2005 -0.1647 -0.5655
  834MPD2    C312261   3.738   3.853  12.213  0.3924 -0.0608 -0.3195
  834MPD2    C412262   3.821   3.775  12.294 -0.4130 -0.5054  0.9574
  834MPD2    C512263   3.853   3.643  12.259 -0.6791  0.0500  0.0963
  834MPD2     H12264   3.609   3.849  12.045 -2.6092 -1.7222  1.4230
  834MPD2    H112265   3.850   3.815  12.390 -0.5594  2.2099 -0.1414
  834MPD2    H212266   3.849   3.502  12.105 -0.8665 -0.9580  0.2693
  834MPD2    H312267   3.923   3.581  12.313 -0.3600  0.8712  0.6390
  834MPD2     N12268   3.712   3.987  12.263 -0.1535 -0.2380 -0.0180
  834MPD2    H512269   3.748   4.007  12.355 -1.4900  0.0288  0.4467
  834MPD2    N112270   3.668   3.604  11.942  0.4951  0.6033  0.0792
  834MPD2    H712271   3.677   3.504  11.935  1.8516  0.8024 -0.8878
  835MPD2     C12272   3.112   2.136  10.525 -0.2557  0.0012  0.3402
  835MPD2    C112273   2.999   2.216  10.537  0.6809  0.0284  0.6344
  835MPD2    C212274   2.945   2.219  10.663  0.0991  0.1506 -0.4220
  835MPD2    C312275   3.007   2.156  10.774  0.8454  0.1742 -0.3953
  835MPD2    C412276   3.122   2.086  10.763 -0.6670 -0.4469  0.0021
  835MPD2    C512277   3.165   2.069  10.630  0.2015 -0.0453  0.0261
  835MPD2     H12278   2.844   2.257  10.671 -0.4354 -1.2548 -0.5479
  835MPD2    H112279   3.170   2.029  10.842 -0.4436  2.0423  1.6628
  835MPD2    H212280   3.167   2.142  10.432  0.7464  0.3143  0.9618
  835MPD2    H312281   3.251   2.010  10.600  0.2538 -1.0297  2.0772
  835MPD2     N12282   2.938   2.141  10.899  0.1617 -0.1986  0.0849
  835MPD2    H512283   2.978   2.081  10.971 -0.9481  0.9771  1.6832
  835MPD2    N112284   2.945   2.280  10.418  0.0897 -0.0538 -0.6235
  835MPD2    H712285   3.009   2.279  10.339  1.8899 -3.1949  0.8856
  836MPD2     C12286   2.364   2.601  11.218 -0.4702  0.4397  0.2383
  836MPD2    C112287   2.426   2.523  11.305  0.8725  0.0380 -0.3365
  836MPD2    C212288   2.379   2.525  11.439  0.0371 -0.0052  0.0537
  836MPD2    C312289   2.257   2.595  11.457 -0.4078 -0.1552 -0.5503
  836MPD2    C412290   2.198   2.677  11.365 -0.0339 -0.4280  0.1557
  836MPD2    C512291   2.253   2.680  11.242 -0.7619 -0.0033 -0.0421
  836MPD2     H12292   2.421   2.462  11.518  2.4685  0.6426 -0.7267
  836MPD2    H112293   2.107   2.731  11.388 -0.5927 -1.3157  0.0238
  836MPD2    H212294   2.388   2.595  11.113 -2.8695  1.7283 -0.3880
  836MPD2    H312295   2.191   2.725  11.166  0.8102  0.7350 -0.8908
  836MPD2     N12296   2.183   2.568  11.572 -0.8128 -0.2248  0.7306
  836MPD2    H512297   2.085   2.592  11.564 -0.6521  0.3146  0.3964
  836MPD2    N112298   2.538   2.452  11.259  0.1270  0.3344  0.0992
  836MPD2    H712299   2.576   2.469  11.166 -0.8272 -1.5160 -0.6209
  837MPD2     C12300   1.296   2.779  10.050  0.1986  0.4048 -0.4084
  837MPD2    C112301   1.158   2.792  10.068 -0.9515 -0.3114 -0.5598
  837MPD2    C212302   1.110   2.915  10.056 -0.4808  0.2582  1.1089
  837MPD2    C312303   1.185   3.028  10.031 -0.3927 -0.7412  0.0051
  837MPD2    C412304   1.320   3.018  10.026  0.5198 -0.4587 -0.1119
  837MPD2    C512305   1.373   2.892  10.037 -0.1230  0.3471  0.1596
  837MPD2     H12306   1.002   2.920  10.049 -0.3665 -2.4641 -2.3897
  837MPD2    H112307   1.389   3.100  10.011  1.1906 -0.9104  0.5181
  837MPD2    H212308   1.360   2.692  10.043  0.9424  0.8432  0.6946
  837MPD2    H312309   1.481   2.885  10.030 -0.5349 -2.9197 -2.4231
  837MPD2     N12310   1.111   3.150   9.999  0.5355 -0.0595  0.2652
  837MPD2    H512311   1.011   3.142  10.013  0.3402 -2.8366 -2.5702
  837MPD2    N112312   1.067   2.691  10.057  0.0181  0.0702  0.3949
  837MPD2    H712313   0.974   2.720  10.084 -0.0529  0.2105  0.0026
  838MPD2     C12314   4.397   0.724  11.932 -0.1939  0.9724  0.4471
  838MPD2    C112315   4.396   0.604  11.861  0.4687  0.8098 -0.2402
  838MPD2    C212316   4.295   0.513  11.883  0.0446 -0.7358  0.6431
  838MPD2    C312317   4.204   0.537  11.990 -0.9093  0.2401  0.4609
  838MPD2    C412318   4.208   0.660  12.057  0.1437 -0.0387 -0.1337
  838MPD2    C512319   4.309   0.752  12.029  0.1014 -0.0289 -0.5292
  838MPD2     H12320   4.287   0.425  11.821 -0.7648 -1.2863  1.5266
  838MPD2    H112321   4.143   0.675  12.142 -0.6831 -2.6248 -0.3259
  838MPD2    H212322   4.471   0.796  11.901  0.4423 -0.0897 -0.5209
  838MPD2    H312323   4.314   0.850  12.076  1.5503 -0.8530  1.0373
  838MPD2     N12324   4.108   0.441  12.030  0.6419  0.4065  0.0313
  838MPD2    H512325   4.054   0.461  12.114  0.9209 -0.5328  0.4363
  838MPD2    N112326   4.491   0.561  11.770  0.3959  0.5711  0.7380
  838MPD2    H712327   4.465   0.475  11.722  2.6261  0.4838 -0.2745
  839MPD2     C12328   4.422   4.484  11.909  0.2059  0.5896  0.4852
  839MPD2    C112329   4.411   4.527  11.778 -0.5988  0.6272  0.6603
  839MPD2    C212330   4.468   4.645  11.736  0.2839  0.6812 -0.2524
  839MPD2    C312331   4.538   0.002  11.829  0.4906 -0.8043  0.1442
  839MPD2    C412332   4.538   4.690  11.961 -0.9403 -0.0841  0.2976
  839MPD2    C512333   4.483   4.568  11.995 -0.1794  0.7263 -0.1330
  839MPD2     H12334   4.470   4.667  11.630 -2.4765  1.1108 -0.2146
  839MPD2    H112335   4.593   0.019  12.040  0.7656 -0.4105 -0.6825
  839MPD2    H212336   4.388   4.390  11.951  0.7523  0.4699  0.6498
  839MPD2    H312337   4.503   4.527  12.093  0.3969 -0.7785 -0.8789
  839MPD2     N12338   4.613   0.116  11.795  0.1894  0.0281 -0.0675
  839MPD2    H512339   4.641   0.168  11.877  0.7833 -0.0821 -0.2032
  839MPD2    N112340   4.347   4.443  11.688  0.3841 -0.4622 -0.6408
  839MPD2    H712341   4.362   4.461  11.589 -1.7113 -0.0092 -0.8729
  840MPD2     C12342   4.651   2.655  10.159 -0.3938  0.3801 -0.5244
  840MPD2    C112343   4.644   2.596  10.286 -0.6963  1.0282 -0.1136
  840MPD2    C212344   4.715   2.655  10.394 -0.2205  0.9297  0.4296
  840MPD2    C312345   0.073   2.767  10.376  0.3107  0.3618 -0.7593
  840MPD2    C412346   0.058   2.831  10.255  0.3087 -1.0920  0.0026
  840MPD2    C512347   4.716   2.770  10.148 -0.1180 -0.0158  0.3158
  840MPD2     H12348   0.000   2.595  10.484  1.3939 -1.0486 -0.9887
  840MPD2    H112349   0.118   2.916  10.221 -0.0507 -1.1887 -0.8760
  840MPD2    H212350   4.610   2.604  10.073 -0.7873  1.9839 -1.2893
  840MPD2    H312351   4.719   2.812  10.047 -0.8690  0.7453  0.6074
  840MPD2     N12352   0.172   2.811  10.464 -0.2172 -0.0961 -0.0058
  840MPD2    H512353   0.212   2.903  10.445 -2.0086  1.0096  1.4800
  840MPD2    N112354   4.546   2.499  10.309 -0.0617  0.5282  0.2496
  840MPD2    H712355   4.503   2.464  10.225 -0.1714  0.4052  0.3576
  841MPD2     C12356   4.714   2.223  14.201  0.8633 -0.0881  0.2439
  841MPD2    C112357   4.597   2.300  14.214  0.3551  0.0990 -0.4769
  841MPD2    C212358   4.594   2.397  14.309 -0.3449 -0.1784 -0.4736
  841MPD2    C312359   4.706   2.426  14.382 -0.8499 -0.4122 -0.2568
  841MPD2    C412360   0.097   2.344  14.380 -0.3177  0.8169  0.0293
  841MPD2    C512361   0.099   2.245  14.284 -0.0795 -0.4587 -0.1462
  841MPD2     H12362   4.510   2.464  14.325  0.9532  1.0158  1.2603
  841MPD2    H112363   0.189   2.353  14.437 -0.4206 -0.5784  0.4129
  841MPD2    H212364   4.721   2.131  14.145 -0.7163 -0.2867  0.3802
  841MPD2    H312365   0.177   2.170  14.279  0.0589 -0.2997 -0.3528
  841MPD2     N12366   4.696   2.535  14.473  0.0978 -0.6384  0.6789
  841MPD2    H512367   4.607   2.584  14.475  0.0012 -0.8444  1.1963
  841MPD2    N112368   4.484   2.280  14.136 -0.0808  0.6616  0.2492
  841MPD2    H712369   4.400   2.332  14.159 -1.0316 -0.3921 -0.8535
  842MPD2     C12370   4.694   3.783  16.944 -0.2103  0.3988 -0.0984
  842MPD2    C112371   4.620   3.683  17.001 -0.7034 -1.2815 -0.8491
  842MPD2    C212372   4.662   3.613  17.106  0.4499 -0.1279  0.0813
  842MPD2    C312373   0.070   3.633  17.150 -0.3511  0.7572 -0.5290
  842MPD2    C412374   0.149   3.726  17.087  0.0309 -0.2522 -0.4103
  842MPD2    C512375   0.094   3.805  16.991  0.6032 -0.6491  0.3871
  842MPD2     H12376   4.593   3.555  17.166  0.9913 -1.7470 -0.8656
  842MPD2    H112377   0.251   3.745  17.117 -0.0997  2.2378 -1.5649
  842MPD2    H212378   4.656   3.843  16.862  2.2051 -0.8704 -2.1692
  842MPD2    H312379   0.152   3.876  16.934  0.5033 -0.7907  0.1110
  842MPD2     N12380   0.127   3.560  17.260 -0.2419  0.2898 -0.7777
  842MPD2    H512381   0.212   3.593  17.304  0.9093 -0.9359 -2.0972
  842MPD2    N112382   4.499   3.648  16.942 -0.0237 -0.5935 -0.0778
  842MPD2    H712383   4.480   3.703  16.858  0.9223 -1.5850 -0.9268
  843MPD2     C12384   1.793   3.653  17.181  0.0255 -0.0836  0.0826
  843MPD2    C112385   1.788   3.647  17.319  0.3327 -1.0249  1.1912
  843MPD2    C212386   1.880   3.728  17.392 -0.0878 -0.3549  0.2291
  843MPD2    C312387   1.977   3.807  17.338 -0.2428  0.3701 -0.7995
  843MPD2    C412388   1.977   3.813  17.199  0.1386 -0.0670 -0.2710
  843MPD2    C512389   1.880   3.744  17.131  0.1182 -0.4395 -0.2719
  843MPD2     H12390   1.873   3.724  17.500  0.1829 -1.1615  0.2116
  843MPD2    H112391   2.046   3.875  17.144 -2.4019  2.1072 -1.0362
  843MPD2    H212392   1.730   3.593  17.116  2.6407 -1.9184 -0.7334
  843MPD2    H312393   1.893   3.746  17.023 -1.9104 -0.6757 -0.5168
  843MPD2     N12394   2.062   3.894  17.412  0.0370 -0.3645  0.6868
  843MPD2    H512395   2.128   3.944  17.354  0.0614  3.7286  4.2339
  843MPD2    N112396   1.696   3.557  17.372 -0.1468  0.4608 -0.0282
  843MPD2    H712397   1.652   3.490  17.310 -0.6930 -0.4848  1.3738
  844MPD2     C12398   0.167   3.303  16.451 -0.2212 -0.2998 -0.1944
  844MPD2    C112399   0.176   3.186  16.534  0.1999 -0.6065 -0.4644
  844MPD2    C212400   0.276   3.191  16.631 -0.6070 -0.2826  0.6687
  844MPD2    C312401   0.355   3.301  16.651  0.2290  0.4528 -0.5465
  844MPD2    C412402   0.331   3.413  16.578  0.8930  0.6684  0.1793
  844MPD2    C512403   0.244   3.415  16.468 -0.0777 -0.0309 -0.4113
  844MPD2     H12404   0.299   3.092  16.669 -1.1687  0.0183  1.8171
  844MPD2    H112405   0.382   3.508  16.588 -0.2667  1.4160 -1.1108
  844MPD2    H212406   0.097   3.308  16.368 -0.2076 -0.2862 -0.2051
  844MPD2    H312407   0.233   3.504  16.407  1.1013  0.3228 -0.1047
  844MPD2     N12408   0.468   3.298  16.736  0.4895  0.0063 -0.3029
  844MPD2    H512409   0.488   3.210  16.782  0.5580  0.2591  0.1433
  844MPD2    N112410   0.112   3.067  16.518  0.2274  0.0529  0.2876
  844MPD2    H712411   0.150   2.982  16.558 -2.8760 -0.2831  2.4969
  845MPD2     C12412   0.862   3.901  17.438 -0.1803 -0.2453 -0.6009
  845MPD2    C112413   0.744   3.830  17.447 -0.4224  0.0012  0.4115
  845MPD2    C212414   0.718   3.730  17.355 -0.0825 -0.1168  0.0645
  845MPD2    C312415   0.813   3.698  17.264 -0.2784 -0.2200 -0.3835
  845MPD2    C412416   0.937   3.766  17.262  0.6553  0.2890  0.0775
  845MPD2    C512417   0.963   3.871  17.348 -0.4201 -0.1350 -0.2969
  845MPD2     H12418   0.626   3.673  17.356  0.1740 -0.5291  0.1769
  845MPD2    H112419   1.025   3.755  17.200  1.1280 -4.1037  1.5397
  845MPD2    H212420   0.872   3.980  17.511  0.9039  0.0871 -1.1168
  845MPD2    H312421   1.063   3.913  17.353 -1.1114  1.9035 -3.4648
  845MPD2     N12422   0.780   3.600  17.168  0.2162  0.2699 -0.0987
  845MPD2    H512423   0.684   3.575  17.147  0.1137 -0.5296  1.2975
  845MPD2    N112424   0.651   3.878  17.535 -0.5385 -0.3334 -0.2460
  845MPD2    H712425   0.668   3.969  17.577 -2.9540 -1.9682  4.2893
  846MPD2     C12426   2.825   4.213  13.615 -0.1366 -0.4215 -0.7707
  846MPD2    C112427   2.719   4.301  13.650  0.0975  0.5449 -0.2109
  846MPD2    C212428   2.706   4.346  13.777 -0.1233  0.3342 -0.1326
  846MPD2    C312429   2.790   4.295  13.871 -0.5774  1.0628  0.0999
  846MPD2    C412430   2.887   4.206  13.840  0.2556  1.0867 -0.6739
  846MPD2    C512431   2.909   4.168  13.711 -0.5659  0.0164 -1.0172
  846MPD2     H12432   2.636   4.423  13.807  0.8188  1.4675 -0.8751
  846MPD2    H112433   2.953   4.154  13.909  0.9566  1.5424 -0.9958
  846MPD2    H212434   2.823   4.168  13.517 -0.7308  1.4567 -1.6157
  846MPD2    H312435   2.978   4.088  13.685  0.2401  0.6089 -0.7069
  846MPD2     N12436   2.757   4.327  14.007  0.0343 -0.4787  0.5774
  846MPD2    H512437   2.671   4.378  14.025  0.1401  0.2960 -1.1641
  846MPD2    N112438   2.640   4.350  13.548 -0.4368  0.0328 -0.2929
  846MPD2    H712439   2.582   4.427  13.579  0.8360  0.4940  0.9485
  847MPD2     C12440   2.421   0.645  14.299  0.1158 -0.4649 -1.2049
  847MPD2    C112441   2.505   0.722  14.373 -0.4388  0.5535 -0.9991
  847MPD2    C212442   2.629   0.669  14.386 -0.1783  0.5226 -0.2802
  847MPD2    C312443   2.669   0.549  14.334  0.3285 -0.8210  0.2343
  847MPD2    C412444   2.580   0.483  14.258 -0.3530  0.1791  0.1505
  847MPD2    C512445   2.454   0.532  14.233  0.4718  0.0370  0.1105
  847MPD2     H12446   2.694   0.713  14.460  0.4326 -1.8442  0.5936
  847MPD2    H112447   2.605   0.390  14.208  0.1572  0.8569 -0.8443
  847MPD2    H212448   2.321   0.679  14.273 -0.7519 -0.0792  2.5905
  847MPD2    H312449   2.397   0.488  14.152  0.5499  1.3980 -0.6854
  847MPD2     N12450   2.799   0.503  14.354  0.0513 -0.0529  0.4522
  847MPD2    H512451   2.825   0.412  14.318 -2.0448 -0.2514 -0.5554
  847MPD2    N112452   2.475   0.844  14.441  0.1782 -0.2784 -0.8433
  847MPD2    H712453   2.545   0.885  14.501 -0.7964  0.0594  0.0550
  848MPD2     C12454   4.698   3.543  16.588  0.5616  0.2960 -0.2939
  848MPD2    C112455   0.065   3.562  16.692  0.0572  0.8780  0.0824
  848MPD2    C212456   0.161   3.662  16.689  0.8746 -0.1516 -0.4004
  848MPD2    C312457   0.154   3.749  16.586  0.3940  0.4054 -0.3481
  848MPD2    C412458   0.069   3.730  16.478 -0.4428  0.4122  0.0473
  848MPD2    C512459   4.706   3.624  16.475 -0.1653  0.1148  0.3078
  848MPD2     H12460   0.235   3.677  16.767  0.7556 -0.9679 -0.1360
  848MPD2    H112461   0.078   3.806  16.400 -0.9471 -0.1511 -0.5558
  848MPD2    H212462   4.628   3.461  16.589 -0.3412  1.0482 -1.3239
  848MPD2    H312463   4.638   3.601  16.394  0.1905 -0.8512  0.2856
  848MPD2     N12464   0.221   3.870  16.584  0.2759 -0.2813 -0.2180
  848MPD2    H512465   0.227   3.910  16.491  0.8842 -1.3218 -0.6305
  848MPD2    N112466   0.066   3.466  16.802 -0.2035  0.0645 -0.1116
  848MPD2    H712467   0.132   3.483  16.877 -1.4026 -0.0589  0.9829
  849MPD2     C12468   0.220   3.842  14.074 -0.0833  0.1874  0.0319
  849MPD2    C112469   0.346   3.786  14.070  0.8280  0.4418  0.5758
  849MPD2    C212470   0.392   3.713  14.176 -0.9188 -0.5003 -0.1235
  849MPD2    C312471   0.308   3.675  14.285 -0.9861 -0.3068  0.2731
  849MPD2    C412472   0.172   3.720  14.273  0.5008 -0.1644 -0.4672
  849MPD2    C512473   0.129   3.809  14.169  0.2987  0.0623  0.4099
  849MPD2     H12474   0.487   3.664  14.162 -1.0939 -0.6627 -0.7583
  849MPD2    H112475   0.103   3.695  14.352  0.3620 -2.4480 -1.2942
  849MPD2    H212476   0.191   3.908  13.992 -2.3963 -1.7683 -0.7218
  849MPD2    H312477   0.026   3.840  14.160  0.1064 -0.2112  1.7198
  849MPD2     N12478   0.342   3.579  14.379 -0.3161  0.2145 -0.5432
  849MPD2    H512479   0.284   3.563  14.461 -0.0856  2.8691  0.1346
  849MPD2    N112480   0.442   3.789  13.964  0.5847  0.4506  0.2141
  849MPD2    H712481   0.531   3.740  13.968  0.1404 -0.3425  0.3984
  850MPD2     C12482   2.356   2.155  15.468 -0.0580 -0.5283  0.5346
  850MPD2    C112483   2.445   2.057  15.432  0.1588 -0.5206  0.5647
  850MPD2    C212484   2.514   2.051  15.313  0.3921 -0.1047  0.0010
  850MPD2    C312485   2.492   2.158  15.230 -0.3883 -0.1949 -0.5592
  850MPD2    C412486   2.394   2.256  15.258  0.9116 -0.4416  1.2707
  850MPD2    C512487   2.321   2.251  15.372  0.7849 -0.4906 -0.4975
  850MPD2     H12488   2.590   1.976  15.297 -1.5570 -1.7861 -1.2296
  850MPD2    H112489   2.365   2.339  15.194 -0.2990 -1.9806 -0.1766
  850MPD2    H212490   2.310   2.151  15.566  0.5285 -1.6482  0.7604
  850MPD2    H312491   2.250   2.329  15.395  2.3876  1.4592 -2.1609
  850MPD2     N12492   2.578   2.176  15.117  0.1621  0.2766  0.4769
  850MPD2    H512493   2.594   2.270  15.082 -0.8192  0.4584  0.5100
  850MPD2    N112494   2.466   1.962  15.538 -0.0156 -0.2483 -0.1056
  850MPD2    H712495   2.397   1.980  15.610  1.0080  1.5433  0.4204
  851MPD2     C12496   3.083   1.555  15.548 -0.2278  0.6299  0.5303
  851MPD2    C112497   2.962   1.495  15.552  0.3701 -0.5192  0.7160
  851MPD2    C212498   2.932   1.386  15.465 -0.4532  0.0901  0.0283
  851MPD2    C312499   3.024   1.343  15.370 -0.4994  0.4954 -0.5267
  851MPD2    C412500   3.140   1.411  15.364 -1.3280  1.0522 -0.0952
  851MPD2    C512501   3.158   1.520  15.442  0.4370 -0.1936  0.8696
  851MPD2     H12502   2.837   1.335  15.475 -0.2491  0.2238  2.5910
  851MPD2    H112503   3.211   1.387  15.286 -0.9530 -0.2219  0.6454
  851MPD2    H212504   3.102   1.638  15.615 -0.4561  2.5725 -1.8018
  851MPD2    H312505   3.251   1.572  15.422  0.2331  0.0908  0.6598
  851MPD2     N12506   2.983   1.237  15.285  0.6570 -0.2417  0.7827
  851MPD2    H512507   2.883   1.217  15.281  0.3614  1.4231 -0.3667
  851MPD2    N112508   2.876   1.545  15.649 -0.1915 -0.4453 -0.3157
  851MPD2    H712509   2.900   1.628  15.703 -0.2243  0.5738 -1.8637
  852MPD2     C12510   2.262   3.751  10.486 -0.0870 -0.0092 -0.6636
  852MPD2    C112511   2.314   3.803  10.603  0.9492  0.7266 -0.0396
  852MPD2    C212512   2.392   3.915  10.595 -0.4588  0.5399  0.1417
  852MPD2    C312513   2.425   3.966  10.467  0.5649  0.2495 -0.0150
  852MPD2    C412514   2.382   3.904  10.359  0.0373 -0.1877  0.0272
  852MPD2    C512515   2.301   3.792  10.366  0.5448  0.1528 -0.3740
  852MPD2     H12516   2.434   3.964  10.682  0.0594 -1.2647  0.9092
  852MPD2    H112517   2.409   3.940  10.260  1.1012 -1.6060 -0.2081
  852MPD2    H212518   2.191   3.669  10.490 -1.7352  1.4218 -0.6099
  852MPD2    H312519   2.257   3.760  10.272  0.3152 -1.4352  0.2780
  852MPD2     N12520   2.512   4.079  10.461  0.0901 -0.8472  0.3061
  852MPD2    H512521   2.535   4.121  10.551 -1.3341 -0.3484  0.4488
  852MPD2    N112522   2.287   3.734  10.727 -0.0950  0.3733  0.4315
  852MPD2    H712523   2.225   3.654  10.722 -1.0929  1.1725  0.0520
  853MPD2     C12524   4.434   3.207  12.592 -1.4634  0.1268 -0.3300
  853MPD2    C112525   4.354   3.310  12.548  0.2596 -0.6394  0.1214
  853MPD2    C212526   4.345   3.341  12.410 -0.5732  0.6923  0.5041
  853MPD2    C312527   4.401   3.258  12.316  0.5304 -0.1380 -0.4283
  853MPD2    C412528   4.473   3.151  12.361  0.3592  0.6505 -0.7413
  853MPD2    C512529   4.484   3.122  12.496 -0.3590 -0.0879 -0.3559
  853MPD2     H12530   4.265   3.407  12.376  0.6076  0.4537 -2.7634
  853MPD2    H112531   4.508   3.076  12.291 -1.1899 -1.3354  0.5868
  853MPD2    H212532   4.441   3.197  12.700 -1.7389  0.5098 -0.2753
  853MPD2    H312533   4.533   3.030  12.528  0.1865  1.3021  2.7943
  853MPD2     N12534   4.380   3.274  12.179 -0.2142 -0.3095  0.2438
  853MPD2    H512535   4.414   3.193  12.127 -1.7875 -0.1028 -1.1120
  853MPD2    N112536   4.308   3.392  12.653  0.1787  0.2155 -0.2846
  853MPD2    H712537   4.324   3.351  12.744  0.6945  1.7430  0.3125
  854MPD2     C12538   1.207   3.650  13.117  0.4697 -0.0652  0.8499
  854MPD2    C112539   1.296   3.723  13.036  0.0252 -0.2695 -0.5470
  854MPD2    C212540   1.432   3.719  13.062 -0.1579 -0.1675  0.7027
  854MPD2    C312541   1.478   3.627  13.162  0.3487  0.5747  0.1720
  854MPD2    C412542   1.387   3.548  13.228  0.4841 -0.4567  0.0898
  854MPD2    C512543   1.253   3.567  13.214 -0.1029 -0.1028 -0.4020
  854MPD2     H12544   1.501   3.768  12.994 -0.9687  0.3312  0.2453
  854MPD2    H112545   1.419   3.481  13.306  0.0977  2.6234  2.9289
  854MPD2    H212546   1.102   3.658  13.090  0.6946  0.0206  0.0228
  854MPD2    H312547   1.189   3.506  13.278 -0.7858  1.4195  0.3576
  854MPD2     N12548   1.615   3.614  13.192  0.9013  0.2160  0.0731
  854MPD2    H512549   1.631   3.561  13.277  2.1012  2.7027  1.4100
  854MPD2    N112550   1.242   3.817  12.943 -0.4674 -0.3620  0.4399
  854MPD2    H712551   1.142   3.817  12.924 -0.2164 -2.7546 -0.8995
  855MPD2     C12552   1.731   3.712  13.950  0.5639  0.5708  0.1020
  855MPD2    C112553   1.785   3.589  13.917 -0.1455 -0.0982  0.6545
  855MPD2    C212554   1.832   3.570  13.786  0.4314  0.8293 -0.1006
  855MPD2    C312555   1.830   3.688  13.701  0.1335  0.2740  1.0306
  855MPD2    C412556   1.763   3.803  13.739 -0.2944  0.4135 -0.1653
  855MPD2    C512557   1.727   3.817  13.872  0.7023  0.6907 -0.1930
  855MPD2     H12558   1.876   3.476  13.755  0.3920  0.2844  1.4588
  855MPD2    H112559   1.746   3.888  13.674 -1.3643  0.4002  0.0885
  855MPD2    H212560   1.701   3.716  14.054 -0.6935 -2.0356 -0.1512
  855MPD2    H312561   1.688   3.910  13.912 -0.9151 -0.4901  0.9535
  855MPD2     N12562   1.879   3.688  13.572  0.7693 -0.0874 -0.1675
  855MPD2    H512563   1.872   3.772  13.516 -2.2615 -0.3377 -0.1846
  855MPD2    N112564   1.784   3.486  14.010 -0.5046 -0.1734 -0.1722
  855MPD2    H712565   1.732   3.513  14.093 -0.6957 -0.3965 -0.2209
  856MPD2     C12566   3.422   0.081  13.706 -0.6938  0.0099 -0.6779
  856MPD2    C112567   3.470   0.188  13.773 -0.2465 -0.3436 -0.3641
  856MPD2    C212568   3.384   0.284  13.812  0.0800  0.3080 -0.0187
  856MPD2    C312569   3.243   0.275  13.788  0.2614  0.1678  0.0670
  856MPD2    C412570   3.198   0.165  13.725  0.7199 -1.5777 -0.4090
  856MPD2    C512571   3.282   0.063  13.690  0.3459 -0.1002 -0.5179
  856MPD2     H12572   3.417   0.365  13.875 -0.0037  0.9149 -0.7468
  856MPD2    H112573   3.094   0.152  13.696  0.1302  2.0394  0.0285
  856MPD2    H212574   3.484   0.009  13.653 -0.4997 -0.4897  0.2333
  856MPD2    H312575   3.244   4.696  13.640  1.0497 -0.3718 -0.5701
  856MPD2     N12576   3.145   0.371  13.810  0.2997  0.3715 -0.1920
  856MPD2    H512577   3.049   0.348  13.785  1.6508 -3.9997 -1.3476
  856MPD2    N112578   3.605   0.209  13.803  0.1998  0.3127 -0.3079
  856MPD2    H712579   3.640   0.290  13.854  0.1015 -0.4445  0.9666
  857MPD2     C12580   0.197   1.939  13.004  0.5142 -0.1822 -0.0947
  857MPD2    C112581   0.314   1.913  12.943  0.3727  0.6419  0.7799
  857MPD2    C212582   0.401   2.022  12.933  0.2020 -0.1768 -0.8073
  857MPD2    C312583   0.369   2.147  12.982  0.0771  0.1087  0.3877
  857MPD2    C412584   0.245   2.168  13.044  0.4750  0.1115 -0.3358
  857MPD2    C512585   0.163   2.064  13.053 -0.0299  0.2471  0.1954
  857MPD2     H12586   0.499   2.008  12.888  0.2707  0.4903 -0.8609
  857MPD2    H112587   0.212   2.267  13.073 -3.2986 -0.1968 -3.4844
  857MPD2    H212588   0.132   1.857  13.032 -1.0403  1.1157  0.1041
  857MPD2    H312589   0.070   2.068  13.109 -0.4636  0.8016 -0.5732
  857MPD2     N12590   0.471   2.244  12.972  0.7114  0.3218 -0.4724
  857MPD2    H512591   0.550   2.215  12.916  1.4327 -0.4975  0.9448
  857MPD2    N112592   0.327   1.790  12.880  0.2828  0.1969 -0.7796
  857MPD2    H712593   0.249   1.726  12.888  0.2409  0.5868  2.0670
  858MPD2     C12594   0.452   0.572  16.495  0.0337 -0.0967 -0.0966
  858MPD2    C112595   0.573   0.612  16.542 -0.1432 -0.1733  0.4068
  858MPD2    C212596   0.582   0.743  16.579 -0.3584 -0.0465 -1.3255
  858MPD2    C312597   0.470   0.828  16.579  0.4449  0.1538 -0.1731
  858MPD2    C412598   0.353   0.780  16.521  0.9809 -0.0030  0.0423
  858MPD2    C512599   0.348   0.657  16.470 -0.3939 -0.6718  0.2192
  858MPD2     H12600   0.665   0.778  16.639 -1.8374  1.1724  0.0282
  858MPD2    H112601   0.262   0.839  16.511 -0.1520 -1.2430  2.9884
  858MPD2    H212602   0.431   0.468  16.472 -0.7608 -0.5576  2.7077
  858MPD2    H312603   0.262   0.622  16.413 -0.7795 -2.4025  1.8838
  858MPD2     N12604   0.466   0.959  16.621  0.1328  0.4695  0.3850
  858MPD2    H512605   0.384   1.015  16.598 -0.4929 -0.0527  1.3712
  858MPD2    N112606   0.680   0.519  16.558 -0.2771 -0.3545 -0.2085
  858MPD2    H712607   0.669   0.421  16.532 -0.2291 -1.3702  3.6544
  859MPD2     C12608   4.597   3.278  15.878  0.1279 -0.7135 -0.5068
  859MPD2    C112609   4.564   3.328  15.751  0.0944 -0.0684 -0.5356
  859MPD2    C212610   4.448   3.275  15.690 -0.1982 -0.0107 -0.1888
  859MPD2    C312611   4.352   3.205  15.766 -0.0072 -0.1904  0.7503
  859MPD2    C412612   4.384   3.164  15.897 -0.3625 -0.0348 -0.5307
  859MPD2    C512613   4.506   3.202  15.949 -0.1681  0.2040  0.1245
  859MPD2     H12614   4.423   3.309  15.591  1.3342 -0.4301 -0.7202
  859MPD2    H112615   4.314   3.109  15.958 -0.9643  1.7838  0.4083
  859MPD2    H212616   4.687   3.307  15.931 -0.6986 -1.0509  1.0959
  859MPD2    H312617   4.536   3.162  16.045 -0.5138  1.6151  0.8296
  859MPD2     N12618   4.235   3.138  15.714  0.0715 -0.3008 -0.2058
  859MPD2    H512619   4.193   3.069  15.776  0.4838 -0.7281 -0.3971
  859MPD2    N112620   4.664   3.402  15.680 -0.1694  0.0010 -0.8192
  859MPD2    H712621   0.028   3.428  15.729 -0.3166 -0.2734 -0.4247
  860MPD2     C12622   2.328   2.835  11.671 -0.1283 -0.4810 -0.5112
  860MPD2    C112623   2.388   2.841  11.799  0.3594 -0.2881  0.4253
  860MPD2    C212624   2.306   2.869  11.909 -0.3889  1.1748  0.0051
  860MPD2    C312625   2.168   2.901  11.894 -0.2808 -0.3840  0.0107
  860MPD2    C412626   2.114   2.897  11.764 -0.0576 -0.0524 -0.1644
  860MPD2    C512627   2.194   2.866  11.659  0.3699 -0.0471 -0.0758
  860MPD2     H12628   2.348   2.880  12.009 -0.0263  2.1421 -0.2551
  860MPD2    H112629   2.008   2.918  11.750 -0.4235 -1.5246  0.4341
  860MPD2    H212630   2.386   2.799  11.588  2.1849  1.4189  0.2772
  860MPD2    H312631   2.144   2.860  11.563  1.7073  0.6340 -0.8165
  860MPD2     N12632   2.085   2.926  12.009  0.1557  0.2433  0.2677
  860MPD2    H512633   2.133   2.932  12.099 -0.9269 -0.3586  0.8938
  860MPD2    N112634   2.524   2.819  11.832  0.2864  0.6780 -0.3397
  860MPD2    H712635   2.546   2.827  11.931 -0.1322  2.9757 -0.4238
  861MPD2     C12636   0.773   1.545  11.016  0.6832  0.4893  0.1741
  861MPD2    C112637   0.853   1.658  11.024  0.4305  0.7765 -0.4954
  861MPD2    C212638   0.834   1.764  10.936  0.1090 -0.3314  1.0467
  861MPD2    C312639   0.731   1.757  10.844 -0.5373  0.2906  0.2708
  861MPD2    C412640   0.651   1.645  10.840 -0.9019  0.9331  0.0413
  861MPD2    C512641   0.672   1.537  10.924  0.0182  0.7437 -0.0208
  861MPD2     H12642   0.902   1.848  10.937  1.5929 -1.5132  0.1330
  861MPD2    H112643   0.566   1.644  10.773 -2.4150 -0.3473  1.9712
  861MPD2    H212644   0.782   1.454  11.075 -1.3280  0.8514  1.0360
  861MPD2    H312645   0.618   1.444  10.921 -0.7427  1.1512  1.0229
  861MPD2     N12646   0.697   1.866  10.755  0.5621 -0.0338  0.0397
  861MPD2    H512647   0.618   1.851  10.692 -0.2436  1.2290  0.7513
  861MPD2    N112648   0.946   1.687  11.128 -0.0740 -0.1115  0.0810
  861MPD2    H712649   0.985   1.780  11.138 -1.2241  0.2191  1.4748
  862MPD2     C12650   0.273   1.960  10.176  0.8032  0.3593 -0.0368
  862MPD2    C112651   0.378   1.905  10.246 -0.6516  0.2577  0.5652
  862MPD2    C212652   0.403   1.772  10.239  0.3464 -0.9453  0.2974
  862MPD2    C312653   0.303   1.686  10.190 -0.2294 -0.1935  0.5852
  862MPD2    C412654   0.198   1.742  10.115 -0.0509 -0.6436 -0.1779
  862MPD2    C512655   0.193   1.878  10.099  0.1938  0.7158  0.2463
  862MPD2     H12656   0.487   1.747  10.303  2.6652  2.6694 -1.3239
  862MPD2    H112657   0.117   1.681  10.074 -1.1382  0.8039 -0.1677
  862MPD2    H212658   0.245   2.064  10.188 -1.2177  0.2262 -3.5165
  862MPD2    H312659   0.119   1.925  10.035  0.8807 -1.0476 -1.8648
  862MPD2     N12660   0.298   1.549  10.214  0.1280 -0.2581 -0.2831
  862MPD2    H512661   0.217   1.498  10.181  0.0075 -1.1073  1.3100
  862MPD2    N112662   0.465   1.979  10.330  0.5817  0.0755  0.1553
  862MPD2    H712663   0.538   1.921  10.369  0.4495 -0.1080  0.1337
  863MPD2     C12664   3.759   4.293  17.397  0.0201 -0.0664 -0.2167
  863MPD2    C112665   3.835   4.407  17.397 -0.1072 -0.1554 -0.1562
  863MPD2    C212666   3.944   4.424  17.480 -0.0401 -0.5081 -0.7414
  863MPD2    C312667   3.974   4.323  17.567  0.0749  0.6834  0.2090
  863MPD2    C412668   3.912   4.202  17.553 -0.2483 -0.5567  0.0537
  863MPD2    C512669   3.801   4.191  17.474  0.4817  0.7600  0.2109
  863MPD2     H12670   3.993   4.521  17.483  1.0511 -1.2087  4.1538
  863MPD2    H112671   3.939   4.115  17.612  0.6372  0.7813  1.6226
  863MPD2    H212672   3.674   4.281  17.331 -0.5437 -2.8970  1.0146
  863MPD2    H312673   3.745   4.099  17.468  1.2261  0.3585 -0.4863
  863MPD2     N12674   4.079   4.331  17.657 -0.0266  0.2361  0.4700
  863MPD2    H512675   4.092   4.248   0.027 -1.3763  1.3425  2.3874
  863MPD2    N112676   3.791   4.502  17.303  0.6495 -0.0504 -0.2476
  863MPD2    H712677   3.706   4.479  17.253  1.9084  0.8799 -2.8354
  864MPD2     C12678   4.094   1.443  16.761  0.1887  0.4009 -0.2677
  864MPD2    C112679   4.193   1.360  16.718 -0.4930 -0.4597 -0.1696
  864MPD2    C212680   4.277   1.410  16.619  0.1375  0.2685 -0.5723
  864MPD2    C312681   4.276   1.535  16.568  0.2315  0.3465 -0.0364
  864MPD2    C412682   4.179   1.615  16.618 -0.8426 -0.0073  0.1817
  864MPD2    C512683   4.086   1.568  16.703 -0.2912  0.4158 -0.3331
  864MPD2     H12684   4.338   1.332  16.575  1.0537 -0.0225  1.1862
  864MPD2    H112685   4.168   1.721  16.599  0.3173  0.0988  0.1021
  864MPD2    H212686   4.030   1.414  16.844  1.8558 -2.5133  0.0150
  864MPD2    H312687   4.003   1.631  16.732 -1.7377 -2.7217  2.2961
  864MPD2     N12688   4.370   1.592  16.479  0.0379 -0.3194 -0.0483
  864MPD2    H512689   4.359   1.689  16.455 -0.4008 -0.6422 -1.1539
  864MPD2    N112690   4.215   1.229  16.767 -0.6993  0.3623  0.4567
  864MPD2    H712691   4.286   1.174  16.720 -0.4179 -0.8986  2.3572
  865MPD2     C12692   4.707   1.530  15.660  0.0003  0.2956  0.0590
  865MPD2    C112693   4.662   1.494  15.783  0.6842 -0.2020  0.1532
  865MPD2    C212694   4.574   1.571  15.859 -0.1593  0.0381 -0.0829
  865MPD2    C312695   4.555   1.705  15.815 -0.2747 -0.4650  0.2056
  865MPD2    C412696   4.587   1.732  15.689 -0.5005  0.5956  0.0600
  865MPD2    C512697   4.658   1.647  15.611  0.3061  0.4996  0.3122
  865MPD2     H12698   4.536   1.535  15.954  1.2856  0.6598  0.7273
  865MPD2    H112699   4.560   1.828  15.646 -1.2324 -1.0691 -3.2444
  865MPD2    H212700   0.054   1.462  15.610  0.1104  0.0763  0.5072
  865MPD2    H312701   4.682   1.674  15.508 -0.5532 -1.9907 -0.5273
  865MPD2     N12702   4.497   1.804  15.900  0.2710 -0.0747 -0.3888
  865MPD2    H512703   4.457   1.881  15.847  0.5667  0.6107  0.3751
  865MPD2    N112704   0.005   1.377  15.829 -0.1975  0.2295 -0.1196
  865MPD2    H712705   0.071   1.326  15.770 -1.2816  1.0900 -2.0841
  866MPD2     C12706   1.720   2.086  11.457 -0.4089  0.1331 -0.7158
  866MPD2    C112707   1.744   2.091  11.320 -0.4883  0.3716 -0.1501
  866MPD2    C212708   1.655   2.131  11.229 -0.3712  0.0066  0.2705
  866MPD2    C312709   1.531   2.169  11.273  0.4075  0.1263  0.4116
  866MPD2    C412710   1.496   2.160  11.410 -0.3362 -0.1566  0.0579
  866MPD2    C512711   1.592   2.110  11.499 -0.0086  0.2139 -0.3758
  866MPD2     H12712   1.680   2.134  11.123 -1.3609  0.4824  0.0493
  866MPD2    H112713   1.394   2.173  11.444 -1.2845 -3.8757 -1.4078
  866MPD2    H212714   1.792   2.039  11.523  0.2874  0.0224 -1.5409
  866MPD2    H312715   1.564   2.086  11.601 -0.9654  1.2166 -0.3999
  866MPD2     N12716   1.424   2.203  11.190 -0.1032 -0.7489 -0.4365
  866MPD2    H512717   1.344   2.238  11.242 -0.3700  0.9219 -1.9597
  866MPD2    N112718   1.873   2.042  11.287  0.4417  0.1717  0.1518
  866MPD2    H712719   1.922   2.002  11.366  1.3489 -1.3530 -1.1663
  867MPD2     C12720   3.421   1.130  16.538  0.6682  0.3495  0.0506
  867MPD2    C112721   3.411   1.053  16.644  0.3805  0.0955  0.2148
  867MPD2    C212722   3.312   1.086  16.738  0.1377 -0.8231 -0.0077
  867MPD2    C312723   3.242   1.204  16.743  0.0536  0.5629  0.1168
  867MPD2    C412724   3.282   1.299  16.654  0.2204 -0.1119  0.0243
  867MPD2    C512725   3.366   1.257  16.548  0.6619  0.3648  0.0048
  867MPD2     H12726   3.291   1.008  16.809  0.5292 -0.3886  0.5852
  867MPD2    H112727   3.249   1.403  16.654 -2.4135 -0.9364  0.6851
  867MPD2    H212728   3.495   1.108  16.462  0.4342  0.2405 -0.1473
  867MPD2    H312729   3.400   1.320  16.467  2.4213 -0.0586  0.4134
  867MPD2     N12730   3.137   1.234  16.834  0.0711  0.6859 -0.2239
  867MPD2    H512731   3.091   1.321  16.812  0.7865  1.0115 -0.4350
  867MPD2    N112732   3.487   0.932  16.653  0.0421  0.3158  0.0941
  867MPD2    H712733   3.527   0.906  16.563  0.9422 -0.5870  0.7626
  868MPD2     C12734   1.171   4.045  13.175 -0.0633  0.2679  0.0935
  868MPD2    C112735   1.177   4.169  13.129  0.0969 -0.4110  0.0877
  868MPD2    C212736   1.070   4.257  13.154  0.3930  0.5042  0.3538
  868MPD2    C312737   0.952   4.209  13.210  0.3111 -0.1157 -0.1557
  868MPD2    C412738   0.936   4.071  13.231  0.5193  0.7067 -0.2261
  868MPD2    C512739   1.046   3.997  13.214  0.5332 -0.0055 -0.3175
  868MPD2     H12740   1.075   4.364  13.138  0.5776  0.2948 -0.9205
  868MPD2    H112741   0.844   4.025  13.262 -0.4954  2.5783 -0.4433
  868MPD2    H212742   1.253   3.974  13.181  0.4899  0.6364 -3.3450
  868MPD2    H312743   1.028   3.892  13.232 -2.3478  0.7639  1.2602
  868MPD2     N12744   0.857   4.310  13.241  0.4286  0.2757 -0.0837
  868MPD2    H512745   0.894   4.404  13.228  2.1709 -0.1093  2.0479
  868MPD2    N112746   1.302   4.221  13.079 -0.3492 -0.0274 -0.1405
  868MPD2    H712747   1.383   4.160  13.081  0.9027  1.7017  1.3833
  869MPD2     C12748   0.827   2.632   0.952  0.3311  0.2365 -0.1096
  869MPD2    C112749   0.853   2.732   1.044  0.0646 -0.5511 -0.0284
  869MPD2    C212750   0.841   2.869   0.999  0.3554  1.0738  0.3984
  869MPD2    C312751   0.815   2.899   0.862  0.5108 -0.0004  0.5877
  869MPD2    C412752   0.797   2.793   0.773  0.6762 -0.4753  0.0055
  869MPD2    C512753   0.794   2.668   0.822 -0.0483  0.2108  0.6948
  869MPD2     H12754   0.871   2.946   1.069  0.9511  3.4753 -2.5514
  869MPD2    H112755   0.774   2.811   0.669  1.2862 -1.3664 -0.2804
  869MPD2    H212756   0.831   2.532   0.992  1.1970  0.3152  0.0071
  869MPD2    H312757   0.764   2.592   0.751  1.4754  1.6936 -1.5567
  869MPD2     N12758   0.806   3.034   0.807  0.3950 -0.0695 -0.3757
  869MPD2    H512759   0.779   3.041   0.710  0.1413  1.1657 -0.2133
  869MPD2    N112760   0.883   2.691   1.181 -0.4899 -0.5454 -0.3921
  869MPD2    H712761   0.890   2.591   1.196  0.9485 -0.6859 -2.0688
  870MPD2     C12762   0.077   2.041   1.245 -0.7475 -0.1663  0.0102
  870MPD2    C112763   0.192   2.033   1.176 -0.2427 -0.4089  0.8468
  870MPD2    C212764   0.195   2.067   1.044 -0.0694 -0.5865  0.3421
  870MPD2    C312765   0.084   2.097   0.977 -0.4340 -0.6106  0.3688
  870MPD2    C412766   4.684   2.105   1.045  0.4019 -0.6134  0.3732
  870MPD2    C512767   4.679   2.085   1.182  0.0349 -0.3011 -0.0807
  870MPD2     H12768   0.289   2.062   0.990 -1.0729  0.8351 -1.5475
  870MPD2    H112769   4.592   2.140   1.000  1.2271  1.6222  0.4214
  870MPD2    H212770   0.070   2.009   1.348 -2.1045 -0.5043 -0.1967
  870MPD2    H312771   4.583   2.082   1.232 -1.0138  0.2337 -2.0398
  870MPD2     N12772   0.084   2.131   0.841  0.7281 -0.1494 -0.2457
  870MPD2    H512773   0.175   2.141   0.797  1.7186 -3.7584  0.9968
  870MPD2    N112774   0.309   1.979   1.246 -0.3759 -0.1037  0.0079
  870MPD2    H712775   0.294   1.940   1.339  0.4855 -1.1885 -0.2985
  871MPD2     C12776   2.623   1.246  16.434  0.6658  0.2833  0.1631
  871MPD2    C112777   2.552   1.187  16.536 -0.3085  0.4233  0.1996
  871MPD2    C212778   2.559   1.053  16.545  0.0061 -0.4187  0.0436
  871MPD2    C312779   2.633   0.983  16.454 -0.2407 -0.3154  0.6639
  871MPD2    C412780   2.699   1.043  16.352  0.5221 -0.3131  0.2781
  871MPD2    C512781   2.682   1.175  16.332 -1.2301 -0.7414  0.5090
  871MPD2     H12782   2.500   0.987  16.608 -0.3705  1.0192  1.1774
  871MPD2    H112783   2.771   0.999  16.283  0.6490  0.6004 -0.1681
  871MPD2    H212784   2.615   1.354  16.428  0.7248  0.3423  1.1652
  871MPD2    H312785   2.726   1.210  16.239 -0.8677 -1.4852  0.3939
  871MPD2     N12786   2.646   0.848  16.478  0.2024  0.1432  0.3271
  871MPD2    H512787   2.592   0.803  16.552 -1.1897  0.6184 -0.3971
  871MPD2    N112788   2.474   1.275  16.617 -0.4488  0.3947 -0.4639
  871MPD2    H712789   2.480   1.375  16.601 -1.6747  0.5121 -0.1844
  872MPD2     C12790   3.483   3.837  13.640 -0.2682  0.2574 -0.1523
  872MPD2    C112791   3.513   3.955  13.703  0.0979  0.4875 -0.4658
  872MPD2    C212792   3.414   4.012  13.794 -1.4185 -0.4884  0.2271
  872MPD2    C312793   3.312   3.929  13.839 -0.2842  1.2042  0.3824
  872MPD2    C412794   3.287   3.816  13.773 -0.2673 -0.8705  0.5865
  872MPD2    C512795   3.371   3.762  13.678  0.2826  0.2183 -0.4668
  872MPD2     H12796   3.442   4.105  13.841  0.9522 -1.3282  0.4671
  872MPD2    H112797   3.201   3.752  13.791 -0.4337 -1.3334 -1.8021
  872MPD2    H212798   3.541   3.807  13.553 -0.6184 -4.5525  1.2597
  872MPD2    H312799   3.348   3.675  13.619  2.2316 -1.7577  1.6698
  872MPD2     N12800   3.227   3.959  13.948 -0.3058 -0.8909  0.3541
  872MPD2    H512801   3.153   3.892  13.965  0.5592 -1.6240  1.2422
  872MPD2    N112802   3.623   4.033  13.664  0.4183 -0.1920 -0.5359
  872MPD2    H712803   3.631   4.127  13.700  1.2323 -0.7136  0.6233
  873MPD2     C12804   0.417   3.505   1.548  0.2215 -0.6500  0.7612
  873MPD2    C112805   0.304   3.487   1.621 -0.7975 -0.1915  0.4850
  873MPD2    C212806   0.248   3.363   1.619  0.2812  0.3138  0.4496
  873MPD2    C312807   0.300   3.253   1.554 -1.1252  0.3023  0.1027
  873MPD2    C412808   0.413   3.280   1.476 -0.6064  0.1153  0.1265
  873MPD2    C512809   0.461   3.406   1.465 -0.2132 -0.2930 -0.8636
  873MPD2     H12810   0.152   3.352   1.668  0.3444 -1.2571  0.2377
  873MPD2    H112811   0.451   3.205   1.407  0.9319  0.6483  0.4211
  873MPD2    H212812   0.447   3.608   1.535  0.0471 -0.5034  1.5242
  873MPD2    H312813   0.545   3.425   1.399  0.3510 -0.6000 -0.2342
  873MPD2     N12814   0.249   3.116   1.547  0.3998 -0.3320 -0.2291
  873MPD2    H512815   0.301   3.055   1.485 -0.1688 -0.0484 -0.9705
  873MPD2    N112816   0.246   3.598   1.694  0.3609 -0.2635 -0.3050
  873MPD2    H712817   0.296   3.686   1.686 -1.7544  1.1193  2.0105
  874MPD2     C12818   4.396   3.853  16.265 -0.0256 -0.3422 -0.0630
  874MPD2    C112819   4.407   3.852  16.404  0.3804  0.0942  0.3995
  874MPD2    C212820   4.504   3.928  16.463  0.0730 -0.0371  0.0704
  874MPD2    C312821   4.592   4.002  16.389 -0.3112 -0.6772 -0.6756
  874MPD2    C412822   4.585   4.005  16.249  0.6797 -0.3396  0.3276
  874MPD2    C512823   4.475   3.940  16.194  0.3713 -0.7407  0.1022
  874MPD2     H12824   4.526   3.918  16.569 -1.9391 -0.9315  0.4154
  874MPD2    H112825   4.647   4.063  16.181 -0.6348 -0.1453 -0.7245
  874MPD2    H212826   4.325   3.785  16.220 -0.1790  0.2096 -0.6529
  874MPD2    H312827   4.465   3.945  16.086 -2.6888  1.5247  0.4808
  874MPD2     N12828   4.691   4.077  16.458 -0.1392 -0.2089  0.2611
  874MPD2    H512829   4.682   4.086  16.559 -3.1212 -3.2637  0.2527
  874MPD2    N112830   4.329   3.768  16.485 -0.2057 -0.0543  0.6195
  874MPD2    H712831   4.250   3.733  16.431  1.8291 -1.5219 -1.3545
  875MPD2     C12832   1.047   2.810  14.792 -0.6114  0.7525 -1.1409
  875MPD2    C112833   0.999   2.687  14.828  0.0930 -0.1072 -0.7424
  875MPD2    C212834   1.001   2.656  14.965 -0.0822  0.3947  0.6926
  875MPD2    C312835   1.069   2.727  15.064 -0.1053 -0.2363  0.0827
  875MPD2    C412836   1.140   2.834  15.018 -1.1235  0.6726 -0.5205
  875MPD2    C512837   1.120   2.877  14.888 -1.1500 -0.0238 -0.6302
  875MPD2     H12838   0.951   2.565  14.996  1.1574 -0.0849  1.2699
  875MPD2    H112839   1.192   2.900  15.086 -0.1583 -1.9935  1.3583
  875MPD2    H212840   1.042   2.847  14.691 -1.7596  0.0786 -1.3318
  875MPD2    H312841   1.178   2.966  14.868  1.5694 -1.9172 -1.1957
  875MPD2     N12842   1.078   2.698  15.203 -0.2656  0.2381 -0.6785
  875MPD2    H512843   1.143   2.757  15.253  0.3009 -1.1805  0.2880
  875MPD2    N112844   0.943   2.595  14.732 -0.5992  0.0369  0.1770
  875MPD2    H712845   0.895   2.516  14.774 -1.0420  0.7450  0.9833
  876MPD2     C12846   4.289   3.533  16.139 -0.1756  0.8333  0.1469
  876MPD2    C112847   4.423   3.496  16.156 -0.2413 -0.1248 -0.2760
  876MPD2    C212848   4.452   3.368  16.204 -0.7146 -0.2346 -0.6273
  876MPD2    C312849   4.351   3.281  16.234  0.3417 -0.2604  0.4106
  876MPD2    C412850   4.218   3.320  16.230 -0.1811 -0.6555 -0.5028
  876MPD2    C512851   4.185   3.450  16.183  0.0535  0.4885  0.1810
  876MPD2     H12852   4.554   3.333  16.206 -1.1099 -1.2961  0.9925
  876MPD2    H112853   4.138   3.259  16.270 -1.6588  0.9789 -0.9782
  876MPD2    H212854   4.272   3.632  16.099  1.4044  0.3675 -1.6817
  876MPD2    H312855   4.082   3.482  16.185 -0.1167 -0.0270 -0.4558
  876MPD2     N12856   4.389   3.152  16.284 -0.9697  0.1613 -0.0867
  876MPD2    H512857   4.487   3.124  16.279 -0.7690  0.9079 -0.2569
  876MPD2    N112858   4.521   3.586  16.105 -0.0958 -0.1593 -0.6000
  876MPD2    H712859   4.494   3.671  16.056  1.5409  0.6024 -0.1640
  877MPD2     C12860   4.706   4.144  15.617  0.5569  0.3616  0.5336
  877MPD2    C112861   0.093   4.066  15.648  0.5208 -0.5834  0.0730
  877MPD2    C212862   0.210   4.080  15.574  0.8636  0.1104  0.0506
  877MPD2    C312863   0.220   4.176  15.474 -0.0968 -0.3765  0.4109
  877MPD2    C412864   0.110   4.256  15.448  0.9969  0.4648 -0.3438
  877MPD2    C512865   4.715   4.233  15.514  0.0142  0.6831 -0.4283
  877MPD2     H12866   0.294   4.014  15.594 -0.0423 -0.1634  2.9666
  877MPD2    H112867   0.113   4.329  15.368  0.1289 -0.9751 -1.6762
  877MPD2    H212868   4.609   4.143  15.666  0.7469  1.0064  0.9047
  877MPD2    H312869   4.627   4.285  15.477 -0.2304 -0.4470 -1.4597
  877MPD2     N12870   0.334   4.186  15.387 -0.0727 -0.2877  0.6311
  877MPD2    H512871   0.328   4.258  15.316  1.7668 -0.8879 -0.1449
  877MPD2    N112872   0.095   3.977  15.765 -0.2305  0.3817  0.5438
  877MPD2    H712873   0.186   3.937  15.786  0.0797  0.5381 -0.5236
  878MPD2     C12874   0.362   3.235  13.168 -0.6382 -0.2425 -0.9736
  878MPD2    C112875   0.284   3.348  13.180 -0.1710  0.3370 -0.8776
  878MPD2    C212876   0.323   3.447  13.264 -0.4441 -0.4728  0.5616
  878MPD2    C312877   0.443   3.436  13.333 -0.2222  0.5699 -0.0718
  878MPD2    C412878   0.528   3.332  13.308  0.1699  0.4564 -0.2846
  878MPD2    C512879   0.484   3.227  13.233 -0.0480  0.0446  0.0397
  878MPD2     H12880   0.253   3.528  13.282  1.8241  1.8794 -1.2427
  878MPD2    H112881   0.622   3.311  13.357 -0.2523 -0.5104  0.1157
  878MPD2    H212882   0.329   3.148  13.113 -2.8209  1.5256 -2.4733
  878MPD2    H312883   0.547   3.140  13.216  0.3446 -0.0093  1.8232
  878MPD2     N12884   0.474   3.539  13.427  0.0865  1.0890  0.6000
  878MPD2    H512885   0.422   3.626  13.424 -1.0710  0.4472  1.9133
  878MPD2    N112886   0.151   3.369  13.125  0.0108  0.1303  0.5602
  878MPD2    H712887   0.092   3.443  13.160  1.1262  1.6651 -0.8196
  879MPD2     C12888   0.429   4.392  17.614  0.6059  0.3817 -0.5042
  879MPD2    C112889   0.317   4.360  17.684 -0.1157  0.2559  0.4392
  879MPD2    C212890   0.193   4.383  17.631 -0.0486  0.4161  0.2525
  879MPD2    C312891   0.179   4.430  17.500  0.0043  0.2082 -0.5810
  879MPD2    C412892   0.289   4.471  17.434 -0.2673 -0.3321 -0.1955
  879MPD2    C512893   0.412   4.452  17.492  0.7416 -0.0228 -0.0205
  879MPD2     H12894   0.104   4.338  17.674 -0.7520  0.8931 -0.6925
  879MPD2    H112895   0.281   4.505  17.331  2.7602 -0.6362 -0.5313
  879MPD2    H212896   0.528   4.367  17.652  0.3551  1.2661  0.7009
  879MPD2    H312897   0.504   4.479  17.440  0.9625 -0.8779 -0.0866
  879MPD2     N12898   0.055   4.437  17.428  0.0701  0.2651  0.1879
  879MPD2    H512899   0.051   4.465  17.330 -0.5322 -1.2074 -0.2204
  879MPD2    N112900   0.339   4.302   0.125  0.2120 -0.1466  0.1937
  879MPD2    H712901   0.436   4.294   0.153 -0.1896 -2.7160  0.8408
  880MPD2     C12902   0.483   1.656   0.248  0.1999  0.6317  0.0423
  880MPD2    C112903   0.620   1.637   0.257 -0.6023 -0.2416 -0.0484
  880MPD2    C212904   0.676   1.536   0.334 -0.7678  0.8565 -0.4514
  880MPD2    C312905   0.603   1.452   0.405  0.1562  0.1774  0.4019
  880MPD2    C412906   0.462   1.464   0.389  0.1803 -0.0797  0.0269
  880MPD2    C512907   0.410   1.563   0.317  0.1044 -0.5635 -0.5926
  880MPD2     H12908   0.783   1.529   0.353 -1.0192  0.3958  0.7574
  880MPD2    H112909   0.385   1.405   0.436 -0.8423 -0.1324 -1.7209
  880MPD2    H212910   0.436   1.728   0.181  0.0036 -0.1875 -0.7045
  880MPD2    H312911   0.302   1.565   0.311  0.0256 -0.7566  0.7573
  880MPD2     N12912   0.659   1.361   0.496 -0.1202 -0.3639  0.7201
  880MPD2    H512913   0.760   1.362   0.509  0.3124  1.4183 -2.8605
  880MPD2    N112914   0.696   1.730   0.185 -0.3005  0.0027 -0.1064
  880MPD2    H712915   0.647   1.792   0.121 -1.7139  0.3571  1.3434
  881MPD2     C12916   1.247   2.347  17.169  0.8365  0.3470  0.0752
  881MPD2    C112917   1.270   2.217  17.205  0.2082 -0.6799 -0.0482
  881MPD2    C212918   1.194   2.152  17.300  1.0643 -0.1874  0.2471
  881MPD2    C312919   1.086   2.215  17.361  0.0475 -0.1038  0.0528
  881MPD2    C412920   1.056   2.343  17.322 -0.1739 -0.1976  0.0869
  881MPD2    C512921   1.131   2.402  17.223 -0.7702  1.0760  0.7759
  881MPD2     H12922   1.219   2.048  17.316 -0.4792 -0.4741  0.8409
  881MPD2    H112923   0.967   2.401  17.343  0.0981  0.4279 -0.4857
  881MPD2    H212924   1.297   2.395  17.086 -0.8640 -2.2658 -2.4404
  881MPD2    H312925   1.099   2.491  17.170 -0.5426  1.3103  1.0367
  881MPD2     N12926   1.016   2.168  17.477 -0.7370 -0.9993 -0.6160
  881MPD2    H512927   0.946   2.230  17.516 -0.8225 -1.0695 -0.6563
  881MPD2    N112928   1.371   2.156  17.120  0.0820 -0.9769  0.8686
  881MPD2    H712929   1.422   2.216  17.056 -1.2967 -2.1871 -1.3510
  882MPD2     C12930   0.519   3.949  14.691 -0.5899 -0.3772 -0.2552
  882MPD2    C112931   0.468   4.048  14.777  0.5799 -0.3988 -0.0623
  882MPD2    C212932   0.339   4.085  14.754  0.3990  0.7450 -0.3928
  882MPD2    C312933   0.262   4.027  14.650  0.4558  0.6865  0.0558
  882MPD2    C412934   0.310   3.933  14.569 -0.3761 -0.8407 -0.4473
  882MPD2    C512935   0.442   3.890  14.595 -0.0010 -0.8891  0.1314
  882MPD2     H12936   0.303   4.169  14.812  1.4696  0.1288  1.1516
  882MPD2    H112937   0.252   3.884  14.491 -1.8040  0.4674 -0.2090
  882MPD2    H212938   0.620   3.911  14.700 -1.3626 -3.0829 -3.0452
  882MPD2    H312939   0.479   3.816  14.525  3.1704  1.1761 -0.3664
  882MPD2     N12940   0.131   4.066  14.633 -0.3804  0.8753  0.4362
  882MPD2    H512941   0.075   4.018  14.563  1.3709 -0.9536  0.3186
  882MPD2    N112942   0.550   4.104  14.870 -0.7965 -0.2223 -0.1687
  882MPD2    H712943   0.637   4.059  14.893 -0.3456  0.9356  0.4021
  883MPD2     C12944   1.956   4.089  16.315 -0.8350 -0.2542  0.3269
  883MPD2    C112945   2.071   4.133  16.250 -0.1374 -0.1439 -0.3902
  883MPD2    C212946   2.191   4.097  16.299 -0.4954  0.1856 -0.0089
  883MPD2    C312947   2.205   4.000  16.401 -0.2614 -0.1393  0.5356
  883MPD2    C412948   2.091   3.960  16.460 -0.1378 -0.1003 -0.2674
  883MPD2    C512949   1.966   4.001  16.419  0.0534  0.8639  0.6962
  883MPD2     H12950   2.281   4.123  16.244  0.2044 -1.2942  0.4373
  883MPD2    H112951   2.083   3.888  16.541 -0.6994 -2.3150 -2.3048
  883MPD2    H212952   1.854   4.115  16.287 -0.5962  0.0577 -0.2617
  883MPD2    H312953   1.880   3.963  16.472  0.2875 -1.3281 -0.4928
  883MPD2     N12954   2.333   3.950  16.435 -0.3496  0.6818 -0.5796
  883MPD2    H512955   2.414   3.991  16.389 -0.3671  2.0657  0.6211
  883MPD2    N112956   2.071   4.217  16.136 -0.0047 -0.7506  0.1063
  883MPD2    H712957   2.159   4.230  16.087  0.3767 -1.7326  0.5255
  884MPD2     C12958   4.010   0.077  15.472  0.7744  0.5988  0.1029
  884MPD2    C112959   4.042   0.168  15.370  0.2530 -0.9934  0.3004
  884MPD2    C212960   3.929   0.218  15.306  0.4075 -0.1201 -0.4177
  884MPD2    C312961   3.800   0.196  15.349  0.0904  0.1359 -0.4116
  884MPD2    C412962   3.774   0.104  15.447 -0.2650  0.2716  0.1683
  884MPD2    C512963   3.881   0.047  15.505 -0.3860 -0.0334  0.8285
  884MPD2     H12964   3.940   0.274  15.214 -0.2263  0.3844 -0.1918
  884MPD2    H112965   3.677   0.084  15.491  0.4866 -0.4041  1.5196
  884MPD2    H212966   4.086   0.023  15.527 -0.5977 -0.5920  0.8380
  884MPD2    H312967   3.864   4.700  15.587 -1.7145  1.9591  2.2256
  884MPD2     N12968   3.704   0.285  15.300 -0.3268  0.3166  0.3176
  884MPD2    H512969   3.737   0.353  15.232 -0.9783  0.3457  0.0352
  884MPD2    N112970   4.174   0.205  15.339  0.0321 -0.1219 -0.0821
  884MPD2    H712971   4.183   0.259  15.253  0.6581 -1.0971 -0.6217
  885MPD2     C12972   1.752   4.694   0.249  0.3132  0.0795  0.6858
  885MPD2    C112973   1.848   4.612   0.189  0.4999  0.2025  0.6592
  885MPD2    C212974   1.872   4.634   0.052  0.1049  0.6300  0.3248
  885MPD2    C312975   1.822   0.028  17.676  0.1706 -0.2182 -0.0143
  885MPD2    C412976   1.721   0.108   0.048 -0.5234  0.2770 -0.1000
  885MPD2    C512977   1.690   0.071   0.173 -0.5893  0.0765  0.0710
  885MPD2     H12978   1.948   4.578  17.687  1.8420  1.7904  1.6208
  885MPD2    H112979   1.670   0.194   0.006 -2.6561 -0.9395 -0.0258
  885MPD2    H212980   1.717   4.686   0.351  0.4422 -0.6944  0.6684
  885MPD2    H312981   1.612   0.129   0.221  0.7186  1.1578  0.8907
  885MPD2     N12982   1.876   0.045  17.545  0.4221 -0.0973 -0.2847
  885MPD2    H512983   1.928   4.685  17.515 -0.6000 -0.3591 -1.3434
  885MPD2    N112984   1.905   4.513   0.266 -0.8507 -0.3153 -0.3096
  885MPD2    H712985   1.885   4.521   0.365  1.7221  1.6679  0.0645
  886MPD2     C12986   3.314   3.629  15.176 -0.7231  1.3501  0.0758
  886MPD2    C112987   3.420   3.603  15.263  0.1923  0.2042  0.9151
  886MPD2    C212988   3.529   3.688  15.252 -0.0280  1.0030  0.5886
  886MPD2    C312989   3.536   3.793  15.157 -0.7520 -0.2577 -0.0004
  886MPD2    C412990   3.442   3.792  15.056  0.1095  0.5788  0.1782
  886MPD2    C512991   3.330   3.716  15.070 -0.2125  0.5202  0.4280
  886MPD2     H12992   3.612   3.665  15.318 -0.5311 -1.2819  0.4246
  886MPD2    H112993   3.444   3.852  14.966  1.2450  0.7433  0.3181
  886MPD2    H212994   3.231   3.560  15.166  0.9712 -0.2449 -2.8795
  886MPD2    H312995   3.252   3.714  14.994  0.3539  1.3128 -0.1709
  886MPD2     N12996   3.651   3.866  15.122  0.5240 -0.0814  0.1505
  886MPD2    H512997   3.645   3.925  15.040  0.7255 -2.1519 -1.3624
  886MPD2    N112998   3.419   3.504  15.363 -0.0244 -0.0496 -0.2033
  886MPD2    H712999   3.510   3.496  15.408  0.2842 -0.3493 -0.8814
  887MPD2     C13000   3.877   3.360  15.831  0.3298 -0.6990  0.9681
  887MPD2    C113001   3.772   3.447  15.841  0.8942  0.3035 -0.1710
  887MPD2    C213002   3.798   3.579  15.864 -1.3799 -0.4398 -0.4943
  887MPD2    C313003   3.925   3.635  15.880 -0.0832  0.3050 -0.2511
  887MPD2    C413004   4.029   3.544  15.880 -0.2922  0.1441  0.1675
  887MPD2    C513005   4.007   3.407  15.846 -0.4207 -0.2566  0.1432
  887MPD2     H13006   3.709   3.641  15.858 -0.5532  0.7907 -0.2540
  887MPD2    H113007   4.125   3.577  15.915 -1.5115  3.4942  0.2977
  887MPD2    H213008   3.871   3.258  15.797  3.7645 -0.0875 -1.4611
  887MPD2    H313009   4.098   3.348  15.851  0.2891  0.6637 -1.4531
  887MPD2     N13010   3.933   3.767  15.928  0.2619  0.0051  0.3430
  887MPD2    H513011   3.845   3.816  15.933  0.0273 -0.2831 -0.8492
  887MPD2    N113012   3.638   3.411  15.803  0.4879 -0.5347  0.1282
  887MPD2    H713013   3.581   3.491  15.777 -0.9615 -1.5395  0.2459
  888MPD2     C13014   1.528   3.520  15.152 -0.0421  0.3983 -0.0574
  888MPD2    C113015   1.511   3.604  15.260  0.4020 -0.0282  0.1679
  888MPD2    C213016   1.603   3.712  15.280 -0.5193  0.2094  0.3596
  888MPD2    C313017   1.695   3.734  15.183  0.7874  0.4989  0.2021
  888MPD2    C413018   1.702   3.658  15.075 -0.0458  0.6395  0.2548
  888MPD2    C513019   1.619   3.555  15.059  0.0345 -0.6007 -0.3233
  888MPD2     H13020   1.591   3.787  15.357 -0.0384 -0.4005  1.0354
  888MPD2    H113021   1.751   3.690  14.984  1.5201 -1.0701  0.4976
  888MPD2    H213022   1.466   3.438  15.119  1.5569 -0.7825 -0.1479
  888MPD2    H313023   1.607   3.507  14.963 -0.5596 -0.2650 -0.4185
  888MPD2     N13024   1.767   3.854  15.198 -0.6906  0.3962 -0.3532
  888MPD2    H513025   1.725   3.917  15.266 -0.3271  0.1588  0.0904
  888MPD2    N113026   1.403   3.592  15.350  0.4096 -0.1890  0.5410
  888MPD2    H713027   1.398   3.652  15.432  0.5760  0.2952  0.2006
  889MPD2     C13028   0.895   2.976  12.651 -0.0261 -0.1019 -0.0766
  889MPD2    C113029   0.778   2.961  12.728  0.2612  0.0568 -0.4597
  889MPD2    C213030   0.736   3.084  12.791  0.0461 -0.3951 -0.0327
  889MPD2    C313031   0.786   3.202  12.762  0.2548  0.6952 -0.4101
  889MPD2    C413032   0.902   3.212  12.686 -0.4418  0.1540 -0.2542
  889MPD2    C513033   0.953   3.098  12.626 -0.3701  0.3013 -0.2424
  889MPD2     H13034   0.651   3.078  12.857 -0.2870 -0.8466 -0.4941
  889MPD2    H113035   0.935   3.302  12.637  1.2949 -0.8062 -0.8453
  889MPD2    H213036   0.932   2.887  12.601 -0.0751  0.5030 -1.2017
  889MPD2    H313037   1.027   3.099  12.546 -0.7465  0.3420 -0.5921
  889MPD2     N13038   0.721   3.313  12.824  0.2895 -0.4830  0.6170
  889MPD2    H513039   0.634   3.299  12.875 -0.8032  0.1534 -1.0533
  889MPD2    N113040   0.762   2.828  12.781 -0.0183 -0.1060  0.2005
  889MPD2    H713041   0.815   2.752  12.741 -0.1919 -0.3171  0.3663
  890MPD2     C13042   4.658   0.015  14.950  0.4447  0.0947  0.0941
  890MPD2    C113043   0.032   0.109  14.988  0.5024 -0.0959  0.6547
  890MPD2    C213044   0.104   0.092  15.108 -0.1196 -0.0717 -0.2308
  890MPD2    C313045   0.063   4.709  15.198  0.2985 -0.4864 -0.1516
  890MPD2    C413046   4.689   4.614  15.161  0.8006  0.0344 -0.1576
  890MPD2    C513047   4.633   4.626  15.035 -0.1854  0.2358 -0.1214
  890MPD2     H13048   0.172   0.168  15.143 -1.7720  1.8683 -1.2562
  890MPD2    H113049   4.653   4.531  15.220 -0.7777 -0.1961 -1.4226
  890MPD2    H213050   4.598   0.029  14.861  1.3903 -1.0010 -0.7225
  890MPD2    H313051   4.555   4.553  15.015 -0.0966  0.6638 -2.0585
  890MPD2     N13052   0.118   4.708  15.332 -0.3428 -0.1386  0.4143
  890MPD2    H513053   0.193   0.050  15.359  0.0105  0.3511 -1.7194
  890MPD2    N113054   0.059   0.204  14.888 -0.4388 -0.9263 -0.1242
  890MPD2    H713055   0.000   0.207  14.806  0.2946  1.1506 -0.5631
  891MPD2     C13056   2.779   3.494  16.386  0.9006 -0.3037 -0.0959
  891MPD2    C113057   2.686   3.462  16.479 -0.3880  0.4673  0.4107
  891MPD2    C213058   2.728   3.442  16.609  0.1807  0.2507  0.4667
  891MPD2    C313059   2.862   3.452  16.645  0.0832 -0.4297 -0.3235
  891MPD2    C413060   2.958   3.494  16.545 -0.7154  0.1903  0.6100
  891MPD2    C513061   2.917   3.512  16.418  0.0764 -0.3500  0.4266
  891MPD2     H13062   2.662   3.419  16.691  2.4330 -0.6181  2.0305
  891MPD2    H113063   3.061   3.505  16.577  0.9582 -3.8378 -3.2523
  891MPD2    H213064   2.752   3.528  16.286  1.5341 -0.9522 -0.4866
  891MPD2    H313065   2.983   3.560  16.347 -1.8253 -0.0357 -1.0900
  891MPD2     N13066   2.894   3.429  16.784 -0.1270  0.3795 -0.4280
  891MPD2    H513067   2.815   3.408  16.844  1.0291 -2.0910  0.2206
  891MPD2    N113068   2.551   3.457  16.444 -0.3324  0.4769 -0.3281
  891MPD2    H713069   2.527   3.481  16.348  1.6003  0.9983 -0.6685
  892MPD2     C13070   4.197   0.095  14.484  0.8030 -0.0910 -0.2035
  892MPD2    C113071   4.160   0.035  14.602  0.2088  0.0635 -0.1462
  892MPD2    C213072   4.240   4.661  14.663 -0.1580 -0.0679 -0.4158
  892MPD2    C313073   4.356   4.616  14.603  0.4545 -0.3256 -0.2521
  892MPD2    C413074   4.388   4.675  14.478 -0.1986 -0.4504  0.8333
  892MPD2    C513075   4.309   0.048  14.427  0.2941 -0.3113 -0.7371
  892MPD2     H13076   4.207   4.611  14.753 -0.2667 -0.1541 -0.5046
  892MPD2    H113077   4.473   4.646  14.418 -1.3607  0.3464 -1.2090
  892MPD2    H213078   4.135   0.155  14.419 -1.6731  1.8009  3.9068
  892MPD2    H313079   4.343   0.086  14.331  1.0421 -0.1425 -0.4017
  892MPD2     N13080   4.428   4.502  14.635  0.0772  0.2613  0.2884
  892MPD2    H513081   4.506   4.483  14.573 -2.2622 -1.0740 -2.2485
  892MPD2    N113082   4.031   0.065  14.652  0.4364  0.4210 -0.1680
  892MPD2    H713083   3.975   0.129  14.597 -0.9451  0.3133  1.1250
  893MPD2     C13084   4.322   2.586   1.753 -1.0322 -0.5787 -0.0890
  893MPD2    C113085   4.458   2.612   1.750 -0.3696 -0.2129 -0.5047
  893MPD2    C213086   4.515   2.722   1.813  0.5300 -1.2855 -0.2646
  893MPD2    C313087   4.440   2.795   1.902  0.0547 -0.9034  0.2129
  893MPD2    C413088   4.310   2.767   1.912  0.3336 -0.7154  0.3730
  893MPD2    C513089   4.254   2.667   1.836 -0.0533 -0.8394 -0.2903
  893MPD2     H13090   4.622   2.741   1.808  0.4898 -0.4250  2.1116
  893MPD2    H113091   4.246   2.817   1.984 -1.0974 -1.4560 -0.3839
  893MPD2    H213092   4.264   2.511   1.701  1.1923 -1.8528 -0.7265
  893MPD2    H313093   4.149   2.650   1.859  0.5799 -3.7593  0.4385
  893MPD2     N13094   4.491   2.904   1.980  0.2803 -0.1053  0.0290
  893MPD2    H513095   4.427   2.946   2.046  1.4075  1.0107  0.4112
  893MPD2    N113096   4.529   2.524   1.656  0.8040 -0.2469 -0.7151
  893MPD2    H713097   4.471   2.467   1.595 -1.3033  0.6531  0.4391
  894MPD2     C13098   2.737   0.021   1.626  0.7084 -0.4888  0.4477
  894MPD2    C113099   2.651   0.088   1.543  0.4689 -0.5184 -0.3230
  894MPD2    C213100   2.685   0.220   1.508 -0.2228  0.2493 -0.1201
  894MPD2    C313101   2.806   0.273   1.536  0.3956 -0.3306  0.0659
  894MPD2    C413102   2.900   0.195   1.608  0.5416 -0.2465  0.5652
  894MPD2    C513103   2.866   0.071   1.650  0.5775 -0.2521 -0.1838
  894MPD2     H13104   2.618   0.292   1.460 -0.6664  0.0991  0.2755
  894MPD2    H113105   2.999   0.231   1.637  0.4882 -0.2506  0.7558
  894MPD2    H213106   2.713   4.643   1.664 -0.6199 -0.4244 -0.2031
  894MPD2    H313107   2.931   0.015   1.716 -0.7785 -0.3450  1.0802
  894MPD2     N13108   2.837   0.401   1.484  0.1808 -0.1469  0.1204
  894MPD2    H513109   2.767   0.444   1.424 -1.1717  0.5355  2.2220
  894MPD2    N113110   2.525   0.038   1.503 -0.1419  0.6248  0.1999
  894MPD2    H713111   2.464   0.101   1.452  0.2582  1.6315  0.9543
  895MPD2     C13112   3.595   3.144  13.293 -0.9963 -0.5884  0.0996
  895MPD2    C113113   3.507   3.055  13.358  0.1699 -0.0342  0.7265
  895MPD2    C213114   3.546   2.921  13.376 -0.1944 -0.3824 -0.1292
  895MPD2    C313115   3.645   2.866  13.295  1.4719 -0.0507 -0.4603
  895MPD2    C413116   3.726   2.953  13.225  0.0472  0.3118 -0.3779
  895MPD2    C513117   3.704   3.089  13.237 -0.3431 -0.3489 -0.0782
  895MPD2     H13118   3.465   2.865  13.421 -0.4489  1.3005  1.4997
  895MPD2    H113119   3.807   2.918  13.161  0.1642  0.7746 -0.4782
  895MPD2    H213120   3.565   3.244  13.265  1.0710  0.1436  0.4814
  895MPD2    H313121   3.764   3.154  13.174 -0.1389  0.1754  0.6635
  895MPD2     N13122   3.670   2.728  13.297 -0.0998 -0.5801  0.1265
  895MPD2    H513123   3.700   2.690  13.208 -0.5573  0.5597 -0.5110
  895MPD2    N113124   3.384   3.088  13.410 -0.2896 -0.1159  0.2003
  895MPD2    H713125   3.341   3.025  13.478  1.4281 -0.0861  1.3310
  896MPD2     C13126   4.186   1.388   1.165  1.1562  0.0131  0.0681
  896MPD2    C113127   4.214   1.259   1.139 -0.3402  0.1132 -0.3555
  896MPD2    C213128   4.127   1.154   1.163  0.3976 -0.3141 -0.1524
  896MPD2    C313129   3.999   1.177   1.213  0.1876  0.3993 -0.1206
  896MPD2    C413130   3.972   1.312   1.237  0.6972  0.8388 -0.0082
  896MPD2    C513131   4.064   1.414   1.222 -0.2809 -0.3269  0.1434
  896MPD2     H13132   4.158   1.050   1.155 -0.5493 -0.5844 -0.2779
  896MPD2    H113133   3.884   1.345   1.292  1.7251  2.1780  0.8238
  896MPD2    H213134   4.258   1.467   1.148  2.0282 -1.0095 -1.0248
  896MPD2    H313135   4.047   1.518   1.244  1.4040 -0.0510  0.1584
  896MPD2     N13136   3.914   1.065   1.242 -0.1433 -0.3881 -0.3121
  896MPD2    H513137   3.933   0.972   1.206  2.0125 -0.4494  1.0137
  896MPD2    N113138   4.339   1.235   1.089  0.4370 -0.3561  0.2606
  896MPD2    H713139   4.402   1.313   1.098  0.9496 -0.6645 -0.5981
  897MPD2     C13140   1.748   2.974  10.189 -0.7483 -0.8620  0.1649
  897MPD2    C113141   1.678   3.067  10.257  0.1146 -0.2263  1.0002
  897MPD2    C213142   1.573   3.040  10.345 -0.3575 -0.4788 -0.7384
  897MPD2    C313143   1.552   2.909  10.378  0.0494 -0.2470  0.1941
  897MPD2    C413144   1.618   2.810  10.311 -0.1841 -0.2065 -0.4229
  897MPD2    C513145   1.708   2.844  10.209 -0.4963 -0.1248 -0.6728
  897MPD2     H13146   1.528   3.117  10.407 -0.2016 -2.4748  1.8678
  897MPD2    H113147   1.616   2.708  10.345  1.9174 -0.8128 -2.1200
  897MPD2    H213148   1.822   3.012  10.119  0.1030 -1.2634  0.8536
  897MPD2    H313149   1.742   2.760  10.149 -0.1566 -0.2474 -0.3035
  897MPD2     N13150   1.464   2.888  10.488  0.0182  0.5876 -0.3902
  897MPD2    H513151   1.404   2.965  10.516 -3.1213 -0.6109 -3.7202
  897MPD2    N113152   1.716   3.200  10.244 -0.3303 -0.4615  0.1803
  897MPD2    H713153   1.774   3.222  10.163  1.1847 -0.2491  1.3281
  898MPD2     C13154   4.384   3.426   0.855 -0.1569  0.1889  0.3946
  898MPD2    C113155   4.273   3.462   0.922 -0.6102 -0.4595 -0.4148
  898MPD2    C213156   4.155   3.472   0.850 -0.1663 -0.2036  0.3596
  898MPD2    C313157   4.142   3.425   0.721  0.2567  1.1208 -0.1633
  898MPD2    C413158   4.252   3.397   0.656  0.1065 -0.6887  0.3737
  898MPD2    C513159   4.372   3.400   0.721 -0.1043  0.1754  0.4084
  898MPD2     H13160   4.064   3.503   0.901  0.2271  0.0950  0.8892
  898MPD2    H113161   4.253   3.371   0.551  1.6589 -1.6126  0.6148
  898MPD2    H213162   4.482   3.428   0.903  0.6805 -0.1072 -1.2971
  898MPD2    H313163   4.461   3.368   0.668  0.8074  0.8610  1.5342
  898MPD2     N13164   4.017   3.422   0.648 -0.1624  0.1890 -0.6345
  898MPD2    H513165   3.934   3.461   0.691 -0.1192  0.6669 -0.9934
  898MPD2    N113166   4.272   3.494   1.054  0.6488  0.6202 -0.2044
  898MPD2    H713167   4.182   3.516   1.095  0.4914  1.1916 -0.8478
  899MPD2     C13168   4.346   3.873   0.319 -0.3774 -0.3914 -0.0961
  899MPD2    C113169   4.298   3.973   0.400  0.2807 -0.4208 -0.3439
  899MPD2    C213170   4.222   3.938   0.509  0.1572  0.2583  0.5954
  899MPD2    C313171   4.194   3.811   0.536  0.5547 -0.2142  0.3678
  899MPD2    C413172   4.248   3.715   0.461  0.0500 -0.1946  0.2186
  899MPD2    C513173   4.325   3.742   0.356  0.0726 -0.1658 -0.6349
  899MPD2     H13174   4.189   4.012   0.581 -2.4498 -0.2589 -0.0554
  899MPD2    H113175   4.236   3.608   0.479  1.8365 -0.4931 -0.3476
  899MPD2    H213176   4.402   3.900   0.230 -0.6492 -1.0556 -0.4634
  899MPD2    H313177   4.362   3.664   0.291 -0.2951 -0.8233 -0.0553
  899MPD2     N13178   4.100   3.772   0.633  0.0156  0.3638  0.5763
  899MPD2    H513179   4.112   3.672   0.651 -0.6048  0.3596  0.9981
  899MPD2    N113180   4.309   4.106   0.351  0.0585  0.2149 -0.2733
  899MPD2    H713181   4.349   4.108   0.258 -1.5063  2.7732 -0.8748
  900MPD2     C13182   4.021   1.339  12.966  0.3223  0.4007 -0.9119
  900MPD2    C113183   3.945   1.227  12.939 -0.9153  0.5075  0.4377
  900MPD2    C213184   3.831   1.231  12.852  0.0206 -0.1001 -0.8026
  900MPD2    C313185   3.792   1.349  12.799 -0.3851 -0.1327 -0.2978
  900MPD2    C413186   3.864   1.464  12.829  0.0134 -0.7390 -0.3158
  900MPD2    C513187   3.976   1.458  12.906 -0.2354 -0.2367  0.3319
  900MPD2     H13188   3.784   1.135  12.831  1.2568 -0.9099  0.0739
  900MPD2    H113189   3.840   1.562  12.790  0.5132 -1.6270 -2.8222
  900MPD2    H213190   4.108   1.347  13.031 -1.4132 -1.4556  1.6219
  900MPD2    H313191   4.032   1.549  12.927  1.1072 -1.1501  0.7047
  900MPD2     N13192   3.690   1.350  12.698 -0.4777  0.1704  0.2826
  900MPD2    H513193   3.666   1.257  12.665  2.0858 -0.8552  1.2676
  900MPD2    N113194   3.995   1.103  12.986  0.3795 -0.1478 -0.3153
  900MPD2    H713195   4.091   1.096  13.019  0.3807 -1.2469 -0.5377
  901MPD2     C13196   4.032   0.054  13.301  0.1860 -0.2668 -0.1484
  901MPD2    C113197   4.078   0.057  13.169  0.9211  0.4539  0.7052
  901MPD2    C213198   4.080   0.179  13.101  0.6967 -0.1154 -0.4917
  901MPD2    C313199   4.028   0.290  13.162 -0.0024  0.4625  0.1854
  901MPD2    C413200   3.996   0.292  13.296 -0.6332  0.0254  0.4911
  901MPD2    C513201   3.984   0.169  13.361  0.0641  0.2042 -0.3294
  901MPD2     H13202   4.103   0.183  12.995 -1.6835 -1.3372 -1.0703
  901MPD2    H113203   3.965   0.383  13.347 -0.3808 -0.2696  1.1562
  901MPD2    H213204   4.023   4.681  13.354  1.4350  0.1341  0.7918
  901MPD2    H313205   3.938   0.164  13.459 -0.2784  3.8573 -0.3086
  901MPD2     N13206   4.025   0.408  13.081 -0.1465 -0.1425 -0.2826
  901MPD2    H513207   4.052   0.403  12.983  0.2164  0.8077 -0.2316
  901MPD2    N113208   4.114   4.655  13.114  0.7084 -0.4338  0.4262
  901MPD2    H713209   4.087   4.570  13.164  2.0429 -0.6718  0.7425
  902MPD2     C13210   2.816   3.556  12.696  0.3303 -1.1718 -0.0805
  902MPD2    C113211   2.900   3.666  12.728  0.1556 -0.3051  0.3150
  902MPD2    C213212   3.032   3.677  12.674 -0.3239 -0.5426  0.1536
  902MPD2    C313213   3.066   3.582  12.582 -0.0665 -0.6183 -0.0467
  902MPD2    C413214   2.983   3.475  12.561  0.0638  0.4160  0.2262
  902MPD2    C513215   2.857   3.461  12.603 -1.2607 -0.2674  0.0763
  902MPD2     H13216   3.095   3.763  12.693 -1.5390  0.5619 -0.8407
  902MPD2    H113217   3.030   3.402  12.496  0.4853  1.4509 -0.6172
  902MPD2    H213218   2.719   3.544  12.743 -0.3762 -1.1844 -1.5423
  902MPD2    H313219   2.795   3.377  12.573 -0.0605 -0.7164 -1.1279
  902MPD2     N13220   3.178   3.596  12.502  0.3082  0.7338  0.1368
  902MPD2    H513221   3.193   3.523  12.433 -0.0139  0.1422  0.6993
  902MPD2    N113222   2.847   3.764  12.815  0.1508  0.3571 -0.4628
  902MPD2    H713223   2.754   3.753  12.853  0.7502 -2.4580  0.2014
  903MPD2     C13224   3.141   3.563  11.862  0.2472  0.4240 -0.1705
  903MPD2    C113225   3.207   3.478  11.946  0.2762  0.0935  0.2231
  903MPD2    C213226   3.190   3.338  11.930  0.1294 -0.4499 -0.5207
  903MPD2    C313227   3.109   3.287  11.831  0.1906  0.9967 -0.8252
  903MPD2    C413228   3.034   3.371  11.753  0.1958  0.1689  0.2629
  903MPD2    C513229   3.052   3.505  11.772 -1.0043  0.1298 -0.0589
  903MPD2     H13230   3.239   3.265  11.993  1.9768  0.0259 -1.4211
  903MPD2    H113231   2.960   3.341  11.680 -1.3203 -0.3606  2.0074
  903MPD2    H213232   3.143   3.671  11.871 -1.2234  0.7058 -3.4184
  903MPD2    H313233   2.979   3.566  11.719  0.4674  4.1975  2.6331
  903MPD2     N13234   3.091   3.149  11.825  1.1118  0.1341  0.0745
  903MPD2    H513235   3.147   3.086  11.881 -0.3395 -2.1346 -0.9795
  903MPD2    N113236   3.290   3.534  12.046  0.9816  0.0317 -0.4013
  903MPD2    H713237   3.289   3.635  12.055 -2.0563  0.1293 -1.5903
  904MPD2     C13238   3.077   2.810  14.434 -0.0027  0.7433 -0.3837
  904MPD2    C113239   3.170   2.885  14.369  1.0083 -0.2997  1.2291
  904MPD2    C213240   3.292   2.910  14.438  0.3191 -0.7446  0.2479
  904MPD2    C313241   3.319   2.868  14.572  0.4538 -0.1323  0.6975
  904MPD2    C413242   3.217   2.792  14.635  0.9952 -0.6617 -0.2382
  904MPD2    C513243   3.100   2.768  14.568  0.1771 -0.1372  0.2473
  904MPD2     H13244   3.366   2.972  14.390 -1.1622  0.0862 -0.9733
  904MPD2    H113245   3.236   2.758  14.736  1.6125 -1.1674 -0.5250
  904MPD2    H213246   2.982   2.794  14.385 -0.0167 -0.4750  0.0183
  904MPD2    H313247   3.015   2.720  14.616 -1.9386  1.0440 -2.2752
  904MPD2     N13248   3.434   2.920  14.640 -0.2639  0.5073 -0.6237
  904MPD2    H513249   3.503   2.960  14.576 -1.1233  1.0240 -1.2346
  904MPD2    N113250   3.158   2.951  14.245  0.2839 -0.0413  0.5979
  904MPD2    H713251   3.247   2.992  14.220 -0.0516 -0.4808 -1.3804
  905MPD2     C13252   2.863   2.742  13.590  0.5164 -0.5748  0.3385
  905MPD2    C113253   2.993   2.784  13.596  0.0473  0.4847 -0.5709
  905MPD2    C213254   3.082   2.730  13.502  0.3697  0.1586 -0.2077
  905MPD2    C313255   3.047   2.623  13.417 -0.4160 -0.0910  0.0662
  905MPD2    C413256   2.921   2.576  13.432 -0.6441 -0.0489  0.3265
  905MPD2    C513257   2.826   2.635  13.519  0.0569  0.1989 -0.2047
  905MPD2     H13258   3.188   2.753  13.499  0.3325  0.3169 -0.2735
  905MPD2    H113259   2.895   2.487  13.375  0.7262  0.4101 -1.0000
  905MPD2    H213260   2.794   2.793  13.657  0.3107 -1.1332  0.5545
  905MPD2    H313261   2.725   2.597  13.521 -0.1229  0.7029  0.6762
  905MPD2     N13262   3.131   2.552  13.325 -0.2034 -0.3352 -0.3305
  905MPD2    H513263   3.102   2.461  13.290  2.1385 -0.6914 -1.3911
  905MPD2    N113264   3.020   2.890  13.691  0.6114  0.1577  0.3894
  905MPD2    H713265   2.947   2.906  13.760 -0.6707 -2.0341 -0.4860
  906MPD2     C13266   0.304   2.787  11.309 -0.0813  0.8332 -0.0306
  906MPD2    C113267   0.244   2.720  11.204 -0.0716 -0.0939  0.5845
  906MPD2    C213268   0.186   2.601  11.229  0.3704  0.0890 -0.2858
  906MPD2    C313269   0.180   2.539  11.350 -0.4258 -0.0028 -0.1184
  906MPD2    C413270   0.238   2.601  11.456 -0.1517 -0.4674 -0.4846
  906MPD2    C513271   0.300   2.722  11.433  0.4119  0.0434 -0.2138
  906MPD2     H13272   0.149   2.543  11.145 -0.3560 -0.9399  0.7469
  906MPD2    H113273   0.242   2.553  11.553 -0.8666  1.1720  0.3534
  906MPD2    H213274   0.375   2.868  11.298 -0.4109  1.0531 -0.5560
  906MPD2    H313275   0.351   2.768  11.517 -1.2293  0.1776  0.7242
  906MPD2     N13276   0.131   2.409  11.381 -0.0432  0.0300 -0.1810
  906MPD2    H513277   0.130   2.366  11.473  0.9724  1.0199  0.2975
  906MPD2    N113278   0.249   2.759  11.068 -0.0000 -0.4794  0.1259
  906MPD2    H713279   0.208   2.698  10.998 -0.6040 -0.4132  0.4179
  907MPD2     C13280   3.715   2.031  16.203  0.3368 -0.2752 -0.1197
  907MPD2    C113281   3.687   1.940  16.105 -0.5124  0.6319 -0.0731
  907MPD2    C213282   3.683   1.805  16.137 -0.6865  0.1597  0.0974
  907MPD2    C313283   3.673   1.767  16.272 -0.1090 -1.0463  0.3184
  907MPD2    C413284   3.669   1.867  16.370 -0.7637 -0.7463  0.5511
  907MPD2    C513285   3.692   1.996  16.334  0.2250 -1.0866 -0.8286
  907MPD2     H13286   3.675   1.734  16.055 -1.1632  1.0752 -0.6538
  907MPD2    H113287   3.662   1.849  16.477  3.1979 -0.0389  0.9030
  907MPD2    H213288   3.746   2.134  16.187  0.4917 -0.4207 -0.7237
  907MPD2    H313289   3.697   2.078  16.405  3.0039 -3.8760  2.1360
  907MPD2     N13290   3.665   1.627  16.292 -1.0080  0.0097  0.2959
  907MPD2    H513291   3.660   1.565  16.212 -1.8766  0.5402 -0.0528
  907MPD2    N113292   3.689   1.982  15.970  0.0849 -0.5220  0.5266
  907MPD2    H713293   3.653   1.914  15.903 -0.3142 -0.4357  0.6589
  908MPD2     C13294   1.504   3.679   9.546  0.3010 -0.0091  0.0519
  908MPD2    C113295   1.444   3.579   9.617 -0.9231 -0.9580  0.2864
  908MPD2    C213296   1.484   3.558   9.749 -0.0596  0.4342  0.4265
  908MPD2    C313297   1.579   3.635   9.810  0.2378  0.6917 -0.0526
  908MPD2    C413298   1.643   3.738   9.737 -0.9578  0.7904  0.0649
  908MPD2    C513299   1.601   3.758   9.607 -0.5104  0.1848  0.1863
  908MPD2     H13300   1.425   3.484   9.802  2.4793 -0.8978  1.3672
  908MPD2    H113301   1.730   3.792   9.774 -0.7100  0.1396  0.4497
  908MPD2    H213302   1.484   3.699   9.441  1.6167  0.8010 -0.0406
  908MPD2    H313303   1.642   3.835   9.543 -2.3453 -0.1038 -1.3553
  908MPD2     N13304   1.612   3.604   9.947 -0.1877 -0.5636 -0.1746
  908MPD2    H513305   1.561   3.534   9.999 -0.6729  0.5719  0.8961
  908MPD2    N113306   1.338   3.505   9.565 -0.5817  0.0491 -0.3891
  908MPD2    H713307   1.305   3.422   9.613 -1.4221  0.0254 -0.9990
  909MPD2     C13308   2.025   0.588  11.587  0.2144 -0.1616  0.2555
  909MPD2    C113309   2.055   0.719  11.585 -0.2552 -0.0854 -0.4014
  909MPD2    C213310   2.005   0.796  11.682  0.2084  0.1812 -0.3642
  909MPD2    C313311   1.912   0.745  11.772 -0.0960 -0.1985 -0.0617
  909MPD2    C413312   1.883   0.610  11.774  0.9526 -1.0542  0.1512
  909MPD2    C513313   1.943   0.531  11.685 -0.1768  0.1587 -0.1849
  909MPD2     H13314   2.018   0.903  11.684  0.6989  0.1511 -2.4431
  909MPD2    H113315   1.817   0.565  11.848  0.8252 -0.4645  0.4008
  909MPD2    H213316   2.076   0.524  11.516 -0.8270 -2.4080  1.5373
  909MPD2    H313317   1.917   0.426  11.683  0.0426  0.1085 -0.5533
  909MPD2     N13318   1.844   0.835  11.853 -0.5404  0.2952 -0.2401
  909MPD2    H513319   1.853   0.935  11.842 -0.0889  0.2235 -0.5045
  909MPD2    N113320   2.132   0.786  11.490 -0.0154  0.6452  0.5499
  909MPD2    H713321   2.127   0.888  11.488  0.5853  0.7226  2.7972
  910MPD2     C13322   3.521   2.400  16.027 -0.3046 -0.5619 -0.0390
  910MPD2    C113323   3.419   2.326  15.964  0.4208 -0.1982 -0.0009
  910MPD2    C213324   3.379   2.380  15.845 -0.4581 -0.0197 -0.5372
  910MPD2    C313325   3.437   2.494  15.790  0.0643  0.4523 -0.8434
  910MPD2    C413326   3.549   2.550  15.847 -0.1845 -0.0533  0.6215
  910MPD2    C513327   3.585   2.506  15.969  0.3500 -0.8635 -0.4858
  910MPD2     H13328   3.297   2.325  15.799  1.2774 -1.4300 -1.9198
  910MPD2    H113329   3.608   2.628  15.800  2.2012 -2.0513  0.2710
  910MPD2    H213330   3.557   2.375  16.125  0.3143 -1.7814 -0.5796
  910MPD2    H313331   3.665   2.558  16.019 -0.1822 -0.5202 -0.0037
  910MPD2     N13332   3.383   2.569  15.680 -0.1178  0.4418 -0.4850
  910MPD2    H513333   3.426   2.658  15.657 -1.8242  1.5075  0.3968
  910MPD2    N113334   3.358   2.209  16.026  0.0147 -0.0110 -0.3910
  910MPD2    H713335   3.298   2.153  15.966 -0.5301 -1.8464  1.8732
  911MPD2     C13336   0.711   3.020  16.559 -0.7959  0.1993  0.0216
  911MPD2    C113337   0.803   3.119  16.562 -0.2958  0.2386  0.5970
  911MPD2    C213338   0.780   3.249  16.518 -0.3670  0.8927 -0.6089
  911MPD2    C313339   0.654   3.274  16.463  0.0355 -0.5855 -0.0103
  911MPD2    C413340   0.564   3.173  16.454 -0.7878 -0.0293  0.1022
  911MPD2    C513341   0.593   3.041  16.494 -0.3013  0.2362  0.0830
  911MPD2     H13342   0.849   3.332  16.524 -0.7635  1.0419  2.1261
  911MPD2    H113343   0.461   3.180  16.422 -0.2364 -0.4169 -1.7289
  911MPD2    H213344   0.732   2.927  16.611 -0.2173  0.9363  1.1195
  911MPD2    H313345   0.516   2.965  16.493  1.1810 -1.2688 -2.7610
  911MPD2     N13346   0.613   3.404  16.409  0.4923  0.1677  0.2505
  911MPD2    H513347   0.526   3.404  16.356  1.2504 -0.6764 -1.0057
  911MPD2    N113348   0.925   3.076  16.612 -0.4200  1.0240 -0.7451
  911MPD2    H713349   0.931   2.975  16.627 -0.0691  0.9658 -1.2938
  912MPD2     C13350   0.598   3.165  15.859 -0.4081  0.1518 -0.1770
  912MPD2    C113351   0.512   3.238  15.941 -0.1771 -0.0952  0.3134
  912MPD2    C213352   0.405   3.170  15.993 -0.3570  0.6250  0.3319
  912MPD2    C313353   0.391   3.037  15.974 -0.7478 -0.3686 -0.0488
  912MPD2    C413354   0.477   2.965  15.894  0.3638 -0.9990  0.3987
  912MPD2    C513355   0.579   3.029  15.842 -0.4342  0.5296 -0.3522
  912MPD2     H13356   0.342   3.222  16.064 -1.4520 -1.5097  0.9472
  912MPD2    H113357   0.468   2.857  15.895 -0.6576 -0.8900  2.7200
  912MPD2    H213358   0.683   3.219  15.819  2.2053 -2.2732  2.0716
  912MPD2    H313359   0.650   2.981  15.776 -1.5628  0.0434 -1.2193
  912MPD2     N13360   0.288   2.980  16.055 -0.5179 -0.5357 -0.0497
  912MPD2    H513361   0.234   3.046  16.110  1.5386 -0.6075  2.0934
  912MPD2    N113362   0.544   3.375  15.969 -0.5019 -0.2907 -0.1202
  912MPD2    H713363   0.635   3.407  15.938  0.6039 -1.7916  1.5635
  913MPD2     C13364   1.438   4.148  10.466  0.0194  0.6850 -0.0504
  913MPD2    C113365   1.464   4.288  10.482  0.1061 -1.1421  1.0590
  913MPD2    C213366   1.394   4.378  10.409  0.2610 -0.0426 -0.4089
  913MPD2    C313367   1.313   4.332  10.306 -0.3036  0.5674 -0.2054
  913MPD2    C413368   1.298   4.197  10.286  0.0862  0.7776 -0.1009
  913MPD2    C513369   1.352   4.106  10.369 -0.1937 -1.0732 -0.0964
  913MPD2     H13370   1.410   4.484  10.423 -1.8948  0.0942  1.0419
  913MPD2    H113371   1.238   4.162  10.203 -2.5244  2.6668  1.0154
  913MPD2    H213372   1.490   4.073  10.524 -0.8754 -0.5274 -0.8271
  913MPD2    H313373   1.330   4.000  10.361 -1.4607 -0.9223  1.2195
  913MPD2     N13374   1.240   4.417  10.217 -0.5858  0.2185 -0.0236
  913MPD2    H513375   1.188   4.367  10.144  2.1136  0.5060 -2.1509
  913MPD2    N113376   1.546   4.339  10.587 -0.3591  0.1306 -0.0069
  913MPD2    H713377   1.574   4.268  10.653 -0.6034  1.0081  1.0467
  914MPD2     C13378   4.190   4.413  12.198 -0.3031 -0.0668 -0.2671
  914MPD2    C113379   4.135   4.515  12.280 -0.5106  0.4267  0.0034
  914MPD2    C213380   4.187   4.530  12.407  0.5151 -0.6580 -0.4535
  914MPD2    C313381   4.288   4.449  12.451  0.4224  0.8346 -0.0907
  914MPD2    C413382   4.342   4.344  12.369  0.0584  0.5592  0.0562
  914MPD2    C513383   4.290   4.335  12.245 -0.4565 -0.3832  0.7316
  914MPD2     H13384   4.153   4.603  12.480  0.2773  0.7049 -1.9281
  914MPD2    H113385   4.412   4.267  12.400  1.5804  1.0635 -2.0789
  914MPD2    H213386   4.150   4.401  12.098  0.7751 -1.6615 -0.5183
  914MPD2    H313387   4.322   4.249  12.187  0.8505 -1.0111  2.3960
  914MPD2     N13388   4.301   4.450  12.589 -0.1831 -1.5030 -0.1513
  914MPD2    H513389   4.237   4.516  12.632  0.0700 -2.3129  1.4550
  914MPD2    N113390   4.043   4.611  12.230 -0.1999 -0.4686  0.0334
  914MPD2    H713391   4.048   4.621  12.129 -2.4860 -3.5594 -0.4066
  915MPD2     C13392   2.710   4.608  15.841 -0.7995 -0.1616  0.3933
  915MPD2    C113393   2.614   4.701  15.807  0.6116  0.5181 -0.5137
  915MPD2    C213394   2.538   0.035  15.907 -0.1480 -0.2010  0.6680
  915MPD2    C313395   2.561   4.719  16.040 -0.3552  0.2831  0.2510
  915MPD2    C413396   2.662   4.640  16.075 -0.2209  0.0233 -0.1693
  915MPD2    C513397   2.739   4.587  15.977 -0.0249  1.3737 -0.6715
  915MPD2     H13398   2.464   0.108  15.878 -2.4457 -3.0053 -0.4863
  915MPD2    H113399   2.686   4.619  16.178  0.2346 -0.7387 -0.4246
  915MPD2    H213400   2.783   4.568  15.771  0.9502  1.0661  1.5166
  915MPD2    H313401   2.834   4.540  15.999 -0.4823  0.6380 -0.2880
  915MPD2     N13402   2.488   0.070  16.140  0.0645 -0.4364 -0.8189
  915MPD2    H513403   2.432   0.149  16.110 -2.3613 -0.7654  2.8963
  915MPD2    N113404   2.600   0.005  15.672 -0.1481 -0.3190 -0.4072
  915MPD2    H713405   2.649   4.670  15.604  0.8111  0.0091  0.0182
  916MPD2     C13406   4.591   2.869  15.791 -0.0111 -0.7178 -0.1878
  916MPD2    C113407   4.628   2.784  15.893 -0.0077  0.0012  0.0120
  916MPD2    C213408   0.026   2.715  15.878  0.0143  0.3823  0.0483
  916MPD2    C313409   0.102   2.725  15.768 -0.9930 -0.1652 -0.3595
  916MPD2    C413410   0.057   2.802  15.664 -0.8786 -0.2606 -0.4485
  916MPD2    C513411   4.665   2.869  15.675 -0.0596 -0.2581  0.3027
  916MPD2     H13412   0.065   2.658  15.962 -0.3182 -0.9239 -0.6848
  916MPD2    H113413   0.107   2.813  15.569 -1.0086  2.8909 -0.1407
  916MPD2    H213414   4.505   2.936  15.793  0.8726  0.3678  0.8922
  916MPD2    H313415   4.629   2.920  15.586 -0.5883 -0.0998  0.6122
  916MPD2     N13416   0.228   2.659  15.756  0.6658 -0.1778  0.6436
  916MPD2    H513417   0.232   2.583  15.824 -3.0537  0.1921  1.2784
  916MPD2    N113418   4.547   2.782  16.005 -0.4505 -0.0608  0.4545
  916MPD2    H713419   4.457   2.826  15.989  0.3667  1.4868  0.1614
  917MPD2     C13420   0.830   0.825  11.769 -0.0906 -0.1595 -0.2274
  917MPD2    C113421   0.695   0.813  11.764  0.4896  0.1605  0.5350
  917MPD2    C213422   0.616   0.908  11.699  0.1759  0.1359  0.0214
  917MPD2    C313423   0.679   1.020  11.654 -0.1976 -0.0203 -0.1460
  917MPD2    C413424   0.809   1.037  11.665  0.3972  0.5366 -0.1071
  917MPD2    C513425   0.891   0.939  11.717  0.3099 -0.0252 -0.1596
  917MPD2     H13426   0.508   0.896  11.688  0.4888 -0.1934 -2.6870
  917MPD2    H113427   0.867   1.124  11.635  2.5349 -0.3303  1.5513
  917MPD2    H213428   0.886   0.751  11.824 -0.3579 -0.6374 -0.5952
  917MPD2    H313429   0.998   0.955  11.716  0.2551  0.3979  0.5363
  917MPD2     N13430   0.601   1.119  11.595 -0.0980  0.3809  0.0715
  917MPD2    H513431   0.503   1.116  11.623 -0.7897 -1.4075 -2.5056
  917MPD2    N113432   0.627   0.702  11.827 -0.0768  0.0506 -0.0795
  917MPD2    H713433   0.688   0.656  11.894 -1.8844 -0.1315  1.4283
  918MPD2     C13434   0.902   0.558  12.592  0.5508 -0.6614  0.8722
  918MPD2    C113435   0.948   0.588  12.459 -0.7542  0.0315  0.7398
  918MPD2    C213436   0.857   0.564  12.361 -0.1291 -0.4585  0.0505
  918MPD2    C313437   0.726   0.520  12.379 -0.0579 -0.1637 -0.1072
  918MPD2    C413438   0.683   0.502  12.510  1.0976  0.3067 -0.2302
  918MPD2    C513439   0.771   0.515  12.614  0.1567  0.2636  0.2411
  918MPD2     H13440   0.886   0.572  12.257  0.5333  2.4688  0.4888
  918MPD2    H113441   0.588   0.452  12.522  1.6980 -0.7281  0.1924
  918MPD2    H213442   0.950   0.590  12.683 -0.6254  2.1474  0.5202
  918MPD2    H313443   0.734   0.488  12.713  0.9597 -1.1473  0.1510
  918MPD2     N13444   0.648   0.506  12.265 -0.2416 -0.5060  0.1419
  918MPD2    H513445   0.693   0.531  12.178 -1.1083  1.0291  0.1340
  918MPD2    N113446   1.081   0.612  12.417  0.2679  1.0635 -0.0648
  918MPD2    H713447   1.107   0.606  12.319 -0.8855 -0.2979 -0.2936
  919MPD2     C13448   1.452   4.252  11.926 -0.1541 -1.2421 -0.1670
  919MPD2    C113449   1.448   4.121  11.881  1.3115  0.3741 -0.1674
  919MPD2    C213450   1.462   4.092  11.744 -0.2653 -0.2954  0.0853
  919MPD2    C313451   1.482   4.192  11.650 -0.8381 -0.5989 -0.2364
  919MPD2    C413452   1.478   4.325  11.703 -0.8310 -0.7344  0.0549
  919MPD2    C513453   1.484   4.356  11.835  0.1835  0.0019 -0.6140
  919MPD2     H13454   1.463   3.986  11.722 -0.6571 -0.9831  3.4420
  919MPD2    H113455   1.481   4.415  11.642  0.6660 -0.7208  0.1603
  919MPD2    H213456   1.443   4.281  12.030  1.5881  0.4564 -0.4730
  919MPD2    H313457   1.467   4.463  11.849  0.1916 -0.2610  1.3565
  919MPD2     N13458   1.493   4.170  11.513  0.1498  0.5653 -0.1207
  919MPD2    H513459   1.506   4.250  11.451 -0.1765  1.8615  1.4850
  919MPD2    N113460   1.427   4.007  11.968  0.5213  0.5799  0.2741
  919MPD2    H713461   1.393   3.918  11.931 -1.4953  1.9955 -1.2630
  920MPD2     C13462   1.119   4.426  10.610  0.1438  0.0010 -0.0147
  920MPD2    C113463   1.094   4.294  10.621 -0.1846 -0.3944 -0.6454
  920MPD2    C213464   1.155   4.226  10.723  0.0452 -0.0018 -0.8295
  920MPD2    C313465   1.233   4.288  10.821  0.1492 -0.2223 -0.8522
  920MPD2    C413466   1.246   4.423  10.807 -0.1701 -0.4838 -0.3240
  920MPD2    C513467   1.194   4.493  10.707 -0.3857 -0.5070 -0.3619
  920MPD2     H13468   1.145   4.118  10.719 -0.5129  0.1491 -3.3822
  920MPD2    H113469   1.307   4.485  10.871  0.4831 -0.3682 -1.0510
  920MPD2    H213470   1.076   4.476  10.524  0.8626 -1.7392 -1.3769
  920MPD2    H313471   1.219   4.597  10.694 -0.4892 -0.7302 -2.3670
  920MPD2     N13472   1.293   4.210  10.919 -0.0325 -0.4283 -0.4023
  920MPD2    H513473   1.284   4.109  10.918 -0.5136 -0.4025  1.9572
  920MPD2    N113474   1.022   4.215  10.527 -0.4744 -0.8124 -0.2647
  920MPD2    H713475   1.027   4.116  10.547 -0.1595 -0.7799 -0.1794
  921MPD2     C13476   2.015   3.007  16.529  0.3883 -0.0286  0.1369
  921MPD2    C113477   1.941   3.126  16.519 -0.2873 -0.2882 -0.5062
  921MPD2    C213478   1.805   3.129  16.558 -0.0244 -0.1350 -0.3050
  921MPD2    C313479   1.745   3.016  16.607  0.0489  0.3937  0.9029
  921MPD2    C413480   1.829   2.907  16.625 -0.0428  0.0831  0.0160
  921MPD2    C513481   1.959   2.899  16.582  0.8478  1.0980 -0.4757
  921MPD2     H13482   1.750   3.221  16.543 -3.5149 -1.9316  1.7191
  921MPD2    H113483   1.802   2.822  16.688  0.1080 -0.8255 -1.1426
  921MPD2    H213484   2.118   2.993  16.498  1.4219  1.8902  2.6346
  921MPD2    H313485   2.022   2.812  16.592 -1.4990 -0.6756 -1.1054
  921MPD2     N13486   1.608   2.997  16.633  0.1956  0.1513  0.0422
  921MPD2    H513487   1.590   2.908  16.679 -1.8731  0.1689 -0.7548
  921MPD2    N113488   2.011   3.238  16.466 -0.4086 -0.5703  0.9262
  921MPD2    H713489   2.107   3.219  16.439 -1.0092 -0.3688 -1.3461
  922MPD2     C13490   2.385   1.275  17.272 -0.9060  0.2328  0.3395
  922MPD2    C113491   2.292   1.246  17.363 -0.6145 -0.3278 -0.4480
  922MPD2    C213492   2.268   1.117  17.406  0.1591 -0.2041  0.1383
  922MPD2    C313493   2.342   1.011  17.357  0.4301  0.6209 -0.0120
  922MPD2    C413494   2.443   1.042  17.268 -0.1428 -0.8097  0.1116
  922MPD2    C513495   2.458   1.171  17.227  0.6002  0.5301 -0.1669
  922MPD2     H13496   2.199   1.098  17.487  0.7878 -0.7913  0.5336
  922MPD2    H113497   2.506   0.973  17.214  0.8882 -0.5382  0.9804
  922MPD2    H213498   2.400   1.372  17.226  1.0300 -0.0909  0.2916
  922MPD2    H313499   2.538   1.180  17.153 -2.0765  0.0457 -3.1074
  922MPD2     N13500   2.310   0.888  17.405  0.1498  0.9059 -0.1643
  922MPD2    H513501   2.227   0.876  17.463  0.1825  0.5604 -0.1882
  922MPD2    N113502   2.198   1.337  17.414  0.1235 -0.7322  0.3561
  922MPD2    H713503   2.138   1.307  17.491  0.6155 -2.5964  0.0212
  923MPD2     C13504   3.967   3.535   8.890 -0.4944 -0.5334 -0.7132
  923MPD2    C113505   4.009   3.565   9.018 -0.1510 -0.1678 -0.8384
  923MPD2    C213506   4.072   3.469   9.095 -0.4839 -0.0796 -0.1319
  923MPD2    C313507   4.090   3.340   9.042  0.1382  0.6139 -0.5051
  923MPD2    C413508   4.054   3.318   8.912 -1.1078  0.2717  0.4172
  923MPD2    C513509   3.994   3.416   8.840 -0.6962 -1.3235 -0.3622
  923MPD2     H13510   4.112   3.490   9.194 -0.5998  2.1068 -0.5489
  923MPD2    H113511   4.072   3.218   8.875  0.9079  0.2471  1.4741
  923MPD2    H213512   3.908   3.601   8.828 -0.6018 -0.0963 -0.1555
  923MPD2    H313513   3.964   3.398   8.737 -2.0386  0.4193 -0.2857
  923MPD2     N13514   4.155   3.242   9.123 -0.5136  0.2512 -0.0748
  923MPD2    H513515   4.180   3.270   9.217  0.8959  0.9845 -0.6508
  923MPD2    N113516   3.977   3.693   9.075  0.3154  0.6510 -0.0453
  923MPD2    H713517   3.920   3.751   9.015  0.9224  1.4329  0.1346
  924MPD2     C13518   3.873   1.157  15.724  0.7574  0.0594  0.4605
  924MPD2    C113519   3.900   1.062  15.819  0.3162 -0.0483  0.7646
  924MPD2    C213520   3.918   1.098  15.953  0.0373 -0.2101  0.3000
  924MPD2    C313521   3.926   1.237  15.988  0.0103 -0.5118  0.1965
  924MPD2    C413522   3.925   1.330  15.886  0.1334  0.0371 -0.5399
  924MPD2    C513523   3.903   1.288  15.758 -0.3005 -0.5504  0.1110
  924MPD2     H13524   3.930   1.025  16.032  4.5174  1.1446  0.8578
  924MPD2    H113525   3.938   1.436  15.906  0.3927 -0.4333  1.7738
  924MPD2    H213526   3.845   1.133  15.622  0.7844  0.8374  0.2708
  924MPD2    H313527   3.896   1.366  15.683  3.2502 -1.1840 -0.8613
  924MPD2     N13528   3.922   1.290  16.120  0.3916  0.1770  0.3336
  924MPD2    H513529   3.922   1.390  16.136 -2.6124  0.1718  0.3213
  924MPD2    N113530   3.874   0.928  15.773 -0.3360 -0.3138  0.0464
  924MPD2    H713531   3.830   0.914  15.683  1.1745 -0.1048 -0.7250
  925MPD2     C13532   3.361   4.111  14.775 -0.5195  0.1084  0.2725
  925MPD2    C113533   3.230   4.144  14.754 -0.0558  0.8159  0.0878
  925MPD2    C213534   3.147   4.161  14.871 -0.0239  0.7303  0.3533
  925MPD2    C313535   3.201   4.144  14.995  0.6228 -0.0633 -0.2194
  925MPD2    C413536   3.331   4.119  15.019 -0.3633  0.2122  0.4393
  925MPD2    C513537   3.407   4.108  14.909 -0.1773 -0.0050  0.1121
  925MPD2     H13538   3.043   4.179  14.846 -0.0998 -0.7191 -0.3670
  925MPD2    H113539   3.380   4.111  15.116  0.4552  0.8700  0.0748
  925MPD2    H213540   3.438   4.105  14.699 -0.4082 -2.0240  0.5380
  925MPD2    H313541   3.514   4.098  14.924 -0.1019  1.8202  0.7746
  925MPD2     N13542   3.123   4.138  15.116 -0.0912  0.4976 -0.1758
  925MPD2    H513543   3.165   4.103  15.201 -1.6288  1.7946  1.1140
  925MPD2    N113544   3.173   4.147  14.625  0.2944 -0.1732  0.3610
  925MPD2    H713545   3.073   4.164  14.628  0.9692  3.7581  0.9818
  926MPD2     C13546   1.303   2.155  13.273  0.6469 -0.0508  0.8636
  926MPD2    C113547   1.418   2.202  13.333  0.0945 -0.3690 -0.5519
  926MPD2    C213548   1.513   2.268  13.254  0.1407 -0.1305  0.1405
  926MPD2    C313549   1.482   2.300  13.128  0.4881 -0.6336  0.7990
  926MPD2    C413550   1.360   2.264  13.077 -0.1377 -0.6448 -0.7832
  926MPD2    C513551   1.274   2.184  13.146  0.3414  0.3408  0.4222
  926MPD2     H13552   1.605   2.290  13.306 -0.6519 -0.9016  1.8565
  926MPD2    H113553   1.330   2.289  12.976 -0.7567 -1.9731 -0.9220
  926MPD2    H213554   1.232   2.085  13.317 -1.0533  0.5618 -0.9445
  926MPD2    H313555   1.182   2.146  13.103  0.7011 -0.5920  0.4678
  926MPD2     N13556   1.566   2.381  13.055 -0.1686 -0.4263  0.0668
  926MPD2    H513557   1.530   2.414  12.965  1.0748  2.1848  0.5211
  926MPD2    N113558   1.442   2.189  13.473 -0.6659  0.3616  0.2570
  926MPD2    H713559   1.528   2.229  13.508 -1.5410  0.1848  2.6313
  927MPD2     C13560   1.751   4.061   0.552 -1.0441  0.0988 -0.1578
  927MPD2    C113561   1.707   4.187   0.512 -0.1393  0.5242 -0.1149
  927MPD2    C213562   1.707   4.205   0.375 -0.4173  0.8216 -0.6859
  927MPD2    C313563   1.752   4.114   0.281 -0.9271 -0.1464 -0.2808
  927MPD2    C413564   1.805   4.000   0.332 -0.4191 -0.3443  0.2540
  927MPD2    C513565   1.798   3.967   0.465 -0.1233  0.0770  0.3852
  927MPD2     H13566   1.683   4.301   0.332 -0.8670  1.1712  0.3368
  927MPD2    H113567   1.843   3.918   0.272 -0.0803  0.1548 -0.2176
  927MPD2    H213568   1.735   4.041   0.657  0.6562  1.8751  0.4374
  927MPD2    H313569   1.837   3.869   0.487 -0.1218 -0.5397 -2.4482
  927MPD2     N13570   1.760   4.158   0.144 -0.4535  0.2663 -0.0879
  927MPD2    H513571   1.728   4.252   0.121  0.8292  1.1548  1.7201
  927MPD2    N113572   1.668   4.283   0.612  0.7748 -0.5131 -0.2025
  927MPD2    H713573   1.655   4.247   0.706 -0.1907  3.3670  1.1257
  928MPD2     C13574   3.409   3.237   0.816  0.4065 -0.1533  0.2238
  928MPD2    C113575   3.481   3.215   0.928 -0.2349  0.1129  0.0151
  928MPD2    C213576   3.615   3.172   0.918 -0.1831  0.0721 -0.0764
  928MPD2    C313577   3.681   3.154   0.796  0.1168  0.3414 -0.1516
  928MPD2    C413578   3.603   3.172   0.681  0.6794 -0.0694  0.1046
  928MPD2    C513579   3.476   3.219   0.688  0.3571  0.7234  0.0009
  928MPD2     H13580   3.673   3.168   1.010  0.7513  1.4480 -0.5936
  928MPD2    H113581   3.632   3.150   0.579  0.2234 -0.1362 -0.0078
  928MPD2    H213582   3.310   3.281   0.813  0.2726 -0.2612  3.0933
  928MPD2    H313583   3.419   3.240   0.599 -0.8938  2.2794  1.1642
  928MPD2     N13584   3.818   3.115   0.773 -0.6035  0.2310 -0.2195
  928MPD2    H513585   3.847   3.090   0.679  2.4049 -0.8496  1.0023
  928MPD2    N113586   3.422   3.241   1.053  0.1063  0.1815 -0.5640
  928MPD2    H713587   3.340   3.300   1.057  0.6101  0.7926  0.8934
  929MPD2     C13588   3.897   2.751  10.242 -0.0845  0.0521  0.1785
  929MPD2    C113589   3.802   2.720  10.145 -0.1849  0.1761 -0.3070
  929MPD2    C213590   3.791   2.800  10.036  0.2799 -0.2098 -0.3913
  929MPD2    C313591   3.877   2.909  10.023 -0.6419 -0.2437 -0.0652
  929MPD2    C413592   3.961   2.947  10.123  0.2367  1.0780 -0.2133
  929MPD2    C513593   3.969   2.868  10.231 -0.5045  0.3546  0.0290
  929MPD2     H13594   3.702   2.800   9.974  1.3812  2.1091 -1.9743
  929MPD2    H113595   4.026   3.032  10.106  0.1895  0.9064 -1.2739
  929MPD2    H213596   3.919   2.689  10.328 -1.7444  0.2221  0.7236
  929MPD2    H313597   4.040   2.889  10.310  0.6234 -0.6210 -0.7350
  929MPD2     N13598   3.862   3.003   9.916  0.2089  0.2831  0.0402
  929MPD2    H513599   3.914   3.091   9.921  0.6898 -0.1019  1.6174
  929MPD2    N113600   3.710   2.610  10.155 -0.1181 -0.0249 -0.2423
  929MPD2    H713601   3.723   2.546  10.233 -1.5434  0.1323  0.1209
  930MPD2     C13602   1.295   4.719  14.399 -0.6042 -0.3248  0.8936
  930MPD2    C113603   1.310   0.120  14.341 -0.8255  0.2662 -0.9226
  930MPD2    C213604   1.281   0.133  14.210 -0.9492  0.2184  0.1539
  930MPD2    C313605   1.242   0.019  14.138 -0.9221 -0.5829  0.4654
  930MPD2    C413606   1.236   4.617  14.196 -0.3008 -0.4058  0.2739
  930MPD2    C513607   1.257   4.609  14.324 -0.8594 -0.3266  0.0538
  930MPD2     H13608   1.292   0.226  14.156  1.8156 -0.0077  0.3494
  930MPD2    H113609   1.227   4.526  14.138  0.3890  0.1961 -0.7534
  930MPD2    H213610   1.307   4.700  14.505 -0.6249  2.1366  1.3504
  930MPD2    H313611   1.254   4.512  14.372 -2.2180  0.6650  1.9856
  930MPD2     N13612   1.227   0.028  14.000  0.3058 -0.1530  0.0394
  930MPD2    H513613   1.218   4.662  13.950  0.0788 -0.5513  0.7883
  930MPD2    N113614   1.346   0.234  14.418 -0.6340  0.2292  0.2371
  930MPD2    H713615   1.367   0.211  14.515  1.6554 -0.8315 -0.5123
  931MPD2     C13616   1.669   4.579   1.403  0.3544 -0.7316 -0.1370
  931MPD2    C113617   1.617   4.492   1.313  0.4512 -0.6177  0.4269
  931MPD2    C213618   1.518   4.399   1.345  0.8121 -0.2140  0.5074
  931MPD2    C313619   1.446   4.417   1.467 -0.5021  0.0866 -0.2340
  931MPD2    C413620   1.501   4.504   1.567 -0.4037 -0.0776  0.6615
  931MPD2    C513621   1.612   4.582   1.527 -0.0468 -0.3178 -0.3166
  931MPD2     H13622   1.463   4.348   1.267  0.8474 -2.4786  1.9544
  931MPD2    H113623   1.458   4.515   1.665  0.2681  0.1032  0.9381
  931MPD2    H213624   1.734   4.659   1.370  0.3449 -1.5043 -2.0239
  931MPD2    H313625   1.636   4.662   1.596 -0.3651 -0.9090  0.4774
  931MPD2     N13626   1.339   4.338   1.505 -0.4521  0.9678 -0.2694
  931MPD2    H513627   1.289   4.371   1.586  2.1771  1.6799  1.0522
  931MPD2    N113628   1.652   4.515   1.176  0.4387  0.4598  0.0892
  931MPD2    H713629   1.698   4.603   1.155 -0.2404  0.1033 -2.8909
  932MPD2     C13630   3.588   2.941  11.639 -0.3903 -0.6426 -0.3281
  932MPD2    C113631   3.628   3.036  11.728 -0.0542 -1.1270  0.4814
  932MPD2    C213632   3.735   3.002  11.813 -0.3674 -0.4944  0.1025
  932MPD2    C313633   3.801   2.885  11.806  0.8359 -0.1236  0.1429
  932MPD2    C413634   3.758   2.791  11.713  0.6700  0.7498  0.3279
  932MPD2    C513635   3.650   2.823  11.633 -0.5058  0.2132 -0.0363
  932MPD2     H13636   3.762   3.078  11.885  0.5653  0.0726 -0.8443
  932MPD2    H113637   3.801   2.691  11.713  0.5564  0.7029 -0.8375
  932MPD2    H213638   3.500   2.958  11.577  0.3985  0.7785 -1.0712
  932MPD2    H313639   3.610   2.745  11.569  0.1382 -1.3033  1.4051
  932MPD2     N13640   3.902   2.844  11.896 -0.0198 -0.1905 -0.3901
  932MPD2    H513641   3.947   2.753  11.885  0.0457  0.1308 -2.8432
  932MPD2    N113642   3.572   3.171  11.749  0.0812 -0.3840  0.8417
  932MPD2    H713643   3.627   3.233  11.808 -0.7047  1.6554 -0.5561
  933MPD2     C13644   2.751   3.311   1.141 -0.1156  0.7420 -0.1808
  933MPD2    C113645   2.823   3.382   1.235  0.4920 -0.1878 -0.7081
  933MPD2    C213646   2.762   3.471   1.321 -0.0937 -0.0155  0.0211
  933MPD2    C313647   2.630   3.507   1.300 -0.1787  0.4908 -0.3851
  933MPD2    C413648   2.557   3.437   1.209 -0.1007 -0.5209  0.1138
  933MPD2    C513649   2.616   3.346   1.132  0.5063  0.4481  0.0309
  933MPD2     H13650   2.825   3.540   1.375  0.8862 -0.3299 -0.7228
  933MPD2    H113651   2.453   3.460   1.192 -0.1090 -1.6268 -1.2933
  933MPD2    H213652   2.795   3.229   1.086 -1.7976  1.1940 -2.1698
  933MPD2    H313653   2.567   3.285   1.057  2.7260  1.5072 -2.2796
  933MPD2     N13654   2.589   3.604   1.389  0.2850 -0.0955 -0.2414
  933MPD2    H513655   2.652   3.633   1.463 -1.9519 -1.5929  2.2585
  933MPD2    N113656   2.959   3.351   1.250  0.2958  0.7271 -0.5735
  933MPD2    H713657   2.986   3.262   1.209  0.9361  0.0553  1.3042
  934MPD2     C13658   4.418   1.171   1.982 -0.3073 -0.3226 -0.8862
  934MPD2    C113659   4.432   1.075   1.879  0.5902  0.2230 -0.6286
  934MPD2    C213660   4.333   0.981   1.870  1.2439 -0.7070 -0.0785
  934MPD2    C313661   4.219   0.984   1.948  0.9896 -0.4603  0.1191
  934MPD2    C413662   4.200   1.086   2.044  0.4625 -0.1905  0.6569
  934MPD2    C513663   4.304   1.172   2.057 -0.7599  0.9793 -0.1282
  934MPD2     H13664   4.352   0.894   1.808 -0.8520 -0.7015 -0.7043
  934MPD2    H113665   4.116   1.094   2.111 -0.5062 -0.2365 -0.5425
  934MPD2    H213666   4.493   1.247   1.999  0.4962 -1.2102 -0.5061
  934MPD2    H313667   4.292   1.243   2.138 -1.0532  0.0032  0.6899
  934MPD2     N13668   4.124   0.877   1.935 -0.3050  0.0284 -0.1951
  934MPD2    H513669   4.037   0.884   1.987 -0.4511  1.6618 -0.6565
  934MPD2    N113670   4.536   1.063   1.784  0.0036 -0.3754  0.2527
  934MPD2    H713671   4.542   0.977   1.731 -0.4221 -1.6149  2.2370
  935MPD2     C13672   3.758   4.570   1.994  0.7112  0.2469  0.3319
  935MPD2    C113673   3.875   4.602   1.929  0.7698  0.7582 -1.0797
  935MPD2    C213674   3.898   0.019   1.904  0.4541 -0.6090 -0.1113
  935MPD2    C313675   3.812   0.120   1.948 -0.0942  1.0014  0.0181
  935MPD2    C413676   3.693   0.078   2.000 -0.2679 -0.2130 -1.0640
  935MPD2    C513677   3.671   4.665   2.027 -0.0365  0.3230  0.7326
  935MPD2     H13678   3.991   0.040   1.851 -0.1523  0.9595 -0.5511
  935MPD2    H113679   3.624   0.150   2.042 -0.6496 -0.2301 -1.6648
  935MPD2    H213680   3.735   4.467   2.020 -0.3476  0.1675 -0.9238
  935MPD2    H313681   3.581   4.639   2.080 -0.8771 -1.8113 -1.7366
  935MPD2     N13682   3.834   0.257   1.943 -0.2967  0.4235  0.8068
  935MPD2    H513683   3.756   0.316   1.966 -0.3221 -0.6851  3.6019
  935MPD2    N113684   3.969   4.503   1.884 -0.0537  0.1024 -0.5627
  935MPD2    H713685   4.043   4.523   1.818 -0.0538 -0.8427 -0.8444
  936MPD2     C13686   3.404   2.020  12.406  0.7895  0.1327 -0.1919
  936MPD2    C113687   3.435   1.949  12.523  0.2356  0.0643  0.0206
  936MPD2    C213688   3.556   1.882  12.535  0.0489 -0.1202  0.0640
  936MPD2    C313689   3.649   1.891  12.441 -0.4851 -0.1803 -0.4500
  936MPD2    C413690   3.617   1.945  12.319  0.2785 -0.5758 -0.1605
  936MPD2    C513691   3.497   2.011  12.305  0.1734 -0.1399 -0.0295
  936MPD2     H13692   3.587   1.844  12.632  0.7085 -1.5278 -0.6942
  936MPD2    H113693   3.684   1.946  12.234  1.1530 -1.9888  0.5128
  936MPD2    H213694   3.306   2.064  12.393  0.1242 -0.7210  1.9483
  936MPD2    H313695   3.485   2.056  12.207  1.5370 -2.2699 -1.1839
  936MPD2     N13696   3.775   1.837  12.478  0.3861  0.5717  0.7367
  936MPD2    H513697   3.785   1.799  12.572  0.1459  1.0315  0.9503
  936MPD2    N113698   3.350   1.940  12.637 -0.1015  0.1199  0.2666
  936MPD2    H713699   3.372   1.862  12.699  1.2178 -1.2737 -1.9561
  937MPD2     C13700   1.293   3.376  11.799 -0.8576 -0.5259 -0.4199
  937MPD2    C113701   1.411   3.430  11.854  0.0908 -0.2151  0.2879
  937MPD2    C213702   1.523   3.437  11.772 -0.3375  0.0468  0.1541
  937MPD2    C313703   1.515   3.382  11.643 -0.3948 -0.3824 -0.3047
  937MPD2    C413704   1.405   3.314  11.602  0.3947 -0.1156  0.3716
  937MPD2    C513705   1.299   3.301  11.682 -0.1152 -0.0545 -0.3982
  937MPD2     H13706   1.612   3.491  11.803 -1.1657  1.6656 -0.3028
  937MPD2    H113707   1.413   3.262  11.507  1.7476 -3.9066  2.5570
  937MPD2    H213708   1.198   3.381  11.851  0.1641 -1.1421  1.5231
  937MPD2    H313709   1.214   3.245  11.644 -0.3143 -0.0318  0.0127
  937MPD2     N13710   1.631   3.390  11.564 -0.3453 -0.7392 -0.0929
  937MPD2    H513711   1.714   3.433  11.604 -0.8816  2.4118 -2.4036
  937MPD2    N113712   1.411   3.514  11.969 -0.2247  0.1855 -0.2870
  937MPD2    H713713   1.499   3.564  11.977  0.0136 -0.5136  1.4422
  938MPD2     C13714   3.761   4.051   1.425 -0.0690  0.0003  0.6593
  938MPD2    C113715   3.716   4.172   1.490  0.5457 -0.4217  0.3921
  938MPD2    C213716   3.690   4.171   1.625  0.1349  1.2890 -0.1002
  938MPD2    C313717   3.715   4.058   1.705 -0.3998 -0.0176 -0.5408
  938MPD2    C413718   3.764   3.947   1.643  0.5342  0.2451 -0.1929
  938MPD2    C513719   3.781   3.945   1.505 -0.2676  0.0734 -0.0582
  938MPD2     H13720   3.653   4.259   1.675 -2.1173  0.5290 -0.4255
  938MPD2    H113721   3.804   3.866   1.702  1.2176 -0.5913 -1.8031
  938MPD2    H213722   3.794   4.046   1.322  0.8691 -0.9417  1.0126
  938MPD2    H313723   3.818   3.855   1.456 -2.2033 -0.6444 -0.1825
  938MPD2     N13724   3.706   4.071   1.849  0.5420 -0.1569  0.2375
  938MPD2    H513725   3.748   3.990   1.894  1.9307 -0.3321 -1.3723
  938MPD2    N113726   3.688   4.283   1.412  0.4412  0.9357 -0.1658
  938MPD2    H713727   3.640   4.356   1.463  1.5577  2.9055 -1.9662
  939MPD2     C13728   4.221   0.892   0.649  0.4272  0.1331  0.2316
  939MPD2    C113729   4.263   1.023   0.630 -0.0041 -1.4672  0.0393
  939MPD2    C213730   4.367   1.055   0.545 -0.1913  0.5089  0.3006
  939MPD2    C313731   4.423   0.953   0.472  0.2591  0.6832  0.6557
  939MPD2    C413732   4.377   0.822   0.483  0.2655 -0.3451 -0.6317
  939MPD2    C513733   4.285   0.795   0.579  0.7856 -0.1673  0.1931
  939MPD2     H13734   4.400   1.158   0.534 -1.2822  0.9026  0.7316
  939MPD2    H113735   4.422   0.741   0.427 -0.7963 -0.4713 -1.3066
  939MPD2    H213736   4.141   0.873   0.719 -0.6693  0.6121 -0.9007
  939MPD2    H313737   4.252   0.693   0.599 -3.2091  0.1955 -4.5140
  939MPD2     N13738   4.526   0.990   0.380 -0.1015 -1.1061 -0.5138
  939MPD2    H513739   4.524   1.086   0.347 -1.9137 -0.9540  0.0404
  939MPD2    N113740   4.193   1.113   0.709 -0.6583  0.4220  0.0086
  939MPD2    H713741   4.125   1.071   0.772  0.5594 -0.0147  1.0423
  940MPD2     C13742   4.369   1.842  12.337 -0.1530 -0.6153 -0.6979
  940MPD2    C113743   4.399   1.744  12.425 -0.5964  0.6501  0.2230
  940MPD2    C213744   4.330   1.622  12.433  0.2292  0.9704 -0.3042
  940MPD2    C313745   4.233   1.596  12.338  0.5958  0.1751  0.0707
  940MPD2    C413746   4.220   1.683  12.228  0.3645  0.1522 -0.4300
  940MPD2    C513747   4.283   1.802  12.232 -0.3501 -0.3705  0.0348
  940MPD2     H13748   4.354   1.560  12.519 -0.0542  0.5902 -0.5032
  940MPD2    H113749   4.149   1.673  12.147  1.0510  0.9598 -1.1345
  940MPD2    H213750   4.419   1.938  12.326 -2.7600  0.5645 -2.3763
  940MPD2    H313751   4.273   1.876  12.154  2.6994  0.2063  0.1980
  940MPD2     N13752   4.147   1.486  12.347  0.0550  0.4180  0.0129
  940MPD2    H513753   4.087   1.477  12.265 -1.2561  2.4670  0.7542
  940MPD2    N113754   4.478   1.782  12.542  0.3401 -0.3708  0.0213
  940MPD2    H713755   4.481   1.705  12.608  1.8165  0.8566  1.3561
  941MPD2     C13756   3.026   1.201   9.805 -0.2211 -0.0158  0.3099
  941MPD2    C113757   3.141   1.168   9.872 -0.0272 -0.1389 -0.5626
  941MPD2    C213758   3.135   1.049   9.949 -0.6669  0.3686 -0.7661
  941MPD2    C313759   3.014   0.975   9.969  0.3862  0.6965  0.7439
  941MPD2    C413760   2.900   1.020   9.901  1.1025 -0.8050 -0.9663
  941MPD2    C513761   2.912   1.130   9.820 -0.5646 -0.0775 -0.5203
  941MPD2     H13762   3.220   1.017  10.007 -2.5106 -2.8480  0.1543
  941MPD2    H113763   2.806   0.967   9.917 -0.3896  1.6665 -1.5047
  941MPD2    H213764   3.014   1.291   9.746 -0.3619  1.0806  2.0285
  941MPD2    H313765   2.826   1.172   9.768 -0.8773 -0.4656 -0.3191
  941MPD2     N13766   3.002   0.863  10.045 -0.3095 -0.4596 -0.5007
  941MPD2    H513767   2.907   0.828  10.054 -0.3895 -0.3923 -1.0492
  941MPD2    N113768   3.261   1.241   9.878 -0.2869 -0.1334  0.0307
  941MPD2    H713769   3.343   1.198   9.918 -0.2753  1.7078  1.9865
  942MPD2     C13770   3.551   3.853   9.151  0.0496  0.1091  0.1132
  942MPD2    C113771   3.589   3.809   9.023  0.5542 -1.0783 -0.3926
  942MPD2    C213772   3.620   3.675   9.012 -0.3404  0.5525  0.3241
  942MPD2    C313773   3.619   3.598   9.127 -0.0136  0.5865 -0.4391
  942MPD2    C413774   3.593   3.650   9.252  0.0047 -0.0702  1.0527
  942MPD2    C513775   3.543   3.773   9.263  0.4762  0.5202  0.4582
  942MPD2     H13776   3.651   3.626   8.921  0.9687  1.5672  0.2247
  942MPD2    H113777   3.582   3.579   9.333 -1.8103 -2.4538 -1.3033
  942MPD2    H213778   3.530   3.957   9.171 -0.3868 -0.1137  0.8164
  942MPD2    H313779   3.488   3.811   9.348  1.9215 -0.1135  1.6874
  942MPD2     N13780   3.657   3.463   9.123 -0.6492 -0.1873 -0.0185
  942MPD2    H513781   3.651   3.416   9.213  0.9045 -2.0739 -0.9139
  942MPD2    N113782   3.606   3.896   8.907  0.1068  0.2072  0.6056
  942MPD2    H713783   3.638   3.854   8.820 -1.7490  0.5994 -0.2586
  943MPD2     C13784   1.428   1.460   9.633  0.9783 -0.5160 -0.4640
  943MPD2    C113785   1.461   1.343   9.693 -0.5154  0.4811  0.1922
  943MPD2    C213786   1.566   1.342   9.779  0.6385 -0.2745 -0.0449
  943MPD2    C313787   1.653   1.452   9.789 -0.7528 -0.2999 -1.1767
  943MPD2    C413788   1.611   1.569   9.738  0.1463  0.2512 -0.1786
  943MPD2    C513789   1.508   1.567   9.655 -0.0043  0.7107  0.3532
  943MPD2     H13790   1.609   1.247   9.809  0.2985 -1.1563 -2.3685
  943MPD2    H113791   1.659   1.664   9.758 -0.7290  0.4699  0.8676
  943MPD2    H213792   1.336   1.459   9.576 -0.4309 -1.8457  1.8179
  943MPD2    H313793   1.477   1.654   9.597  0.6036  0.2642 -0.6298
  943MPD2     N13794   1.769   1.436   9.861 -0.2460 -0.1394 -0.6571
  943MPD2    H513795   1.790   1.347   9.905 -1.0946  0.1565  0.3527
  943MPD2    N113796   1.377   1.230   9.666 -0.2977  0.5321  0.6156
  943MPD2    H713797   1.290   1.241   9.615  0.3318 -2.2606 -1.0621
  944MPD2     C13798   1.462   0.097  10.801  0.2493  0.0834 -0.3954
  944MPD2    C113799   1.519   0.220  10.769 -0.0308  0.9096 -0.0067
  944MPD2    C213800   1.580   0.294  10.871  0.0241  0.2364 -0.7661
  944MPD2    C313801   1.577   0.256  11.005  0.5065  0.0175 -0.8340
  944MPD2    C413802   1.509   0.144  11.039 -0.1359  0.2408 -0.1003
  944MPD2    C513803   1.454   0.067  10.936 -0.0130 -0.2530 -0.2969
  944MPD2     H13804   1.625   0.390  10.848  0.3703  0.4900  0.9657
  944MPD2    H113805   1.477   0.109  11.137  2.1134 -0.2953  0.4422
  944MPD2    H213806   1.415   0.032  10.729 -0.1152  1.1623 -1.1256
  944MPD2    H313807   1.405   4.694  10.958  0.7772 -1.0690 -1.9719
  944MPD2     N13808   1.639   0.339  11.100  0.0594  0.3342 -0.6069
  944MPD2    H513809   1.671   0.428  11.064 -0.6743  0.4669 -0.9464
  944MPD2    N113810   1.524   0.256  10.632  0.4695  0.5452  0.5240
  944MPD2    H713811   1.487   0.191  10.564  1.3048 -0.1290  0.7052
    1TCq1    O113812   4.359   1.907  14.254 -0.3463  0.3141 -0.0744
    1TCq1    C113813   4.408   1.960  14.363 -0.4941  0.5019 -0.7299
    1TCq1    O213814   4.528   1.975  14.393 -0.6523 -0.2684 -0.0524
    1TCq1    C213815   4.307   2.031  14.438  0.0154 -0.0875  0.0179
    1TCq1    C313816   4.189   1.964  14.458 -0.5931 -0.2900  0.1432
    1TCq1    C413817   4.113   2.000  14.567  0.3271 -0.2725 -0.0199
    1TCq1    C513818   4.153   2.098  14.654 -0.1001 -0.0081 -0.2326
    1TCq1    C613819   4.276   2.154  14.635  1.1518  0.4612 -0.2963
    1TCq1    C713820   4.355   2.130  14.528  0.3847 -0.5588  0.3188
    1TCq1    C813821   4.321   2.245  14.744 -0.0710 -0.3271  0.1592
    1TCq1    O413822   4.242   2.263  14.833  1.0053 -0.4515  0.2002
    1TCq1    C913823   3.997   1.921  14.580 -0.3640 -0.2784  0.6444
    1TCq1    O513824   3.948   1.874  14.476  0.2035  0.2070 -0.1347
    1TCq1    O613825   3.930   1.947  14.682 -0.5466 -0.0827  0.5483
    1TCq1    H113826   4.266   1.937  14.244 -1.0861 -1.4483  1.4136
    1TCq1    H213827   4.168   1.869  14.410  0.5921 -0.8370  0.7069
    1TCq1    H313828   4.089   2.133  14.734 -0.6565  2.7492 -1.8664
    1TCq1    H413829   4.454   2.173  14.519 -0.2342  0.8128  0.1293
    2MPD2     C13830   4.689   2.488  15.023 -0.9549  0.1505  0.1749
    2MPD2    C113831   0.025   2.427  14.914 -0.6259 -0.4061  0.1548
    2MPD2    C213832   4.666   2.353  14.829 -0.4366  0.1956 -0.0945
    2MPD2    C313833   4.532   2.346  14.841 -0.0601  0.5449 -0.5859
    2MPD2    C413834   4.475   2.407  14.948  0.2585 -0.1378  0.2495
    2MPD2    C513835   4.557   2.472  15.043  0.8113  0.4459 -0.0530
    2MPD2     H13836   4.717   2.306  14.746 -1.3317  1.1671 -1.1934
    2MPD2    H113837   4.369   2.400  14.968  0.4002 -1.2575  0.6195
    2MPD2    H213838   0.011   2.557  15.094 -2.9279  1.7225 -0.1382
    2MPD2    H313839   4.518   2.535  15.122  0.2579 -1.4189  1.1609
    2MPD2     N13840   4.456   2.270  14.745  0.1230  0.2239 -0.3143
    2MPD2    H513841   4.515   2.229  14.673 -0.6334  0.8772 -1.3020
    2MPD2    N113842   0.160   2.455  14.881  0.3557 -0.4809  0.0270
    2MPD2    H713843   0.195   2.531  14.938  2.3998 -1.9131  0.6704
    3TMC2    C113844   0.367   2.475  14.760  0.2141  0.2588 -0.0981
    3TMC2    C213845   0.389   2.574  14.851  0.1831 -0.7347  0.0090
    3TMC2    C313846   0.493   2.650  14.819  0.5451 -0.0110 -0.0622
    3TMC2    C413847   0.432   2.466  14.636  0.2301  0.1619 -0.1615
    3TMC2    C513848   0.527   2.559  14.604  0.8166 -0.0327  0.2139
    3TMC2    C613849   0.564   2.649  14.700  0.2701 -0.3235 -0.3403
    3TMC2     C13850   0.232   2.417  14.771  0.2061 -0.4031  0.1957
    3TMC2     O13851   0.203   2.326  14.692 -0.1999  0.2959  0.1252
    3TMC2     H13852   0.342   2.594  14.947 -1.4118  1.1648 -1.1662
    3TMC2    H113853   0.405   2.395  14.559  2.2389  0.1832 -0.8772
    3TMC2    H213854   0.652   2.712  14.692 -0.6659  0.7323 -2.3097
    3TMC2    C713855   0.554   2.590  14.466  0.7775 -0.5143  0.7184
    3TMC2    C813856   0.566   2.711  14.932  0.4678  0.1873 -0.2222
    3TMC2    O113857   0.639   2.672  14.441 -0.4834 -0.2802  0.6224
    3TMC2    O213858   0.515   2.799  14.998 -0.0656  0.2374 -0.6326
    3TMC2    O513859   0.628   2.604  14.987 -1.2901 -0.1631  0.4504
    3TMC2    H513860   0.664   2.548  14.915 -2.4353 -1.4734  0.9068
    4MPD2     C13861   3.952   2.495  13.483  1.3692 -0.3146 -0.5049
    4MPD2    C113862   4.053   2.476  13.387 -0.4556 -0.4479  0.4242
    4MPD2    C213863   4.185   2.461  13.433  0.2101  0.2007  0.8614
    4MPD2    C313864   4.222   2.464  13.567 -0.3750  0.0264  0.1755
    4MPD2    C413865   4.116   2.459  13.657 -0.2575  0.0460 -0.2856
    4MPD2    C513866   3.986   2.492  13.615  0.4759 -0.0776  0.0576
    4MPD2     H13867   4.262   2.435  13.361 -0.4789  1.2661 -0.2528
    4MPD2    H113868   4.123   2.456  13.765 -2.5110  1.8200 -0.0825
    4MPD2    H213869   3.855   2.531  13.452  1.4885 -1.3678 -2.0654
    4MPD2    H313870   3.907   2.505  13.688 -1.2779 -1.5894 -1.5447
    4MPD2     N13871   4.356   2.446  13.596  0.2853 -0.1133 -0.2971
    4MPD2    H513872   4.429   2.434  13.526 -0.1634 -2.0252 -0.4426
    4MPD2    N113873   4.018   2.478  13.247  0.1381  0.4379  0.0818
    4MPD2    H713874   3.919   2.492  13.228  0.4892  1.1737 -1.1953
    5TCq2    C113875   4.403   2.477  13.722  0.9115  0.1900 -0.1299
    5TCq2    O213876   4.353   2.483  13.834 -0.1818 -0.4608 -1.0582
    5TCq2    C213877   4.545   2.513  13.735 -0.2221 -0.2503 -0.4053
    5TCq2    C313878   4.615   2.544  13.625  0.2086  0.1721  0.1092
    5TCq2    C413879   0.026   2.571  13.625  0.4330 -0.0667 -0.9789
    5TCq2    C513880   0.099   2.544  13.734  0.6238 -0.0638 -0.5338
    5TCq2    C613881   0.030   2.503  13.852  0.2068 -0.6067 -0.1194
    5TCq2    C713882   4.612   2.498  13.853  0.3562  0.0612 -0.1764
    5TCq2    C813883   0.106   2.495  13.981 -0.9814  0.2274  0.0464
    5TCq2    O413884   0.048   2.529  14.082 -0.0691 -0.3290  0.3214
    5TCq2    C913885   0.096   2.596  13.506  0.9557 -0.0488 -0.4845
    5TCq2    O513886   0.217   2.590  13.521  0.0407 -0.0628  0.1906
    5TCq2    O613887   0.025   2.643  13.409 -0.2928 -0.6585 -0.7469
    5TCq2    H213888   4.561   2.574  13.536  0.3085 -1.9220 -0.6547
    5TCq2    H313889   0.205   2.567  13.734  0.3008  1.4658 -0.7170
    5TCq2    H413890   4.561   2.473  13.946 -0.6356  2.2477 -0.1111
    6MPD1     C13891   3.136   3.832  13.343  0.1893  0.3985 -0.7210
    6MPD1    C113892   3.125   3.831  13.203 -0.3761 -0.4946 -0.5622
    6MPD1    C213893   3.181   3.727  13.131  0.3311  0.1377  0.4502
    6MPD1    C313894   3.222   3.614  13.193  0.4095 -0.1377 -0.0644
    6MPD1    C413895   3.213   3.604  13.330  0.2353 -0.6880 -0.6428
    6MPD1    C513896   3.170   3.711  13.400  0.2688 -0.8300 -0.0809
    6MPD1     H13897   3.180   3.740  13.024 -0.0233 -0.4708  0.3803
    6MPD1    H113898   3.217   3.509  13.382  1.9245 -0.2840 -0.0462
    6MPD1    H213899   3.101   3.919  13.397  0.0227  0.0846 -0.3208
    6MPD1    H313900   3.165   3.720  13.508 -1.5302  2.0829 -0.4076
    6MPD1     N13901   3.258   3.501  13.118 -0.4196  0.1549 -0.0761
    6MPD1    H513902   3.279   3.421  13.176  0.4592 -1.1269 -2.1472
    6MPD1    N113903   3.110   3.949  13.131  0.2649  0.3832 -0.3917
    6MPD1    H613904   3.082   3.929  13.035  0.5043  0.5256 -0.4913
    6MPD1    H713905   3.041   4.012  13.170  0.7865  0.6611  0.0854
    7MPD2     C13906   3.306   2.810  12.850 -0.2601  0.2429 -0.2800
    7MPD2    C113907   3.408   2.826  12.946 -0.3839 -0.2699 -0.0278
    7MPD2    C213908   3.509   2.728  12.962  0.3891  0.5384  0.3922
    7MPD2    C313909   3.508   2.619  12.877 -0.0499  0.2574 -1.0597
    7MPD2    C413910   3.400   2.599  12.788  0.2025  0.1277  0.2976
    7MPD2    C513911   3.306   2.696  12.771  0.3653 -0.1459  0.4563
    7MPD2     H13912   3.594   2.752  13.024 -1.5843 -1.3582  3.8145
    7MPD2    H113913   3.390   2.514  12.722 -2.8275  0.5889  0.1702
    7MPD2    H213914   3.239   2.891  12.826  1.1139  2.0757  2.0125
    7MPD2    H313915   3.225   2.690  12.700  2.0661 -0.0449 -1.4747
    7MPD2     N13916   3.611   2.523  12.873  0.9159 -0.0644  0.1652
    7MPD2    H513917   3.615   2.458  12.795  1.6438 -2.4683  2.2373
    7MPD2    N113918   3.426   2.948  13.008 -0.7336 -0.0651  0.1556
    7MPD2    H713919   3.509   2.963  13.065  0.3087  0.8648 -1.6120
    8TMC3    C113920   3.828   2.450  12.910 -0.7438 -0.3328  0.1815
    8TMC3    C213921   3.912   2.425  13.012  0.0131  0.1205 -0.0619
    8TMC3    C313922   4.033   2.489  13.013 -0.2517 -0.1044  0.1263
    8TMC3    C413923   3.869   2.528  12.802  0.2342  0.2674  0.1927
    8TMC3    C513924   3.988   2.591  12.809  0.0440  0.7627 -0.2219
    8TMC3    C613925   4.075   2.573  12.917  0.1899 -0.2270 -0.5415
    8TMC3     C13926   3.713   2.504  12.967  0.1101  0.6397 -0.6906
    8TMC3     O13927   3.710   2.547  13.080 -0.1053  0.7567  0.2770
    8TMC3     H13928   3.882   2.358  13.091 -0.9181  1.2430  0.5344
    8TMC3    H113929   3.807   2.522  12.714 -0.6877 -3.0337  1.0338
    8TMC3    H213930   4.160   2.640  12.924  0.6753 -0.8263 -0.6836
    8TMC3    C713931   3.975   2.735  12.781  0.3746 -0.6885 -0.0119
    8TMC3    C813932   4.107   2.492  13.140  0.4717 -0.1428 -0.2442
    8TMC3    O113933   3.992   2.814  12.872 -0.3402  0.1976 -0.6556
    8TMC3    O213934   4.231   2.487  13.135  0.2567  0.4928 -0.1955
    9TMC3    C113935   3.313   3.372  12.936 -0.4901 -0.5306  0.5691
    9TMC3    C213936   3.418   3.375  12.847 -0.2742  0.1335 -0.2445
    9TMC3    C313937   3.516   3.282  12.859 -0.2922 -0.6506 -0.2802
    9TMC3    C413938   3.302   3.268  13.022 -0.0052 -0.3409 -0.0267
    9TMC3    C513939   3.397   3.170  13.033 -0.0274 -0.2138  0.2665
    9TMC3    C613940   3.512   3.186  12.960  0.6476  0.0974 -0.1401
    9TMC3     C13941   3.282   3.500  12.985  0.4825  0.4703  0.1436
    9TMC3     O13942   3.278   3.586  12.901 -0.0744  0.4546  0.0141
    9TMC3     H13943   3.418   3.458  12.777  0.8524 -0.0920 -0.5110
    9TMC3    H113944   3.212   3.245  13.078  1.0323 -2.5165  0.7568
    9TMC3    H213945   3.592   3.115  12.981  0.1380 -0.5111 -0.2737
    9TMC3    C713946   3.332   3.046  13.013  0.0113  0.0660  0.4265
    9TMC3    C813947   3.564   3.233  12.728 -0.2484 -0.2841  0.0580
    9TMC3    O113948   3.215   3.053  12.981  0.3646  0.7180 -0.1333
    9TMC3    O213949   3.498   3.267  12.632 -0.3547  0.1361  0.0219
   10MPD2     C13950   3.797   2.846  12.487 -0.6429 -0.0892  0.0660
   10MPD2    C113951   3.848   2.857  12.612 -0.5215  0.0976 -0.0813
   10MPD2    C213952   3.809   2.959  12.690 -0.2305  0.4222 -0.3695
   10MPD2    C313953   3.715   3.049  12.653 -0.4575 -0.3909 -0.3185
   10MPD2    C413954   3.665   3.036  12.524 -0.3249  0.4022 -0.0767
   10MPD2    C513955   3.719   2.945  12.437  0.7569  0.7306 -0.4332
   10MPD2     H13956   3.856   2.975  12.787 -1.2494 -1.0967  0.3594
   10MPD2    H113957   3.588   3.102  12.488 -0.3957 -0.1763 -0.9939
   10MPD2    H213958   3.843   2.778  12.417  0.2501  1.1808 -0.5877
   10MPD2    H313959   3.683   2.949  12.335  2.2125  1.0677 -0.9281
   10MPD2     N13960   3.661   3.133  12.750  0.3482 -0.1626  0.9260
   10MPD2    H513961   3.707   3.132  12.840  0.2721  0.4992  0.9738
   10MPD2    N113962   3.930   2.753  12.654  0.5788  0.8205  1.2347
   10MPD2    H713963   3.937   2.679  12.584  0.8771  1.5640  0.4855
   11MPD2     C13964   0.583   2.513  14.187 -0.3762  1.0375 -0.5346
   11MPD2    C113965   0.463   2.538  14.251  0.3032  0.3920  0.3479
   11MPD2    C213966   0.351   2.525  14.175  0.1834 -0.4408 -0.6941
   11MPD2    C313967   0.350   2.500  14.041  0.4137  0.1002 -0.8336
   11MPD2    C413968   0.475   2.478  13.986 -0.3338  0.4800 -0.0780
   11MPD2    C513969   0.593   2.482  14.059  0.0846  0.1168 -0.3200
   11MPD2     H13970   0.254   2.540  14.221  0.1463 -2.6624 -0.0493
   11MPD2    H113971   0.486   2.445  13.883 -1.2193  2.6845 -0.8851
   11MPD2    H213972   0.676   2.511  14.241 -1.2644  2.3028  1.0615
   11MPD2    H313973   0.689   2.450  14.021  0.4466  1.2067 -0.3201
   11MPD2     N13974   0.239   2.488  13.954  0.5035  0.0045 -0.0214
   11MPD2    H513975   0.256   2.469  13.855 -0.8902 -0.0262 -0.2545
   11MPD2    N113976   0.447   2.554  14.385  0.2134 -0.4511 -0.2804
   11MPD2    H713977   0.354   2.558  14.426  0.2864 -4.6919  0.2341
    1MPD1     C13978   3.399   3.326  16.301  0.5386  0.2037 -1.3659
    1MPD1    C113979   3.513   3.274  16.361  0.3283 -0.4945  0.3171
    1MPD1    C213980   3.547   3.325  16.488 -0.3314  0.6659 -0.0917
    1MPD1    C313981   3.473   3.426  16.550 -0.1465 -0.4190 -0.7094
    1MPD1    C413982   3.362   3.469  16.487  0.4566  0.5995 -0.2378
    1MPD1    C513983   3.328   3.425  16.366 -0.9811  0.3876 -1.4877
    1MPD1     H13984   3.640   3.283  16.527 -0.6588  0.9318  0.9786
    1MPD1    H113985   3.300   3.544  16.533 -0.6783  0.7571 -2.0247
    1MPD1    H213986   3.359   3.315  16.201  0.8689 -0.1101 -1.4628
    1MPD1    H313987   3.243   3.469  16.314 -0.0455  0.3024 -3.0940
    1MPD1     N13988   3.499   3.462  16.686 -0.1436  0.0791 -0.2012
    1MPD1    H513989   3.452   3.546  16.719 -2.8881 -1.3163 -0.6110
    1MPD1    N113990   3.595   3.187  16.291 -0.0549 -0.3085 -0.0321
    1MPD1    H613991   3.655   3.136  16.355 -0.3779 -1.3734 -0.5929
    1MPD1    H713992   3.536   3.124  16.237 -3.8021  0.7185  2.8279
    2MPD1     C13993   3.840   3.314   0.023  0.5298 -0.1350 -0.9199
    2MPD1    C113994   3.859   3.448   0.004  0.1116  0.3498 -0.5210
    2MPD1    C213995   3.810   3.504  17.573 -0.0185  0.4639 -0.2494
    2MPD1    C313996   3.769   3.421  17.470  0.0067  0.5761 -0.6512
    2MPD1    C413997   3.749   3.290  17.490 -0.2474  0.6094 -0.1866
    2MPD1    C513998   3.789   3.233  17.609  0.0791 -0.4006  0.4524
    2MPD1     H13999   3.798   3.610  17.553  0.4524  0.0681 -2.6116
    2MPD1    H114000   3.705   3.232  17.410  0.5859  0.2325 -0.3675
    2MPD1    H214001   3.873   3.270   0.117  2.2282 -1.4039 -2.1167
    2MPD1    H314002   3.789   3.125  17.624 -0.2997 -0.2727  1.4034
    2MPD1     N14003   3.738   3.487  17.353 -0.0864  0.5015 -0.5218
    2MPD1    H514004   3.740   3.589  17.356  2.7992  0.3612  2.4657
    2MPD1    N114005   3.911   3.529   0.111 -0.2406 -0.1856 -0.0022
    2MPD1    H614006   3.980   3.467   0.152  0.2879  0.7001  0.4535
    2MPD1    H714007   3.961   3.608   0.071  0.0638 -0.7067 -0.6526
    3TMC3    C114008   3.676   3.502  17.122 -0.1956 -0.6265  0.1128
    3TMC3    C214009   3.642   3.635  17.124 -0.0511 -0.5997 -0.2260
    3TMC3    C314010   3.598   3.700  17.008 -0.1607 -0.7540  0.2925
    3TMC3    C414011   3.658   3.435  17.000  0.7440  0.4884 -0.6270
    3TMC3    C514012   3.624   3.498  16.883  0.1707 -0.6800 -0.3589
    3TMC3    C614013   3.595   3.632  16.886  0.5810 -0.0240 -0.2070
    3TMC3     C14014   3.714   3.421  17.233  0.0012 -0.0394 -0.1066
    3TMC3     O14015   3.743   3.304  17.199 -0.1584  0.3255 -0.0020
    3TMC3     H14016   3.646   3.683  17.221 -2.4912 -0.8816  0.0243
    3TMC3    H114017   3.684   3.330  16.990  2.8265  1.0096 -0.6827
    3TMC3    H214018   3.561   3.680  16.795  1.1239  0.2549 -0.2655
    3TMC3    C714019   3.596   3.412  16.767 -0.7527  0.7035 -0.1083
    3TMC3    C814020   3.528   3.834  17.017  1.4769 -0.0047 -0.1133
    3TMC3    O114021   3.649   3.309  16.766 -0.2556  0.1531 -0.7254
    3TMC3    O214022   3.480   3.876  16.913 -0.2871 -0.5810 -0.5321
    4MPD1     C14023   3.368   4.243  17.260 -0.1632 -0.1062 -0.7950
    4MPD1    C114024   3.431   4.164  17.352 -0.0463  0.1878  0.1301
    4MPD1    C214025   3.497   4.056  17.300 -0.5269 -0.2044  0.4221
    4MPD1    C314026   3.483   4.015  17.172  0.3224 -0.0540 -0.6377
    4MPD1    C414027   3.410   4.095  17.083  0.5378 -0.1345  0.3743
    4MPD1    C514028   3.352   4.209  17.129  0.3326 -0.1577 -0.0480
    4MPD1     H14029   3.554   3.997  17.370 -1.0066 -0.2245  0.7956
    4MPD1    H114030   3.407   4.075  16.976 -0.8177 -0.7479  0.5281
    4MPD1    H214031   3.316   4.332  17.295 -0.2990 -0.6631  0.4312
    4MPD1    H314032   3.284   4.269  17.070  2.0187  1.7352 -0.0940
    4MPD1     N14033   3.553   3.900  17.138  0.5976 -0.3433 -0.3838
    4MPD1    H514034   3.620   3.859  17.203  0.0782 -1.8410 -0.7831
    4MPD1    N114035   3.425   4.194  17.490  0.0010 -0.6755  0.0867
    4MPD1    H614036   3.518   4.217  17.525 -0.4246  0.5611  0.4278
    4MPD1    H714037   3.376   4.280  17.516 -1.4195 -1.3011 -0.5456
    1TCq1    O114038   3.829   1.828  11.310 -0.7903 -0.4918 -0.2225
    1TCq1    C114039   3.765   1.928  11.370 -0.0042  0.1942 -0.5827
    1TCq1    O214040   3.766   2.039  11.321 -0.4980 -0.0330 -0.6368
    1TCq1    C214041   3.641   1.866  11.421 -0.8507 -0.1709  0.2471
    1TCq1    C314042   3.634   1.777  11.524  0.0633  0.1797 -0.5085
    1TCq1    C414043   3.513   1.741  11.575 -0.5472 -0.0574  0.3392
    1TCq1    C514044   3.409   1.823  11.564  0.5528  0.1544 -0.3852
    1TCq1    C614045   3.413   1.913  11.458  0.9229  0.3268 -0.3333
    1TCq1    C714046   3.533   1.942  11.395  0.2033 -0.2206  0.7278
    1TCq1    C814047   3.303   2.004  11.429  0.3611 -0.6600  0.3142
    1TCq1    O414048   3.326   2.099  11.354 -0.1052  0.2989 -0.3776
    1TCq1    C914049   3.518   1.658  11.696  0.2807  0.2412  0.7922
    1TCq1    O514050   3.616   1.681  11.769 -0.1491 -0.0391  0.6389
    1TCq1    O614051   3.412   1.605  11.736 -0.1677 -0.1696  0.4077
    1TCq1    H114052   3.780   1.744  11.328 -1.0730 -0.7791 -2.2815
    1TCq1    H214053   3.711   1.702  11.541  0.0237  0.1726 -0.3548
    1TCq1    H314054   3.326   1.825  11.633  1.0991 -1.0073  0.3012
    1TCq1    H414055   3.537   2.023  11.323 -0.3606 -0.3292  0.5803
    2MPD1     C14056   2.842   2.166  11.575 -0.0568  0.2469  0.4860
    2MPD1    C114057   2.857   2.034  11.619  0.0509  0.0853  1.0057
    2MPD1    C214058   2.961   1.965  11.563 -0.2303  0.5960 -0.5555
    2MPD1    C314059   3.063   2.026  11.491  0.5892  0.2749 -0.5783
    2MPD1    C414060   3.029   2.156  11.445 -0.6148 -0.2092  0.8380
    2MPD1    C514061   2.932   2.233  11.500 -0.1451 -0.2030 -0.4730
    2MPD1     H14062   2.976   1.864  11.598  0.5756  0.6609 -0.7134
    2MPD1    H114063   3.098   2.212  11.383 -0.2035 -2.7756 -0.9976
    2MPD1    H214064   2.765   2.231  11.616 -1.5693 -0.6971 -0.8433
    2MPD1    H314065   2.932   2.337  11.470 -0.2549 -0.3244 -0.8869
    2MPD1     N14066   3.185   1.959  11.485  0.4572 -0.3609 -0.0735
    2MPD1    H514067   3.192   1.873  11.538 -1.2318  0.5342  1.5940
    2MPD1    N114068   2.760   1.976  11.703 -0.0546 -0.3347 -0.1159
    2MPD1    H614069   2.690   2.040  11.739 -1.8338 -2.5975  0.4728
    2MPD1    H714070   2.791   1.904  11.769  1.1940 -0.2867 -0.6556
    1TCq1    O114071   1.275   3.339   1.628  0.0823  0.1907 -0.1769
    1TCq1    C114072   1.191   3.441   1.656 -0.1633 -0.4009  0.1717
    1TCq1    O214073   1.081   3.470   1.609 -0.1695 -0.7285  0.2977
    1TCq1    C214074   1.231   3.491   1.790  0.5334  0.3630 -0.0038
    1TCq1    C314075   1.125   3.521   1.870 -0.8532 -0.2053  0.1142
    1TCq1    C414076   1.148   3.546   2.003  0.6462  0.6082  0.2561
    1TCq1    C514077   1.273   3.572   2.045  0.7638  0.1030 -0.6367
    1TCq1    C614078   1.375   3.546   1.961  0.5280 -0.2885  0.1382
    1TCq1    C714079   1.359   3.504   1.832 -0.8391 -0.1266 -0.7589
    1TCq1    C814080   1.505   3.548   2.031  0.1019 -0.4194  0.2855
    1TCq1    O414081   1.518   3.621   2.129  0.4714 -0.0073 -0.4438
    1TCq1    C914082   1.035   3.587   2.089 -0.8871  0.6088 -0.0627
    1TCq1    O514083   1.055   3.635   2.201 -0.0360 -0.3814  0.4436
    1TCq1    O614084   0.923   3.550   2.050 -0.2928  0.0919 -0.1039
    1TCq1    H114085   1.359   3.335   1.679 -0.5987 -1.6593  0.7851
    1TCq1    H214086   1.027   3.489   1.833 -1.5526  1.4916  0.5168
    1TCq1    H314087   1.295   3.614   2.142  2.2437 -0.8929 -0.5478
    1TCq1    H414088   1.442   3.494   1.763 -0.4943 -1.2935 -0.1752
    2MPD1     C14089   2.009   3.435   2.019 -0.0668 -0.2259 -0.0008
    2MPD1    C114090   1.943   3.357   1.924  0.0457  0.5097 -0.6955
    2MPD1    C214091   1.803   3.355   1.927 -0.1660  0.3828 -0.2996
    2MPD1    C314092   1.729   3.450   2.005 -0.0714 -0.3632 -0.1422
    2MPD1    C414093   1.796   3.527   2.091  0.0389 -0.0053  0.6456
    2MPD1    C514094   1.932   3.527   2.091  0.7475 -0.2018  1.0228
    2MPD1     H14095   1.746   3.291   1.860 -0.0445  1.3146 -1.2940
    2MPD1    H114096   1.757   3.600   2.162  0.0662  0.0376  0.6166
    2MPD1    H214097   2.117   3.431   2.021 -0.0330  0.6568 -0.1862
    2MPD1    H314098   1.985   3.586   2.165  3.1789 -0.1994 -0.7543
    2MPD1     N14099   1.589   3.459   1.975  0.3838 -0.3885 -0.0893
    2MPD1    H514100   1.558   3.395   1.902  0.4579  1.1641 -1.4630
    2MPD1    N114101   2.015   3.281   1.830  0.4654  0.3641 -0.5115
    2MPD1    H614102   2.099   3.332   1.803  0.7208 -0.1831 -0.7509
    2MPD1    H714103   1.959   3.248   1.752 -1.1564  1.1234  0.3217
    1MPD1     C14104   0.581   3.095  12.442  0.5998  0.3177 -0.0851
    1MPD1    C114105   0.463   3.161  12.451  0.0064  1.2414  0.3079
    1MPD1    C214106   0.451   3.284  12.385 -0.1844  0.0535  0.2658
    1MPD1    C314107   0.551   3.324  12.299 -0.1017 -0.3812  0.9396
    1MPD1    C414108   0.659   3.248  12.277  0.0599  0.6258  0.8331
    1MPD1    C514109   0.684   3.142  12.354 -0.2442  0.4924  0.2876
    1MPD1     H14110   0.363   3.346  12.400 -1.0778 -1.4632  1.2196
    1MPD1    H114111   0.739   3.282  12.213  0.1720  0.4544  0.8801
    1MPD1    H214112   0.604   3.009  12.504  0.3650 -0.7947 -1.5202
    1MPD1    H314113   0.771   3.081  12.332 -2.6892 -3.4667  1.6771
    1MPD1     N14114   0.533   3.452  12.240 -0.0011  0.2421 -0.7675
    1MPD1    H514115   0.451   3.505  12.268 -0.5315 -0.4171 -1.0709
    1MPD1    N114116   0.380   3.132  12.559  0.5364  0.7630  0.0631
    1MPD1    H614117   0.392   3.039  12.598  1.5759  0.9236  0.1109
    1MPD1    H714118   0.280   3.142  12.543  0.7106  2.3662  0.0214
    2MPD1     C14119   0.307   0.025  10.113 -0.8056 -0.4807  0.0751
    2MPD1    C114120   0.417   0.070  10.176  0.7465  0.7948  0.0041
    2MPD1    C214121   0.491   4.702  10.255 -0.0530  0.3196 -0.0965
    2MPD1    C314122   0.455   4.570  10.268  0.1341  0.2621  0.0015
    2MPD1    C414123   0.344   4.527  10.196  0.6567  0.7417  0.7079
    2MPD1    C514124   0.268   4.615  10.121  0.4384 -0.4588 -0.6091
    2MPD1     H14125   0.572   0.024  10.312  0.8826 -0.4081 -0.8987
    2MPD1    H114126   0.315   4.423  10.205 -0.9429  1.0860 -0.5241
    2MPD1    H214127   0.256   0.095  10.047  1.7073 -0.8671 -2.2940
    2MPD1    H314128   0.178   4.574  10.075  0.1342  0.4001 -0.7721
    2MPD1     N14129   0.504   4.486  10.370  0.8051 -0.0967  0.8367
    2MPD1    H514130   0.468   4.391  10.377 -0.8414  0.4731  0.1884
    2MPD1    N114131   0.443   0.210  10.173  0.1758 -0.1445 -0.7883
    2MPD1    H614132   0.541   0.237  10.169  0.1368  0.0214 -0.6113
    2MPD1    H714133   0.394   0.255  10.096 -1.6805  0.2408  0.6179
    3MPD1     C14134   0.414   3.668  10.342  0.4369 -0.0594 -0.2202
    3MPD1    C114135   0.370   3.787  10.280 -0.3612  0.1853 -0.4040
    3MPD1    C214136   0.401   3.902  10.348 -0.2591 -0.3905 -0.7217
    3MPD1    C314137   0.499   3.901  10.446  0.3400 -0.7376 -0.4436
    3MPD1    C414138   0.547   3.781  10.493 -0.2465  0.1564  0.3171
    3MPD1    C514139   0.506   3.668  10.437  0.4412 -0.4146  0.1492
    3MPD1     H14140   0.366   4.000  10.318  0.4665 -0.0692 -0.5139
    3MPD1    H114141   0.621   3.772  10.571 -0.1326  2.1060  0.4188
    3MPD1    H214142   0.367   3.570  10.331  1.8618 -0.5741 -1.7139
    3MPD1    H314143   0.537   3.573  10.480 -1.8004 -0.5933  1.3791
    3MPD1     N14144   0.544   4.027  10.493 -0.2480 -0.1428 -0.2973
    3MPD1    H514145   0.506   4.106  10.443 -0.6843  0.6743  1.3027
    3MPD1    N114146   0.270   3.791  10.180  0.4981  0.2233 -0.5371
    3MPD1    H614147   0.276   3.713  10.116  1.8975  0.2293 -0.4167
    3MPD1    H714148   0.281   3.879  10.130  0.5765  0.4591 -0.1063
    4MPD2     C14149   0.681   4.178  12.116 -0.4553 -0.3360 -0.1946
    4MPD2    C114150   0.671   4.099  12.007  0.6598  0.4467 -0.9881
    4MPD2    C214151   0.754   4.133  11.899  0.6675 -0.2973  0.8592
    4MPD2    C314152   0.838   4.240  11.898 -0.5969  0.4746 -0.2457
    4MPD2    C414153   0.848   4.321  12.007 -0.2907 -0.0490  0.6447
    4MPD2    C514154   0.765   4.283  12.111 -0.2006 -0.5856  0.2377
    4MPD2     H14155   0.767   4.071  11.811 -0.8289 -1.8653  1.7296
    4MPD2    H114156   0.916   4.406  12.014 -0.7726  0.4242 -0.4253
    4MPD2    H214157   0.616   4.178  12.202 -1.9224 -1.9443 -1.3089
    4MPD2    H314158   0.758   4.349  12.197 -0.0423  0.2260 -0.3744
    4MPD2     N14159   0.938   4.231  11.797  0.1345  0.2886 -0.8438
    4MPD2    H514160   0.939   4.146  11.741 -1.5470  0.2294 -0.7969
    4MPD2    N114161   0.590   3.986  12.010  0.1778  0.1567 -0.2040
    4MPD2    H714162   0.583   3.936  11.921 -0.4959 -0.5991  0.2730
    5TMC3    C114163   0.461   3.818  12.080 -0.0663  0.1590  0.1589
    5TMC3    C214164   0.507   3.704  12.136 -1.1412 -0.3655 -0.9758
    5TMC3    C314165   0.520   3.597  12.051 -0.7247  0.4977  0.3967
    5TMC3    C414166   0.436   3.823  11.948  0.5589 -0.8873  0.1510
    5TMC3    C514167   0.462   3.721  11.860  0.2404  0.3830  0.3775
    5TMC3    C614168   0.503   3.601  11.911 -0.1790  0.0465 -0.8294
    5TMC3     C14169   0.530   3.932  12.116 -0.1607  0.7218  0.4048
    5TMC3     O14170   0.569   3.946  12.229 -0.0739 -0.1871 -0.5575
    5TMC3     H14171   0.554   3.703  12.234 -0.2595  0.2319 -1.3955
    5TMC3    H114172   0.396   3.914  11.904  0.8745 -0.7033  0.2431
    5TMC3    H214173   0.514   3.517  11.843  0.8029 -0.4502 -0.0703
    5TMC3    C714174   0.545   3.764  11.743 -0.1755  0.5470 -0.0598
    5TMC3    C814175   0.588   3.484  12.114  0.7132 -0.6914  0.5403
    5TMC3    O114176   0.559   3.885  11.743  0.0263 -0.4183 -0.1509
    5TMC3    O214177   0.639   3.399  12.039  0.3447 -0.2370 -0.3501
    6TMC3    C114178   0.648   4.416  10.545  0.4878 -0.7059  0.2175
    6TMC3    C214179   0.619   4.284  10.522  0.1574 -0.1410 -0.2743
    6TMC3    C314180   0.663   4.190  10.614  0.2198  0.8170 -0.2057
    6TMC3    C414181   0.715   4.457  10.656  0.4375 -0.6870  0.0966
    6TMC3    C514182   0.751   4.354  10.743  0.7517 -0.3911 -0.1625
    6TMC3    C614183   0.727   4.225  10.727  0.5471 -0.3579 -0.0897
    6TMC3     C14184   0.606   4.522  10.453 -0.8558 -0.5858 -0.5885
    6TMC3     O14185   0.659   4.629  10.479 -0.0906 -0.1277  0.1681
    6TMC3     H14186   0.591   4.265  10.420 -1.4333 -1.3567  0.3868
    6TMC3    H114187   0.741   4.560  10.674  0.2138 -0.6277  0.0843
    6TMC3    H214188   0.754   4.151  10.801 -0.0735 -1.2834 -0.7773
    6TMC3    C714189   0.839   4.386  10.853  0.4073  0.0576 -0.6321
    6TMC3    C814190   0.633   4.047  10.592 -0.4312 -0.4931 -0.2456
    6TMC3    O114191   0.860   4.299  10.934  0.0784  0.7875 -0.6827
    6TMC3    O214192   0.714   3.959  10.636 -0.1725 -0.0541  0.2887
    7MPD2     C14193   0.877   3.683  11.353  0.0150  0.3492 -0.0047
    7MPD2    C114194   0.885   3.787  11.457 -0.1579  0.4659  0.5000
    7MPD2    C214195   0.777   3.791  11.547  0.2830  0.6920  0.1705
    7MPD2    C314196   0.677   3.688  11.540 -0.3535  0.2988 -0.3282
    7MPD2    C414197   0.673   3.590  11.445  0.5498  0.1060  0.7398
    7MPD2    C514198   0.767   3.594  11.344  0.1105  0.7698 -0.3851
    7MPD2     H14199   0.766   3.871  11.620 -1.6253 -1.3032  2.1033
    7MPD2    H114200   0.621   3.496  11.458 -1.4218  1.3517  1.7370
    7MPD2    H214201   0.956   3.668  11.280  0.9633 -2.0542  1.5248
    7MPD2    H314202   0.767   3.514  11.271 -1.4221  1.4998 -1.1797
    7MPD2     N14203   0.582   3.671  11.647 -0.1872 -0.6703  0.2558
    7MPD2    H514204   0.537   3.580  11.658  0.3838 -0.8053  1.5196
    7MPD2    N114205   0.999   3.871  11.473 -0.2211 -0.1435  0.3143
    7MPD2    H714206   1.072   3.864  11.404  0.3252 -3.0721  1.2055
    8TMC3    C114207   1.126   4.052  11.563  0.3216 -0.1799 -0.4025
    8TMC3    C214208   1.128   4.112  11.435  0.0366  0.7236 -0.7041
    8TMC3    C314209   1.124   4.248  11.422 -0.7245  0.4642 -0.4590
    8TMC3    C414210   1.134   4.128  11.683 -0.1565  0.6837 -0.3237
    8TMC3    C514211   1.108   4.259  11.655 -0.4635 -0.0958  0.1156
    8TMC3    C614212   1.110   4.324  11.535 -0.6053 -0.0887 -0.0992
    8TMC3     C14213   1.026   3.946  11.582 -0.4538  0.3497  0.2482
    8TMC3     O14214   0.978   3.947  11.693 -0.7588 -0.1397  0.0902
    8TMC3     H14215   1.120   4.043  11.351 -0.8082 -0.1112  0.0585
    8TMC3    H114216   1.155   4.073  11.775 -2.0136  0.0600 -0.2698
    8TMC3    H214217   1.113   4.432  11.537  1.0787 -0.1153 -1.3693
    8TMC3    C714218   1.033   4.325  11.758  0.1733 -0.4104 -0.1869
    8TMC3    C814219   1.125   4.305  11.293  0.1676 -0.5653 -0.4567
    8TMC3    O114220   1.044   4.445  11.777  0.0502  0.7912  0.1778
    8TMC3    O214221   1.095   4.224  11.206 -0.2541 -0.1118  0.2675
    9MPD2     C14222   1.133   4.655  11.178 -0.1506  0.2396 -0.0312
    9MPD2    C114223   1.104   4.524  11.182  0.4725  0.0407 -0.0209
    9MPD2    C214224   1.022   4.475  11.078 -0.4050 -0.3191  0.5158
    9MPD2    C314225   0.965   4.556  10.980  0.4794  0.4051 -0.1497
    9MPD2    C414226   1.013   4.688  10.975  0.8058 -0.1137 -0.5732
    9MPD2    C514227   1.101   0.011  11.074  0.4199 -0.0292  0.0927
    9MPD2     H14228   0.999   4.369  11.079 -2.9853  0.2215 -0.5717
    9MPD2    H114229   0.964   0.032  10.904  3.5968  4.1884  1.4485
    9MPD2    H214230   1.191   4.696  11.260  0.3722  4.2703 -2.4155
    9MPD2    H314231   1.119   0.118  11.084  0.5086 -0.0553  0.1964
    9MPD2     N14232   0.883   4.514  10.868  0.4519 -0.3240 -0.4573
    9MPD2    H514233   0.843   4.592  10.817 -1.8515 -1.8567 -0.9499
    9MPD2    N114234   1.141   4.446  11.295  0.3664  0.1360  0.5905
    9MPD2    H714235   1.182   4.494  11.374 -0.9696 -0.7172  1.8018
    1MPD1     C14236   0.975   1.208  16.429 -0.3267 -0.2586 -0.0569
    1MPD1    C114237   0.998   1.310  16.338  0.1335  0.0448 -0.0728
    1MPD1    C214238   0.939   1.430  16.364  0.2000  0.4174  0.0490
    1MPD1    C314239   0.846   1.440  16.473 -0.3632 -0.1480  0.5576
    1MPD1    C414240   0.817   1.336  16.560 -0.3988  0.4989  0.1449
    1MPD1    C514241   0.881   1.219  16.525  0.3316 -0.1986  0.1730
    1MPD1     H14242   0.972   1.506  16.294 -2.0765 -0.6659 -2.1641
    1MPD1    H114243   0.763   1.350  16.654  0.9448  1.8359  0.7124
    1MPD1    H214244   1.024   1.111  16.424  0.3141  0.0710 -0.1741
    1MPD1    H314245   0.864   1.132  16.589  0.9251  0.4981  1.2841
    1MPD1     N14246   0.778   1.558  16.501  0.0554  0.0008 -0.5774
    1MPD1    H514247   0.733   1.562  16.592  1.2658 -0.9854  0.0659
    1MPD1    N114248   1.087   1.274  16.236  0.2918  0.1116  0.3156
    1MPD1    H614249   1.093   1.351  16.170  0.0656  0.6809  0.9607
    1MPD1    H714250   1.056   1.190  16.187  0.6073  0.8220 -1.0963
    2MPD1     C14251   0.817   2.502  16.183 -0.6865 -0.1600 -0.6668
    2MPD1    C114252   0.872   2.450  16.299 -0.2283  0.0803  0.6000
    2MPD1    C214253   0.818   2.329  16.338 -0.4602  0.5993  0.2290
    2MPD1    C314254   0.712   2.267  16.277 -0.4064  0.6330 -0.0361
    2MPD1    C414255   0.656   2.320  16.164  0.7795 -1.3202 -0.1185
    2MPD1    C514256   0.710   2.441  16.118  0.2354 -0.7836 -0.4270
    2MPD1     H14257   0.865   2.290  16.427 -0.8265 -1.2436 -0.3755
    2MPD1    H114258   0.583   2.264  16.106 -1.1396 -0.5205  1.5226
    2MPD1    H214259   0.848   2.598  16.145 -2.4656  0.5180 -0.4081
    2MPD1    H314260   0.673   2.482  16.025 -0.0535 -0.0001  0.0365
    2MPD1     N14261   0.663   2.149  16.338  0.4473 -0.5571 -0.2559
    2MPD1    H514262   0.713   2.102  16.413  0.0017 -0.8256 -0.1290
    2MPD1    N114263   0.962   2.521  16.373 -0.1352  0.0294 -0.2903
    2MPD1    H614264   1.011   2.461  16.439  1.1118  0.0098 -1.2426
    2MPD1    H714265   1.021   2.584  16.320 -0.6557 -0.8494 -1.9318
    3TCq2    C114266   0.546   2.076  16.312  1.1798 -0.3074  0.0397
    3TCq2    O214267   0.450   2.101  16.245 -0.0171 -0.2944  0.0388
    3TCq2    C214268   0.554   1.943  16.362  0.2057 -0.6034 -0.5689
    3TCq2    C314269   0.431   1.888  16.396  0.0968 -0.0299  0.7413
    3TCq2    C414270   0.425   1.763  16.460 -0.2803  0.1932  0.0162
    3TCq2    C514271   0.548   1.707  16.505 -0.0923 -0.4050 -0.0154
    3TCq2    C614272   0.664   1.760  16.465 -0.5534  1.0912 -0.0593
    3TCq2    C714273   0.671   1.874  16.392 -0.7290  0.1438 -0.1114
    3TCq2    C814274   0.768   1.666  16.419 -0.3349 -0.6422 -0.0011
    3TCq2    O414275   0.831   1.683  16.314  0.2771  0.1056  0.5917
    3TCq2    C914276   0.297   1.693  16.482  1.0508  0.3873 -0.8720
    3TCq2    O514277   0.188   1.752  16.453 -0.5173 -0.0617  0.2096
    3TCq2    O614278   0.301   1.581  16.539 -0.3461 -0.1376 -0.3161
    3TCq2    H214279   0.341   1.924  16.349 -0.3185 -2.9201 -0.7112
    3TCq2    H314280   0.553   1.609  16.551  0.2376 -0.3940 -0.0282
    3TCq2    H414281   0.768   1.910  16.362  0.2995 -1.1689  1.6368
    1TCq1    O114282   2.773   1.185  12.911 -0.0149  0.1161 -0.1448
    1TCq1    C114283   2.676   1.211  13.002  0.0719 -0.0465  0.1416
    1TCq1    O214284   2.554   1.202  12.992  0.0160 -0.5536 -0.0703
    1TCq1    C214285   2.735   1.289  13.113 -0.2646 -0.9056 -1.0905
    1TCq1    C314286   2.651   1.373  13.187  0.6780 -0.2799  0.0436
    1TCq1    C414287   2.683   1.388  13.320  0.1297 -0.0304 -0.5339
    1TCq1    C514288   2.800   1.334  13.378  0.0012 -0.2488 -1.1419
    1TCq1    C614289   2.881   1.254  13.300 -0.2312  0.2550 -0.3132
    1TCq1    C714290   2.853   1.232  13.162  0.4330 -0.4321  0.7575
    1TCq1    C814291   3.003   1.203  13.362 -0.1218  0.2193 -0.6354
    1TCq1    O414292   3.040   1.094  13.320  0.6925  1.2082 -0.4540
    1TCq1    C914293   2.591   1.471  13.400  0.3905 -0.1881  0.3316
    1TCq1    O514294   2.501   1.530  13.337  0.2318  0.2238  0.6624
    1TCq1    O614295   2.607   1.464  13.521 -0.4000  0.3068  1.0128
    1TCq1    H114296   2.854   1.237  12.932  0.1498  0.1440 -0.8308
    1TCq1    H214297   2.556   1.401  13.144  0.7157 -3.3213 -2.0419
    1TCq1    H314298   2.819   1.346  13.484  0.2139  0.1154 -1.2216
    1TCq1    H414299   2.919   1.163  13.111  1.4556  0.8159  0.4078
    2MPD2     C14300   3.236   1.134  13.545  0.2957 -0.6726 -0.3547
    2MPD2    C114301   3.165   1.254  13.536 -0.6499 -0.1568  0.0006
    2MPD2    C214302   3.203   1.358  13.624  0.2650 -0.4687 -0.4823
    2MPD2    C314303   3.316   1.352  13.700 -0.3178  0.2660 -0.0139
    2MPD2    C414304   3.379   1.228  13.715 -0.4949  0.4168 -0.6755
    2MPD2    C514305   3.338   1.122  13.639  0.2833  0.5734 -0.6085
    2MPD2     H14306   3.149   1.452  13.616 -0.3594 -0.7292  0.6148
    2MPD2    H114307   3.459   1.206  13.785  0.0604 -1.8472 -2.0254
    2MPD2    H214308   3.218   1.036  13.501 -2.1445  0.5667 -2.1180
    2MPD2    H314309   3.395   1.031  13.650 -0.5645 -0.0483 -1.3623
    2MPD2     N14310   3.356   1.477  13.763  0.2036 -0.5608 -0.1574
    2MPD2    H514311   3.308   1.561  13.731  1.6401  0.7736  1.2311
    2MPD2    N114312   3.063   1.285  13.455  0.1857 -0.3246  0.0954
    2MPD2    H714313   3.027   1.380  13.466  0.5412 -0.1988  0.1825
    3TCq1    O114314   3.869   1.854  13.790  0.4364  0.5279  0.4260
    3TCq1    C114315   3.758   1.797  13.736 -0.4316  0.4120  0.7282
    3TCq1    O214316   3.769   1.727  13.634  0.7333  0.2554  0.0056
    3TCq1    C214317   3.651   1.782  13.844 -0.0560  0.6022  0.3777
    3TCq1    C314318   3.674   1.826  13.971  0.2636 -0.1021 -0.5586
    3TCq1    C414319   3.607   1.748  14.061 -0.5496 -1.0823 -0.5987
    3TCq1    C514320   3.521   1.642  14.028 -0.3920 -0.0924  0.2408
    3TCq1    C614321   3.480   1.628  13.897 -0.7714  0.6535  0.2652
    3TCq1    C714322   3.548   1.697  13.807 -0.2166  0.3704  0.5356
    3TCq1    C814323   3.463   1.492  13.849  0.5769  0.0049  0.1202
    3TCq1    O414324   3.510   1.399  13.916 -0.8475 -0.2619  0.1189
    3TCq1    C914325   3.640   1.760  14.194 -0.1496 -0.2660  0.1707
    3TCq1    O514326   3.592   1.677  14.278  0.1770 -0.5595  0.2054
    3TCq1    O614327   3.719   1.851  14.235 -0.2585 -0.1017 -0.0895
    3TCq1    H114328   3.875   1.897  13.878  3.2625 -0.7306  0.8416
    3TCq1    H214329   3.744   1.902  14.005  2.1853 -1.9820 -0.3325
    3TCq1    H314330   3.482   1.580  14.108  1.2625 -0.8308  0.4739
    3TCq1    H414331   3.537   1.680  13.701 -1.5882  0.8499  0.6067
    1MPD2     C14332   2.313   2.638  15.273  0.6127 -0.4066  0.0259
    1MPD2    C114333   2.245   2.572  15.172 -0.1891 -0.8500 -0.4971
    1MPD2    C214334   2.115   2.529  15.201  0.0163  0.0463 -0.1730
    1MPD2    C314335   2.065   2.541  15.332 -0.3473  0.3695  0.2514
    1MPD2    C414336   2.133   2.586  15.437 -0.0543 -0.3241  0.3192
    1MPD2    C514337   2.261   2.639  15.400 -0.3765  0.5981 -0.0337
    1MPD2     H14338   2.057   2.479  15.124 -3.3844  3.4788  0.1142
    1MPD2    H114339   2.095   2.595  15.538 -0.2898  1.6797  0.0468
    1MPD2    H214340   2.409   2.686  15.253  0.2683 -0.2395 -1.2123
    1MPD2    H314341   2.311   2.677  15.488  1.5788  2.8014 -2.0924
    1MPD2     N14342   1.937   2.485  15.348 -0.0100 -0.5851 -0.6441
    1MPD2    H514343   1.885   2.454  15.267 -1.9626 -0.3599  0.5297
    1MPD2    N114344   2.303   2.568  15.048 -0.1079 -0.0070  0.0765
    1MPD2    H714345   2.385   2.626  15.033 -0.0830 -0.2725 -0.8613
    2TMC3    C114346   2.325   2.517  14.804 -0.2884 -0.2302  0.4106
    2TMC3    C214347   2.257   2.441  14.708  0.5364 -0.2828 -0.1547
    2TMC3    C314348   2.228   2.503  14.587  0.1330  0.4899 -0.6854
    2TMC3    C414349   2.372   2.643  14.771 -0.4966 -0.0588 -0.0928
    2TMC3    C514350   2.334   2.695  14.653  0.8743  0.5361  0.0887
    2TMC3    C614351   2.270   2.630  14.557 -0.4117 -0.0476  0.0653
    2TMC3     C14352   2.256   2.498  14.936  0.0498  0.3051  0.4000
    2TMC3     O14353   2.158   2.428  14.926 -0.0611 -0.3898  0.4912
    2TMC3     H14354   2.214   2.341  14.716 -0.2875  0.0986  0.2385
    2TMC3    H114355   2.404   2.704  14.855  0.9117  1.4429 -1.7351
    2TMC3    H214356   2.229   2.681  14.469  1.1499 -0.0660 -0.6655
    2TMC3    C714357   2.380   2.825  14.616  0.3592  0.2197 -0.3304
    2TMC3    C814358   2.085   2.485  14.556  0.1887  0.8915 -0.7866
    2TMC3    O114359   2.436   2.832  14.507  0.1283  0.0305 -0.1982
    2TMC3    O214360   2.044   2.504  14.442  0.0372  0.0108  0.9067
    3TCq1    O114361   2.819   3.777  15.232  0.0530 -0.8248 -0.0794
    3TCq1    C114362   2.680   3.784  15.223 -0.3302  0.3730  0.5265
    3TCq1    O214363   2.618   3.868  15.160 -0.6821 -0.4995 -0.7610
    3TCq1    C214364   2.633   3.644  15.229 -0.4220 -0.4189  0.4884
    3TCq1    C314365   2.686   3.553  15.317  0.0726  0.0616  0.1831
    3TCq1    C414366   2.664   3.419  15.299 -0.0260 -0.3774  0.8193
    3TCq1    C514367   2.587   3.377  15.190  0.5803 -0.2656  0.2529
    3TCq1    C614368   2.535   3.473  15.104 -0.0859 -0.8575 -0.5715
    3TCq1    C714369   2.553   3.610  15.120 -0.5762  0.8097  0.0315
    3TCq1    C814370   2.499   3.442  14.968  0.4862 -0.6807  0.2414
    3TCq1    O414371   2.499   3.531  14.882 -0.3000 -0.2793  1.0703
    3TCq1    C914372   2.729   3.317  15.381  0.1141  0.2572 -0.4771
    3TCq1    O514373   2.683   3.202  15.374 -0.2688  0.2921  0.1938
    3TCq1    O614374   2.833   3.351  15.436 -0.0158  0.1325 -0.6829
    3TCq1    H114375   2.849   3.691  15.270  0.4373 -0.8637 -0.4842
    3TCq1    H214376   2.743   3.581  15.405 -2.0256  2.2513  0.8454
    3TCq1    H314377   2.583   3.270  15.175  0.2402 -0.4293  1.4923
    3TCq1    H414378   2.532   3.685  15.045 -0.0852  0.1588 -0.7662
    4MPD2     C14379   2.450   3.317  14.700  0.6330  0.2646  0.7241
    4MPD2    C114380   2.451   3.253  14.820 -0.0682 -1.0968 -0.0348
    4MPD2    C214381   2.416   3.122  14.831  0.3057 -0.1710 -0.4872
    4MPD2    C314382   2.397   3.049  14.713  0.6253 -0.0485 -0.2764
    4MPD2    C414383   2.405   3.110  14.591  0.3842 -0.2857 -0.3150
    4MPD2    C514384   2.433   3.246  14.585  0.3425 -0.0932  0.1695
    4MPD2     H14385   2.403   3.069  14.925  1.7163  0.6602  0.1778
    4MPD2    H114386   2.386   3.063  14.495 -0.9377  0.7058 -0.5368
    4MPD2    H214387   2.449   3.425  14.695 -4.7181  0.1273 -1.3335
    4MPD2    H314388   2.439   3.297  14.489 -1.9356 -1.2699 -0.5987
    4MPD2     N14389   2.374   2.916  14.722 -0.2922 -0.4816 -0.0208
    4MPD2    H514390   2.361   2.877  14.816  0.1267  0.7937  0.5624
    4MPD2    N114391   2.468   3.312  14.947 -0.0591 -0.3607  0.3751
    4MPD2    H714392   2.457   3.253  15.030  0.7592 -0.5897  0.3249
    5TMC2    C114393   1.666   2.328  15.214  0.0146 -0.2585  0.3149
    5TMC2    C214394   1.553   2.408  15.220  0.6331  0.2780  0.3085
    5TMC2    C314395   1.534   2.474  15.336 -0.1858 -0.3208 -0.5046
    5TMC2    C414396   1.758   2.329  15.318  0.6770  0.1175  0.3858
    5TMC2    C514397   1.735   2.412  15.429  0.1394  0.2577 -0.1029
    5TMC2    C614398   1.621   2.483  15.435 -0.4312  0.6920  0.0681
    5TMC2     C14399   1.730   2.326  15.082 -0.0007 -0.0460  0.0059
    5TMC2     O14400   1.848   2.356  15.095 -0.3697  0.6212 -0.6027
    5TMC2     H14401   1.487   2.410  15.134  0.3965 -0.8379  0.4686
    5TMC2    H114402   1.839   2.260  15.300  0.8880  0.9983 -2.1351
    5TMC2    H214403   1.607   2.553  15.517 -0.5393  0.5891  0.1384
    5TMC2    C714404   1.852   2.489  15.459  0.2101  0.6068  0.0083
    5TMC2    C814405   1.399   2.529  15.354  0.6090  0.2353 -0.3278
    5TMC2    O114406   1.872   2.520  15.576 -0.4239 -0.2362  0.2100
    5TMC2    O214407   1.381   2.622  15.431  0.3347  0.3597  0.3323
    5TMC2    O514408   1.307   2.446  15.299 -0.0653 -0.2231  0.0650
    5TMC2    H514409   1.339   2.357  15.272 -0.4894 -0.4433  0.2903
    6MPD2     C14410   1.804   2.360  14.578  0.2983  0.1554 -0.8418
    6MPD2    C114411   1.881   2.408  14.683 -0.1683  0.9372  0.5674
    6MPD2    C214412   1.839   2.379  14.811  0.4093 -0.9994 -0.1628
    6MPD2    C314413   1.713   2.323  14.836  0.6021  0.2834  0.2526
    6MPD2    C414414   1.631   2.290  14.730 -0.0499  0.5271 -0.3167
    6MPD2    C514415   1.681   2.299  14.606 -0.0836 -0.5380 -0.1894
    6MPD2     H14416   1.894   2.405  14.901 -0.9684  0.0197  0.3827
    6MPD2    H114417   1.537   2.238  14.742  0.4062 -0.7983 -2.5230
    6MPD2    H214418   1.843   2.376  14.478 -1.0577  1.3154 -1.1791
    6MPD2    H314419   1.625   2.272  14.517  1.6719 -3.2582 -0.4762
    6MPD2     N14420   1.659   2.306  14.967  0.0605  0.3097  0.0130
    6MPD2    H514421   1.563   2.276  14.976  0.9997 -1.8537  2.9522
    6MPD2    N114422   2.014   2.459  14.673 -0.1953 -0.0960  0.1912
    6MPD2    H714423   2.067   2.477  14.757 -1.1464 -2.3851  1.2701
  945NH3     N114424   1.548   4.669   2.918  0.3034 -0.1126 -0.1751
  945NH3     H214425   1.536   0.049   2.925  0.2747  0.0121 -2.0966
  945NH3     H314426   1.541   4.649   3.017 -0.3075  2.6373  0.3442
  945NH3     H414427   1.454   4.644   2.889  0.2057 -0.0709  0.0995
  946SOD     NA14428   1.983   1.548  13.290  0.0722  0.3901  0.6937
  947SOD     NA14429   3.258   4.397   5.611 -0.4358  0.2806  0.1316
  948SOD     NA14430   4.667   2.612   2.697  0.0350  0.1882 -0.4097
  949SOD     NA14431   2.418   2.748   0.632 -0.0007  0.4216 -0.0888
  950SOD     NA14432   3.488   0.066   2.614  0.1095 -0.1215 -0.9327
  951SOD     NA14433   2.524   0.558  10.335  0.0924 -0.2001  0.3346
  952SOD     NA14434   4.451   0.451  13.454  0.0071 -0.2041  0.5528
  953SOD     NA14435   3.055   4.502   9.093  0.2702  0.1729 -0.3127
  954SOD     NA14436   0.035   2.580  13.179  0.2297 -0.3721  0.0946
  955SOD     NA14437   0.069   2.148  16.106 -0.4365  0.0047 -0.1351
  956SOD     NA14438   4.028   3.609   1.769  0.1730  0.0895 -0.2589
  957SOD     NA14439   0.823   2.342  13.624  0.4074  0.0923  0.0378
  958SOD     NA14440   2.626   0.953  10.359 -0.5929  0.2690  0.0220
  959SOD     NA14441   0.700   2.441  15.157 -0.0835  0.0447  0.6088
  960SOD     NA14442   4.612   1.289  11.452  0.2887  0.3170 -0.4715
  961SOD     NA14443   1.966   1.850   9.758 -0.0001  0.0094 -0.4814
  962SOD     NA14444   4.109   2.281  12.287 -0.3415  0.1188 -0.3576
  963SOD     NA14445   1.613   2.112  10.804  0.2470 -0.2544  0.0822
  964SOD     NA14446   4.611   1.869  10.877 -0.0672 -0.1917 -0.1451
  965SOD     NA14447   3.248   0.375   2.021 -0.1329 -0.3288 -0.4340
  966SOD     NA14448   2.766   3.029  15.259 -0.1558  0.2223 -0.3446
  967SOD     NA14449   0.548   4.263  11.171  0.1936 -0.2543  0.3948
  968SOD     NA14450   0.304   4.422  14.756 -0.3632  0.0653 -0.2960
  969SOD     NA14451   2.804   1.451  10.150  0.0644 -0.0748  0.0963
  970SOD     NA14452   4.616   3.571   2.433 -0.0826 -0.0059 -0.3023
  971SOD     NA14453   4.081   3.851  14.059 -0.4323  0.5657  0.3712
  972SOD     NA14454   3.566   1.720  11.980 -0.2367 -0.0556  0.1412
  973SOD     NA14455   2.668   1.157  10.071 -0.1000  0.2323 -0.2372
  974SOD     NA14456   1.417   0.834  13.174 -0.1008  0.0395 -0.1074
  975SOD     NA14457   0.555   4.255   9.563  0.0913 -0.5251 -0.2068
  976SOD     NA14458   4.077   0.648  14.328 -0.0836  0.2676  0.2099
  977SOD     NA14459   3.147   1.568   6.704 -0.2152 -0.0081 -0.2337
  978SOD     NA14460   2.751   0.240  11.405  0.1407  0.4617 -0.4020
  979SOD     NA14461   4.219   0.156  12.765  0.5588  0.4812  0.0619
  980SOD     NA14462   3.083   3.051  15.142 -0.1664  0.4847  0.1734
  981SOD     NA14463   3.886   3.913   2.839 -0.3937  0.1758  0.2397
  982SOD     NA14464   0.947   3.271   1.181 -0.2576 -0.0866  0.3325
  983SOD     NA14465   3.773   0.874   8.721 -0.1504  0.2016  0.3534
  984SOD     NA14466   2.646   3.222   2.277  0.4925 -0.1193 -0.1872
  985SOD     NA14467   2.431   4.655  11.516  0.1737  0.1930 -0.2404
  986SOD     NA14468   0.896   0.905   2.050  0.5904 -0.0081 -0.2580
  987SOD     NA14469   0.232   4.684   4.910  0.6460 -0.0505  0.4877
  988SOD     NA14470   3.786   2.112  14.649 -0.6678  0.0399 -0.3142
  989SOD     NA14471   3.197   4.456   0.763  0.1398  0.0901 -0.0754
  990SOD     NA14472   0.275   1.032   9.166 -0.2057 -0.4041 -0.3652
  991SOD     NA14473   3.937   1.887  14.247  0.3538 -0.2253  0.5264
  992SOD     NA14474   2.719   2.479  15.505  0.5891 -0.6518  0.3384
  993SOD     NA14475   1.079   3.574   2.403  0.2206  0.1866  0.5108
  994SOD     NA14476   3.349   1.523  11.918  0.0595 -0.1449 -0.2190
  995SOD     NA14477   1.626   4.214  12.586  0.2947  0.0934  0.6534
  996SOD     NA14478   3.636   1.256  10.317  0.2872  0.6615 -1.0065
  997SOD     NA14479   1.911   2.146  10.678 -0.1888  0.2012 -0.0761
  998SOD     NA14480   3.114   1.634  10.183 -0.3793  0.0132  0.3419
  999SOD     NA14481   4.249   4.279  16.779 -0.2857  0.1530 -0.3451
 1000SOD     NA14482   1.431   0.586  15.498  0.3202  0.1262 -0.7705
 1001SOD     NA14483   3.161   0.589  11.989 -0.2983 -0.0444 -0.7195
 1002SOD     NA14484   3.971   2.278  16.029  0.2449 -0.5119 -0.2038
 1003SOD     NA14485   4.575   0.704   1.195 -0.5885  0.4061  0.0129
 1004SOD     NA14486   4.720   1.200  12.233 -0.5114 -0.4326  0.0213
 1005SOD     NA14487   0.909   0.288  14.083  0.0988  0.3322  0.0220
 1006SOD     NA14488   3.576   1.680   0.067  0.2827  0.1392  0.7189
 1007SOD     NA14489   1.258   4.442   2.472 -0.0845  0.1721 -0.4756
 1008SOD     NA14490   1.305   3.322  16.191 -0.0909  0.2833 -0.2231
 1009SOD     NA14491   3.985   3.126  16.454 -0.4443  0.1588  0.6322
 1010SOD     NA14492   3.404   2.693   1.005 -0.0761  0.0073 -0.1986
 1011SOD     NA14493   0.603   1.012   8.963  0.0276 -0.3674 -0.2409
 1012SOL     OW14494   2.643   2.854  12.586  0.0686  0.3212 -0.2340
 1012SOL    HW114495   2.620   2.768  12.551 -2.3271  1.3341 -1.1810
 1012SOL    HW214496   2.738   2.859  12.576  0.0761 -1.8419 -1.1762
 1013SOL     OW14497   2.580   3.101   5.584  0.2989 -0.2073  0.1120
 1013SOL    HW114498   2.506   3.059   5.627  0.7268 -0.5797  0.4835
 1013SOL    HW214499   2.647   3.083   5.650  1.7765  1.7783 -0.8450
 1014SOL     OW14500   0.356   0.040   8.147 -0.2130 -0.4774  0.4672
 1014SOL    HW114501   0.339   0.084   8.063 -1.2083 -0.5730  0.6228
 1014SOL    HW214502   0.347   4.668   8.123 -1.3677 -0.9794  2.8911
 1015SOL     OW14503   2.986   0.282   9.409  0.6595  0.4031 -0.0021
 1015SOL    HW114504   3.059   0.248   9.358 -0.2142  2.0974 -2.4132
 1015SOL    HW214505   2.917   0.263   9.345  1.1047 -1.6575  0.1377
 1016SOL     OW14506   1.906   4.604   6.926 -0.2024 -0.6700  0.0192
 1016SOL    HW114507   1.835   4.668   6.930 -1.1004 -1.6773  0.0363
 1016SOL    HW214508   1.883   4.563   6.843  0.4979 -1.8850  0.4267
 1017SOL     OW14509   1.932   4.403  13.985 -0.1567 -0.6464 -0.2759
 1017SOL    HW114510   1.996   4.447  13.930 -0.9680  1.6840  0.6665
 1017SOL    HW214511   1.974   4.424  14.069 -2.8428  0.9814  0.6243
 1018SOL     OW14512   3.041   3.531   6.667 -0.6422  0.0096  0.5123
 1018SOL    HW114513   2.966   3.571   6.623 -0.0895 -0.5966 -0.9689
 1018SOL    HW214514   3.022   3.438   6.660 -0.8881  0.1951 -1.3368
 1019SOL     OW14515   0.437   3.288   4.749  0.0016  0.1309 -0.5696
 1019SOL    HW114516   0.349   3.280   4.712 -0.3477  0.4148  0.1891
 1019SOL    HW214517   0.465   3.374   4.717 -0.3769  0.7735  0.8071
 1020SOL     OW14518   0.825   3.784  12.174 -0.6112 -0.5221 -0.2261
 1020SOL    HW114519   0.873   3.841  12.114  2.9084 -2.3566  0.8454
 1020SOL    HW214520   0.764   3.844  12.218 -1.3441 -0.8868 -0.7473
 1021SOL     OW14521   2.862   0.538   8.492  0.9271 -0.1760  0.0541
 1021SOL    HW114522   2.828   0.595   8.560  1.4025 -0.2397  0.3451
 1021SOL    HW214523   2.826   0.577   8.412 -0.1017 -0.0295  0.5824
 1022SOL     OW14524   0.749   0.132  15.700 -0.4974 -0.1227 -0.0151
 1022SOL    HW114525   0.663   0.091  15.698 -0.1708 -0.9251  2.3916
 1022SOL    HW214526   0.774   0.118  15.609 -1.4620 -0.5576 -0.2143
 1023SOL     OW14527   0.191   0.484   9.142 -0.3759 -0.3326  0.2443
 1023SOL    HW114528   0.113   0.462   9.193 -0.0560  0.3285  0.9983
 1023SOL    HW214529   0.182   0.435   9.060 -0.9256 -0.2366  0.2489
 1024SOL     OW14530   3.080   2.972  11.438 -0.2151 -0.3188 -0.3100
 1024SOL    HW114531   3.033   3.037  11.491 -0.6724  0.5438 -1.7875
 1024SOL    HW214532   3.043   2.993  11.353  0.9859 -1.8271 -1.1933
 1025SOL     OW14533   2.455   0.081   6.729  0.0900 -0.4299 -0.0486
 1025SOL    HW114534   2.417   0.012   6.675  0.2427 -0.1063 -0.5747
 1025SOL    HW214535   2.474   0.150   6.665  0.2514 -1.3730 -1.0027
 1026SOL     OW14536   3.317   2.480  17.376 -0.0006 -0.0160 -0.5008
 1026SOL    HW114537   3.231   2.450  17.348 -0.9789  1.4095  0.9415
 1026SOL    HW214538   3.374   2.429  17.318 -0.7991 -2.0811  0.4986
 1027SOL     OW14539   0.004   3.797   0.715 -0.3140 -0.1737  0.5682
 1027SOL    HW114540   0.008   3.838   0.628 -0.3657 -0.7268  0.3035
 1027SOL    HW214541   4.633   3.811   0.736 -0.2305  3.4448 -1.5740
 1028SOL     OW14542   2.393   2.905   1.049  0.3401  0.7957 -0.4573
 1028SOL    HW114543   2.440   2.906   1.132  0.1354 -0.0995 -0.3373
 1028SOL    HW214544   2.304   2.916   1.085  0.0229 -1.0049 -0.7050
 1029SOL     OW14545   1.912   0.035   3.931  0.2268 -0.4003  0.4083
 1029SOL    HW114546   2.000   0.068   3.915  0.2252  0.0423  1.3054
 1029SOL    HW214547   1.922   4.697   4.005 -0.5702  0.3599  1.1279
 1030SOL     OW14548   0.697   2.471   6.302 -0.2787 -0.3188  0.0928
 1030SOL    HW114549   0.659   2.501   6.219 -0.2162 -0.9614 -0.1705
 1030SOL    HW214550   0.709   2.554   6.348  1.0996  0.5932 -1.9366
 1031SOL     OW14551   0.247   4.660  16.343  0.0485  0.1081  0.1983
 1031SOL    HW114552   0.276   4.608  16.419 -0.0939 -0.0443  0.1502
 1031SOL    HW214553   0.298   4.624  16.270 -1.3675 -0.0288 -0.7252
 1032SOL     OW14554   4.544   0.190  16.685  1.0793  0.2541 -0.1953
 1032SOL    HW114555   4.499   0.256  16.632  1.2491  0.3390 -0.2335
 1032SOL    HW214556   4.632   0.191  16.648  1.2453  1.0571  0.2068
 1033SOL     OW14557   3.375   1.631   1.517 -0.0001  0.0006 -0.3159
 1033SOL    HW114558   3.429   1.605   1.442  3.2948  0.0903  2.0552
 1033SOL    HW214559   3.433   1.636   1.593 -2.0392  0.7903  1.1837
 1034SOL     OW14560   2.462   4.039   5.164  0.0348  0.3131 -0.1436
 1034SOL    HW114561   2.465   4.108   5.099  2.9898  1.1590  0.9101
 1034SOL    HW214562   2.367   4.025   5.160  0.1082  0.4618 -2.3538
 1035SOL     OW14563   1.406   2.953   3.561 -0.1559 -0.2965 -0.5482
 1035SOL    HW114564   1.403   3.026   3.622  1.0550 -1.0938  0.4660
 1035SOL    HW214565   1.315   2.960   3.532 -0.7530  0.1508  1.3865
 1036SOL     OW14566   0.370   4.716   6.546 -0.1570  0.4158 -0.1230
 1036SOL    HW114567   0.366   4.626   6.577  2.1171  0.1428 -0.6304
 1036SOL    HW214568   0.447   0.029   6.593  0.3843 -1.8538  0.6518
 1037SOL     OW14569   3.215   4.707   7.086 -0.3250  0.1627  0.3588
 1037SOL    HW114570   3.287   4.682   7.144 -0.8171  3.2187  2.2881
 1037SOL    HW214571   3.138   4.716   7.142 -0.9279  2.1264 -0.7994
 1038SOL     OW14572   0.987   2.943   4.667  0.3463  0.3956 -0.4429
 1038SOL    HW114573   1.076   2.920   4.694  0.0344 -0.7255 -0.3439
 1038SOL    HW214574   0.936   2.877   4.714  1.6674  0.4377  1.0333
 1039SOL     OW14575   2.036   1.593   1.649  0.3350 -0.6568 -0.6176
 1039SOL    HW114576   2.131   1.594   1.657  0.1938 -0.0092  0.9882
 1039SOL    HW214577   2.039   1.522   1.586 -0.8532 -0.0186 -1.3991
 1040SOL     OW14578   1.332   0.896   1.768  0.7671  0.0177 -0.3551
 1040SOL    HW114579   1.328   0.992   1.776  3.0421 -0.0408  1.3294
 1040SOL    HW214580   1.296   0.882   1.680  1.5932  1.6021 -0.9565
 1041SOL     OW14581   4.529   4.052   2.544 -0.5354  0.5616 -0.0951
 1041SOL    HW114582   4.623   4.062   2.531 -0.4558 -0.5971 -0.4169
 1041SOL    HW214583   4.493   4.132   2.504 -1.4326  0.3732  0.3269
 1042SOL     OW14584   1.476   1.667  16.051  0.0310  0.7588 -0.0838
 1042SOL    HW114585   1.505   1.588  16.005  0.9770  0.1758  1.4896
 1042SOL    HW214586   1.452   1.633  16.137 -1.7544 -0.3953 -1.0596
 1043SOL     OW14587   0.060   2.070   1.709  0.1532  0.9157 -0.0937
 1043SOL    HW114588   0.133   2.016   1.678 -0.6019  0.2509 -0.7257
 1043SOL    HW214589   0.095   2.128   1.776  5.1118 -1.1431 -0.8651
 1044SOL     OW14590   1.459   2.100  11.794 -0.4684  0.1426 -0.5612
 1044SOL    HW114591   1.442   2.013  11.832  1.4688  0.0997  0.1801
 1044SOL    HW214592   1.552   2.109  11.812 -0.4108  0.5496 -1.0427
 1045SOL     OW14593   4.178   4.600  17.168 -0.0772  0.1030  0.3317
 1045SOL    HW114594   4.159   4.649  17.088 -2.4717 -2.4238 -0.6470
 1045SOL    HW214595   4.100   4.614  17.222  0.5413  0.6434  1.0938
 1046SOL     OW14596   3.017   4.249   8.089 -0.0050  0.0807 -0.2043
 1046SOL    HW114597   2.995   4.210   8.174 -1.2294 -2.6433 -1.7503
 1046SOL    HW214598   3.087   4.188   8.067  1.4957  1.7873 -0.1008
 1047SOL     OW14599   2.236   3.542   4.051  0.7660 -0.1557  0.2528
 1047SOL    HW114600   2.286   3.562   3.971  0.2323 -0.4487 -0.1522
 1047SOL    HW214601   2.211   3.625   4.092 -0.0392 -1.2788  2.0277
 1048SOL     OW14602   1.269   0.666   4.341  0.0071 -0.4233  0.2113
 1048SOL    HW114603   1.283   0.758   4.363 -0.1878 -0.4335  0.3733
 1048SOL    HW214604   1.359   0.637   4.325 -0.5458 -1.8141 -0.3236
 1049SOL     OW14605   1.578   4.109   2.873 -0.2366  0.3074 -0.4045
 1049SOL    HW114606   1.596   4.202   2.881 -0.0446  0.4129 -1.9859
 1049SOL    HW214607   1.667   4.083   2.852  0.1164  1.4688 -0.3091
 1050SOL     OW14608   2.394   0.514   5.095  0.1696  0.1458  0.1772
 1050SOL    HW114609   2.346   0.586   5.054 -0.5956 -0.2310  0.4170
 1050SOL    HW214610   2.324   0.481   5.151 -0.1539 -0.5030 -0.6330
 1051SOL     OW14611   0.229   3.359   4.237 -1.0833 -0.3070  0.6750
 1051SOL    HW114612   0.226   3.310   4.320  0.2008  0.7074  1.3168
 1051SOL    HW214613   0.323   3.375   4.236 -0.8674 -1.6355 -0.7649
 1052SOL     OW14614   0.729   0.326  14.222 -0.1979 -0.2323  0.1567
 1052SOL    HW114615   0.660   0.387  14.195 -0.2419 -0.4172 -0.1496
 1052SOL    HW214616   0.684   0.299  14.302 -0.0625  2.8661  1.2744
 1053SOL     OW14617   0.589   4.052   3.973  0.0500  0.5657  0.1735
 1053SOL    HW114618   0.512   4.109   3.978 -0.1991  0.0957  1.6017
 1053SOL    HW214619   0.660   4.112   3.998  0.5345 -0.7449  1.8879
 1054SOL     OW14620   1.649   4.131   5.208 -0.0852  0.1458 -0.4571
 1054SOL    HW114621   1.625   4.094   5.293 -1.0926 -0.9524 -1.2185
 1054SOL    HW214622   1.662   4.048   5.163 -0.4560 -1.0517  1.6610
 1055SOL     OW14623   0.737   0.271   1.343  0.1048 -0.3339  0.3753
 1055SOL    HW114624   0.714   0.325   1.419 -1.3837  0.3520 -0.5563
 1055SOL    HW214625   0.752   0.184   1.378 -0.4278 -0.6260 -0.1208
 1056SOL     OW14626   1.954   4.697  14.211 -0.1910 -0.1977 -0.0756
 1056SOL    HW114627   1.897   4.636  14.258  1.1901 -2.2172 -0.9910
 1056SOL    HW214628   1.925   0.060  14.246 -0.8891  0.1008 -1.3566
 1057SOL     OW14629   2.474   0.763  15.338 -0.1554  0.4341 -0.2939
 1057SOL    HW114630   2.434   0.848  15.319 -0.5298  0.1154 -0.9158
 1057SOL    HW214631   2.400   0.704  15.328  0.8800 -1.1774  1.4444
 1058SOL     OW14632   1.437   0.517   7.569  0.3511  0.0316  0.0583
 1058SOL    HW114633   1.426   0.514   7.665  0.3161 -0.1951  0.0469
 1058SOL    HW214634   1.521   0.473   7.560 -1.1887 -2.6302 -1.2986
 1059SOL     OW14635   0.983   2.241   7.855 -0.3355  0.2597  0.1378
 1059SOL    HW114636   0.902   2.195   7.880  1.2095 -2.7308 -0.3205
 1059SOL    HW214637   0.996   2.189   7.775  1.4943 -0.1311  0.6938
 1060SOL     OW14638   3.310   3.579   0.775  0.0984 -0.2553 -0.4284
 1060SOL    HW114639   3.300   3.673   0.757  1.7893  0.5758  2.7686
 1060SOL    HW214640   3.278   3.542   0.693 -2.2577  1.1664 -0.1672
 1061SOL     OW14641   1.920   0.625   9.195  0.0547 -0.2523  0.4299
 1061SOL    HW114642   1.842   0.654   9.147 -0.5126 -0.9118  0.9565
 1061SOL    HW214643   1.893   0.533   9.198  2.1448 -0.9355 -1.5033
 1062SOL     OW14644   0.480   0.255  17.177  0.0567 -0.3327  0.1704
 1062SOL    HW114645   0.424   0.330  17.158  0.0081 -0.5408 -0.5076
 1062SOL    HW214646   0.421   0.200  17.228  0.3224 -0.7726  0.0077
 1063SOL     OW14647   3.655   3.142  10.752 -0.2798 -0.1869  0.0161
 1063SOL    HW114648   3.581   3.144  10.814 -0.2094  2.1527  0.0269
 1063SOL    HW214649   3.691   3.227  10.775 -0.5465 -0.5822  1.9661
 1064SOL     OW14650   2.631   1.606   2.635 -0.4415  0.2383  0.8415
 1064SOL    HW114651   2.547   1.565   2.656 -1.1822  1.0060 -0.6086
 1064SOL    HW214652   2.672   1.539   2.579 -1.0387  0.2665  0.3706
 1065SOL     OW14653   4.216   3.125   4.295  0.3771 -0.0641  0.3161
 1065SOL    HW114654   4.278   3.155   4.361 -0.4533  1.1412  0.5365
 1065SOL    HW214655   4.260   3.173   4.225 -1.7136  2.0860  0.4884
 1066SOL     OW14656   0.198   1.588   7.276  0.0632  0.7742 -0.1899
 1066SOL    HW114657   0.212   1.675   7.312 -0.5773  0.7879  0.0236
 1066SOL    HW214658   0.207   1.621   7.187  1.1315  1.2131  0.0825
 1067SOL     OW14659   2.060   3.189  15.453 -0.0325  0.1049 -0.1385
 1067SOL    HW114660   2.016   3.212  15.535  2.2038 -1.5489  1.5199
 1067SOL    HW214661   2.033   3.097  15.446 -1.2506  0.5585 -1.6604
 1068SOL     OW14662   2.387   1.596   9.319  0.0454  0.4478 -0.2449
 1068SOL    HW114663   2.445   1.520   9.321  0.6188  0.9155  0.6160
 1068SOL    HW214664   2.338   1.583   9.400 -0.8003  2.3197 -0.4439
 1069SOL     OW14665   3.829   3.528   1.818 -0.3872 -0.6513 -0.6291
 1069SOL    HW114666   3.749   3.557   1.774 -0.4002  1.0008  0.4819
 1069SOL    HW214667   3.808   3.435   1.814  0.1043 -0.9055  2.1264
 1070SOL     OW14668   1.089   2.639  12.776 -0.3036 -0.2595  0.3464
 1070SOL    HW114669   1.026   2.647  12.704 -0.5549  1.1817  0.7235
 1070SOL    HW214670   1.171   2.617  12.733 -0.6285 -0.6576 -0.0747
 1071SOL     OW14671   1.907   0.315   2.805  0.5601 -0.9890  0.3601
 1071SOL    HW114672   1.846   0.351   2.869  0.6214  0.8982 -0.6545
 1071SOL    HW214673   1.991   0.327   2.849 -0.5954  2.0427  1.7090
 1072SOL     OW14674   3.803   0.495  13.898 -0.1788 -0.1670  0.6098
 1072SOL    HW114675   3.800   0.590  13.896 -2.6318 -0.1723  3.9711
 1072SOL    HW214676   3.875   0.491  13.961  0.3108  1.3290  0.1364
 1073SOL     OW14677   0.564   4.679   7.732 -0.3000  0.1704 -0.4233
 1073SOL    HW114678   0.639   0.017   7.728 -0.7449  0.7850  0.4978
 1073SOL    HW214679   0.577   4.625   7.653  1.8197  0.8339 -0.5466
 1074SOL     OW14680   1.043   3.980   5.730  0.3107  0.5699  0.4290
 1074SOL    HW114681   0.963   3.930   5.713  1.0290 -0.7453  0.9918
 1074SOL    HW214682   1.008   4.060   5.769 -0.1628 -0.2305  1.6431
 1075SOL     OW14683   2.139   4.323  11.668 -0.4024  0.0096 -0.3715
 1075SOL    HW114684   2.131   4.240  11.620 -0.4292 -0.2222  0.0352
 1075SOL    HW214685   2.058   4.372  11.653 -0.6170 -1.3700 -3.8414
 1076SOL     OW14686   2.994   3.088   6.983  0.0854 -0.6462  0.4832
 1076SOL    HW114687   2.935   3.163   6.976  1.6293  0.4086 -1.0959
 1076SOL    HW214688   2.959   3.048   7.063 -0.4737  0.7940  0.9624
 1077SOL     OW14689   1.183   1.632  13.693  0.5731  0.4952 -0.2959
 1077SOL    HW114690   1.107   1.683  13.666  2.3441  2.1456 -2.1934
 1077SOL    HW214691   1.222   1.694  13.754  3.7949  0.9625 -2.8191
 1078SOL     OW14692   1.396   3.827   4.192  0.5134 -0.2537  0.1582
 1078SOL    HW114693   1.321   3.881   4.213  0.1115 -1.0367  0.7338
 1078SOL    HW214694   1.435   3.834   4.279  1.4710 -0.4504 -0.2511
 1079SOL     OW14695   4.383   0.280   3.037 -0.1250 -0.4580 -1.1722
 1079SOL    HW114696   4.378   0.228   2.957  2.4423  1.9292 -2.8739
 1079SOL    HW214697   4.464   0.240   3.069 -0.0982 -1.3751 -2.4256
 1080SOL     OW14698   3.156   1.671  11.654  0.7312 -0.0077  0.0278
 1080SOL    HW114699   3.231   1.638  11.703  0.8063 -1.9533 -1.3844
 1080SOL    HW214700   3.123   1.587  11.621  0.2295 -0.3141  1.3013
 1081SOL     OW14701   3.354   0.875   2.047  0.6568  0.1319  0.1648
 1081SOL    HW114702   3.410   0.930   1.992 -1.0167  0.0096 -1.6564
 1081SOL    HW214703   3.295   0.839   1.981 -1.3752  0.0806  2.0061
 1082SOL     OW14704   2.458   4.671   3.738  0.3708  0.7909  0.4840
 1082SOL    HW114705   2.438   4.613   3.665  1.1195  0.0184  0.8928
 1082SOL    HW214706   2.465   4.610   3.811 -0.0181 -0.3310 -0.4257
 1083SOL     OW14707   2.333   3.337  10.649  0.2846  0.4017 -0.2512
 1083SOL    HW114708   2.344   3.271  10.581 -1.3773  0.2906 -0.4121
 1083SOL    HW214709   2.426   3.353  10.664 -0.2990  2.4911  1.1535
 1084SOL     OW14710   2.253   1.141   9.212 -0.7274 -0.3908 -0.3894
 1084SOL    HW114711   2.293   1.063   9.252 -0.3622 -0.7931 -1.5443
 1084SOL    HW214712   2.294   1.136   9.126 -0.6193 -1.2921 -0.2929
 1085SOL     OW14713   0.475   3.566   7.649  0.1719  0.1369  0.5960
 1085SOL    HW114714   0.477   3.496   7.714  0.3662  0.3969  0.8688
 1085SOL    HW214715   0.561   3.552   7.610 -0.1524 -1.3129  0.4105
 1086SOL     OW14716   4.125   3.032   1.254  0.3384 -0.4394  0.2613
 1086SOL    HW114717   4.146   3.006   1.344 -1.3381  0.1272  0.8183
 1086SOL    HW214718   4.065   2.961   1.234 -1.8486  2.4195 -3.3533
 1087SOL     OW14719   2.010   4.127  14.305  0.0179  0.7572 -0.4124
 1087SOL    HW114720   2.052   4.111  14.221 -0.4794 -1.4010 -0.2467
 1087SOL    HW214721   1.933   4.179  14.280 -0.3391  0.7309  0.6349
 1088SOL     OW14722   0.626   0.920   9.387 -0.7203  0.4210 -0.2158
 1088SOL    HW114723   0.717   0.915   9.417 -0.4019  0.9434 -1.1328
 1088SOL    HW214724   0.615   1.013   9.404 -0.6916  0.2410  0.8486
 1089SOL     OW14725   2.026   2.917   2.820  0.5652  0.6438  0.0202
 1089SOL    HW114726   2.082   2.858   2.869  1.0443  1.0418 -0.0494
 1089SOL    HW214727   2.036   2.886   2.730 -0.4661  2.1632 -0.6396
 1090SOL     OW14728   2.249   1.487   9.069 -0.6300  0.2301 -0.4502
 1090SOL    HW114729   2.266   1.516   9.159 -1.4788  0.2349 -0.2921
 1090SOL    HW214730   2.154   1.483   9.066 -0.5393 -2.2797 -0.1241
 1091SOL     OW14731   4.485   0.557   2.474  0.3778 -0.3746 -0.0404
 1091SOL    HW114732   4.494   0.617   2.400 -2.2557  2.6968  2.1001
 1091SOL    HW214733   4.499   0.472   2.433  0.6544 -0.4204  0.1492
 1092SOL     OW14734   4.344   2.002   1.067 -0.2289  0.4937  1.2064
 1092SOL    HW114735   4.252   1.976   1.076 -0.8253  2.2369  0.1529
 1092SOL    HW214736   4.355   2.013   0.973 -2.0604  0.0179  0.9468
 1093SOL     OW14737   3.734   3.734   0.114  0.0778  0.6147 -0.2952
 1093SOL    HW114738   3.749   3.640   0.111 -1.3457  0.4263 -1.2877
 1093SOL    HW214739   3.686   3.736   0.197 -0.2649  2.8226 -0.5450
 1094SOL     OW14740   4.216   0.749   6.066  0.2128 -0.1418 -0.0813
 1094SOL    HW114741   4.308   0.725   6.066 -0.1581 -1.5879 -0.2263
 1094SOL    HW214742   4.176   0.675   6.019  0.7166  0.1340 -0.9427
 1095SOL     OW14743   2.519   0.518   0.247  0.1944  0.3562 -0.3452
 1095SOL    HW114744   2.575   0.463   0.192  0.5932 -0.3435  0.7746
 1095SOL    HW214745   2.478   0.559   0.171 -0.3943  0.4818  0.0383
 1096SOL     OW14746   2.805   3.605   6.554 -0.2176  0.1120 -0.1726
 1096SOL    HW114747   2.788   3.618   6.461  1.0874 -0.0786 -0.4427
 1096SOL    HW214748   2.722   3.598   6.600  0.4493 -1.0581  0.8443
 1097SOL     OW14749   2.477   1.954   3.670  0.2443 -0.0778  0.2733
 1097SOL    HW114750   2.395   1.919   3.702  0.3720 -0.2889  0.3690
 1097SOL    HW214751   2.454   2.047   3.672 -2.0485 -0.6903  1.7112
 1098SOL     OW14752   1.426   1.969   7.041 -0.3742  0.4089  0.1728
 1098SOL    HW114753   1.423   2.036   6.974  0.9311 -1.0015 -1.3066
 1098SOL    HW214754   1.333   1.947   7.046 -0.5335  1.2667  1.0730
 1099SOL     OW14755   3.819   0.757   5.002  0.0854 -0.0627  0.6347
 1099SOL    HW114756   3.809   0.711   4.919 -0.0668  0.5609  0.3101
 1099SOL    HW214757   3.853   0.840   4.968  1.2188 -0.1645  1.5371
 1100SOL     OW14758   1.310   3.398  16.860  0.5529  0.3274  0.7969
 1100SOL    HW114759   1.390   3.364  16.900  1.2913  1.3708  0.2158
 1100SOL    HW214760   1.349   3.427  16.778 -1.1007  0.5423  0.0959
 1101SOL     OW14761   0.600   1.807   0.541  0.7400 -0.1665  0.3367
 1101SOL    HW114762   0.590   1.871   0.612 -2.1140 -0.0699 -0.1520
 1101SOL    HW214763   0.570   1.861   0.468 -1.5137 -0.4035  1.1119
 1102SOL     OW14764   4.361   1.862   3.790 -0.5769  0.3305  0.0844
 1102SOL    HW114765   4.352   1.768   3.808  1.9435  0.0298 -0.1910
 1102SOL    HW214766   4.290   1.870   3.727 -0.1387  1.2127 -0.2992
 1103SOL     OW14767   1.684   3.373  13.395  0.3754 -0.3776 -0.4679
 1103SOL    HW114768   1.739   3.294  13.394  3.0953  1.5601 -1.4128
 1103SOL    HW214769   1.595   3.343  13.374  0.0463 -0.5069  1.0585
 1104SOL     OW14770   1.117   3.126   5.785 -0.2941  0.4159  0.3906
 1104SOL    HW114771   1.211   3.146   5.785 -0.0536 -0.7567  0.5236
 1104SOL    HW214772   1.097   3.078   5.864 -2.1004 -0.5966 -0.6836
 1105SOL     OW14773   2.542   1.933   4.916 -0.1882 -0.0326 -0.2308
 1105SOL    HW114774   2.525   2.014   4.867  1.5843  0.5193  0.0718
 1105SOL    HW214775   2.459   1.886   4.926  0.4963 -1.3696 -0.7941
 1106SOL     OW14776   3.490   1.319   8.732 -0.1458 -0.1172  0.0569
 1106SOL    HW114777   3.549   1.337   8.806 -1.0162  0.7065  0.5636
 1106SOL    HW214778   3.550   1.272   8.675 -0.4780 -1.1942  0.6040
 1107SOL     OW14779   4.369   1.690  14.662  0.1863  0.3888  0.1408
 1107SOL    HW114780   4.354   1.768  14.716 -1.7308  0.9971 -1.3194
 1107SOL    HW214781   4.463   1.701  14.644 -0.1656  0.2524 -1.7180
 1108SOL     OW14782   3.773   1.756  16.734 -0.2858  0.4983  0.3847
 1108SOL    HW114783   3.749   1.699  16.807  0.2087 -2.0984 -1.4605
 1108SOL    HW214784   3.736   1.705  16.662 -0.2226  1.0969 -0.0613
 1109SOL     OW14785   3.876   2.247  12.450 -0.2435  0.1458  0.1828
 1109SOL    HW114786   3.815   2.222  12.519 -1.0419  0.2743 -0.4713
 1109SOL    HW214787   3.820   2.242  12.372  1.6838 -1.3966 -1.0985
 1110SOL     OW14788   2.633   0.749   1.997  0.3505 -0.0182 -0.0601
 1110SOL    HW114789   2.661   0.671   2.046 -0.0500 -0.8103 -1.0874
 1110SOL    HW214790   2.551   0.715   1.959 -0.5508 -1.4891  3.1992
 1111SOL     OW14791   2.425   2.037   7.008 -0.0744  0.2912  0.0865
 1111SOL    HW114792   2.477   2.117   7.009 -1.3211  1.0999  0.3580
 1111SOL    HW214793   2.392   2.040   6.918  2.3663  2.7401 -0.7348
 1112SOL     OW14794   2.581   0.234   3.680  0.5761  0.1303  0.3555
 1112SOL    HW114795   2.530   0.198   3.607  0.4913  1.0263 -0.0355
 1112SOL    HW214796   2.562   0.166   3.744 -0.7543 -0.9654 -1.1918
 1113SOL     OW14797   1.304   0.470   6.494 -0.5525 -0.7464 -0.0884
 1113SOL    HW114798   1.270   0.500   6.410 -1.0599 -0.1477  0.3285
 1113SOL    HW214799   1.282   0.377   6.490  1.4401 -1.2086 -0.4209
 1114SOL     OW14800   1.976   0.526   4.791  0.8293  0.2525 -0.4329
 1114SOL    HW114801   1.895   0.477   4.777  0.5102  0.8910 -0.8429
 1114SOL    HW214802   2.005   0.460   4.853 -0.0614  0.5559  0.2990
 1115SOL     OW14803   2.436   2.515   0.675 -0.3487  0.1583 -0.2806
 1115SOL    HW114804   2.519   2.482   0.709 -0.6464 -0.1867  0.1136
 1115SOL    HW214805   2.380   2.445   0.708 -2.8381  2.3425  0.1005
 1116SOL     OW14806   0.816   3.339  13.148  0.1536 -0.1214 -0.5126
 1116SOL    HW114807   0.805   3.266  13.209  0.7519  2.3453  2.5763
 1116SOL    HW214808   0.888   3.299  13.100 -0.3161 -2.6934  0.9395
 1117SOL     OW14809   1.707   1.519   4.188  0.4345  0.8694  0.1925
 1117SOL    HW114810   1.801   1.529   4.201  0.5568  2.0594 -1.5590
 1117SOL    HW214811   1.695   1.599   4.136  1.2952  2.3360  2.2409
 1118SOL     OW14812   3.239   2.507  17.675  0.7045 -0.1049  0.0252
 1118SOL    HW114813   3.286   2.589  17.685  1.1970 -0.2626 -1.0397
 1118SOL    HW214814   3.264   2.491  17.584 -2.4062  1.9064 -1.1913
 1119SOL     OW14815   4.004   2.405  11.924  0.0369  0.2226  0.0319
 1119SOL    HW114816   4.051   2.322  11.927 -1.3743 -0.5420  1.3041
 1119SOL    HW214817   4.028   2.443  12.008  1.0580  0.6191 -0.4408
 1120SOL     OW14818   1.296   3.661   2.731  0.0442 -0.0119 -0.0077
 1120SOL    HW114819   1.216   3.698   2.694  1.2607  1.5179 -1.0490
 1120SOL    HW214820   1.303   3.584   2.674 -1.7644 -0.1809 -0.0158
 1121SOL     OW14821   1.941   3.988   6.433  0.4275 -0.0657 -0.4272
 1121SOL    HW114822   1.900   3.955   6.513  1.6533  0.1075  0.2769
 1121SOL    HW214823   1.948   3.903   6.389 -0.6112 -0.0244 -0.6644
 1122SOL     OW14824   3.408   2.188  15.064 -0.0060  0.4347  0.1854
 1122SOL    HW114825   3.362   2.273  15.058 -0.1140  0.2711 -1.3154
 1122SOL    HW214826   3.409   2.157  14.973 -1.3203 -2.4563  1.1434
 1123SOL     OW14827   3.671   0.568   8.004  0.0093 -0.0189 -0.1397
 1123SOL    HW114828   3.676   0.542   8.096  0.5167 -0.6063 -0.3378
 1123SOL    HW214829   3.658   0.663   8.015 -2.0968 -0.1084 -1.7714
 1124SOL     OW14830   0.169   0.414   0.933 -0.4771 -0.0491  0.0624
 1124SOL    HW114831   0.159   0.401   1.027 -0.1841  0.1451  0.1207
 1124SOL    HW214832   0.139   0.505   0.935 -1.7272 -0.4904  1.3335
 1125SOL     OW14833   2.882   2.998   7.765 -0.0644  0.1524  0.3329
 1125SOL    HW114834   2.817   3.065   7.783  0.4802  0.5635  0.7624
 1125SOL    HW214835   2.915   2.980   7.853  2.7199  0.2543 -0.6934
 1126SOL     OW14836   1.584   3.908   8.852 -0.2152  0.5060 -0.0986
 1126SOL    HW114837   1.559   3.837   8.794  0.6710 -0.5438  0.7962
 1126SOL    HW214838   1.562   3.882   8.942 -0.3636  1.2774  0.0847
 1127SOL     OW14839   0.202   0.416   7.729  0.2859 -0.1485  0.1166
 1127SOL    HW114840   0.219   0.408   7.823 -1.8223  0.0466  0.5140
 1127SOL    HW214841   0.268   0.360   7.688  1.3259 -1.1309  3.0881
 1128SOL     OW14842   4.433   0.440   4.498  0.3492 -0.2781 -0.3249
 1128SOL    HW114843   4.392   0.445   4.412  0.9737  0.2601 -0.5955
 1128SOL    HW214844   4.360   0.390   4.533  0.7769 -2.4205 -2.4679
 1129SOL     OW14845   3.683   1.592   3.592  0.2250  0.1439 -0.0405
 1129SOL    HW114846   3.713   1.668   3.543  1.4778 -0.5095 -0.2843
 1129SOL    HW214847   3.654   1.537   3.518 -1.6185 -0.9791  1.5199
 1130SOL     OW14848   0.792   4.508   8.021  0.3165  0.3568 -0.8811
 1130SOL    HW114849   0.848   4.554   7.958  1.6744  0.9197  0.7505
 1130SOL    HW214850   0.758   4.437   7.966 -0.0241  0.6604 -1.0635
 1131SOL     OW14851   1.057   2.848  13.247 -0.0312  0.3332  0.6096
 1131SOL    HW114852   1.057   2.757  13.215  0.0565  1.0649 -1.4332
 1131SOL    HW214853   0.991   2.834  13.315  0.2128  1.4243  1.0699
 1132SOL     OW14854   2.810   0.044   3.365 -0.6765 -0.6765  0.3830
 1132SOL    HW114855   2.875   0.049   3.435  0.1467  0.1083 -0.4268
 1132SOL    HW214856   2.828   4.675   3.341 -0.0811 -1.1390  2.5459
 1133SOL     OW14857   0.804   2.824   5.638  0.3171  0.0986 -0.1805
 1133SOL    HW114858   0.842   2.736   5.643  0.2243 -0.1207 -3.3010
 1133SOL    HW214859   0.762   2.817   5.723 -0.1453  0.7731 -0.3531
 1134SOL     OW14860   0.398   2.373  12.669  0.0621 -0.3798  0.0411
 1134SOL    HW114861   0.475   2.334  12.710 -0.2183 -0.9076  0.0638
 1134SOL    HW214862   0.423   2.375  12.576  0.0423  0.6939  0.0641
 1135SOL     OW14863   2.586   2.344   4.492  0.5179 -0.4256  0.7915
 1135SOL    HW114864   2.646   2.417   4.506  3.5406 -2.9425  0.8358
 1135SOL    HW214865   2.506   2.391   4.516 -0.6068 -1.0317 -1.7750
 1136SOL     OW14866   3.021   0.543  15.975 -0.2974 -0.5042  0.6207
 1136SOL    HW114867   2.966   0.617  15.998  0.8741  0.6376 -0.2313
 1136SOL    HW214868   3.087   0.585  15.920  0.1155 -0.6225  1.0245
 1137SOL     OW14869   2.351   3.430   6.748 -0.0430  0.1295 -0.7483
 1137SOL    HW114870   2.361   3.361   6.814 -0.5812 -0.5942 -1.4247
 1137SOL    HW214871   2.394   3.391   6.672  1.1975 -0.3952  0.2253
 1138SOL     OW14872   2.060   2.200  15.104  0.8004  0.2009  0.2233
 1138SOL    HW114873   1.988   2.263  15.099 -0.5583 -1.5155 -2.1058
 1138SOL    HW214874   2.114   2.232  15.031  0.3879  0.6069  0.0916
 1139SOL     OW14875   2.414   2.140   2.338  0.0756 -0.0974  0.4277
 1139SOL    HW114876   2.450   2.074   2.279 -0.0390  0.0076  0.2439
 1139SOL    HW214877   2.433   2.099   2.423  1.9487 -1.7425 -0.7910
 1140SOL     OW14878   1.822   2.835  10.646 -0.0754  0.4581 -0.3738
 1140SOL    HW114879   1.804   2.913  10.698 -0.1154  0.3472 -0.2200
 1140SOL    HW214880   1.793   2.878  10.565 -0.1345  0.3768 -0.3950
 1141SOL     OW14881   1.856   4.593   4.572 -0.3953  0.0772  0.1725
 1141SOL    HW114882   1.846   4.682   4.539  0.1241  0.6155  1.4838
 1141SOL    HW214883   1.919   4.602   4.644  1.6959  0.2627 -1.6860
 1142SOL     OW14884   4.664   2.093   7.716 -0.5268  0.8646 -0.7088
 1142SOL    HW114885   4.662   2.001   7.740 -1.2475  1.0803  0.0471
 1142SOL    HW214886   4.581   2.097   7.668  0.4324  0.4311 -2.4142
 1143SOL     OW14887   0.226   4.547   7.166 -0.8993  0.9749  0.1247
 1143SOL    HW114888   0.220   4.624   7.109  2.2003  1.6658  0.7432
 1143SOL    HW214889   0.241   4.481   7.098  1.7251 -0.2004  1.8717
 1144SOL     OW14890   4.051   3.740  14.503  0.9167  0.2457 -0.4266
 1144SOL    HW114891   4.042   3.658  14.552  1.6915 -0.7457 -1.9515
 1144SOL    HW214892   4.026   3.800  14.574  0.8357 -0.9025  0.5213
 1145SOL     OW14893   3.276   3.747   8.305  0.2374  0.0275 -0.5087
 1145SOL    HW114894   3.368   3.749   8.278  1.4105 -4.1941  3.1189
 1145SOL    HW214895   3.277   3.735   8.400 -1.4086  0.3341 -0.4527
 1146SOL     OW14896   2.686   4.708   5.985  0.1859  0.4043  0.6227
 1146SOL    HW114897   2.591   4.706   5.992  0.0434  2.2395 -0.7535
 1146SOL    HW214898   2.694   0.074   6.024 -0.6049 -0.0583  1.8227
 1147SOL     OW14899   2.399   3.678   0.175 -0.1704  1.0430  0.1224
 1147SOL    HW114900   2.443   3.622   0.239 -0.9749 -0.3096 -0.5253
 1147SOL    HW214901   2.317   3.708   0.214 -0.4907  0.4238 -0.0758
 1148SOL     OW14902   2.159   1.305   2.456 -0.3772  0.0900  0.1881
 1148SOL    HW114903   2.105   1.337   2.528 -0.7638 -0.0358 -0.0463
 1148SOL    HW214904   2.159   1.211   2.476 -0.0222  0.0427 -0.0348
 1149SOL     OW14905   0.015   1.339  11.852  1.0500 -0.3151  0.4911
 1149SOL    HW114906   0.076   1.357  11.780 -1.3890  0.1015 -1.4738
 1149SOL    HW214907   4.657   1.296  11.820 -0.0557  1.7822  0.4766
 1150SOL     OW14908   1.459   3.022   2.545 -0.3248 -0.4158 -1.2334
 1150SOL    HW114909   1.555   3.021   2.540 -0.3623 -3.0799 -1.4505
 1150SOL    HW214910   1.435   2.931   2.559 -0.0215  0.1532  2.9926
 1151SOL     OW14911   2.835   0.435   4.765 -0.4276  0.1795  0.2577
 1151SOL    HW114912   2.773   0.469   4.830 -1.3866 -0.5638 -0.2636
 1151SOL    HW214913   2.787   0.401   4.689 -1.6327  0.7396  0.7576
 1152SOL     OW14914   0.164   1.811  15.798  0.3870 -0.2567 -0.0301
 1152SOL    HW114915   0.135   1.722  15.778  2.3756 -0.9249  0.0686
 1152SOL    HW214916   0.259   1.803  15.800  0.5175  1.1957  0.0412
 1153SOL     OW14917   0.930   1.839   6.270  0.1351  0.2406  0.3482
 1153SOL    HW114918   0.979   1.920   6.255  1.7965 -0.9917 -0.8120
 1153SOL    HW214919   0.956   1.797   6.188 -0.2579 -0.3521  0.5277
 1154SOL     OW14920   4.432   1.152  13.919 -0.4321 -0.2768 -0.0907
 1154SOL    HW114921   4.367   1.192  13.977  0.1580  2.0193 -1.0200
 1154SOL    HW214922   4.480   1.230  13.890  0.6020 -0.6999  0.5177
 1155SOL     OW14923   0.472   3.094   5.853 -0.4345  0.7468  0.2381
 1155SOL    HW114924   0.413   3.055   5.917  0.1529  0.4792  0.6129
 1155SOL    HW214925   0.433   3.050   5.777  1.0683 -0.9441  0.4500
 1156SOL     OW14926   3.666   1.326  15.016 -0.5281  0.1184  0.6912
 1156SOL    HW114927   3.674   1.415  14.980  1.4243 -0.8148 -1.1923
 1156SOL    HW214928   3.573   1.304  15.017 -0.6275  0.5865  1.7969
 1157SOL     OW14929   2.337   4.676   6.518  0.3613 -0.4732 -0.4558
 1157SOL    HW114930   2.346   4.581   6.528 -0.5141 -0.6432 -1.3984
 1157SOL    HW214931   2.253   4.688   6.475  0.1132 -0.9171 -0.0847
 1158SOL     OW14932   4.125   1.539   8.795  0.1087 -0.0370 -0.4412
 1158SOL    HW114933   4.154   1.539   8.886  0.8337 -0.3550 -0.6722
 1158SOL    HW214934   4.057   1.606   8.803  0.7840  0.8287 -1.9599
 1159SOL     OW14935   1.090   2.128   5.977 -0.3393 -0.1717  0.0143
 1159SOL    HW114936   1.087   2.117   6.072  0.9197 -2.0688 -0.1595
 1159SOL    HW214937   1.181   2.155   5.966 -0.1146 -2.1563 -3.0921
 1160SOL     OW14938   3.481   3.997   3.885  0.4141 -0.4044 -0.2463
 1160SOL    HW114939   3.426   4.017   3.961  0.4774  0.9975 -0.5612
 1160SOL    HW214940   3.452   3.909   3.861 -1.0843  0.2009 -0.6611
 1161SOL     OW14941   0.820   4.198   3.369  0.4264  0.0793 -0.5400
 1161SOL    HW114942   0.828   4.123   3.310 -1.0594 -0.7741  0.3443
 1161SOL    HW214943   0.900   4.244   3.342 -0.1183  0.8826 -0.7649
 1162SOL     OW14944   0.720   1.036   7.800  0.2366  0.2809  0.2033
 1162SOL    HW114945   0.791   1.080   7.753  0.4533 -0.6331 -0.3192
 1162SOL    HW214946   0.737   1.073   7.887  1.9458  0.6058 -0.2832
 1163SOL     OW14947   1.058   3.962   4.466  0.1416  0.2414  0.2992
 1163SOL    HW114948   1.137   3.968   4.411 -1.5616 -0.4295 -2.2113
 1163SOL    HW214949   1.100   3.958   4.552  1.5829  0.9758 -0.3644
 1164SOL     OW14950   1.239   0.673  13.186 -0.9990  0.7069 -0.3374
 1164SOL    HW114951   1.287   0.590  13.188  0.4007  1.5005 -0.5153
 1164SOL    HW214952   1.155   0.653  13.144 -0.9520 -0.7009  0.2534
 1165SOL     OW14953   3.164   2.406  12.159 -0.3263  0.3621 -0.0446
 1165SOL    HW114954   3.171   2.497  12.186  1.0400 -0.1416  1.2905
 1165SOL    HW214955   3.251   2.401  12.120 -0.6686 -1.4552 -0.6048
 1166SOL     OW14956   2.007   2.887   7.735  0.0173  0.1331 -0.7725
 1166SOL    HW114957   2.015   2.792   7.738  0.4711  0.1841 -0.4118
 1166SOL    HW214958   2.039   2.903   7.824 -2.2757  1.3500 -0.1706
 1167SOL     OW14959   1.779   3.416   9.177  0.0553  0.5934  0.9818
 1167SOL    HW114960   1.754   3.500   9.214 -1.3055  1.4308 -1.7964
 1167SOL    HW214961   1.869   3.411   9.209  0.0244  0.2930  1.0238
 1168SOL     OW14962   3.972   3.272   1.501  0.2465  0.5348  0.0063
 1168SOL    HW114963   3.966   3.293   1.408  0.2924  1.1539  0.1380
 1168SOL    HW214964   4.066   3.262   1.517 -0.0077 -0.9556  0.5480
 1169SOL     OW14965   0.818   0.665   4.901 -1.0150 -0.1786 -0.0135
 1169SOL    HW114966   0.771   0.689   4.981 -0.8521  1.5308 -0.4198
 1169SOL    HW214967   0.819   0.570   4.910  2.1042 -0.0201  1.1774
 1170SOL     OW14968   2.084   1.152   4.511 -0.0762 -0.1306  0.2369
 1170SOL    HW114969   2.132   1.199   4.579  0.5601 -1.6005  0.8064
 1170SOL    HW214970   2.084   1.067   4.555 -2.0004 -0.0013  0.4655
 1171SOL     OW14971   3.719   1.536  16.883  0.3430  0.2640 -0.2824
 1171SOL    HW114972   3.742   1.451  16.845  0.4293  0.1061  0.1222
 1171SOL    HW214973   3.637   1.519  16.930  1.7778  2.1902  2.9193
 1172SOL     OW14974   2.760   3.688  14.545  0.1845  0.1550 -0.1377
 1172SOL    HW114975   2.777   3.766  14.492 -0.7959  1.1159  0.9481
 1172SOL    HW214976   2.675   3.660  14.510  1.7425 -0.3586 -3.5134
 1173SOL     OW14977   3.715   3.316  10.254 -0.3639 -0.2304  0.2381
 1173SOL    HW114978   3.677   3.228  10.263  1.4711 -0.9671  0.8766
 1173SOL    HW214979   3.700   3.329  10.160 -1.8026  0.4680  0.5701
 1174SOL     OW14980   1.041   4.382   3.441  0.3064 -0.0793  0.2174
 1174SOL    HW114981   1.035   4.297   3.485 -2.7772  0.9020  1.6188
 1174SOL    HW214982   1.050   4.440   3.516  0.8122 -0.5209  0.5000
 1175SOL     OW14983   2.636   4.342   9.692  0.3240 -0.1842 -0.0442
 1175SOL    HW114984   2.603   4.279   9.627 -0.6506  1.3756 -1.0861
 1175SOL    HW214985   2.565   4.338   9.756  1.5195 -0.6719  1.2455
 1176SOL     OW14986   0.526   1.285   5.467  0.2886  0.2942  0.1108
 1176SOL    HW114987   0.611   1.274   5.425 -0.0752  0.1691 -0.5864
 1176SOL    HW214988   0.544   1.345   5.539  0.7712 -0.9400  1.0200
 1177SOL     OW14989   2.303   4.177  10.142  0.1244 -0.0318  0.1330
 1177SOL    HW114990   2.388   4.219  10.155  0.1242 -0.1796  0.6310
 1177SOL    HW214991   2.300   4.164  10.047 -0.0753 -0.1922  0.1600
 1178SOL     OW14992   3.325   1.934   5.836 -0.7061  0.0451  0.6729
 1178SOL    HW114993   3.352   1.913   5.925 -0.7514  4.7416  1.7915
 1178SOL    HW214994   3.272   2.010   5.860 -0.6231  0.5019 -0.5938
 1179SOL     OW14995   4.356   2.423   1.124 -0.3184 -0.1351 -0.0830
 1179SOL    HW114996   4.450   2.437   1.109  0.1544 -2.6389  0.5970
 1179SOL    HW214997   4.317   2.508   1.145 -0.2412 -0.1526  0.1377
 1180SOL     OW14998   4.123   3.607   4.859 -0.1543  0.2046  0.3310
 1180SOL    HW114999   4.115   3.702   4.858  1.4901  0.3516  2.3007
 1180SOL    HW215000   4.168   3.593   4.775 -1.4078  1.8748 -0.6308
 1181SOL     OW15001   3.831   1.475   7.024  0.2487  1.1236 -0.7525
 1181SOL    HW115002   3.804   1.397   6.976  0.2373  2.0044 -2.2005
 1181SOL    HW215003   3.905   1.502   6.970  1.1849 -1.0640 -0.5641
 1182SOL     OW15004   0.377   0.738   8.686 -0.3605  0.3793 -0.4328
 1182SOL    HW115005   0.460   0.784   8.679  1.5256 -3.1033 -1.3814
 1182SOL    HW215006   0.367   0.706   8.776  1.3389 -3.4739 -1.5773
 1183SOL     OW15007   2.950   3.426   5.718 -0.4347 -0.8787 -0.5021
 1183SOL    HW115008   2.899   3.503   5.690  1.1037 -0.3027 -1.6810
 1183SOL    HW215009   2.942   3.427   5.813  1.6291  1.3592 -0.3536
 1184SOL     OW15010   3.597   4.404  17.114 -0.0723  0.3014  0.3508
 1184SOL    HW115011   3.658   4.332  17.098 -2.4611 -1.1703 -2.0795
 1184SOL    HW215012   3.520   4.361  17.150 -2.1508  1.3707 -2.8294
 1185SOL     OW15013   1.671   2.582   4.645  0.1423  0.3772  0.5835
 1185SOL    HW115014   1.690   2.608   4.736  0.1455  0.4473  0.5625
 1185SOL    HW215015   1.590   2.633   4.644 -1.7954 -2.7565 -1.2311
 1186SOL     OW15016   2.131   0.605  13.337 -0.2667 -0.2995  0.1225
 1186SOL    HW115017   2.173   0.627  13.420 -1.4913  1.5689  0.2444
 1186SOL    HW215018   2.134   0.687  13.289 -1.5131  0.1743  0.8531
 1187SOL     OW15019   1.740   2.675   3.771  0.4795  0.5057 -0.1392
 1187SOL    HW115020   1.712   2.766   3.760 -0.5068  0.0638 -1.3286
 1187SOL    HW215021   1.760   2.662   3.678  0.9586 -0.3897  0.0955
 1188SOL     OW15022   3.262   2.132   7.151 -0.1319  0.1752  0.2149
 1188SOL    HW115023   3.204   2.149   7.077 -0.2624 -0.5541  0.1564
 1188SOL    HW215024   3.208   2.065   7.193  1.6758 -2.4932 -1.7506
 1189SOL     OW15025   4.195   4.190  10.093  0.3125  0.2458 -0.0023
 1189SOL    HW115026   4.174   4.276  10.057  0.9057  0.6718  0.6638
 1189SOL    HW215027   4.144   4.137  10.032  0.5870  1.6724 -1.4917
 1190SOL     OW15028   1.699   2.872   5.447  0.2632 -0.3042  0.3076
 1190SOL    HW115029   1.705   2.938   5.377 -0.5618 -0.4745  0.0682
 1190SOL    HW215030   1.727   2.924   5.522  0.5324  2.4983 -1.7145
 1191SOL     OW15031   2.913   4.320  12.610 -0.3296 -0.1775  0.1679
 1191SOL    HW115032   2.885   4.404  12.647 -1.5489 -0.3305 -0.4218
 1191SOL    HW215033   2.971   4.352  12.541  2.0988  0.4285  2.5000
 1192SOL     OW15034   2.821   4.123   1.363 -0.5453 -0.8596  0.3083
 1192SOL    HW115035   2.821   4.038   1.407 -1.4213 -0.9128  0.1945
 1192SOL    HW215036   2.733   4.133   1.328  0.3136  1.2361 -1.2754
 1193SOL     OW15037   2.313   2.030  14.291  0.4220  0.4640 -0.2938
 1193SOL    HW115038   2.355   1.944  14.290 -1.8871 -0.6449 -1.7061
 1193SOL    HW215039   2.223   2.010  14.268  0.1468  2.3811 -0.9458
 1194SOL     OW15040   2.468   0.171  13.702  0.0485  0.1300  0.1757
 1194SOL    HW115041   2.377   0.183  13.674  0.2613 -3.5626 -2.1683
 1194SOL    HW215042   2.509   0.158  13.616 -0.2641 -0.5694  0.1374
 1195SOL     OW15043   4.604   4.255   4.490  0.5027 -0.1577  0.3667
 1195SOL    HW115044   4.549   4.181   4.462 -1.4341  0.3757  2.7620
 1195SOL    HW215045   4.687   4.232   4.449 -0.5827 -0.5090 -1.6681
 1196SOL     OW15046   3.776   1.990   7.858  0.4208  0.1125  0.0532
 1196SOL    HW115047   3.748   2.056   7.922  1.9213  1.0152 -0.2250
 1196SOL    HW215048   3.769   2.042   7.778  3.3391  1.3111  0.5911
 1197SOL     OW15049   2.221   2.939   6.942  0.7206  0.1049  0.1512
 1197SOL    HW115050   2.256   3.008   6.999  1.5601  0.4692 -0.7963
 1197SOL    HW215051   2.274   2.861   6.958 -0.6762 -0.9059 -0.1918
 1198SOL     OW15052   2.990   3.077   9.939 -0.1198 -0.2337  0.2384
 1198SOL    HW115053   3.022   2.990   9.961  1.6849  0.4881  0.4641
 1198SOL    HW215054   3.046   3.103   9.865  1.1415 -0.8580  0.9742
 1199SOL     OW15055   0.311   4.478   9.286  0.5320  0.2015 -0.2700
 1199SOL    HW115056   0.289   4.565   9.319  0.3552  0.3348 -0.7375
 1199SOL    HW215057   0.243   4.452   9.223  1.0959  1.6986 -1.4940
 1200SOL     OW15058   2.494   2.071   2.597  0.0616 -0.4463 -0.3182
 1200SOL    HW115059   2.460   2.016   2.668 -1.2400 -0.2090 -0.7443
 1200SOL    HW215060   2.581   2.043   2.571  0.2455 -0.2882  0.1352
 1201SOL     OW15061   1.180   3.361  16.374  0.7367  0.0889  0.4155
 1201SOL    HW115062   1.138   3.446  16.386  2.0514  0.6357  1.1946
 1201SOL    HW215063   1.138   3.312  16.445 -0.6141 -0.9591 -1.1098
 1202SOL     OW15064   4.106   1.003  15.488 -0.1828  0.1100 -0.2406
 1202SOL    HW115065   4.120   1.075  15.551  0.7314 -1.0813  0.9131
 1202SOL    HW215066   4.012   0.989  15.484  0.0024 -1.0654 -0.2806
 1203SOL     OW15067   2.781   4.574  12.678  0.0451 -0.2650  0.5712
 1203SOL    HW115068   2.779   4.536  12.766  1.6770 -2.5571 -0.3794
 1203SOL    HW215069   2.742   4.659  12.698  0.9517  0.0385  1.0565
 1204SOL     OW15070   2.415   3.471   2.548 -0.3187  0.0202 -0.0447
 1204SOL    HW115071   2.476   3.495   2.618 -2.1837 -0.2858  1.6866
 1204SOL    HW215072   2.405   3.559   2.511 -2.1317 -1.3492 -2.7891
 1205SOL     OW15073   2.713   0.896  15.449  0.5951  0.8998  0.4718
 1205SOL    HW115074   2.690   0.858  15.364  0.4122 -1.0792  1.4224
 1205SOL    HW215075   2.708   0.811  15.491 -0.5684  0.5122 -0.4297
 1206SOL     OW15076   4.181   0.741   6.822  0.2795  0.0342 -1.2404
 1206SOL    HW115077   4.116   0.810   6.816 -1.5545 -1.6542 -0.5195
 1206SOL    HW215078   4.226   0.735   6.737  0.7989  1.1761 -1.0367
 1207SOL     OW15079   1.609   2.575   6.109  0.2594  0.3482  0.5953
 1207SOL    HW115080   1.544   2.505   6.119 -0.5495  0.9867 -0.1907
 1207SOL    HW215081   1.628   2.586   6.016 -0.2592 -1.7630  0.2283
 1208SOL     OW15082   1.293   0.661   9.530 -0.0035 -0.0678  0.1357
 1208SOL    HW115083   1.315   0.752   9.511  0.5406  0.0255  1.2090
 1208SOL    HW215084   1.380   0.628   9.509 -0.8703 -0.5154 -2.8719
 1209SOL     OW15085   1.518   3.296   8.856  0.2925  0.6070  0.3651
 1209SOL    HW115086   1.515   3.380   8.903 -1.4744  1.4338 -1.2078
 1209SOL    HW215087   1.571   3.243   8.916 -1.2039 -2.8282 -1.3464
 1210SOL     OW15088   1.569   0.034   1.825 -0.1634  0.4440  0.1755
 1210SOL    HW115089   1.586   0.071   1.912  2.4953 -0.8578  0.2218
 1210SOL    HW215090   1.561   4.663   1.850 -1.1026  0.3931 -0.3142
 1211SOL     OW15091   0.246   4.144  11.493 -0.1133 -0.1835 -0.2190
 1211SOL    HW115092   0.176   4.193  11.535  0.0820  0.3086 -0.4600
 1211SOL    HW215093   0.191   4.066  11.488 -1.6896  1.0091 -1.5347
 1212SOL     OW15094   0.393   1.344   9.343  0.8407 -0.0579 -0.2102
 1212SOL    HW115095   0.470   1.289   9.329 -0.1349 -1.0062 -1.7232
 1212SOL    HW215096   0.331   1.303   9.283 -1.2472  1.6006  0.7922
 1213SOL     OW15097   1.820   3.571  11.663  0.1664  0.1092 -0.7851
 1213SOL    HW115098   1.899   3.599  11.710  0.8566 -0.7920 -1.3955
 1213SOL    HW215099   1.766   3.647  11.684  0.8174  0.8936 -1.9447
 1214SOL     OW15100   0.521   2.050  12.570 -0.1615  0.5646 -0.2591
 1214SOL    HW115101   0.562   2.107  12.635 -0.0375 -2.2320  2.1243
 1214SOL    HW215102   0.510   1.967  12.615 -0.8157 -0.2518 -1.9160
 1215SOL     OW15103   1.598   3.730   3.043  0.4187  0.1858 -0.0860
 1215SOL    HW115104   1.657   3.711   3.116 -1.2251  1.5823  1.5954
 1215SOL    HW215105   1.655   3.707   2.970 -0.9659 -0.2846 -1.0215
 1216SOL     OW15106   4.546   0.312  17.343  0.4171 -0.6000 -0.3144
 1216SOL    HW115107   4.545   0.341  17.434 -2.8773  0.2691 -0.6116
 1216SOL    HW215108   4.464   0.262  17.341 -0.8361  1.5059 -1.0059
 1217SOL     OW15109   1.039   1.494   9.281  0.4514  0.1616 -0.6972
 1217SOL    HW115110   1.099   1.569   9.284  1.1317 -0.4221  0.1186
 1217SOL    HW215111   0.972   1.538   9.228 -0.7388  0.7408  1.3138
 1218SOL     OW15112   3.699   1.025   6.770  0.0479 -0.3132 -0.2115
 1218SOL    HW115113   3.624   0.968   6.788 -0.5266  0.2870 -0.6988
 1218SOL    HW215114   3.725   0.980   6.689 -0.6434 -1.4284  0.1832
 1219SOL     OW15115   3.331   4.259   3.289  0.1656  0.0916  0.3550
 1219SOL    HW115116   3.342   4.292   3.378 -0.3354 -1.6431  1.0700
 1219SOL    HW215117   3.412   4.211   3.273 -0.4630 -0.8996  0.1247
 1220SOL     OW15118   3.844   0.707   3.243  0.3866  0.6823 -0.4113
 1220SOL    HW115119   3.839   0.629   3.298  1.2527 -0.8119 -2.4660
 1220SOL    HW215120   3.776   0.764   3.279  1.6285  1.5585  0.5224
 1221SOL     OW15121   2.578   2.224  10.561 -0.5203  0.1056 -0.1477
 1221SOL    HW115122   2.658   2.267  10.531 -0.1489 -0.1794  0.4141
 1221SOL    HW215123   2.600   2.196  10.650  1.7333  2.5988  0.0733
 1222SOL     OW15124   2.711   4.065   5.247  0.1889 -0.1900  0.2203
 1222SOL    HW115125   2.619   4.042   5.254  0.1153  0.4557  1.2755
 1222SOL    HW215126   2.701   4.151   5.206  0.3920 -0.1158  0.3277
 1223SOL     OW15127   1.795   4.321   3.441  0.2042  0.1734 -0.1868
 1223SOL    HW115128   1.781   4.239   3.490 -2.8668 -0.5318 -2.1985
 1223SOL    HW215129   1.842   4.372   3.507  1.0205  0.3623 -0.9282
 1224SOL     OW15130   3.247   0.604   4.915 -0.5461 -0.4921 -0.2487
 1224SOL    HW115131   3.321   0.637   4.865  0.1930 -1.3443  0.2797
 1224SOL    HW215132   3.272   0.645   4.997 -1.5950  1.1003 -0.7263
 1225SOL     OW15133   3.178   2.518   7.636  0.0952 -0.2930  0.1759
 1225SOL    HW115134   3.083   2.525   7.648  0.0336 -0.7196 -0.0790
 1225SOL    HW215135   3.209   2.603   7.668 -0.6482  0.2183 -0.4416
 1226SOL     OW15136   2.320   0.946   3.095  0.0097 -0.9137  0.2265
 1226SOL    HW115137   2.239   0.898   3.077 -2.8895  4.2246 -0.4109
 1226SOL    HW215138   2.334   0.938   3.189 -2.1236 -0.0327  0.6024
 1227SOL     OW15139   0.290   4.630   5.121  0.0614  0.0251  0.1254
 1227SOL    HW115140   0.295   4.679   5.203  1.3477  0.4826 -0.2288
 1227SOL    HW215141   0.252   4.551   5.158  1.6884 -0.2073  1.3139
 1228SOL     OW15142   1.897   3.096  10.518 -0.5014  0.0015 -0.1768
 1228SOL    HW115143   1.941   3.160  10.462 -0.8753  2.7392  2.7099
 1228SOL    HW215144   1.804   3.110  10.497 -0.3251  0.6163 -0.5148
 1229SOL     OW15145   2.113   3.650   5.614  0.5515  0.9106 -0.0476
 1229SOL    HW115146   2.127   3.590   5.540 -1.0321 -0.0439  0.4182
 1229SOL    HW215147   2.141   3.598   5.689 -1.3184 -0.1313 -0.0488
 1230SOL     OW15148   2.049   1.020   6.874 -0.3717  0.1078 -0.2522
 1230SOL    HW115149   2.041   1.044   6.966 -1.4187 -0.8784 -0.0819
 1230SOL    HW215150   1.962   1.041   6.839 -1.3126 -1.5136  1.1322
 1231SOL     OW15151   4.169   3.979   6.425  0.7689  0.2971 -0.0664
 1231SOL    HW115152   4.252   4.011   6.460  0.1765  0.9134  0.7654
 1231SOL    HW215153   4.154   3.908   6.488  1.7861  0.6746  0.5925
 1232SOL     OW15154   2.955   4.344   3.533 -0.0471  0.3987  0.0040
 1232SOL    HW115155   2.946   4.266   3.588  2.5554 -0.2654 -0.4935
 1232SOL    HW215156   2.925   4.312   3.449  0.7697  2.2919 -1.0144
 1233SOL     OW15157   0.362   3.496   0.022  0.3555  0.1734  0.4353
 1233SOL    HW115158   0.405   3.497  17.624 -1.5395  2.1392 -0.4898
 1233SOL    HW215159   0.418   3.425   0.054 -0.6820 -0.5957  0.5663
 1234SOL     OW15160   0.575   1.518  13.295  0.0033 -0.2309 -0.3016
 1234SOL    HW115161   0.506   1.454  13.283 -0.1568 -0.3618  1.2990
 1234SOL    HW215162   0.622   1.521  13.212 -0.1040 -3.7641 -0.4724
 1235SOL     OW15163   2.031   4.641   0.513 -0.4077  0.2377  0.5171
 1235SOL    HW115164   2.031   4.700   0.437  3.1669 -3.2929 -2.2097
 1235SOL    HW215165   2.062   4.703   0.580 -0.2469 -0.4985  1.1201
 1236SOL     OW15166   4.411   4.303   2.464 -0.0527  0.1572 -0.2884
 1236SOL    HW115167   4.485   4.328   2.408  0.0147 -2.2501 -1.2585
 1236SOL    HW215168   4.349   4.376   2.456  0.9627  1.0904  0.2728
 1237SOL     OW15169   1.829   4.699  13.204 -0.1929 -0.3276  0.2927
 1237SOL    HW115170   1.916   0.007  13.178  0.3327 -1.7152  0.4913
 1237SOL    HW215171   1.855   4.610  13.227  2.5240  0.4345  0.2029
 1238SOL     OW15172   0.600   1.454  11.894  0.0868 -0.0221 -0.7811
 1238SOL    HW115173   0.638   1.457  11.807  1.0495  0.8199 -0.3272
 1238SOL    HW215174   0.578   1.546  11.908  0.9243 -0.2964  2.2541
 1239SOL     OW15175   3.745   4.153   6.573  0.3898 -0.6141  0.4798
 1239SOL    HW115176   3.774   4.240   6.601 -1.4159  0.6366 -1.5177
 1239SOL    HW215177   3.796   4.136   6.493  0.7438  0.7884  0.3945
 1240SOL     OW15178   3.644   1.906   4.159  0.0760 -0.2951  0.2153
 1240SOL    HW115179   3.601   1.989   4.179 -1.8416 -0.5670 -2.7586
 1240SOL    HW215180   3.570   1.847   4.167  0.1128 -0.1715  1.4374
 1241SOL     OW15181   4.364   0.869  10.765 -0.4766 -0.6877 -0.5049
 1241SOL    HW115182   4.407   0.831  10.689 -0.4070  0.0748 -0.8511
 1241SOL    HW215183   4.342   0.954  10.727 -1.2601 -0.3688  0.6494
 1242SOL     OW15184   2.776   2.304  17.660  0.2432 -0.7927  0.2104
 1242SOL    HW115185   2.787   2.307  17.565  0.0123  0.9787  0.2523
 1242SOL    HW215186   2.812   2.390  17.681  0.3276 -0.5433 -0.9618
 1243SOL     OW15187   0.020   0.739   3.754  0.3859 -0.0653  0.0606
 1243SOL    HW115188   4.677   0.807   3.777 -0.7953 -1.7249  1.7317
 1243SOL    HW215189   0.102   0.788   3.760 -0.7208  1.5686  1.8667
 1244SOL     OW15190   3.486   0.037  17.530 -0.2221  0.3769 -0.0297
 1244SOL    HW115191   3.566   4.721  17.566  0.0110  0.3609 -0.5719
 1244SOL    HW215192   3.511   0.128  17.544 -0.2431  0.5966 -1.5034
 1245SOL     OW15193   1.707   2.598   7.129  0.0029  0.0136  0.2788
 1245SOL    HW115194   1.683   2.683   7.092  1.2558  0.1500 -0.2029
 1245SOL    HW215195   1.680   2.538   7.060 -0.3289  0.4145  0.0586
 1246SOL     OW15196   2.425   2.565   6.272  0.3139 -0.1131  0.5311
 1246SOL    HW115197   2.445   2.648   6.315  1.0189 -1.1187  2.1059
 1246SOL    HW215198   2.359   2.596   6.209 -0.2395  0.7489  1.5508
 1247SOL     OW15199   0.916   1.611   8.688  0.1245 -0.5365  0.0147
 1247SOL    HW115200   0.950   1.656   8.764  1.1539 -1.1498 -0.0813
 1247SOL    HW215201   0.961   1.661   8.620  0.3047 -0.7789 -0.0469
 1248SOL     OW15202   3.907   3.611  13.574 -0.2246 -0.2255  0.6779
 1248SOL    HW115203   3.869   3.614  13.662 -1.2037 -1.8727  0.3093
 1248SOL    HW215204   3.868   3.689  13.536  1.2425 -0.0987 -0.5684
 1249SOL     OW15205   1.487   1.433  12.663 -0.3611  0.4389 -0.0148
 1249SOL    HW115206   1.574   1.469  12.684  0.6099 -0.7396 -2.0236
 1249SOL    HW215207   1.458   1.388  12.741 -0.2449 -1.3202 -0.9949
 1250SOL     OW15208   4.044   1.043   1.495  0.0411 -0.5146 -0.5713
 1250SOL    HW115209   4.137   1.042   1.473  0.7452 -0.2654  2.3990
 1250SOL    HW215210   4.007   1.083   1.416 -0.6892  1.1576  0.6161
 1251SOL     OW15211   3.246   0.126   6.826  0.1079 -0.0553  0.2050
 1251SOL    HW115212   3.230   0.077   6.907  2.1461 -1.7294 -0.4167
 1251SOL    HW215213   3.164   0.175   6.821  0.8950  1.0544 -1.8412
 1252SOL     OW15214   1.557   2.747   0.169  0.4570 -0.3903 -0.2490
 1252SOL    HW115215   1.467   2.720   0.187  0.1738  0.0694 -0.9747
 1252SOL    HW215216   1.526   2.836   0.151  0.5515 -0.2221  0.3819
 1253SOL     OW15217   1.252   3.025  13.186 -0.2815 -0.1738 -0.0613
 1253SOL    HW115218   1.201   2.947  13.207 -3.1198  1.8260  0.5327
 1253SOL    HW215219   1.245   3.063  13.274 -1.2513 -0.9758  0.2089
 1254SOL     OW15220   2.323   1.640   1.967 -0.1969  0.4602  0.1951
 1254SOL    HW115221   2.267   1.683   1.902  1.7280  1.1346 -1.0400
 1254SOL    HW215222   2.377   1.594   1.902 -1.9853  0.5750 -1.3875
 1255SOL     OW15223   3.065   1.579   6.920  0.1815  0.2913  0.6079
 1255SOL    HW115224   3.003   1.509   6.936 -0.2293  0.7282  0.9517
 1255SOL    HW215225   3.122   1.562   6.995  2.0656  1.8858 -0.4376
 1256SOL     OW15226   2.433   1.657  12.408  0.2874 -0.1861  0.0442
 1256SOL    HW115227   2.411   1.626  12.496  0.0370  0.6710  0.2834
 1256SOL    HW215228   2.502   1.724  12.412  0.0816  0.0051  0.4651
 1257SOL     OW15229   1.148   4.347   9.350 -0.2771  0.2286 -0.6240
 1257SOL    HW115230   1.123   4.439   9.339 -0.2679  0.3225  0.1162
 1257SOL    HW215231   1.100   4.297   9.285  1.5035 -0.5525 -1.3212
 1258SOL     OW15232   3.289   2.557   6.216 -0.4823  0.3331  0.5405
 1258SOL    HW115233   3.249   2.639   6.245  0.2145 -0.4708  3.7459
 1258SOL    HW215234   3.329   2.541   6.301 -0.2631 -0.8286  0.2274
 1259SOL     OW15235   2.126   2.900   3.281  0.6262  0.6494 -0.8494
 1259SOL    HW115236   2.166   2.822   3.319  0.6892  1.1250  0.0561
 1259SOL    HW215237   2.078   2.935   3.357 -0.6937 -0.9667 -0.9423
 1260SOL     OW15238   1.643   1.211  17.070  0.3526  0.2483 -0.8534
 1260SOL    HW115239   1.686   1.133  17.105 -2.2174 -0.4890  0.6708
 1260SOL    HW215240   1.639   1.180  16.980 -2.3782 -0.8658 -0.3755
 1261SOL     OW15241   2.346   2.086   9.864  0.2499  0.4111  0.4767
 1261SOL    HW115242   2.334   2.099   9.958  0.7313  2.2188  0.2790
 1261SOL    HW215243   2.441   2.090   9.851 -0.0898  2.8759 -1.2532
 1262SOL     OW15244   3.585   2.763   4.999  0.4711  0.4373 -0.3669
 1262SOL    HW115245   3.616   2.733   4.914 -0.3802 -1.7305  0.0966
 1262SOL    HW215246   3.528   2.837   4.976  0.8242  0.5838 -0.7774
 1263SOL     OW15247   2.511   2.693  12.111 -0.1574  0.0846 -0.5122
 1263SOL    HW115248   2.595   2.689  12.157 -0.1327 -1.4193 -0.7119
 1263SOL    HW215249   2.529   2.634  12.039  0.1442  0.9538 -1.1527
 1264SOL     OW15250   3.749   3.957   7.209  0.2630  0.6966  0.4916
 1264SOL    HW115251   3.838   3.952   7.244 -0.5453 -1.8054  2.1456
 1264SOL    HW215252   3.770   3.980   7.118  1.9087  0.8770  0.8990
 1265SOL     OW15253   3.262   3.718   2.948 -0.8170 -0.3614 -0.0366
 1265SOL    HW115254   3.205   3.679   2.882 -1.9085 -0.6693  1.1006
 1265SOL    HW215255   3.260   3.656   3.021  2.2351  0.0865  0.4337
 1266SOL     OW15256   0.710   3.873   8.612  0.4219  0.2524 -0.0801
 1266SOL    HW115257   0.670   3.959   8.596  2.0669  0.8558 -0.9486
 1266SOL    HW215258   0.645   3.841   8.674  3.1850 -2.4491  1.3672
 1267SOL     OW15259   1.909   2.769   5.872  0.1962 -0.0148  0.2961
 1267SOL    HW115260   1.946   2.694   5.919 -2.1479 -1.6841 -0.5224
 1267SOL    HW215261   1.971   2.839   5.895  0.5302  0.0431 -0.7785
 1268SOL     OW15262   2.410   2.995   8.788  0.1231 -0.0707  0.3113
 1268SOL    HW115263   2.323   3.000   8.828  0.3147  0.2124  0.6870
 1268SOL    HW215264   2.442   2.913   8.826  0.9583 -0.5911 -1.5104
 1269SOL     OW15265   1.846   3.319   0.936  0.0687 -0.2082  0.0394
 1269SOL    HW115266   1.874   3.237   0.896 -2.4347 -1.0947  0.1475
 1269SOL    HW215267   1.814   3.300   1.024 -1.8861  0.7875 -0.4711
 1270SOL     OW15268   4.188   0.240   8.807  0.2726 -0.3479 -0.0372
 1270SOL    HW115269   4.222   0.222   8.895  1.7679 -0.3928 -0.6236
 1270SOL    HW215270   4.126   0.169   8.795 -0.6078  0.5508 -0.7588
 1271SOL     OW15271   0.945   4.694   4.703 -0.0495 -0.3071 -0.0914
 1271SOL    HW115272   0.981   4.606   4.696  1.9719  0.3278  2.1977
 1271SOL    HW215273   0.858   4.665   4.728 -0.8930  0.3544 -2.2710
 1272SOL     OW15274   3.234   1.668   8.680  0.1357 -0.5786  0.1475
 1272SOL    HW115275   3.235   1.575   8.656  2.3803 -0.1924 -1.2952
 1272SOL    HW215276   3.328   1.687   8.679 -0.2872  1.5187 -0.2224
 1273SOL     OW15277   0.044   4.202   5.016  0.0925 -0.1552  0.4831
 1273SOL    HW115278   0.045   4.258   5.094 -1.8669 -0.9538  1.0935
 1273SOL    HW215279   0.058   4.117   5.058 -0.0048  0.4167  1.6760
 1274SOL     OW15280   2.873   4.099   9.644 -0.0382  0.7015  0.0352
 1274SOL    HW115281   2.928   4.112   9.722  0.9516  0.6900 -0.6580
 1274SOL    HW215282   2.784   4.095   9.677 -0.3697  0.7896 -0.8416
 1275SOL     OW15283   1.885   2.049   7.304 -0.8329  0.3411  0.4284
 1275SOL    HW115284   1.831   2.127   7.285 -0.8233  0.0130 -0.9605
 1275SOL    HW215285   1.925   2.076   7.386 -5.1869  1.1352  2.2999
 1276SOL     OW15286   4.226   1.095   9.197 -0.5194 -0.2121  0.6107
 1276SOL    HW115287   4.183   1.034   9.137 -1.2017  1.1936 -0.3346
 1276SOL    HW215288   4.162   1.165   9.180  0.4649  0.3937 -0.5865
 1277SOL     OW15289   2.741   3.618   9.224  0.0113  0.6001  0.8626
 1277SOL    HW115290   2.786   3.544   9.263 -1.4264 -1.0194 -0.5054
 1277SOL    HW215291   2.659   3.583   9.259  0.5501 -0.0787  1.4221
 1278SOL     OW15292   0.094   3.524   5.081  0.2454 -0.1616  0.1048
 1278SOL    HW115293   0.100   3.584   5.007 -2.4105 -0.4332 -0.3445
 1278SOL    HW215294   0.181   3.485   5.081  0.3092 -0.0161 -0.1116
 1279SOL     OW15295   2.489   1.761   8.086  0.1977  0.7792 -0.6919
 1279SOL    HW115296   2.444   1.824   8.142  0.4474  0.8587 -0.5791
 1279SOL    HW215297   2.551   1.730   8.152  1.0724  2.6260 -0.6424
 1280SOL     OW15298   2.570   2.632   1.011 -0.0512  0.0575  0.2736
 1280SOL    HW115299   2.484   2.591   1.003 -0.2803  0.5148  0.3959
 1280SOL    HW215300   2.552   2.707   1.068  0.4251  0.7577 -0.5019
 1281SOL     OW15301   1.274   0.613  16.459 -0.0263  0.3081 -0.3755
 1281SOL    HW115302   1.186   0.649  16.447 -0.2557 -0.0934  0.0988
 1281SOL    HW215303   1.261   0.585  16.550  1.4010  0.3071 -0.1815
 1282SOL     OW15304   3.205   2.808   1.816  0.3521  0.4427 -0.5128
 1282SOL    HW115305   3.236   2.815   1.726  0.6088 -1.8360 -0.5955
 1282SOL    HW215306   3.233   2.893   1.851  0.6546 -0.3516  1.1622
 1283SOL     OW15307   0.328   3.747   4.098  0.9929  0.1684 -0.4333
 1283SOL    HW115308   0.358   3.687   4.166 -0.2248  0.4856  0.3824
 1283SOL    HW215309   0.335   3.831   4.143 -0.4862 -1.0948  2.1802
 1284SOL     OW15310   2.519   2.996  13.397 -0.0072  0.6460  0.4101
 1284SOL    HW115311   2.606   2.987  13.358 -0.3612  1.0156 -0.4549
 1284SOL    HW215312   2.514   3.089  13.377  1.6433  0.4288 -1.0800
 1285SOL     OW15313   0.629   3.181   7.500 -0.5923  0.5607 -0.6376
 1285SOL    HW115314   0.614   3.090   7.526 -1.1256  1.3339  1.7005
 1285SOL    HW215315   0.615   3.176   7.405 -1.0466  0.9210 -0.5896
 1286SOL     OW15316   3.830   2.204   8.591  0.3787  0.2741 -0.4796
 1286SOL    HW115317   3.831   2.252   8.507  2.4850 -0.2531 -0.7598
 1286SOL    HW215318   3.808   2.275   8.651  1.5833  0.3190 -0.0830
 1287SOL     OW15319   0.846   1.840   1.825 -0.5006  0.1988 -0.6199
 1287SOL    HW115320   0.864   1.854   1.732  1.3721 -3.1117 -0.7659
 1287SOL    HW215321   0.859   1.927   1.864  2.2745  0.0678 -1.2298
 1288SOL     OW15322   3.274   0.895   6.107  0.4606 -0.2759 -0.6165
 1288SOL    HW115323   3.361   0.866   6.134 -0.3105 -0.3170  1.8306
 1288SOL    HW215324   3.254   0.942   6.188 -1.7773 -1.2348 -0.6138
 1289SOL     OW15325   1.683   2.198   0.985 -0.4960  0.0572 -0.2492
 1289SOL    HW115326   1.757   2.235   0.937 -0.1646 -0.3319 -0.0318
 1289SOL    HW215327   1.639   2.167   0.905 -1.6182 -1.8185  1.0934
 1290SOL     OW15328   3.052   2.839   6.871 -0.0937  0.4767  0.1485
 1290SOL    HW115329   2.996   2.773   6.912 -1.7944  1.6946 -0.2614
 1290SOL    HW215330   3.017   2.924   6.896 -2.6758 -0.7536  0.6889
 1291SOL     OW15331   0.598   0.248   9.317 -0.2188  0.4212 -0.7556
 1291SOL    HW115332   0.674   0.208   9.274  0.3073  0.7712 -0.1447
 1291SOL    HW215333   0.577   0.184   9.384 -0.9414  0.3942 -1.0052
 1292SOL     OW15334   0.702   2.425   8.112 -0.2737  0.2216 -1.1956
 1292SOL    HW115335   0.682   2.405   8.020  2.0553 -1.5369 -1.3201
 1292SOL    HW215336   0.797   2.437   8.114 -0.3104  0.0694  1.5452
 1293SOL     OW15337   3.984   1.435  15.002 -0.1203  1.0043  0.0211
 1293SOL    HW115338   3.956   1.354  15.045 -0.5137  0.5248 -1.1268
 1293SOL    HW215339   3.908   1.492  15.015 -0.4988  0.6672 -0.6693
 1294SOL     OW15340   2.121   3.652  16.772 -0.3030  0.4657 -0.1542
 1294SOL    HW115341   2.042   3.671  16.721 -0.9806  0.8055  1.0189
 1294SOL    HW215342   2.175   3.725  16.742  0.1403  1.2980  2.6676
 1295SOL     OW15343   2.802   4.481   4.931 -0.6972 -0.6503 -0.5122
 1295SOL    HW115344   2.761   4.397   4.912 -1.9572 -0.0179 -0.5338
 1295SOL    HW215345   2.815   4.506   4.839  3.5584 -2.0623 -0.2858
 1296SOL     OW15346   0.946   1.172   4.178  0.6112  0.8067 -0.1218
 1296SOL    HW115347   0.921   1.232   4.108 -3.4851 -0.8101 -0.0517
 1296SOL    HW215348   1.038   1.192   4.191  0.1778  2.1139  1.0249
 1297SOL     OW15349   2.749   4.471   8.351  0.2502 -0.4709 -0.1280
 1297SOL    HW115350   2.819   4.422   8.307  1.2940  1.8312 -1.0398
 1297SOL    HW215351   2.699   4.404   8.398  0.2466  0.0711  0.6289
 1298SOL     OW15352   0.021   2.071   5.833  0.1473 -0.2146 -0.0495
 1298SOL    HW115353   0.000   2.152   5.878 -0.6191  0.4047 -1.5243
 1298SOL    HW215354   4.677   2.009   5.866  0.4671 -0.1921  0.6309
 1299SOL     OW15355   2.601   1.909  17.404 -0.0299  0.0134  0.0168
 1299SOL    HW115356   2.604   1.906  17.499  1.4885 -0.9019 -0.0690
 1299SOL    HW215357   2.545   1.833  17.387  0.0717  0.0232 -0.3606
 1300SOL     OW15358   4.046   0.739   7.173 -0.6236  0.6468 -0.1063
 1300SOL    HW115359   3.987   0.664   7.177 -0.3983  0.4875  0.3059
 1300SOL    HW215360   4.003   0.787   7.103  3.4528  0.5211 -2.7095
 1301SOL     OW15361   4.718   1.651  12.211 -0.1933  0.2401  0.7340
 1301SOL    HW115362   0.022   1.631  12.120 -0.4547  1.3584  0.4139
 1301SOL    HW215363   0.004   1.746  12.209  0.7865  0.1690  0.6918
 1302SOL     OW15364   2.168   1.993   5.995  0.4280  0.0157 -0.4095
 1302SOL    HW115365   2.158   1.979   5.901  2.0705 -2.2692 -0.2566
 1302SOL    HW215366   2.256   2.028   5.993  0.0553  0.9125 -1.1135
 1303SOL     OW15367   1.537   1.391   2.798  0.0929 -0.2122 -0.3294
 1303SOL    HW115368   1.535   1.461   2.732  0.2857 -1.8303 -2.0487
 1303SOL    HW215369   1.626   1.391   2.833  0.5215  2.2453 -1.4142
 1304SOL     OW15370   2.545   1.516   3.206 -0.5264 -0.3485  0.4862
 1304SOL    HW115371   2.485   1.543   3.276  0.4820  2.1315  0.3833
 1304SOL    HW215372   2.597   1.595   3.193 -2.1807  0.4680 -1.2161
 1305SOL     OW15373   3.487   3.100   3.703 -0.6960  0.3821  0.7109
 1305SOL    HW115374   3.513   3.009   3.692  0.5305  0.8303 -0.1299
 1305SOL    HW215375   3.529   3.120   3.787 -0.5681  1.7635  0.3171
 1306SOL     OW15376   3.796   0.542   9.009 -0.1453 -0.0163  0.2065
 1306SOL    HW115377   3.714   0.517   8.967 -0.1982  0.9562 -0.2646
 1306SOL    HW215378   3.834   0.460   9.041  1.6278 -0.1405 -2.1617
 1307SOL     OW15379   2.720   3.127   3.233 -0.2825 -0.4570  0.4625
 1307SOL    HW115380   2.676   3.162   3.310  1.1012 -0.4425  1.2382
 1307SOL    HW215381   2.776   3.056   3.262 -2.2691 -1.4455  1.8537
 1308SOL     OW15382   3.914   2.327   6.757 -0.0379 -0.1128 -0.3725
 1308SOL    HW115383   3.827   2.288   6.765  0.3304 -0.6997  0.7195
 1308SOL    HW215384   3.897   2.398   6.695 -0.8492  1.9939  2.2839
 1309SOL     OW15385   1.589   3.357   4.805 -0.2448 -0.3887 -0.2825
 1309SOL    HW115386   1.658   3.317   4.751 -0.6114 -1.0435 -0.2633
 1309SOL    HW215387   1.504   3.338   4.766 -1.7428  1.6074  2.0146
 1310SOL     OW15388   3.826   2.784   4.687 -0.1409  0.2812 -0.5941
 1310SOL    HW115389   3.868   2.858   4.732  0.8486 -0.9426  0.4843
 1310SOL    HW215390   3.839   2.810   4.595  2.6104  1.6096  0.1500
 1311SOL     OW15391   2.016   3.513   2.863  0.2038 -0.0820 -0.5235
 1311SOL    HW115392   1.930   3.553   2.872 -0.5848 -1.9034 -0.0574
 1311SOL    HW215393   2.077   3.585   2.844 -0.2378  0.6297  0.8188
 1312SOL     OW15394   2.003   1.420   2.293  0.3151  0.4161 -0.4206
 1312SOL    HW115395   2.071   1.397   2.356 -0.0089 -2.3331 -1.0925
 1312SOL    HW215396   2.034   1.501   2.252  0.0830 -0.5492 -2.5173
 1313SOL     OW15397   3.571   2.229  16.722 -0.0810  0.1958 -0.4672
 1313SOL    HW115398   3.620   2.152  16.695 -0.8241 -1.0745  1.7796
 1313SOL    HW215399   3.505   2.231  16.653 -0.9907  1.1114  0.4205
 1314SOL     OW15400   0.572   1.442  15.833  0.2795 -0.1756  0.6785
 1314SOL    HW115401   0.517   1.365  15.816  0.9326 -0.4975 -0.0112
 1314SOL    HW215402   0.646   1.411  15.885 -1.0093 -3.1267  0.7491
 1315SOL     OW15403   2.189   3.433  15.144  0.5077 -0.8158 -0.0159
 1315SOL    HW115404   2.198   3.525  15.122 -1.0800 -0.1851  1.9771
 1315SOL    HW215405   2.244   3.418  15.221 -2.9242 -0.3336  2.5244
 1316SOL     OW15406   0.734   4.250  16.335  0.6335  0.2810  0.3526
 1316SOL    HW115407   0.823   4.216  16.345 -0.4236 -2.4079  0.5380
 1316SOL    HW215408   0.712   4.274  16.425  0.7392  0.0700  0.4368
 1317SOL     OW15409   0.282   2.960   4.994 -0.2342 -0.9960 -0.0354
 1317SOL    HW115410   0.369   2.951   4.955  0.3493 -2.0713  1.4970
 1317SOL    HW215411   0.229   2.918   4.927  0.4182  1.3066 -2.0037
 1318SOL     OW15412   1.368   2.792   6.927 -0.4693 -0.6582 -0.3008
 1318SOL    HW115413   1.454   2.780   6.968 -0.1492 -1.5297 -1.2393
 1318SOL    HW215414   1.386   2.860   6.863  0.0775 -0.0876  0.4523
 1319SOL     OW15415   0.216   1.549   9.078  0.0777  0.3498 -0.4624
 1319SOL    HW115416   0.150   1.484   9.057  0.2512  0.5285 -1.5832
 1319SOL    HW215417   0.272   1.541   9.000  0.3188 -0.5310 -0.1931
 1320SOL     OW15418   0.672   3.184   4.672 -0.3327  0.0237 -0.0273
 1320SOL    HW115419   0.702   3.107   4.721 -1.7150 -0.1273  0.5784
 1320SOL    HW215420   0.580   3.192   4.697  0.4101  2.0730  1.9714
 1321SOL     OW15421   1.696   4.321   7.717 -0.0545 -0.7139  0.1575
 1321SOL    HW115422   1.749   4.400   7.716 -0.9916 -0.0935 -1.1645
 1321SOL    HW215423   1.673   4.310   7.809 -1.4850  3.9007  0.3193
 1322SOL     OW15424   1.539   1.764  11.847 -0.4444 -0.2708  0.3095
 1322SOL    HW115425   1.534   1.681  11.894  0.3931 -1.2545 -1.3744
 1322SOL    HW215426   1.634   1.777  11.848 -0.5307  0.3669  0.2953
 1323SOL     OW15427   4.721   4.709   4.524 -0.7121  0.3770  0.2425
 1323SOL    HW115428   4.632   4.704   4.488 -2.0259 -2.9398  3.9183
 1323SOL    HW215429   0.020   4.621   4.555  2.9528  0.1729 -2.7608
 1324SOL     OW15430   0.761   3.210  11.311  0.0413  0.1916  0.3549
 1324SOL    HW115431   0.791   3.127  11.275  0.8194 -0.3113  2.1893
 1324SOL    HW215432   0.665   3.204  11.304  0.2666  0.3850 -3.3233
 1325SOL     OW15433   2.881   1.162   0.739  0.0821 -0.7896  0.6387
 1325SOL    HW115434   2.913   1.194   0.823  3.2666 -0.7328 -0.5963
 1325SOL    HW215435   2.841   1.078   0.763 -1.1008 -0.6508 -0.8330
 1326SOL     OW15436   1.091   1.350   5.390  0.3002  0.2786 -0.0180
 1326SOL    HW115437   1.172   1.400   5.382  1.2903 -1.2508  0.6065
 1326SOL    HW215438   1.030   1.419   5.365 -0.9384 -0.5563  0.6977
 1327SOL     OW15439   1.725   0.767  12.507  0.1132  0.4115  0.2587
 1327SOL    HW115440   1.651   0.796  12.453  0.4250  0.5283 -0.1087
 1327SOL    HW215441   1.775   0.848  12.498  2.2393 -0.9365 -0.1067
 1328SOL     OW15442   4.163   4.689   7.187  0.2082  0.3512 -0.1394
 1328SOL    HW115443   4.140   0.054   7.221  1.8681  0.4832  0.6365
 1328SOL    HW215444   4.205   4.709   7.103 -2.3801 -1.1923 -1.8257
 1329SOL     OW15445   3.737   2.796   5.510 -0.5874  0.0066  0.8758
 1329SOL    HW115446   3.816   2.743   5.506 -1.0632 -0.6967  0.7663
 1329SOL    HW215447   3.692   2.778   5.428 -1.2257  1.3902  0.9333
 1330SOL     OW15448   1.618   0.674   3.748 -0.1427  0.4702  0.4188
 1330SOL    HW115449   1.649   0.693   3.836 -2.7764  2.0790  0.9995
 1330SOL    HW215450   1.698   0.676   3.695 -0.0987  2.6229  0.5702
 1331SOL     OW15451   2.065   2.331   3.052  0.0510 -0.4432  0.1827
 1331SOL    HW115452   2.150   2.340   3.010 -0.4024  1.1831 -0.4046
 1331SOL    HW215453   2.022   2.410   3.019  0.2249 -0.5613 -0.3268
 1332SOL     OW15454   0.750   4.529   2.388  0.2639  0.3602  0.2824
 1332SOL    HW115455   0.729   4.598   2.326  0.8211 -0.1380 -0.4682
 1332SOL    HW215456   0.811   4.568   2.450 -0.7528  2.8053 -0.2856
 1333SOL     OW15457   1.993   2.985   1.954 -0.3379  0.0605  0.1716
 1333SOL    HW115458   1.982   2.994   2.049  0.3311  0.2937  0.2245
 1333SOL    HW215459   2.006   3.074   1.921  1.5615 -0.2544  0.0702
 1334SOL     OW15460   1.395   4.547   3.677  0.5864  0.5928  0.2124
 1334SOL    HW115461   1.402   4.627   3.624 -0.6798  0.3232 -0.3636
 1334SOL    HW215462   1.303   4.555   3.703  0.3186 -1.1369 -0.1979
 1335SOL     OW15463   0.353   3.409  10.764 -0.4403 -0.0030  0.3010
 1335SOL    HW115464   0.384   3.492  10.798  0.9321 -0.6254  0.5280
 1335SOL    HW215465   0.267   3.404  10.806 -0.8500 -1.3022 -0.6746
 1336SOL     OW15466   1.171   2.213   4.996  0.0428  0.8320  0.1106
 1336SOL    HW115467   1.207   2.127   4.974 -0.6903  0.9353 -1.4190
 1336SOL    HW215468   1.223   2.269   4.938  1.9261 -2.5359 -1.4390
 1337SOL     OW15469   4.168   3.808   4.014 -1.3244 -0.5797  0.2675
 1337SOL    HW115470   4.203   3.830   4.100  0.6206  1.5750 -1.0729
 1337SOL    HW215471   4.202   3.721   3.994 -1.2034 -0.7446  1.1934
 1338SOL     OW15472   0.155   2.271   6.360 -0.2646 -0.4900 -0.5726
 1338SOL    HW115473   0.141   2.334   6.289  3.4696  0.4077 -0.4729
 1338SOL    HW215474   0.080   2.291   6.417 -0.1059  2.3598 -1.3961
 1339SOL     OW15475   1.331   1.206   2.829  0.0518 -0.6338 -0.0541
 1339SOL    HW115476   1.339   1.214   2.924  3.5685  2.3129 -0.6145
 1339SOL    HW215477   1.419   1.229   2.799 -0.7048  2.3441  0.1050
 1340SOL     OW15478   2.967   1.637  13.145 -0.2282 -0.6162 -0.6054
 1340SOL    HW115479   3.042   1.585  13.114 -1.5155 -2.4498 -0.6416
 1340SOL    HW215480   2.968   1.612  13.238  1.1546 -1.5066 -0.8517
 1341SOL     OW15481   3.216   1.048   5.129  0.2084 -0.6606 -0.5024
 1341SOL    HW115482   3.188   1.138   5.149  1.8579 -0.0621 -0.8779
 1341SOL    HW215483   3.220   1.040   5.034  1.3543 -1.6632 -0.3651
 1342SOL     OW15484   1.712   2.228  10.612 -0.3626 -0.8632 -0.0921
 1342SOL    HW115485   1.749   2.316  10.602 -0.5815 -0.8121 -0.4470
 1342SOL    HW215486   1.631   2.237  10.562  0.7565  1.3864 -1.4886
 1343SOL     OW15487   1.565   4.017   2.378  0.0559 -0.3915 -0.3432
 1343SOL    HW115488   1.643   4.039   2.429 -0.0298 -0.5707 -0.1336
 1343SOL    HW215489   1.509   3.977   2.444 -2.3103  2.2902 -0.7191
 1344SOL     OW15490   2.967   3.568   5.951 -0.6039  0.4230  0.4094
 1344SOL    HW115491   3.060   3.549   5.962 -1.5384 -2.8019  2.6504
 1344SOL    HW215492   2.965   3.661   5.928  1.7146  0.4066  0.1947
 1345SOL     OW15493   2.165   0.048  11.845 -0.0643 -0.1717  0.1225
 1345SOL    HW115494   2.162   0.027  11.939  3.1444 -0.0112  0.2688
 1345SOL    HW215495   2.082   0.095  11.839  0.1177 -0.0443 -1.3614
 1346SOL     OW15496   3.258   2.497   7.368  0.2846  0.3897 -0.0991
 1346SOL    HW115497   3.235   2.498   7.461 -0.0936 -0.2697 -0.1882
 1346SOL    HW215498   3.240   2.590   7.351 -1.9672 -0.1449 -0.6554
 1347SOL     OW15499   1.997   0.099   9.113  0.0863  0.2239  0.1988
 1347SOL    HW115500   1.986   0.010   9.147 -0.4127  0.4079  0.5119
 1347SOL    HW215501   1.965   0.090   9.023  0.3012  1.1532  0.0274
 1348SOL     OW15502   2.601   2.935   6.935  0.5114  0.1836 -0.2024
 1348SOL    HW115503   2.566   2.882   7.006 -0.8736  0.3109 -0.7998
 1348SOL    HW215504   2.661   2.994   6.981  1.2876  0.2828 -1.3121
 1349SOL     OW15505   4.585   4.441  13.103 -0.6694  0.3205 -0.0349
 1349SOL    HW115506   4.654   4.433  13.037  1.7842 -0.1415  2.5973
 1349SOL    HW215507   4.517   4.396  13.054 -1.6291 -0.0264  1.6189
 1350SOL     OW15508   2.754   1.975   2.561  0.0634  0.4351  0.4833
 1350SOL    HW115509   2.821   1.970   2.629  0.2512 -2.1230  0.0970
 1350SOL    HW215510   2.789   2.046   2.507  1.3270  0.7968  1.7654
 1351SOL     OW15511   4.562   1.917  17.609  0.2244 -0.4630  0.2599
 1351SOL    HW115512   4.550   1.855  17.537 -0.9955  1.2198 -1.0033
 1351SOL    HW215513   4.622   1.870  17.666  0.7948  0.6268  0.5707
 1352SOL     OW15514   1.971   4.264  10.728 -0.0866  0.2787 -0.1138
 1352SOL    HW115515   1.914   4.237  10.655  0.2820  0.9123 -0.6361
 1352SOL    HW215516   2.043   4.203  10.714 -0.7917 -1.0165  1.9343
 1353SOL     OW15517   4.129   0.521   5.939 -0.3979 -0.3347  0.4796
 1353SOL    HW115518   4.182   0.444   5.918 -0.2400 -0.1491  0.1940
 1353SOL    HW215519   4.105   0.550   5.851  1.7535 -0.0531 -0.0313
 1354SOL     OW15520   1.999   1.611   2.848 -0.2981 -0.1888  0.2466
 1354SOL    HW115521   2.067   1.584   2.910 -0.5022 -1.2630  0.0006
 1354SOL    HW215522   2.051   1.678   2.804  2.6646 -2.1907  0.7115
 1355SOL     OW15523   2.788   4.501   3.292  0.0146  0.6425 -1.0425
 1355SOL    HW115524   2.834   4.423   3.322 -0.7757  0.6729  0.2596
 1355SOL    HW215525   2.707   4.456   3.267  0.0470 -1.6332  3.0263
 1356SOL     OW15526   0.957   4.612   1.516  0.2597  0.5176 -0.0720
 1356SOL    HW115527   0.942   4.532   1.565  0.8052  0.0960 -0.6002
 1356SOL    HW215528   0.938   4.681   1.580 -1.6887  0.2849 -0.3907
 1357SOL     OW15529   3.138   3.174  12.340 -0.5459 -0.0480  0.1894
 1357SOL    HW115530   3.158   3.230  12.415  0.0564  1.5679 -1.1636
 1357SOL    HW215531   3.056   3.215  12.313  0.0391  0.5654 -0.6515
 1358SOL     OW15532   2.266   4.523   6.937 -0.3742 -0.0704 -0.4812
 1358SOL    HW115533   2.361   4.531   6.951 -0.7393 -0.5024  2.1790
 1358SOL    HW215534   2.236   4.453   6.993  0.8663  0.8779  1.3507
 1359SOL     OW15535   0.254   2.915  15.386  0.7775  0.1383  0.0045
 1359SOL    HW115536   0.220   2.993  15.428 -0.1138 -0.2393 -0.0271
 1359SOL    HW215537   0.290   2.878  15.467 -1.3462  0.9003  1.2898
 1360SOL     OW15538   3.640   0.289  17.354 -0.2174 -0.6126  0.2293
 1360SOL    HW115539   3.613   0.267  17.443  1.6284  1.2471  1.2464
 1360SOL    HW215540   3.717   0.345  17.366  0.7583 -1.7097 -0.8915
 1361SOL     OW15541   3.932   0.341   5.744 -0.0393  0.0538 -0.9089
 1361SOL    HW115542   3.949   0.287   5.821  2.0011  0.9552 -0.7311
 1361SOL    HW215543   3.850   0.377   5.778  0.0516 -0.4936 -0.1058
 1362SOL     OW15544   3.712   2.695  13.743  1.0026 -0.3770 -0.1648
 1362SOL    HW115545   3.779   2.762  13.728  0.3700 -0.3687 -2.8873
 1362SOL    HW215546   3.676   2.679  13.656  0.7561  0.2684 -0.1800
 1363SOL     OW15547   0.860   1.320   0.750  0.7297 -0.3538 -0.7226
 1363SOL    HW115548   0.894   1.334   0.662 -2.8322 -2.0120 -2.3627
 1363SOL    HW215549   0.934   1.272   0.787  0.3587 -1.7028 -1.7403
 1364SOL     OW15550   0.963   3.068   1.693 -0.6662  0.3551 -0.3511
 1364SOL    HW115551   0.991   3.091   1.782  0.0395  1.1494 -0.7760
 1364SOL    HW215552   1.050   3.056   1.654 -0.7472  0.1808 -0.4770
 1365SOL     OW15553   3.856   3.807   3.294  0.2812  0.6562 -0.6670
 1365SOL    HW115554   3.834   3.886   3.343 -1.5580 -0.5354  0.3797
 1365SOL    HW215555   3.935   3.779   3.340 -0.0426 -2.3559 -1.9588
 1366SOL     OW15556   4.718   2.508  16.983 -0.1696 -0.0231  0.1777
 1366SOL    HW115557   4.656   2.521  17.055  0.1969  0.9428  0.3123
 1366SOL    HW215558   4.672   2.457  16.916  1.7931 -0.6975 -0.6428
 1367SOL     OW15559   2.933   1.478  15.037 -0.2394 -0.0764 -0.1214
 1367SOL    HW115560   3.013   1.530  15.040  0.7946 -1.5343 -1.7073
 1367SOL    HW215561   2.859   1.525  14.999 -0.3469  0.6371  0.9895
 1368SOL     OW15562   0.178   3.176   3.777  0.4232 -0.6114  0.2701
 1368SOL    HW115563   0.202   3.084   3.776  3.9339  0.3249 -2.4816
 1368SOL    HW215564   0.200   3.211   3.691  1.4991 -1.6272  0.1405
 1369SOL     OW15565   3.868   2.035   6.505 -0.0685 -0.2888 -0.1907
 1369SOL    HW115566   3.934   2.052   6.572 -0.5997  0.4706  0.1408
 1369SOL    HW215567   3.821   1.967   6.553  1.2240 -1.1884 -0.2164
 1370SOL     OW15568   1.054   2.101   6.251  0.0266  0.1401 -0.3832
 1370SOL    HW115569   1.074   2.145   6.333 -1.2210 -0.3382  0.1827
 1370SOL    HW215570   0.968   2.135   6.228  0.5507  1.8326  0.1281
 1371SOL     OW15571   1.989   0.285  10.593  0.4490  0.5510  0.3331
 1371SOL    HW115572   1.934   0.226  10.644 -0.5046  0.6735 -0.5384
 1371SOL    HW215573   1.981   0.373  10.631  2.0219  1.1918 -0.8351
 1372SOL     OW15574   2.441   1.479   5.721 -0.7501 -0.0190 -0.0578
 1372SOL    HW115575   2.535   1.465   5.737 -1.5503 -2.5687  2.5041
 1372SOL    HW215576   2.392   1.407   5.761  0.2969 -0.6203  0.1350
 1373SOL     OW15577   3.775   1.791   0.062  0.4730 -0.0172 -0.3900
 1373SOL    HW115578   3.827   1.732   0.008  1.3139  0.9319 -0.6203
 1373SOL    HW215579   3.833   1.791   0.138 -3.0504  0.4031  2.2855
 1374SOL     OW15580   2.395   1.286  13.891  0.4147 -0.4963  0.0593
 1374SOL    HW115581   2.439   1.312  13.810 -0.6801  0.2787 -0.2905
 1374SOL    HW215582   2.307   1.315  13.868 -0.3849 -1.1632  2.2172
 1375SOL     OW15583   4.541   2.885  11.633 -0.8885 -0.2580 -0.4221
 1375SOL    HW115584   4.511   2.929  11.553  1.7522 -1.1216 -1.8999
 1375SOL    HW215585   4.587   2.811  11.593 -0.7222 -0.7945  0.7796
 1376SOL     OW15586   2.803   3.064   9.727  0.3988 -0.3609 -0.3660
 1376SOL    HW115587   2.788   3.145   9.777  1.0900 -1.3405  1.4357
 1376SOL    HW215588   2.899   3.057   9.730  0.5881  1.4970 -2.3017
 1377SOL     OW15589   3.504   0.070   7.730  0.0675 -0.2696  0.3714
 1377SOL    HW115590   3.476   0.144   7.784  2.3379  0.9165 -0.0536
 1377SOL    HW215591   3.525   0.004   7.795 -0.9682 -0.9465  0.0196
 1378SOL     OW15592   4.659   0.180   6.994  0.3723  0.3258 -0.2351
 1378SOL    HW115593   4.649   0.110   7.058  1.4493  0.6376  0.2533
 1378SOL    HW215594   4.628   0.257   7.042  2.0109  0.2267  0.9613
 1379SOL     OW15595   0.911   3.247   6.666 -0.0421  0.8904 -0.7405
 1379SOL    HW115596   0.820   3.276   6.664 -0.5104 -0.5296  0.5130
 1379SOL    HW215597   0.955   3.318   6.619 -0.2123  3.1419  2.4676
 1380SOL     OW15598   1.771   1.093   6.840 -0.0729 -0.3703 -0.2769
 1380SOL    HW115599   1.742   1.182   6.863 -1.0670 -0.4275 -1.3182
 1380SOL    HW215600   1.731   1.043   6.911  0.9208 -1.2085 -0.3158
 1381SOL     OW15601   3.780   3.258   5.159  0.6447  0.2659 -0.4056
 1381SOL    HW115602   3.760   3.329   5.097  0.2455  0.4554 -0.0587
 1381SOL    HW215603   3.762   3.177   5.112 -0.6623  1.3484 -1.7879
 1382SOL     OW15604   3.300   0.717  17.020 -0.1087  0.0133 -0.3428
 1382SOL    HW115605   3.369   0.770  16.982 -0.3125  1.0856  0.7785
 1382SOL    HW215606   3.223   0.745  16.971 -1.7277 -0.9580  1.5984
 1383SOL     OW15607   4.707   1.967   2.810 -0.3547 -0.1967 -0.8537
 1383SOL    HW115608   0.057   1.990   2.751  0.5613 -2.2932 -0.5719
 1383SOL    HW215609   4.659   2.050   2.811 -0.8211 -0.4617 -2.0634
 1384SOL     OW15610   0.577   4.118   3.534  0.1506  0.3323 -0.3152
 1384SOL    HW115611   0.580   4.208   3.500  3.6730  0.6631  0.8627
 1384SOL    HW215612   0.513   4.128   3.605 -0.6179  0.2884 -0.9948
 1385SOL     OW15613   1.196   0.743   5.137 -0.4935 -0.0300  0.4680
 1385SOL    HW115614   1.187   0.697   5.053  0.5716 -1.0883  0.9416
 1385SOL    HW215615   1.126   0.707   5.192 -1.5763 -1.3609 -1.7823
 1386SOL     OW15616   1.940   0.691   3.823 -0.6687  0.7314 -0.1446
 1386SOL    HW115617   1.878   0.671   3.894  0.3743 -1.6415  0.0941
 1386SOL    HW215618   1.974   0.774   3.856  0.2117  0.1970  0.2904
 1387SOL     OW15619   4.240   1.664   9.653  0.6732  0.3272  0.0854
 1387SOL    HW115620   4.168   1.711   9.695 -0.0020 -0.7288  0.1085
 1387SOL    HW215621   4.208   1.665   9.563 -0.5723 -0.6094  0.5171
 1388SOL     OW15622   1.583   4.375   3.723  0.6962 -0.4721 -0.2222
 1388SOL    HW115623   1.649   4.441   3.745 -1.4207  2.2182 -1.9249
 1388SOL    HW215624   1.507   4.426   3.694 -0.4143 -1.8761  0.2065
 1389SOL     OW15625   2.102   3.351   7.776 -0.0893 -0.0870 -0.0509
 1389SOL    HW115626   2.158   3.280   7.744 -0.3236 -0.6255  0.7371
 1389SOL    HW215627   2.102   3.335   7.870 -1.8404  2.4166  0.3867
 1390SOL     OW15628   1.929   2.887   0.969  0.8130  0.4697  0.2956
 1390SOL    HW115629   1.887   2.817   1.019  1.5905  0.2501  0.6405
 1390SOL    HW215630   1.857   2.949   0.978  1.0355  1.1976 -3.1444
 1391SOL     OW15631   0.244   1.724   7.786 -0.8411  0.4701 -0.1168
 1391SOL    HW115632   0.299   1.749   7.861 -1.2472  0.8201  0.0623
 1391SOL    HW215633   0.168   1.687   7.830 -0.6258  0.4556  0.2454
 1392SOL     OW15634   4.137   0.897  10.577 -0.0531  0.0830  0.2301
 1392SOL    HW115635   4.129   0.868  10.668 -0.7499  0.7662  0.3881
 1392SOL    HW215636   4.211   0.849  10.542  0.2851  0.4702  0.4186
 1393SOL     OW15637   0.063   3.545   4.179  0.3018  0.1568  0.3794
 1393SOL    HW115638   0.061   3.532   4.084 -2.2745 -0.2557  0.5036
 1393SOL    HW215639   0.144   3.496   4.193  1.1101  1.8242  1.6478
 1394SOL     OW15640   0.204   0.101   4.355 -0.3633 -0.3086  0.1646
 1394SOL    HW115641   0.152   0.038   4.404  0.9951 -1.9580 -0.4677
 1394SOL    HW215642   0.147   0.140   4.288  2.9178  1.5777 -1.5260
 1395SOL     OW15643   1.846   3.000   3.041  0.1797  0.8858  0.0619
 1395SOL    HW115644   1.804   2.914   3.031 -0.8800  1.5029 -0.7223
 1395SOL    HW215645   1.924   2.986   2.987 -0.5389  0.1674 -0.7833
 1396SOL     OW15646   4.342   0.186  12.076  0.2189 -0.1902  0.6367
 1396SOL    HW115647   4.380   0.274  12.081  0.0408 -0.1162  0.6944
 1396SOL    HW215648   4.292   0.203  11.996 -0.2724 -1.9146  0.5847
 1397SOL     OW15649   4.034   3.516   8.418 -0.0176  0.3029  0.0371
 1397SOL    HW115650   4.007   3.482   8.333  0.0340 -0.0610  0.1671
 1397SOL    HW215651   4.012   3.448   8.482  0.9750  0.0065  0.0662
 1398SOL     OW15652   2.999   2.171   8.219 -0.9128 -0.2269  0.1684
 1398SOL    HW115653   3.035   2.257   8.239 -1.0068 -0.4697  1.3699
 1398SOL    HW215654   2.908   2.184   8.244 -0.6722 -0.8306  1.3734
 1399SOL     OW15655   3.270   1.354   8.604 -0.1000  0.4539  0.1465
 1399SOL    HW115656   3.279   1.265   8.568 -1.3116 -0.2019  1.4760
 1399SOL    HW215657   3.342   1.354   8.667 -0.0156  3.1189  0.0462
 1400SOL     OW15658   4.494   2.260   1.833 -0.0101  0.3013  0.6505
 1400SOL    HW115659   4.401   2.246   1.814  1.0351 -1.2394 -3.2189
 1400SOL    HW215660   4.534   2.198   1.772 -2.1624  0.2050 -0.6360
 1401SOL     OW15661   3.004   1.304  12.888  0.3313 -0.2705 -0.2477
 1401SOL    HW115662   3.053   1.294  12.807  2.8863 -1.0853  1.3793
 1401SOL    HW215663   3.072   1.347  12.940  0.9626  0.1495 -1.4491
 1402SOL     OW15664   0.848   2.667   9.117  0.3867  0.0721  0.2029
 1402SOL    HW115665   0.757   2.693   9.102  0.4572 -0.5501 -1.3326
 1402SOL    HW215666   0.830   2.574   9.125  0.9968 -0.2585 -2.1117
 1403SOL     OW15667   2.356   4.694  10.584 -0.1570  0.1481  0.2550
 1403SOL    HW115668   2.266   4.702  10.614  0.1668 -1.2940  1.6045
 1403SOL    HW215669   2.388   0.055  10.624  1.1089  1.0282 -2.5636
 1404SOL     OW15670   1.905   1.319   9.279  0.4365 -0.3226  0.2563
 1404SOL    HW115671   1.897   1.379   9.205 -1.9135 -0.8099  0.1114
 1404SOL    HW215672   1.863   1.240   9.245  2.2565 -0.7308 -1.0027
 1405SOL     OW15673   2.722   3.988   4.863 -0.1961 -0.2125  0.0051
 1405SOL    HW115674   2.756   4.004   4.775  1.0565 -1.4077  0.2668
 1405SOL    HW215675   2.808   3.970   4.901  0.1603 -1.4343 -1.3683
 1406SOL     OW15676   2.212   3.561  17.047 -0.1405 -0.1234  0.4516
 1406SOL    HW115677   2.159   3.604  16.980  0.5844 -2.1069 -1.4375
 1406SOL    HW215678   2.266   3.630  17.085 -0.5396 -0.5612  1.7951
 1407SOL     OW15679   0.183   2.779  14.998  0.6065 -0.3019 -0.0532
 1407SOL    HW115680   0.164   2.742  15.084 -3.5779  0.5320 -0.6095
 1407SOL    HW215681   0.260   2.831  15.020  0.5921 -0.1849 -0.2760
 1408SOL     OW15682   2.117   1.079   8.183  0.0112 -0.0154  0.0598
 1408SOL    HW115683   2.166   1.141   8.236  0.1084 -1.0663  1.1983
 1408SOL    HW215684   2.179   1.005   8.180 -2.7012 -2.2430 -0.9858
 1409SOL     OW15685   0.444   4.576   3.942  0.3168  0.4129 -0.6578
 1409SOL    HW115686   0.507   4.561   3.872 -0.9899 -0.7405 -1.5895
 1409SOL    HW215687   0.397   4.650   3.903  0.7766  0.8858 -0.3128
 1410SOL     OW15688   4.312   0.138   4.218 -0.4784  0.1093 -0.5527
 1410SOL    HW115689   4.311   0.231   4.241 -0.0678  0.9662 -3.9442
 1410SOL    HW215690   4.258   0.132   4.139  2.1929 -0.0957 -2.3484
 1411SOL     OW15691   3.046   1.495   8.156  0.5340  0.4331 -0.0848
 1411SOL    HW115692   3.016   1.574   8.201  1.0131  1.1718 -1.0723
 1411SOL    HW215693   3.124   1.462   8.201 -0.0582 -0.5717  0.2287
 1412SOL     OW15694   3.040   0.514  11.778 -0.3970 -0.4494 -0.5823
 1412SOL    HW115695   2.952   0.480  11.794  0.6086 -1.1973  3.3370
 1412SOL    HW215696   3.057   0.491  11.687  1.1078 -0.8131 -0.2106
 1413SOL     OW15697   4.703   0.885   5.845  0.3446 -0.1552  0.5759
 1413SOL    HW115698   0.077   0.884   5.830  0.6804 -2.9855  2.8491
 1413SOL    HW215699   4.699   0.867   5.939  1.4844 -0.0620  0.6410
 1414SOL     OW15700   4.625   1.434   2.941 -0.3941 -0.2867 -0.2349
 1414SOL    HW115701   4.547   1.474   2.905  0.7103  2.2354  0.1798
 1414SOL    HW215702   4.699   1.482   2.904 -1.7192 -0.9632 -3.7336
 1415SOL     OW15703   3.682   3.523   2.733  0.1989 -0.1350 -0.6272
 1415SOL    HW115704   3.610   3.477   2.690  0.6767 -1.3771 -0.1060
 1415SOL    HW215705   3.702   3.465   2.806 -2.8109  0.2921  0.5384
 1416SOL     OW15706   1.614   2.630   5.817 -0.0627 -0.5280 -0.3087
 1416SOL    HW115707   1.699   2.670   5.838  0.2196  0.0095 -2.4178
 1416SOL    HW215708   1.644   2.557   5.764  1.0024 -0.2017 -0.1631
 1417SOL     OW15709   2.348   1.953  15.013  0.3275  0.1977  0.0410
 1417SOL    HW115710   2.353   2.039  14.971  1.7299 -1.3112 -2.8856
 1417SOL    HW215711   2.424   1.937  15.069 -0.5565 -1.9054  0.6428
 1418SOL     OW15712   2.626   3.588   2.727  0.4067 -0.3162  0.0078
 1418SOL    HW115713   2.599   3.530   2.798 -0.3269 -0.1572 -0.1480
 1418SOL    HW215714   2.703   3.540   2.696 -0.3947 -0.7742 -1.2501
 1419SOL     OW15715   1.922   0.220   8.250 -0.0571  0.4175 -0.6052
 1419SOL    HW115716   2.011   0.219   8.215 -0.2203 -0.0873 -1.0024
 1419SOL    HW215717   1.952   0.233   8.340 -0.6501  1.0036 -0.4905
 1420SOL     OW15718   1.130   3.507   3.644 -0.3075  0.0822 -0.5368
 1420SOL    HW115719   1.195   3.537   3.580  0.2824  1.1538  0.5681
 1420SOL    HW215720   1.071   3.582   3.644 -1.7527 -1.0633 -1.7320
 1421SOL     OW15721   1.412   0.469  17.410  0.0899 -0.1144 -0.2022
 1421SOL    HW115722   1.319   0.477  17.387  0.4801 -0.5081 -1.9408
 1421SOL    HW215723   1.447   0.426  17.332  0.1018 -0.4856  0.0094
 1422SOL     OW15724   2.266   3.712   2.798  0.3992 -0.4353  0.4073
 1422SOL    HW115725   2.335   3.685   2.860 -0.8313 -4.4045  0.0483
 1422SOL    HW215726   2.310   3.765   2.732  0.0865  0.3371  0.8223
 1423SOL     OW15727   2.716   3.140  11.052 -0.1669 -0.0942  0.2750
 1423SOL    HW115728   2.718   3.095  10.967 -2.4228 -1.0679  0.7370
 1423SOL    HW215729   2.636   3.191  11.043  1.0051  1.6134 -0.5894
 1424SOL     OW15730   3.343   3.770   3.858 -0.6942 -0.1834  0.0180
 1424SOL    HW115731   3.349   3.675   3.856  0.6899 -0.1244  1.1388
 1424SOL    HW215732   3.248   3.777   3.854 -0.7771  0.3484  2.8343
 1425SOL     OW15733   2.042   2.693   6.728  0.2551 -0.4489  0.6789
 1425SOL    HW115734   2.110   2.639   6.689  0.3357  1.7453 -2.2252
 1425SOL    HW215735   1.988   2.722   6.654  2.4945 -0.3954 -0.9032
 1426SOL     OW15736   3.780   1.396  13.801  0.1415 -0.2241  0.4028
 1426SOL    HW115737   3.691   1.364  13.811 -0.5019  0.6034 -2.8535
 1426SOL    HW215738   3.824   1.311  13.809  2.1535  0.6121 -1.7232
 1427SOL     OW15739   0.465   1.374  13.051  0.0590 -0.0001 -0.1448
 1427SOL    HW115740   0.450   1.286  13.016 -0.0968  0.4226 -1.1539
 1427SOL    HW215741   0.557   1.384  13.028 -0.8433  1.5187 -3.1289
 1428SOL     OW15742   2.485   2.243   5.342 -0.1995  0.1986 -0.6011
 1428SOL    HW115743   2.421   2.313   5.354 -1.2669 -0.9648  0.5172
 1428SOL    HW215744   2.468   2.223   5.250  0.7705  0.2548 -0.8020
 1429SOL     OW15745   2.159   1.733   4.661 -0.5995  0.2239  0.2801
 1429SOL    HW115746   2.084   1.674   4.667 -0.9540  0.3801 -2.4744
 1429SOL    HW215747   2.120   1.811   4.621 -1.8430 -0.5916 -0.0746
 1430SOL     OW15748   0.373   0.885  14.053  0.2956 -0.3014 -0.9766
 1430SOL    HW115749   0.326   0.960  14.090 -0.5846 -0.2624 -2.2113
 1430SOL    HW215750   0.433   0.875  14.128 -1.0881 -1.5283 -0.0485
 1431SOL     OW15751   4.267   2.080  11.493  0.2255  0.0821 -0.0692
 1431SOL    HW115752   4.196   2.037  11.541  0.5526 -0.2271  0.1378
 1431SOL    HW215753   4.345   2.049  11.540  1.5973  1.6475 -1.3155
 1432SOL     OW15754   4.285   2.464   2.480 -0.4703 -0.3078 -0.0980
 1432SOL    HW115755   4.239   2.482   2.398 -0.0837 -0.6413 -0.3949
 1432SOL    HW215756   4.222   2.409   2.526  1.0283  0.8022  3.2355
 1433SOL     OW15757   1.388   2.342   9.132  0.2844  0.2974 -0.0836
 1433SOL    HW115758   1.473   2.386   9.138  0.1830  0.4977 -0.1294
 1433SOL    HW215759   1.361   2.310   9.218 -1.3662 -1.7914 -1.3740
 1434SOL     OW15760   4.020   0.483   5.266 -0.0264 -0.5120  0.0221
 1434SOL    HW115761   3.962   0.559   5.267  1.3779  0.6176 -3.1567
 1434SOL    HW215762   4.108   0.522   5.257 -1.0795  1.3344 -2.2067
 1435SOL     OW15763   1.493   2.977   1.551 -0.1237 -0.3920 -0.7124
 1435SOL    HW115764   1.504   2.913   1.481 -2.0888 -0.7729 -0.6701
 1435SOL    HW215765   1.412   2.960   1.597 -0.6946 -0.8442 -1.8808
 1436SOL     OW15766   3.955   4.604   5.918  0.0784  0.2727  0.0723
 1436SOL    HW115767   3.921   4.690   5.893 -1.5378 -0.1521  0.7511
 1436SOL    HW215768   4.050   4.609   5.917  0.0587  0.3486 -1.1655
 1437SOL     OW15769   2.021   0.347  11.957 -0.5100  0.1883  0.1252
 1437SOL    HW115770   1.937   0.390  11.968 -0.6172  0.1204 -0.4146
 1437SOL    HW215771   2.008   0.301  11.874 -0.7965  0.0852  0.2288
 1438SOL     OW15772   0.420   0.258   5.801  0.3227 -0.1274 -0.7331
 1438SOL    HW115773   0.497   0.316   5.799  1.7588 -2.0214 -0.8100
 1438SOL    HW215774   0.449   0.189   5.860  1.4591  0.1965 -0.9033
 1439SOL     OW15775   4.205   3.618   4.606  0.3318  0.1235  0.1417
 1439SOL    HW115776   4.127   3.616   4.551  1.0442 -1.0052 -0.8185
 1439SOL    HW215777   4.244   3.539   4.569 -0.5632 -2.0699  3.8027
 1440SOL     OW15778   4.615   1.043   6.242 -0.7640 -0.1674 -0.1807
 1440SOL    HW115779   4.616   1.069   6.334 -0.2692  0.9114 -0.4939
 1440SOL    HW215780   4.595   1.123   6.193  0.6928  1.0491  1.2068
 1441SOL     OW15781   4.054   1.054   7.949 -0.4883  0.7708 -0.1084
 1441SOL    HW115782   3.964   1.076   7.924 -1.0598 -0.6123  0.7880
 1441SOL    HW215783   4.051   0.964   7.916 -0.2662  0.2938  1.1966
 1442SOL     OW15784   3.790   2.214   1.545  0.2572 -0.4919  0.1838
 1442SOL    HW115785   3.786   2.119   1.541  0.2127 -0.5852  2.3828
 1442SOL    HW215786   3.824   2.244   1.461 -2.0361 -1.4762 -1.0963
 1443SOL     OW15787   2.069   0.606   8.202  0.3717 -0.0779 -0.1181
 1443SOL    HW115788   1.977   0.598   8.226  1.1309 -0.3389  2.6682
 1443SOL    HW215789   2.106   0.588   8.288 -1.9222  0.4013  0.9626
 1444SOL     OW15790   2.942   2.457   5.940  0.0125 -0.3447  0.0751
 1444SOL    HW115791   2.996   2.500   5.873  1.4763  2.0425  2.7982
 1444SOL    HW215792   3.017   2.425   5.991 -1.2903 -2.8300  0.4477
 1445SOL     OW15793   1.358   1.111   8.670  0.2646 -0.2783 -0.0869
 1445SOL    HW115794   1.341   1.024   8.707  2.1106  0.3770  2.3243
 1445SOL    HW215795   1.450   1.131   8.689  0.1109  0.3975 -0.0419
 1446SOL     OW15796   2.961   3.792   8.040  0.0317 -0.4663 -0.6019
 1446SOL    HW115797   2.929   3.741   7.965  0.2475  1.3823 -1.9630
 1446SOL    HW215798   2.887   3.842   8.075 -0.5781 -2.5364  1.0154
 1447SOL     OW15799   1.734   4.686  14.784 -0.2784 -0.1234  0.2929
 1447SOL    HW115800   1.820   4.652  14.810 -0.4791 -0.9303 -0.0990
 1447SOL    HW215801   1.752   0.058  14.792 -2.2937  0.2894  0.0967
 1448SOL     OW15802   0.999   4.372   5.574 -0.6832  0.0203  0.5337
 1448SOL    HW115803   1.012   4.329   5.490 -0.7800 -1.0243  1.0535
 1448SOL    HW215804   1.065   4.441   5.573 -1.8197  1.0914 -0.5654
 1449SOL     OW15805   4.287   4.626   6.541 -0.2531  0.1682 -0.3840
 1449SOL    HW115806   4.224   4.652   6.609  1.2262 -0.0680  1.0898
 1449SOL    HW215807   4.244   4.655   6.461  0.5202  0.4877 -0.6847
 1450SOL     OW15808   1.167   2.444  13.772 -0.3462 -0.2648 -0.2254
 1450SOL    HW115809   1.137   2.354  13.783 -1.4202  0.2415  0.9905
 1450SOL    HW215810   1.089   2.497  13.755 -1.0627 -0.5099  2.3195
 1451SOL     OW15811   4.352   2.324   8.256 -0.1014  0.1658  0.1771
 1451SOL    HW115812   4.441   2.312   8.221  0.1277 -0.7379  1.0564
 1451SOL    HW215813   4.369   2.402   8.309 -2.2741  0.3924  0.5181
 1452SOL     OW15814   3.551   1.518   4.321 -0.0702 -0.8013 -0.0272
 1452SOL    HW115815   3.466   1.476   4.330 -0.8708  0.9615  0.8045
 1452SOL    HW215816   3.531   1.591   4.262  2.2933 -0.4997 -0.4644
 1453SOL     OW15817   1.083   0.544   4.496  0.1151  0.1674  0.9097
 1453SOL    HW115818   1.089   0.456   4.458  1.2984  0.6259  0.0510
 1453SOL    HW215819   1.130   0.599   4.433 -0.8786  0.6173  0.5675
 1454SOL     OW15820   3.572   1.092   8.127 -0.1623  0.4550  0.2816
 1454SOL    HW115821   3.605   1.058   8.210 -0.9659 -0.2643  0.3198
 1454SOL    HW215822   3.651   1.074   8.077 -0.5793  0.8803 -0.5232
 1455SOL     OW15823   1.760   0.316   6.651  0.2791  0.2463  0.0773
 1455SOL    HW115824   1.790   0.372   6.722 -2.1098  0.4243  0.9452
 1455SOL    HW215825   1.721   0.372   6.583 -1.4628 -0.7817  0.2494
 1456SOL     OW15826   4.100   3.379   7.629 -0.5532 -0.4155  0.2125
 1456SOL    HW115827   4.158   3.400   7.703  0.5748 -1.3476 -0.4085
 1456SOL    HW215828   4.147   3.419   7.556 -0.3603 -0.6670  0.1988
 1457SOL     OW15829   4.348   1.303   3.724 -0.2606  0.0157 -0.0186
 1457SOL    HW115830   4.433   1.273   3.692  0.1558 -1.4787  2.4953
 1457SOL    HW215831   4.333   1.234   3.789 -1.2242 -0.5637 -0.8405
 1458SOL     OW15832   2.576   0.551   6.195 -0.2758  0.2989 -0.7324
 1458SOL    HW115833   2.627   0.625   6.161  0.8417 -0.2330 -0.2137
 1458SOL    HW215834   2.581   0.573   6.288 -0.2224  0.1676 -0.7046
 1459SOL     OW15835   1.297   1.935  16.633  0.1396  0.8524 -0.1521
 1459SOL    HW115836   1.319   1.872  16.701 -0.2920  0.8351 -0.0306
 1459SOL    HW215837   1.302   1.887  16.550 -0.9205 -0.7592  0.7031
 1460SOL     OW15838   2.575   1.823   1.029 -0.1778  0.1239  0.3678
 1460SOL    HW115839   2.545   1.753   1.087  0.1677  0.6641  1.2077
 1460SOL    HW215840   2.561   1.781   0.944  1.1611 -0.0271  0.2228
 1461SOL     OW15841   0.211   1.269  13.783  0.5599 -0.0904 -0.1501
 1461SOL    HW115842   0.191   1.362  13.793  1.3170 -0.2124  2.3150
 1461SOL    HW215843   0.307   1.273  13.781  0.4880  2.2289  1.2710
 1462SOL     OW15844   3.427   3.567   4.153  0.6140  0.0580 -0.1999
 1462SOL    HW115845   3.462   3.646   4.193 -1.6960 -0.0285  1.9981
 1462SOL    HW215846   3.357   3.605   4.099 -1.2108 -3.0689 -0.0834
 1463SOL     OW15847   3.242   1.961   0.877  0.6115 -0.1698  0.1015
 1463SOL    HW115848   3.237   2.009   0.794 -1.5048 -0.9009 -0.1755
 1463SOL    HW215849   3.187   1.886   0.860  1.8064 -0.8802 -0.6667
 1464SOL     OW15850   1.831   3.471   7.313 -0.1443  0.2306  0.2119
 1464SOL    HW115851   1.827   3.380   7.285  1.0703 -0.2646  1.6713
 1464SOL    HW215852   1.848   3.454   7.406 -1.1571  0.9252  0.5277
 1465SOL     OW15853   1.775   4.588   3.746 -0.4615  0.5195 -1.0054
 1465SOL    HW115854   1.777   4.656   3.813 -0.8070  0.0772 -0.5441
 1465SOL    HW215855   1.868   4.567   3.733  0.1102  1.3241  1.9388
 1466SOL     OW15856   3.293   0.780   2.974  0.1419 -0.1525  0.2076
 1466SOL    HW115857   3.319   0.786   2.883 -2.5054  0.2522 -0.5315
 1466SOL    HW215858   3.222   0.716   2.966  1.9080 -2.0770  0.1534
 1467SOL     OW15859   3.551   1.303   2.815  0.4283  0.3551 -0.0061
 1467SOL    HW115860   3.526   1.395   2.803  0.8187  0.4123 -0.3689
 1467SOL    HW215861   3.526   1.278   2.726 -1.0728  2.2075 -0.0977
 1468SOL     OW15862   4.293   1.216   7.960 -0.3923  0.8740 -0.2587
 1468SOL    HW115863   4.233   1.144   7.942 -0.5462  0.5158  1.7426
 1468SOL    HW215864   4.265   1.241   8.048 -1.0564  2.2239 -0.8548
 1469SOL     OW15865   2.265   3.862   7.820  0.1171  0.3174  0.5764
 1469SOL    HW115866   2.204   3.906   7.879  0.9970  1.6600  0.4728
 1469SOL    HW215867   2.346   3.857   7.872  0.8936 -0.0597 -0.6821
 1470SOL     OW15868   0.716   3.558   4.034 -0.4033 -0.2398  0.6837
 1470SOL    HW115869   0.749   3.648   4.031  1.5070 -0.9081  2.0790
 1470SOL    HW215870   0.632   3.569   3.989  0.4294  0.7046 -0.6640
 1471SOL     OW15871   4.494   4.428   7.324 -0.2501  0.1323 -0.3681
 1471SOL    HW115872   4.511   4.507   7.274 -0.3029 -1.7470 -3.3642
 1471SOL    HW215873   4.579   4.384   7.311  0.4057  1.0466  0.8617
 1472SOL     OW15874   3.677   3.577   7.065  0.6238  0.0483  0.0726
 1472SOL    HW115875   3.665   3.631   6.987 -0.4925  0.9286  0.8652
 1472SOL    HW215876   3.772   3.586   7.077  0.9103 -1.1547 -1.2688
 1473SOL     OW15877   2.956   3.786   7.334 -0.1542  0.0119  0.0491
 1473SOL    HW115878   2.941   3.693   7.350  0.3271 -0.3963 -1.8966
 1473SOL    HW215879   2.934   3.820   7.421  0.6048 -1.7526  0.9363
 1474SOL     OW15880   1.442   2.512   7.930 -0.1806 -0.1242 -0.1878
 1474SOL    HW115881   1.411   2.602   7.930  0.4916  0.1081  0.7195
 1474SOL    HW215882   1.360   2.463   7.924 -0.3530  0.0221  1.1076
 1475SOL     OW15883   3.118   3.215   2.124 -0.2194  0.6038 -0.0418
 1475SOL    HW115884   3.083   3.259   2.047 -0.3315 -0.0108 -0.3390
 1475SOL    HW215885   3.097   3.274   2.197 -2.0031  0.8318 -0.7410
 1476SOL     OW15886   1.020   3.692   6.696  0.4159  0.5842 -0.1311
 1476SOL    HW115887   1.061   3.664   6.614  0.8681  0.2571  0.1991
 1476SOL    HW215888   1.004   3.784   6.674 -2.5178  0.0527 -0.1712
 1477SOL     OW15889   0.356   4.179   2.614  0.1517 -0.3216  0.5401
 1477SOL    HW115890   0.360   4.117   2.541  2.2989 -0.3448  0.6837
 1477SOL    HW215891   0.318   4.255   2.570 -0.4000 -0.3546  0.9623
 1478SOL     OW15892   2.861   2.923   7.168  0.1404 -0.1407  0.2748
 1478SOL    HW115893   2.864   3.000   7.225 -0.1531  0.3740 -0.4109
 1478SOL    HW215894   2.810   2.855   7.212  0.8918 -1.4791 -0.9508
 1479SOL     OW15895   1.729   1.968   4.620 -0.3265  0.9410  0.1974
 1479SOL    HW115896   1.795   1.900   4.635 -0.1404  1.2443  0.7262
 1479SOL    HW215897   1.709   1.952   4.527  0.6387 -1.7222  0.4531
 1480SOL     OW15898   4.670   2.247   9.143 -0.1088  0.5960 -0.0500
 1480SOL    HW115899   4.691   2.173   9.200 -1.7130 -0.0205 -0.2611
 1480SOL    HW215900   4.582   2.266   9.177 -0.1813  0.2220 -0.0279
 1481SOL     OW15901   0.906   3.967   0.202 -0.5860 -0.0245 -0.3812
 1481SOL    HW115902   0.860   3.896   0.247  2.2556 -0.2688  2.0491
 1481SOL    HW215903   0.989   3.921   0.191 -0.0001  1.5924 -2.7485
 1482SOL     OW15904   3.163   2.935   3.293 -0.1519 -0.2895  0.0808
 1482SOL    HW115905   3.171   2.906   3.384 -2.6068 -1.2961 -0.0413
 1482SOL    HW215906   3.206   2.866   3.244  1.0799 -0.7733  1.8328
 1483SOL     OW15907   3.510   2.221  10.526 -0.3353 -0.2379 -0.0711
 1483SOL    HW115908   3.584   2.243  10.470  1.0589  0.3287  2.0124
 1483SOL    HW215909   3.470   2.308  10.517  1.0146  0.4174  0.4543
 1484SOL     OW15910   0.917   1.010   5.670 -0.0685  0.5141 -0.4244
 1484SOL    HW115911   0.877   0.951   5.607  3.8502  0.3430 -2.7900
 1484SOL    HW215912   0.838   1.049   5.706  0.5003  0.6885  0.6459
 1485SOL     OW15913   3.068   4.315   1.077 -0.6987 -0.1593  0.2176
 1485SOL    HW115914   3.155   4.319   1.037  0.1545  2.4994  2.3566
 1485SOL    HW215915   3.052   4.409   1.078 -1.9736 -0.3616 -1.3118
 1486SOL     OW15916   0.351   3.245   6.710 -0.1519 -0.1005  0.8881
 1486SOL    HW115917   0.406   3.217   6.636 -0.1017  1.1216  0.4688
 1486SOL    HW215918   0.375   3.180   6.776 -2.2698 -2.2126 -0.3844
 1487SOL     OW15919   2.475   0.387   3.332 -0.3530  0.0946 -0.3395
 1487SOL    HW115920   2.387   0.356   3.353 -0.7994  1.5961 -0.0361
 1487SOL    HW215921   2.520   0.304   3.350  0.6505  0.4363 -1.2596
 1488SOL     OW15922   4.216   1.199  17.534 -0.2059 -0.3728  0.3046
 1488SOL    HW115923   4.253   1.166  17.452  0.5363 -2.1095  1.3415
 1488SOL    HW215924   4.289   1.177  17.593 -0.2742 -2.9180 -0.5819
 1489SOL     OW15925   4.115   1.420  17.664 -0.1503 -0.0021  0.1148
 1489SOL    HW115926   4.144   1.341  17.619  0.0242  0.4237 -0.5241
 1489SOL    HW215927   4.049   1.386   0.036 -2.5317  2.6983 -0.9706
 1490SOL     OW15928   3.446   3.991   5.224 -0.6221  0.0357 -0.3932
 1490SOL    HW115929   3.407   4.029   5.303 -0.1655 -1.0309  0.3455
 1490SOL    HW215930   3.527   4.040   5.234 -0.5443 -0.4731  1.4458
 1491SOL     OW15931   4.426   1.479   9.206  0.2597  0.0005  0.4103
 1491SOL    HW115932   4.396   1.447   9.291  1.0667 -1.1441  0.2690
 1491SOL    HW215933   4.431   1.399   9.154  0.0845  1.3435 -1.6971
 1492SOL     OW15934   3.139   3.405   8.730 -0.5252  0.3106  0.6341
 1492SOL    HW115935   3.175   3.363   8.652 -0.3947 -0.1831  0.9596
 1492SOL    HW215936   3.052   3.434   8.702 -0.1427  1.4725  0.6628
 1493SOL     OW15937   2.966   0.051   7.956 -0.1013  0.7851 -0.6275
 1493SOL    HW115938   2.967   4.678   7.976 -2.4597  0.5345 -1.5943
 1493SOL    HW215939   3.049   0.075   7.997 -1.8384  4.7551  0.4691
 1494SOL     OW15940   2.286   0.673   6.224  0.6721 -0.8415  0.2549
 1494SOL    HW115941   2.243   0.689   6.141  0.6682  0.9107  0.5874
 1494SOL    HW215942   2.355   0.610   6.202  0.8246 -0.7628  0.4939
 1495SOL     OW15943   0.454   2.176  12.343  0.7299 -0.2123 -0.5014
 1495SOL    HW115944   0.470   2.132  12.426  1.0359  1.9915  0.6121
 1495SOL    HW215945   0.361   2.198  12.353  0.3227 -2.4834  0.7665
 1496SOL     OW15946   2.384   0.796   1.508  0.5181 -0.5649  0.1189
 1496SOL    HW115947   2.388   0.860   1.579  1.0415  1.2786 -1.5567
 1496SOL    HW215948   2.347   0.839   1.431 -1.3792 -0.3562  1.1251
 1497SOL     OW15949   0.866   1.190   4.752 -0.4453  0.2420  0.0836
 1497SOL    HW115950   0.890   1.126   4.819 -0.7065  0.6070  0.5242
 1497SOL    HW215951   0.878   1.147   4.667  0.1831  0.6295 -0.0201
 1498SOL     OW15952   2.626   0.873   2.644 -0.1663 -0.2022 -0.0262
 1498SOL    HW115953   2.663   0.923   2.716 -0.8303 -1.4734  1.2144
 1498SOL    HW215954   2.540   0.915   2.637 -0.0502  0.1728  0.8264
 1499SOL     OW15955   2.310   0.698   0.386 -0.0441  0.0971  0.2690
 1499SOL    HW115956   2.283   0.789   0.375  0.6730  0.3899  0.9366
 1499SOL    HW215957   2.330   0.672   0.296 -0.4145  1.7080 -0.2879
 1500SOL     OW15958   3.697   4.204   2.608 -0.3241  0.3353  0.5694
 1500SOL    HW115959   3.699   4.131   2.670  3.9950  0.8210  1.0012
 1500SOL    HW215960   3.692   4.277   2.670  2.0209  0.2041  0.9263
 1501SOL     OW15961   2.751   1.318   4.749  0.5345 -0.0495  0.9664
 1501SOL    HW115962   2.799   1.351   4.825  1.5974 -0.6695  0.5656
 1501SOL    HW215963   2.732   1.228   4.774 -0.4647 -0.8353 -2.5332
 1502SOL     OW15964   0.308   0.630   0.726 -0.0406  0.3773  0.6351
 1502SOL    HW115965   0.265   0.554   0.688  1.6388 -0.7998  1.0610
 1502SOL    HW215966   0.262   0.694   0.672 -2.1124 -0.2700  1.6620
 1503SOL     OW15967   4.030   1.674   2.638  0.0627 -0.0564  0.2451
 1503SOL    HW115968   3.992   1.730   2.570 -0.9677 -0.3577  0.5591
 1503SOL    HW215969   4.120   1.706   2.638  0.3541 -0.8978  1.3530
 1504SOL     OW15970   4.244   1.467   9.833  0.3232  0.1980  0.4966
 1504SOL    HW115971   4.260   1.511   9.750  3.3605 -0.5285  0.6995
 1504SOL    HW215972   4.148   1.462   9.834  0.3185 -0.1077 -1.1774
 1505SOL     OW15973   3.304   0.493   6.370 -0.1549  0.2052 -1.2290
 1505SOL    HW115974   3.318   0.402   6.396 -1.7057  0.8405  1.9420
 1505SOL    HW215975   3.304   0.486   6.275  1.3749  1.3751 -1.3098
 1506SOL     OW15976   4.422   4.627   6.791  0.3254  0.3456 -0.7985
 1506SOL    HW115977   4.442   4.719   6.773 -0.8919  0.7590 -0.0979
 1506SOL    HW215978   4.399   4.602   6.702  0.9829  2.3816 -1.5316
 1507SOL     OW15979   4.232   0.095   1.046  0.1146  0.3189 -0.3685
 1507SOL    HW115980   4.281   0.177   1.045  2.4027 -1.0289 -0.0033
 1507SOL    HW215981   4.242   0.060   1.134  0.1495  0.2960 -0.3815
 1508SOL     OW15982   3.579   1.670   7.152  0.4635 -0.3111 -0.3182
 1508SOL    HW115983   3.643   1.598   7.144  0.6894 -0.2763  1.1823
 1508SOL    HW215984   3.596   1.713   7.069  1.3397  0.9123  0.4949
 1509SOL     OW15985   4.142   3.790   2.901  0.5316  0.0118  0.7184
 1509SOL    HW115986   4.198   3.815   2.975 -0.4296 -0.0321  1.4700
 1509SOL    HW215987   4.181   3.705   2.881 -0.8005 -0.9338  2.1159
 1510SOL     OW15988   4.009   2.139  16.475  0.3045  0.1686  0.3133
 1510SOL    HW115989   4.083   2.187  16.512  2.1190 -0.2208 -2.8482
 1510SOL    HW215990   3.976   2.088  16.549  0.6048  1.5982  1.4302
 1511SOL     OW15991   4.558   2.170   2.779  0.6212 -0.4248 -0.5553
 1511SOL    HW115992   4.484   2.185   2.837  0.8079 -1.1796 -0.1349
 1511SOL    HW215993   4.511   2.171   2.695  0.1647 -2.8363 -0.3196
 1512SOL     OW15994   2.167   0.508   1.838 -0.5451  0.5287  0.1826
 1512SOL    HW115995   2.187   0.424   1.796 -0.8767  1.0999 -1.1026
 1512SOL    HW215996   2.098   0.484   1.901  0.1424  2.3473  1.6293
 1513SOL     OW15997   1.791   1.116  11.560 -0.2655  0.0266 -0.1960
 1513SOL    HW115998   1.785   1.033  11.513  3.2583 -1.2998  1.6534
 1513SOL    HW215999   1.758   1.181  11.498 -0.4482  1.3687  1.2996
 1514SOL     OW16000   3.427   3.730   6.481 -0.3437 -0.2742  0.0411
 1514SOL    HW116001   3.497   3.783   6.519  0.0664 -1.0225  0.3235
 1514SOL    HW216002   3.400   3.785   6.407  1.7656  0.8687  0.0994
 1515SOL     OW16003   4.303   0.729  13.704  1.1360  0.0062  0.3107
 1515SOL    HW116004   4.341   0.817  13.699  0.1898  0.4448  0.8040
 1515SOL    HW216005   4.373   0.682  13.750  0.9507 -1.2102 -0.6636
 1516SOL     OW16006   1.987   0.715   6.583 -0.2551 -0.1792  0.0123
 1516SOL    HW116007   2.052   0.645   6.584  0.3101  0.3424 -0.8058
 1516SOL    HW216008   1.988   0.758   6.669 -0.3892  0.4203 -0.2874
 1517SOL     OW16009   1.300   2.736  14.473  0.1019  0.4281 -0.2779
 1517SOL    HW116010   1.206   2.744  14.494 -0.0492  0.3400 -0.9326
 1517SOL    HW216011   1.330   2.788  14.548 -1.0598 -0.3508  0.7363
 1518SOL     OW16012   2.292   3.291  14.088 -0.4395  0.0529  0.6454
 1518SOL    HW116013   2.308   3.318  13.997 -0.3417  1.9169  1.2173
 1518SOL    HW216014   2.383   3.279  14.116 -0.2407  1.5265  0.6521
 1519SOL     OW16015   3.522   1.800   8.772 -0.0602 -0.0224 -0.3509
 1519SOL    HW116016   3.596   1.740   8.764  0.3812  0.4895 -0.1267
 1519SOL    HW216017   3.556   1.889   8.758 -0.4716  0.1968  0.0139
 1520SOL     OW16018   0.176   4.652   3.393  0.0194 -0.6916  0.0309
 1520SOL    HW116019   0.176   0.017   3.435  0.8292 -0.0606 -1.2576
 1520SOL    HW216020   0.106   4.663   3.329 -1.0075  0.1656  1.3075
 1521SOL     OW16021   2.575   3.079   2.089  0.2024 -0.1714 -0.5311
 1521SOL    HW116022   2.639   3.037   2.031  1.1387 -0.5624  0.7871
 1521SOL    HW216023   2.505   3.013   2.091 -0.5721  0.6687 -0.1597
 1522SOL     OW16024   2.201   1.936   2.058 -0.0915  0.6099  0.6709
 1522SOL    HW116025   2.284   1.983   2.064  1.1644 -1.3309 -1.2509
 1522SOL    HW216026   2.212   1.886   1.977  1.6166  2.3721 -0.1911
 1523SOL     OW16027   3.914   0.446  13.644 -0.3276 -0.8393  0.6693
 1523SOL    HW116028   3.849   0.383  13.615  1.5026 -1.1738 -2.6750
 1523SOL    HW216029   3.891   0.463  13.736 -0.7326  0.0640  0.3990
 1524SOL     OW16030   0.901   3.616   2.559  0.2259 -0.3167 -0.4985
 1524SOL    HW116031   0.928   3.664   2.637  0.5801  0.4424 -1.0986
 1524SOL    HW216032   0.820   3.659   2.531 -1.1216 -2.5104 -0.0428
 1525SOL     OW16033   0.181   2.705   2.754 -0.4835 -0.0252 -0.4004
 1525SOL    HW116034   0.254   2.665   2.800 -0.8618 -0.0109  0.2133
 1525SOL    HW216035   0.222   2.770   2.696  0.9214 -0.2610  0.3375
 1526SOL     OW16036   3.562   0.743  11.113  0.1203  0.0773 -0.5204
 1526SOL    HW116037   3.578   0.835  11.091  1.0897  0.3032  1.1716
 1526SOL    HW216038   3.644   0.708  11.077 -1.0353 -1.1134 -2.0038
 1527SOL     OW16039   3.258   3.443   7.902  0.5276 -0.5607  0.3736
 1527SOL    HW116040   3.233   3.513   7.962 -0.7165  0.6834 -1.5964
 1527SOL    HW216041   3.208   3.469   7.825 -0.4528  2.4577  2.0103
 1528SOL     OW16042   4.471   1.947   2.516 -0.1653 -0.4291  0.0668
 1528SOL    HW116043   4.511   2.026   2.481 -1.9108  0.9980  1.2755
 1528SOL    HW216044   4.387   1.949   2.471  1.0587 -2.4620 -2.2917
 1529SOL     OW16045   1.548   3.341   1.087 -0.6736  0.0116 -0.0139
 1529SOL    HW116046   1.474   3.295   1.127 -1.8209  0.0618 -2.1146
 1529SOL    HW216047   1.550   3.315   0.995 -2.7104 -0.0549 -0.0312
 1530SOL     OW16048   3.539   4.691   4.698 -0.0299 -0.0358 -0.2409
 1530SOL    HW116049   3.489   4.614   4.723  1.4979 -0.9734 -0.0506
 1530SOL    HW216050   3.562   4.709   4.789 -0.4843 -1.1968  0.0910
 1531SOL     OW16051   2.329   1.364   2.212  0.0753  0.2890  0.3150
 1531SOL    HW116052   2.410   1.320   2.188 -0.5578  0.0779 -1.4019
 1531SOL    HW216053   2.290   1.287   2.252 -3.2274  0.5179 -2.5370
 1532SOL     OW16054   2.067   3.285   7.036 -0.1079  0.2837  0.2109
 1532SOL    HW116055   2.012   3.250   6.966  0.9798 -0.7846 -0.1003
 1532SOL    HW216056   2.039   3.376   7.045  2.4445  1.1962 -1.2601
 1533SOL     OW16057   4.432   3.998  12.554 -0.8433 -0.2566 -0.7290
 1533SOL    HW116058   4.443   4.088  12.584 -1.9523 -0.0086 -1.0800
 1533SOL    HW216059   4.337   3.993  12.557 -0.8476  0.8391  1.5630
 1534SOL     OW16060   4.478   1.197   7.759 -0.2736  0.1462 -0.5360
 1534SOL    HW116061   4.510   1.113   7.793  0.9776  0.4897 -0.8605
 1534SOL    HW216062   4.407   1.207   7.823  0.7894 -0.2281  0.7098
 1535SOL     OW16063   3.889   2.478   9.359  0.2207  0.6780  0.7080
 1535SOL    HW116064   3.831   2.495   9.433  0.9778  1.2239  1.1674
 1535SOL    HW216065   3.898   2.383   9.372  0.5718  0.6795  0.4834
 1536SOL     OW16066   2.751   0.678   5.302  0.2916 -0.7560  0.3145
 1536SOL    HW116067   2.819   0.685   5.234 -0.8043 -1.0859 -0.8096
 1536SOL    HW216068   2.695   0.606   5.275  0.9610 -0.8168 -0.9292
 1537SOL     OW16069   4.000   2.844   2.462  0.6342 -0.3655 -0.4190
 1537SOL    HW116070   4.019   2.917   2.521 -2.3236  1.5679 -1.8151
 1537SOL    HW216071   3.931   2.882   2.408  0.8653  0.2415 -0.2799
 1538SOL     OW16072   2.054   3.288   4.695  0.4994 -0.1946 -0.2437
 1538SOL    HW116073   2.057   3.379   4.724  0.0945 -0.4293  0.5247
 1538SOL    HW216074   1.962   3.290   4.668 -0.4362 -2.5235  2.8009
 1539SOL     OW16075   3.658   3.934  14.844 -0.1140 -0.3286  0.1851
 1539SOL    HW116076   3.720   3.866  14.817 -0.7382 -0.1087 -1.8148
 1539SOL    HW216077   3.576   3.910  14.801 -0.9436  1.6376  0.6844
 1540SOL     OW16078   3.531   3.531   6.032  0.2302 -0.1473  0.1161
 1540SOL    HW116079   3.575   3.562   5.952 -0.0344  0.5899  0.2599
 1540SOL    HW216080   3.568   3.590   6.098  1.5816 -0.6227 -0.1981
 1541SOL     OW16081   0.225   0.858   3.536  0.3421  0.3573 -0.6205
 1541SOL    HW116082   0.290   0.917   3.576  0.2810 -0.0851  0.1354
 1541SOL    HW216083   0.156   0.922   3.522 -0.3161 -0.2131  0.0039
 1542SOL     OW16084   0.182   3.886   6.777  0.4137 -0.1664  0.3672
 1542SOL    HW116085   0.229   3.842   6.847  1.0370  1.6737  1.0912
 1542SOL    HW216086   0.140   3.956   6.827 -2.5424 -0.4001 -1.7575
 1543SOL     OW16087   1.595   2.154   3.634 -0.2045 -0.5008  0.4968
 1543SOL    HW116088   1.513   2.105   3.634  0.2241 -1.2312 -0.3469
 1543SOL    HW216089   1.636   2.139   3.719 -2.9639 -2.9738  1.4214
 1544SOL     OW16090   0.479   0.940   8.207 -0.5666  0.0445  0.1031
 1544SOL    HW116091   0.497   1.034   8.214  0.9993 -0.1825 -0.9292
 1544SOL    HW216092   0.554   0.901   8.162 -1.8767 -0.2957 -1.7951
 1545SOL     OW16093   1.823   3.068   5.280 -0.4779  0.1020  0.2385
 1545SOL    HW116094   1.766   3.143   5.261  0.0572 -0.5679 -4.0795
 1545SOL    HW216095   1.894   3.106   5.331  0.1801 -2.2659  1.0451
 1546SOL     OW16096   0.344   1.341   5.777  0.9843 -0.2113 -0.1027
 1546SOL    HW116097   0.407   1.273   5.800  3.3471  1.0009 -2.9613
 1546SOL    HW216098   0.273   1.276   5.768 -1.3863  2.3266  0.2399
 1547SOL     OW16099   2.134   1.403   1.440  0.2904  0.3973  0.4749
 1547SOL    HW116100   2.227   1.377   1.438 -0.0876 -0.7533 -2.7193
 1547SOL    HW216101   2.129   1.471   1.373 -1.8194  0.3138  0.5688
 1548SOL     OW16102   2.142   1.902   5.752  0.2450 -0.1297  0.4366
 1548SOL    HW116103   2.206   1.834   5.773  0.9070  0.3390 -0.0588
 1548SOL    HW216104   2.132   1.886   5.658 -2.5363  1.9727  0.3974
 1549SOL     OW16105   3.721   1.461  14.650  0.5891 -0.2293  0.1856
 1549SOL    HW116106   3.732   1.519  14.575 -0.0374 -0.5151 -0.1268
 1549SOL    HW216107   3.690   1.383  14.603  1.9158 -2.2067  2.5720
 1550SOL     OW16108   2.615   0.120  14.908  0.1702  0.0350 -0.9300
 1550SOL    HW116109   2.635   0.081  14.823 -0.0658 -0.9047 -0.5549
 1550SOL    HW216110   2.690   0.103  14.966  0.2126  0.0475 -0.9820
 1551SOL     OW16111   2.669   3.759  16.034  0.1789  1.0852 -0.0260
 1551SOL    HW116112   2.731   3.811  15.983 -0.7488  1.3490 -0.8793
 1551SOL    HW216113   2.692   3.776  16.126  1.4849 -0.4228 -0.0716
 1552SOL     OW16114   1.679   3.738   0.149 -0.0587  0.0395 -0.4221
 1552SOL    HW116115   1.658   3.686   0.072 -1.5825  1.7668 -1.1741
 1552SOL    HW216116   1.738   3.801   0.109  1.4956  0.4681  2.5561
 1553SOL     OW16117   0.755   3.810   5.730 -0.0565  0.2644  0.0308
 1553SOL    HW116118   0.673   3.792   5.683 -1.7738  0.6800  2.8431
 1553SOL    HW216119   0.791   3.721   5.733 -2.4902 -0.7237  0.0676
 1554SOL     OW16120   1.546   1.017  16.280  0.3046  0.0715  0.2907
 1554SOL    HW116121   1.545   0.931  16.238 -1.9595 -0.0034  0.4951
 1554SOL    HW216122   1.498   0.996  16.360  1.7948  0.0886  1.1836
 1555SOL     OW16123   4.668   0.462  14.214 -0.0669  0.4615  0.1347
 1555SOL    HW116124   4.684   0.387  14.156 -0.9713  0.4408 -0.0869
 1555SOL    HW216125   4.716   0.438  14.294 -0.3249 -0.7659 -0.0767
 1556SOL     OW16126   2.060   2.845   0.738 -0.2713  0.4523  0.3082
 1556SOL    HW116127   2.144   2.815   0.774  0.8545 -0.9471 -3.4238
 1556SOL    HW216128   2.003   2.826   0.812 -0.5451  3.3172  0.8073
 1557SOL     OW16129   0.028   3.940   9.096  0.3295 -0.5575 -0.4603
 1557SOL    HW116130   0.085   3.981   9.031  0.7583 -0.9866 -0.3530
 1557SOL    HW216131   0.091   3.885   9.142  0.9732  0.8252  0.3144
 1558SOL     OW16132   1.458   0.364  17.148 -0.4739 -0.1712 -0.3874
 1558SOL    HW116133   1.399   0.299  17.110  2.0034 -2.3295 -0.5426
 1558SOL    HW216134   1.506   0.415  17.083 -0.4729  2.3922  1.5816
 1559SOL     OW16135   2.267   4.592   9.897  0.3698 -0.6033  0.1469
 1559SOL    HW116136   2.178   4.585   9.932  0.7173  0.8977  1.3858
 1559SOL    HW216137   2.272   4.686   9.915  1.6955 -0.4495 -1.0628
 1560SOL     OW16138   2.971   2.196   1.806  0.5190 -0.0318 -0.1524
 1560SOL    HW116139   3.010   2.220   1.722  0.4486 -1.2753 -0.5397
 1560SOL    HW216140   2.878   2.213   1.788  0.9888  0.8955 -1.7029
 1561SOL     OW16141   0.840   3.934   5.460  0.3497 -0.2605  0.3973
 1561SOL    HW116142   0.928   3.928   5.421  0.0648  0.4095 -0.3500
 1561SOL    HW216143   0.794   3.854   5.438 -0.9435  0.4939  0.3287
 1562SOL     OW16144   1.205   2.088   4.608  0.4898 -0.0137  0.1074
 1562SOL    HW116145   1.163   2.174   4.615  0.9490  0.1684  0.6291
 1562SOL    HW216146   1.245   2.070   4.693  2.8076 -1.4643 -1.3093
 1563SOL     OW16147   4.227   4.375   6.317  0.2955 -0.4140  0.3776
 1563SOL    HW116148   4.135   4.356   6.296  0.0404 -1.6071  2.6634
 1563SOL    HW216149   4.241   4.329   6.399  1.6871 -0.7082 -0.0331
 1564SOL     OW16150   2.331   0.623  16.283 -0.4085 -0.2017  0.0096
 1564SOL    HW116151   2.261   0.559  16.273 -0.4066 -0.1723 -0.1933
 1564SOL    HW216152   2.361   0.639  16.194  0.8410  0.0996  0.4798
 1565SOL     OW16153   3.893   2.307  14.722  0.3371  0.4003  0.0337
 1565SOL    HW116154   3.911   2.396  14.693  2.1277  0.0323  0.0433
 1565SOL    HW216155   3.919   2.310  14.814 -0.5899 -0.8260  0.3455
 1566SOL     OW16156   4.195   3.560   7.202  0.2622  0.4857  0.3599
 1566SOL    HW116157   4.150   3.477   7.188  0.8438  0.0653  0.9593
 1566SOL    HW216158   4.116   3.614   7.208 -0.0817  0.0186 -0.0115
 1567SOL     OW16159   3.761   4.096   5.436 -0.0394  0.9759 -0.0125
 1567SOL    HW116160   3.768   4.173   5.492  1.6017 -0.9143  2.3695
 1567SOL    HW216161   3.770   4.030   5.505  0.3124  0.3785 -0.6280
 1568SOL     OW16162   2.708   0.781   6.131 -1.0478 -0.3366  0.1185
 1568SOL    HW116163   2.727   0.847   6.197 -0.3394  0.0176 -0.4470
 1568SOL    HW216164   2.790   0.761   6.087 -0.3677  1.1959  0.7020
 1569SOL     OW16165   4.266   3.139   7.454 -0.6123  0.4133 -0.1186
 1569SOL    HW116166   4.339   3.144   7.515 -2.9190  1.9756  2.5236
 1569SOL    HW216167   4.246   3.046   7.453  0.1304  0.2560  0.2479
 1570SOL     OW16168   1.217   2.913   5.320  0.5678  0.2403  0.0808
 1570SOL    HW116169   1.255   2.926   5.406  0.0847  0.3610  0.2758
 1570SOL    HW216170   1.299   2.933   5.274  0.6414  0.7887  0.4477
 1571SOL     OW16171   2.722   2.897   8.405  0.5744  0.1998  0.1747
 1571SOL    HW116172   2.740   2.815   8.452 -0.5253 -0.5393 -0.7033
 1571SOL    HW216173   2.641   2.920   8.450  0.6502  0.0053  0.4131
 1572SOL     OW16174   3.972   0.980   3.265 -0.7038  0.2879 -0.1986
 1572SOL    HW116175   4.025   0.907   3.231 -1.2415  0.3210 -1.1289
 1572SOL    HW216176   3.911   0.989   3.191 -2.0032  0.1163  0.8473
 1573SOL     OW16177   1.269   4.206  14.416  0.3404 -0.2374 -0.6907
 1573SOL    HW116178   1.200   4.151  14.454  0.3264  0.9248  0.9903
 1573SOL    HW216179   1.237   4.213  14.326 -0.2250  0.6615 -0.4152
 1574SOL     OW16180   1.020   2.482   6.394 -0.5299 -0.1904 -0.3817
 1574SOL    HW116181   0.947   2.461   6.335 -2.1590 -0.4549  1.7301
 1574SOL    HW216182   1.059   2.397   6.412 -1.8739 -0.7171  0.0921
 1575SOL     OW16183   0.395   2.648   6.391 -0.0451  0.3528  0.5562
 1575SOL    HW116184   0.463   2.686   6.334  1.1535 -0.3487  1.5331
 1575SOL    HW216185   0.342   2.727   6.400 -0.6896 -0.0595  0.3276
 1576SOL     OW16186   0.625   1.492  10.065 -0.4515  0.4886  0.7199
 1576SOL    HW116187   0.702   1.454  10.107  0.7248  3.7754  1.6096
 1576SOL    HW216188   0.560   1.491  10.135  0.5371 -3.0587  1.5892
 1577SOL     OW16189   1.943   3.952   5.363  0.5482  0.2231 -0.2044
 1577SOL    HW116190   1.871   3.891   5.380 -0.6886  1.2443 -1.8121
 1577SOL    HW216191   2.008   3.894   5.324  0.0758  0.2280 -1.0062
 1578SOL     OW16192   4.614   3.818   6.904  0.5023  0.1878 -0.5423
 1578SOL    HW116193   4.654   3.775   6.980 -2.7438  1.0806  1.6673
 1578SOL    HW216194   4.530   3.829   6.948  0.4724  0.3850 -0.6503
 1579SOL     OW16195   4.636   2.879   3.994 -0.0679 -0.6750  0.4978
 1579SOL    HW116196   4.685   2.951   4.034 -0.1512  1.4247 -3.1571
 1579SOL    HW216197   4.614   2.824   4.069 -2.0871  0.3537  0.6600
 1580SOL     OW16198   0.251   0.028   3.812 -0.0303 -0.5219 -0.2971
 1580SOL    HW116199   0.235   4.713   3.725  1.4526 -0.6847 -0.4871
 1580SOL    HW216200   0.253   0.120   3.786 -1.6112 -1.1168 -2.5385
 1581SOL     OW16201   4.055   0.103   3.292  0.1000 -0.0181  0.2177
 1581SOL    HW116202   4.066   0.178   3.234 -1.8469 -0.8333 -1.2143
 1581SOL    HW216203   4.051   0.152   3.373  0.3018 -1.2586  0.9817
 1582SOL     OW16204   0.865   1.635   4.509 -0.1166 -0.4153  0.0851
 1582SOL    HW116205   0.954   1.670   4.513 -1.0045  1.5283  2.7804
 1582SOL    HW216206   0.876   1.560   4.566  0.3944 -0.6259 -0.2884
 1583SOL     OW16207   1.768   2.731  11.742  0.2107  0.5067 -0.3992
 1583SOL    HW116208   1.804   2.800  11.799 -2.5119  1.5827  0.0236
 1583SOL    HW216209   1.676   2.748  11.765  0.4049  0.7676  0.1966
 1584SOL     OW16210   2.574   3.882   2.072 -0.2944 -0.3759  0.3654
 1584SOL    HW116211   2.490   3.884   2.027 -0.6279  1.7522  1.1287
 1584SOL    HW216212   2.583   3.971   2.105 -2.8869  0.1965 -0.5147
 1585SOL     OW16213   1.730   1.218  12.619  0.1424  0.3891 -0.3010
 1585SOL    HW116214   1.807   1.254  12.574  0.8269 -0.9503 -0.1881
 1585SOL    HW216215   1.690   1.303  12.639 -1.7390 -0.2021 -1.6303
 1586SOL     OW16216   3.489   1.053  10.059  0.4278 -0.3296 -0.1302
 1586SOL    HW116217   3.546   1.130  10.057 -1.7220  1.2920 -0.0478
 1586SOL    HW216218   3.519   1.007  10.137 -0.7685  0.3956  0.7826
 1587SOL     OW16219   0.455   3.035  16.863 -0.7058  0.5981 -0.5014
 1587SOL    HW116220   0.541   2.993  16.864  0.8356  3.7383  0.4871
 1587SOL    HW216221   0.408   2.965  16.908  1.7152 -1.2048 -0.8002
 1588SOL     OW16222   2.529   0.134   0.231 -0.3932  0.0556 -0.7442
 1588SOL    HW116223   2.594   0.182   0.283  0.4911  0.2379 -2.0165
 1588SOL    HW216224   2.458   0.125   0.295  2.8966  0.6876  3.0184
 1589SOL     OW16225   3.975   2.885   7.841 -0.3593 -0.2375 -0.3361
 1589SOL    HW116226   4.009   2.926   7.762  1.2791  0.8008  0.9026
 1589SOL    HW216227   3.957   2.795   7.813  0.5167  0.0427 -1.7903
 1590SOL     OW16228   0.341   0.023   2.590 -1.0546 -0.0743 -0.1743
 1590SOL    HW116229   0.407   0.033   2.659  1.6285  1.1874 -2.9088
 1590SOL    HW216230   0.281   0.096   2.606 -1.9944 -0.7356 -0.6749
 1591SOL     OW16231   0.042   0.235  16.539  0.0640  0.6087  0.4744
 1591SOL    HW116232   0.130   0.204  16.558  0.0990  0.4558  0.0605
 1591SOL    HW216233   0.029   0.229  16.444 -1.1903 -2.0447  0.8144
 1592SOL     OW16234   2.684   1.040   3.188  0.4271  0.3807 -0.0618
 1592SOL    HW116235   2.631   0.980   3.240  0.3332  0.1883 -0.3762
 1592SOL    HW216236   2.756   0.983   3.160 -1.0765 -0.3106 -2.5209
 1593SOL     OW16237   2.007   2.184   9.737 -0.3541  0.1486 -0.0865
 1593SOL    HW116238   2.006   2.190   9.833 -5.3230  1.7529 -0.2457
 1593SOL    HW216239   1.937   2.120   9.721 -0.0650 -0.0652 -0.4860
 1594SOL     OW16240   3.296   1.618   6.540  0.5772 -0.1973  0.1918
 1594SOL    HW116241   3.254   1.650   6.460  2.2850  0.9087 -0.2631
 1594SOL    HW216242   3.343   1.699   6.557  1.5421 -1.5293  3.8101
 1595SOL     OW16243   4.576   1.024  10.504  0.3316 -0.3916  0.2155
 1595SOL    HW116244   4.485   1.007  10.528  0.3014 -2.1147 -1.1589
 1595SOL    HW216245   4.597   0.948  10.450 -0.6581 -1.2909  1.0777
 1596SOL     OW16246   1.131   1.424  12.339  0.2517  0.2176  0.0717
 1596SOL    HW116247   1.077   1.474  12.278 -0.6904  0.0328  0.7653
 1596SOL    HW216248   1.162   1.486  12.406 -2.3349 -0.3896  1.8217
 1597SOL     OW16249   3.092   4.606   6.348 -0.2998 -0.4540 -0.0566
 1597SOL    HW116250   3.140   4.646   6.421  0.8505 -0.3373 -0.8795
 1597SOL    HW216251   3.142   4.525   6.335 -1.1565 -0.6379 -2.2343
 1598SOL     OW16252   3.860   1.607   2.218 -0.0904 -0.4262  0.0394
 1598SOL    HW116253   3.800   1.582   2.288 -0.3196 -1.3120 -0.4584
 1598SOL    HW216254   3.850   1.555   2.137  0.7110  1.6689 -1.4084
 1599SOL     OW16255   1.570   1.660   0.449  0.5003  0.0841  0.1422
 1599SOL    HW116256   1.512   1.619   0.513  0.1587 -0.9938 -0.8706
 1599SOL    HW216257   1.612   1.577   0.429  2.9970  1.6574 -1.1602
 1600SOL     OW16258   1.823   4.474   5.057  0.5887  0.1521  0.0224
 1600SOL    HW116259   1.838   4.536   4.985  0.4623  0.6521  0.4217
 1600SOL    HW216260   1.817   4.535   5.131 -1.0491  0.2674 -0.1965
 1601SOL     OW16261   1.753   0.292   7.891 -0.3901  0.1718 -0.3893
 1601SOL    HW116262   1.719   0.270   7.978 -0.8323 -0.3451 -0.6965
 1601SOL    HW216263   1.739   0.386   7.888 -1.7420  0.0016  0.4633
 1602SOL     OW16264   4.478   1.496   6.794  0.0079  0.2787 -0.0420
 1602SOL    HW116265   4.548   1.433   6.776 -0.7052 -0.6797  0.5433
 1602SOL    HW216266   4.404   1.480   6.735 -0.5199 -0.3940  0.8055
 1603SOL     OW16267   4.046   0.670   8.233 -0.0095  0.1734  0.2364
 1603SOL    HW116268   4.024   0.618   8.311  1.6719 -1.1895 -0.2061
 1603SOL    HW216269   4.122   0.707   8.279  0.3797  2.1866 -2.0182
 1604SOL     OW16270   1.044   0.049   5.932  0.3500  0.2811 -0.4275
 1604SOL    HW116271   0.971   4.720   5.895  0.7675 -0.4882 -0.2222
 1604SOL    HW216272   1.118   4.710   5.927  1.5768  1.6774  0.9962
 1605SOL     OW16273   0.048   1.727  12.519  0.2443  0.1453  0.1385
 1605SOL    HW116274   0.043   1.799  12.456 -1.6470 -0.4707 -0.4327
 1605SOL    HW216275   0.034   1.651  12.463 -0.9571  1.1267 -0.8996
 1606SOL     OW16276   1.653   2.473   9.160 -0.2337  0.0326 -0.3043
 1606SOL    HW116277   1.717   2.410   9.193 -0.8449  0.2510  1.2971
 1606SOL    HW216278   1.645   2.445   9.069 -2.7685  0.1491 -0.1168
 1607SOL     OW16279   1.725   2.670   2.435 -0.0800  0.2217 -0.3612
 1607SOL    HW116280   1.642   2.622   2.435 -0.0680  0.2206  0.8596
 1607SOL    HW216281   1.696   2.748   2.482 -0.7804  0.2604 -0.8567
 1608SOL     OW16282   3.314   4.044   5.015  0.2332  0.4736 -0.0206
 1608SOL    HW116283   3.353   4.001   5.091  0.6153 -1.8139 -1.5095
 1608SOL    HW216284   3.256   4.112   5.050 -0.6682 -0.9037  1.1462
 1609SOL     OW16285   1.160   3.133   4.424 -0.0773  0.5209 -0.0527
 1609SOL    HW116286   1.136   3.221   4.395 -1.2188 -0.6051 -2.4651
 1609SOL    HW216287   1.082   3.119   4.477 -0.7585  0.7300 -1.0176
 1610SOL     OW16288   3.778   1.270  17.106  0.5314  0.1162 -0.6852
 1610SOL    HW116289   3.742   1.185  17.084 -1.3027  0.9197 -0.7923
 1610SOL    HW216290   3.840   1.282  17.034  1.5772 -2.2001 -0.1503
 1611SOL     OW16291   4.108   3.071   7.689 -0.3155 -0.1539  0.5874
 1611SOL    HW116292   4.109   3.133   7.616 -0.7764 -0.8943 -0.0522
 1611SOL    HW216293   4.072   3.125   7.759 -1.3083  1.2913 -1.0339
 1612SOL     OW16294   1.111   1.793   6.063  0.5130 -0.4198  0.0485
 1612SOL    HW116295   1.095   1.763   5.973 -0.0539 -0.0128  0.0103
 1612SOL    HW216296   1.200   1.759   6.073 -0.6118 -2.5991  2.5152
 1613SOL     OW16297   0.572   3.827   7.406  0.0873  0.7929 -0.2747
 1613SOL    HW116298   0.494   3.872   7.373 -0.3597  0.2414  0.0195
 1613SOL    HW216299   0.636   3.893   7.380  1.5778 -0.2719  0.6692
 1614SOL     OW16300   4.395   2.936  11.417  0.2024 -0.0530  0.1320
 1614SOL    HW116301   4.328   2.991  11.458 -0.0281  0.5281 -1.0218
 1614SOL    HW216302   4.343   2.860  11.392 -0.7637  1.0447 -1.1544
 1615SOL     OW16303   3.511   0.524   8.569 -1.0220  0.1199 -0.7036
 1615SOL    HW116304   3.419   0.551   8.570 -1.3462 -0.9796 -0.1425
 1615SOL    HW216305   3.507   0.434   8.601 -0.5947  1.0709  2.0076
 1616SOL     OW16306   0.751   4.269   5.354  0.1842 -0.6083  0.0627
 1616SOL    HW116307   0.743   4.223   5.437 -3.2898 -1.3240 -0.6477
 1616SOL    HW216308   0.837   4.240   5.324 -0.1574 -0.5613 -0.9542
 1617SOL     OW16309   1.772   0.986  13.302  0.6631 -0.7248 -0.1016
 1617SOL    HW116310   1.782   1.080  13.286 -1.6130 -0.6084 -0.9280
 1617SOL    HW216311   1.688   0.977  13.257 -1.3151  1.9575  3.0091
 1618SOL     OW16312   3.856   3.223  16.625 -0.0037 -0.3161  0.2692
 1618SOL    HW116313   3.863   3.314  16.597 -0.4854 -0.5890 -0.7281
 1618SOL    HW216314   3.785   3.232  16.689 -1.3589 -2.0568 -0.9953
 1619SOL     OW16315   2.581   2.428   6.461 -0.2468  0.5779  0.8765
 1619SOL    HW116316   2.505   2.480   6.436 -0.0263 -0.2011 -1.4351
 1619SOL    HW216317   2.587   2.360   6.394  1.3593  1.9129 -0.3002
 1620SOL     OW16318   0.534   3.994   6.302 -0.1289  0.7626  0.4337
 1620SOL    HW116319   0.466   4.023   6.363 -0.7233 -0.9438  0.5858
 1620SOL    HW216320   0.556   4.083   6.276  0.7915  0.2633 -0.4953
 1621SOL     OW16321   0.322   3.181   1.138 -0.4097  0.3182 -0.2720
 1621SOL    HW116322   0.368   3.098   1.130  0.6299  0.8420  0.2887
 1621SOL    HW216323   0.378   3.234   1.082  0.0335 -0.8857 -0.9567
 1622SOL     OW16324   3.953   1.658  15.563  0.5135  0.1388  0.2652
 1622SOL    HW116325   3.940   1.628  15.473  0.6088 -0.8840  0.5922
 1622SOL    HW216326   3.952   1.752  15.541 -2.1478  0.5257  2.0965
 1623SOL     OW16327   0.181   3.020   4.140 -0.3248  0.3252  0.1124
 1623SOL    HW116328   0.262   3.040   4.187  2.0457 -3.6582 -2.3127
 1623SOL    HW216329   0.211   2.962   4.071 -1.8431  0.9666 -1.0865
 1624SOL     OW16330   4.082   0.426  11.642 -0.3833  0.2379 -0.1407
 1624SOL    HW116331   4.159   0.399  11.593 -0.8387 -0.8370 -0.2733
 1624SOL    HW216332   4.115   0.513  11.662 -0.7217  0.5273 -0.8663
 1625SOL     OW16333   0.968   4.200   8.063 -1.1311  0.1323  0.5779
 1625SOL    HW116334   0.997   4.266   8.127  0.6781  1.1773 -1.3039
 1625SOL    HW216335   1.035   4.218   7.996 -0.8240 -0.4298  0.7378
 1626SOL     OW16336   1.642   2.221   4.641  0.4746 -0.2561 -0.2493
 1626SOL    HW116337   1.678   2.134   4.624  0.8136 -0.3066  0.7095
 1626SOL    HW216338   1.657   2.264   4.556 -1.9584 -2.7029 -1.9044
 1627SOL     OW16339   1.852   3.938   3.452  0.6766  0.5014  0.1891
 1627SOL    HW116340   1.946   3.921   3.454  0.2231 -2.0782 -0.3884
 1627SOL    HW216341   1.845   4.010   3.514  0.2706  1.1757 -0.6430
 1628SOL     OW16342   2.633   3.922  13.719  0.2625 -0.1128  0.1310
 1628SOL    HW116343   2.563   3.874  13.763 -1.1340 -0.7873 -2.8141
 1628SOL    HW216344   2.717   3.899  13.757  1.3500  0.7701 -1.6976
 1629SOL     OW16345   4.140   0.435  13.812 -0.3252 -0.4588  0.3552
 1629SOL    HW116346   4.167   0.526  13.798 -0.9688 -0.1709  0.9745
 1629SOL    HW216347   4.117   0.416  13.721 -0.2773 -0.2882  0.3084
 1630SOL     OW16348   3.130   3.197   5.459 -0.1276 -0.1029 -0.1110
 1630SOL    HW116349   3.180   3.225   5.535  0.2828  0.6383 -0.6567
 1630SOL    HW216350   3.103   3.277   5.413  0.9360  0.5363  0.3981
 1631SOL     OW16351   4.107   0.524   8.823 -0.3100 -0.1632  1.2281
 1631SOL    HW116352   4.139   0.438   8.793 -1.6594 -1.0502  2.3222
 1631SOL    HW216353   4.148   0.519   8.910 -0.7762  2.1083  1.5688
 1632SOL     OW16354   1.835   4.363   4.195  0.1468 -0.3193 -0.5441
 1632SOL    HW116355   1.823   4.447   4.240  0.2936  0.9940 -3.0037
 1632SOL    HW216356   1.899   4.316   4.249 -0.8171  0.0197  0.9064
 1633SOL     OW16357   4.134   3.773   6.617 -0.0448  0.0151 -0.1332
 1633SOL    HW116358   4.091   3.793   6.700 -1.7307 -0.4746 -0.8806
 1633SOL    HW216359   4.203   3.720   6.657 -1.9265 -1.3705  1.2596
 1634SOL     OW16360   1.769   0.877   6.084  0.4659  0.3723  0.0254
 1634SOL    HW116361   1.847   0.914   6.043 -1.0312  2.3865 -1.0333
 1634SOL    HW216362   1.801   0.856   6.172  0.1089 -2.4251 -0.5230
 1635SOL     OW16363   1.476   1.905   8.296 -0.0439  0.1045  0.6008
 1635SOL    HW116364   1.465   1.985   8.245 -0.9470 -1.9478 -2.4470
 1635SOL    HW216365   1.385   1.886   8.319  0.0017 -1.4709 -0.4995
 1636SOL     OW16366   4.271   0.260   5.942  0.1331 -0.2115 -0.8752
 1636SOL    HW116367   4.270   0.263   6.037  2.0661 -0.4436 -0.8502
 1636SOL    HW216368   4.362   0.229   5.938  1.0193  1.9445  2.9043
 1637SOL     OW16369   2.723   3.772   9.592 -0.2669 -0.1927 -0.3783
 1637SOL    HW116370   2.776   3.718   9.650 -0.1406 -0.2644 -0.5576
 1637SOL    HW216371   2.668   3.824   9.651 -1.3462 -0.1695 -1.3884
 1638SOL     OW16372   4.483   3.392   8.349  0.1183  0.2811 -0.1520
 1638SOL    HW116373   4.535   3.459   8.394  1.2018 -1.6120  1.4077
 1638SOL    HW216374   4.444   3.347   8.423  2.1033 -1.4008 -0.1248
 1639SOL     OW16375   0.718   1.460   6.371 -0.1293  0.2478  0.6425
 1639SOL    HW116376   0.717   1.552   6.342  0.6010  0.1073  0.1618
 1639SOL    HW216377   0.777   1.416   6.308  0.0022  0.0165  0.9282
 1640SOL     OW16378   3.731   3.698   6.222  0.0431  0.3718  0.0893
 1640SOL    HW116379   3.729   3.790   6.194  3.5120 -0.0035 -1.3902
 1640SOL    HW216380   3.794   3.708   6.294 -0.6579 -2.3877  1.0647
 1641SOL     OW16381   3.816   3.961   5.666  0.1621 -0.4518  0.2683
 1641SOL    HW116382   3.858   3.877   5.680  3.3174  0.8457 -1.6390
 1641SOL    HW216383   3.843   4.023   5.734  0.9492 -0.4437 -0.0585
 1642SOL     OW16384   2.913   2.609   3.783  0.2107  0.8696  0.7260
 1642SOL    HW116385   2.909   2.695   3.824  1.9236  2.4382 -2.3632
 1642SOL    HW216386   2.958   2.618   3.699  1.3773 -0.0671  1.2543
 1643SOL     OW16387   1.571   2.032   1.184  0.0390  0.0781 -0.4221
 1643SOL    HW116388   1.626   2.074   1.118  2.0081 -0.5156  0.8628
 1643SOL    HW216389   1.587   1.943   1.153 -0.0657  0.6234 -2.0181
 1644SOL     OW16390   4.490   0.173   6.770 -0.5308  0.0943  0.4515
 1644SOL    HW116391   4.543   0.164   6.690  0.2066 -2.1102  1.1860
 1644SOL    HW216392   4.552   0.202   6.836 -1.1794  0.7103  0.7865
 1645SOL     OW16393   1.348   2.033   4.871 -0.7235  0.0597 -0.0384
 1645SOL    HW116394   1.352   2.007   4.963 -0.0968  0.3054  0.0051
 1645SOL    HW216395   1.409   1.978   4.822 -2.4849 -2.4160  0.5491
 1646SOL     OW16396   3.116   2.223  11.804  0.9609 -0.3135 -0.2904
 1646SOL    HW116397   3.129   2.315  11.779 -1.1126  0.2286  0.6315
 1646SOL    HW216398   3.067   2.182  11.733  0.8626 -0.1032 -0.3440
 1647SOL     OW16399   2.183   4.357   8.656 -0.3998  0.3520 -0.9562
 1647SOL    HW116400   2.261   4.408   8.676 -0.4047 -0.5949  1.4830
 1647SOL    HW216401   2.207   4.318   8.572  1.6622 -0.7034  0.1128
 1648SOL     OW16402   2.897   0.673   5.898  0.3939 -0.3968 -0.9018
 1648SOL    HW116403   2.951   0.616   5.844  3.6913  1.4784  0.4213
 1648SOL    HW216404   2.968   0.709   5.952 -0.2914  0.8502 -0.8409
 1649SOL     OW16405   2.077   4.492   4.055 -0.0234  0.8584  0.0539
 1649SOL    HW116406   2.018   4.530   4.120 -1.2309  2.2312 -1.8356
 1649SOL    HW216407   2.047   4.401   4.062 -0.9972  1.2940  1.7685
 1650SOL     OW16408   1.916   1.275   2.580  0.3035 -0.3482 -0.2366
 1650SOL    HW116409   1.866   1.252   2.658 -0.1850 -1.0356 -0.7507
 1650SOL    HW216410   1.863   1.351   2.554  1.1878 -0.1521 -1.4897
 1651SOL     OW16411   4.067   1.456   4.533  0.3951 -0.0832  0.2158
 1651SOL    HW116412   4.028   1.515   4.468  1.9595 -0.2494 -0.8770
 1651SOL    HW216413   4.071   1.377   4.479 -1.4258  1.7702 -2.6129
 1652SOL     OW16414   0.890   0.548   3.652  0.6049  0.4393 -0.2519
 1652SOL    HW116415   0.914   0.566   3.743  0.7042  0.8806 -0.3650
 1652SOL    HW216416   0.912   0.632   3.611 -0.4103  1.1809  0.7268
 1653SOL     OW16417   3.999   0.345   4.387 -0.0597  0.3316  0.2741
 1653SOL    HW116418   4.052   0.348   4.467  1.6796  3.1429 -0.9641
 1653SOL    HW216419   3.941   0.412   4.423 -2.1280 -2.5744  2.3162
 1654SOL     OW16420   1.088   0.260   9.356 -0.3460  0.6470 -0.0400
 1654SOL    HW116421   1.109   0.353   9.348 -2.0879  0.9463 -1.1888
 1654SOL    HW216422   1.018   0.258   9.421  0.0324 -0.1533  0.3443
 1655SOL     OW16423   0.791   0.039   7.031  0.4732 -0.0210  0.1222
 1655SOL    HW116424   0.799   0.115   6.973  0.3804 -1.5983 -1.9225
 1655SOL    HW216425   0.880   0.024   7.062 -0.1826 -0.4357  1.8046
 1656SOL     OW16426   4.420   2.170   8.965  0.0413  0.2563  0.0308
 1656SOL    HW116427   4.374   2.250   8.991 -1.2837 -0.7278  0.7172
 1656SOL    HW216428   4.398   2.112   9.037  0.2372  1.1214  0.7874
 1657SOL     OW16429   3.534   3.143   8.718  0.0478  0.1395 -0.2237
 1657SOL    HW116430   3.443   3.132   8.747 -1.2605  3.5340 -2.9350
 1657SOL    HW216431   3.529   3.218   8.659 -0.0438  1.2251  1.1474
 1658SOL     OW16432   4.006   1.184   8.391 -0.0515 -0.1197 -0.1068
 1658SOL    HW116433   4.046   1.151   8.471 -0.7976 -0.1902  0.2378
 1658SOL    HW216434   4.033   1.275   8.383 -0.6012 -0.0358 -0.9979
 1659SOL     OW16435   0.683   2.358   5.343 -0.5855  0.3673  0.8315
 1659SOL    HW116436   0.669   2.440   5.295  1.0421 -1.0841 -2.0992
 1659SOL    HW216437   0.619   2.298   5.303 -0.9606  1.7231 -0.5897
 1660SOL     OW16438   0.656   0.269   9.819 -0.3260 -0.3400  0.0415
 1660SOL    HW116439   0.706   0.334   9.869 -1.9331  0.0693  1.1055
 1660SOL    HW216440   0.717   0.215   9.768  1.5073  2.9212 -1.2449
 1661SOL     OW16441   0.037   0.392  12.905 -0.3523  0.1568  0.0698
 1661SOL    HW116442   0.037   0.443  12.824 -0.0021 -1.0321 -0.6817
 1661SOL    HW216443   0.024   0.455  12.976 -1.2767 -0.8111  0.7615
 1662SOL     OW16444   3.252   2.464   1.783 -0.6443 -0.1420 -0.8019
 1662SOL    HW116445   3.277   2.547   1.741 -0.9726  0.9654  1.1659
 1662SOL    HW216446   3.222   2.418   1.705 -2.8461 -2.1069  1.1978
 1663SOL     OW16447   3.782   3.970  15.567 -0.7719 -0.4511  0.5036
 1663SOL    HW116448   3.803   3.934  15.481  0.1937 -0.1896  0.6205
 1663SOL    HW216449   3.752   4.056  15.539 -0.0457  0.3403  2.1091
 1664SOL     OW16450   2.431   3.588  11.541  0.2636  0.4152 -0.1060
 1664SOL    HW116451   2.429   3.667  11.487  1.6822  0.6004  0.0948
 1664SOL    HW216452   2.341   3.579  11.571 -0.1713 -3.7041 -2.6991
 1665SOL     OW16453   1.664   1.644   8.181  0.1788  0.0211 -0.6959
 1665SOL    HW116454   1.643   1.573   8.243  2.1605 -1.8121 -2.1153
 1665SOL    HW216455   1.665   1.715   8.245 -2.6548  0.2881 -0.9570
 1666SOL     OW16456   1.025   4.615   0.984  0.7280  0.7327 -0.0010
 1666SOL    HW116457   0.997   4.639   0.896 -2.0109  0.1404  0.7050
 1666SOL    HW216458   0.952   4.652   1.034  0.1553 -1.8890  1.0931
 1667SOL     OW16459   1.181   3.826   7.119  0.0489  1.1652 -0.4901
 1667SOL    HW116460   1.126   3.857   7.191 -0.5460 -1.1128  0.0520
 1667SOL    HW216461   1.199   3.734   7.140  1.3735  0.9105 -2.6659
 1668SOL     OW16462   4.248   2.424  14.169 -0.9215  0.2481  0.5540
 1668SOL    HW116463   4.237   2.519  14.178 -1.4415  0.1008  1.4731
 1668SOL    HW216464   4.157   2.398  14.187 -0.7112 -1.8248 -1.3743
 1669SOL     OW16465   0.695   2.718  16.868  0.0933  0.3963  0.5184
 1669SOL    HW116466   0.759   2.669  16.920 -0.6265 -2.0628 -0.9644
 1669SOL    HW216467   0.727   2.809  16.871 -0.3714  0.6378 -1.8415
 1670SOL     OW16468   3.347   0.993   3.145  0.8223  0.2044  0.4298
 1670SOL    HW116469   3.338   0.917   3.087  0.2121  0.6547 -0.0534
 1670SOL    HW216470   3.433   1.031   3.126  1.2852 -1.2431 -0.3808
 1671SOL     OW16471   2.690   3.940   8.791  0.3356 -0.1182  0.0416
 1671SOL    HW116472   2.707   3.848   8.811 -1.0135 -0.7290 -1.6299
 1671SOL    HW216473   2.697   3.987   8.874  1.8048  1.2637 -0.8575
 1672SOL     OW16474   1.347   0.545   3.127  0.2192  0.2191  0.1615
 1672SOL    HW116475   1.334   0.467   3.072  2.0450  0.4260 -0.5489
 1672SOL    HW216476   1.384   0.603   3.060 -0.8752 -0.5788 -1.1373
 1673SOL     OW16477   3.997   0.112  15.874  0.0789 -0.5302  0.5312
 1673SOL    HW116478   3.969   0.107  15.966  1.8050 -0.8256  1.0469
 1673SOL    HW216479   3.917   0.151  15.838  0.5281  0.8395  1.0126
 1674SOL     OW16480   3.950   2.350   7.656  0.9600 -0.5130  0.3733
 1674SOL    HW116481   3.957   2.351   7.751 -4.0495 -2.4154  0.7664
 1674SOL    HW216482   3.914   2.437   7.639  1.1391 -0.5127 -0.0126
 1675SOL     OW16483   4.283   4.418   5.517  0.6788 -0.4048  0.0662
 1675SOL    HW116484   4.199   4.397   5.557 -0.0536 -0.2765 -1.4222
 1675SOL    HW216485   4.311   4.487   5.578 -1.4207  2.1311 -1.8516
 1676SOL     OW16486   1.854   1.972   8.804 -0.2208 -0.1811 -0.0386
 1676SOL    HW116487   1.779   1.976   8.863 -2.5022  1.2249 -3.0639
 1676SOL    HW216488   1.929   1.986   8.862  0.9371 -2.4552 -0.9750
 1677SOL     OW16489   1.021   2.114   3.653 -0.0025  0.3448 -0.4732
 1677SOL    HW116490   0.973   2.090   3.573 -0.0634  1.6171 -0.8207
 1677SOL    HW216491   0.961   2.184   3.680 -0.2627 -0.8864  2.1181
 1678SOL     OW16492   3.867   4.106   5.916 -0.1884 -0.0641  0.0573
 1678SOL    HW116493   3.946   4.059   5.943  1.6930  2.5219 -0.9363
 1678SOL    HW216494   3.867   4.192   5.958  1.8723  0.3013 -0.6659
 1679SOL     OW16495   4.672   1.039  11.616  0.3968 -0.0004 -0.1738
 1679SOL    HW116496   0.023   0.993  11.659 -0.8721 -0.2569  1.7054
 1679SOL    HW216497   4.721   1.122  11.609  0.7520 -0.4880 -3.2199
 1680SOL     OW16498   2.332   3.043   5.847 -0.3119  0.2207 -0.3159
 1680SOL    HW116499   2.328   2.992   5.767 -1.7851  0.5667 -0.4538
 1680SOL    HW216500   2.420   3.014   5.871 -1.1279 -1.5957  0.5032
 1681SOL     OW16501   3.667   4.018   2.804  0.3412  0.4318  0.1620
 1681SOL    HW116502   3.613   3.950   2.845  0.3980 -0.4978 -1.3246
 1681SOL    HW216503   3.642   4.092   2.859 -0.0164 -0.4902  1.2512
 1682SOL     OW16504   4.450   0.010   8.884 -0.2645  0.4198  0.6374
 1682SOL    HW116505   4.476   4.674   8.957  0.1719 -2.6186 -1.8782
 1682SOL    HW216506   4.495   4.672   8.823  0.7864  2.0474 -0.1596
 1683SOL     OW16507   3.212   2.451   5.658 -0.4206  0.1213  0.6612
 1683SOL    HW116508   3.296   2.461   5.612  0.1132 -2.7205  1.0132
 1683SOL    HW216509   3.195   2.539   5.692 -1.8880  0.2470 -0.4237
 1684SOL     OW16510   3.034   2.478   1.956 -0.1692 -0.1661  0.0187
 1684SOL    HW116511   3.121   2.472   1.918 -1.2012  2.3852 -2.7494
 1684SOL    HW216512   2.992   2.406   1.907  2.2203 -2.3271  1.1456
 1685SOL     OW16513   3.458   2.488   2.703  0.1663  0.2512 -0.5245
 1685SOL    HW116514   3.419   2.575   2.708  1.9782  1.0151  0.2898
 1685SOL    HW216515   3.529   2.493   2.640  2.7613 -0.4047  2.3361
 1686SOL     OW16516   1.019   1.333   3.525 -0.6608  0.0495  0.4854
 1686SOL    HW116517   1.052   1.388   3.454 -0.1138 -0.6589  0.1869
 1686SOL    HW216518   1.089   1.270   3.545 -0.0510 -0.1061 -2.1199
 1687SOL     OW16519   0.337   0.733   2.487 -0.2133  0.2072  0.4471
 1687SOL    HW116520   0.373   0.687   2.563  0.0927 -0.8260 -0.3286
 1687SOL    HW216521   0.412   0.756   2.433 -0.8222  0.0386 -0.4610
 1688SOL     OW16522   2.916   3.325  15.666  0.1591  0.6756 -0.2281
 1688SOL    HW116523   2.880   3.358  15.583  3.2135  1.2237 -1.3386
 1688SOL    HW216524   2.953   3.241  15.637  0.8171  0.6200  0.7778
 1689SOL     OW16525   0.177   3.302   3.013  0.2460  0.6570 -0.1136
 1689SOL    HW116526   0.196   3.321   3.105  0.7993 -3.9737  0.7334
 1689SOL    HW216527   0.108   3.237   3.024  0.0171  1.1739  1.4803
 1690SOL     OW16528   2.776   0.455   3.936 -0.1224 -0.3732  0.3975
 1690SOL    HW116529   2.822   0.535   3.910 -1.2856  0.1004 -0.2171
 1690SOL    HW216530   2.845   0.389   3.943 -1.7542 -2.0229  1.0041
 1691SOL     OW16531   0.176   2.633   8.624  0.3400 -0.3352  0.4291
 1691SOL    HW116532   0.142   2.722   8.623  0.3541 -0.3559 -2.9103
 1691SOL    HW216533   0.262   2.637   8.582  0.6528  1.1801  1.2376
 1692SOL     OW16534   4.570   4.033   6.763  0.0713  0.4782 -0.3783
 1692SOL    HW116535   4.564   4.077   6.848 -3.1238 -1.9422  0.6278
 1692SOL    HW216536   4.614   3.950   6.785 -1.9485 -1.1417 -2.4891
 1693SOL     OW16537   2.978   3.704  14.713  0.1643  0.2627  0.0063
 1693SOL    HW116538   2.935   3.751  14.784 -2.4495  0.4915 -1.7333
 1693SOL    HW216539   2.939   3.736  14.632  0.2245  0.6291  0.1244
 1694SOL     OW16540   3.477   1.708   2.541  0.3304 -0.1883  0.1523
 1694SOL    HW116541   3.531   1.779   2.576 -1.0989  1.4937 -0.9909
 1694SOL    HW216542   3.539   1.649   2.498 -0.3220 -0.8821  0.1742
 1695SOL     OW16543   1.044   1.401   5.900  0.8668 -0.6097 -0.1172
 1695SOL    HW116544   0.981   1.468   5.924  0.5304 -0.5512 -1.1514
 1695SOL    HW216545   1.117   1.417   5.959  0.4303  2.1856 -0.3398
 1696SOL     OW16546   3.965   0.913  15.142 -0.2234  0.5517 -0.0116
 1696SOL    HW116547   3.917   0.905  15.224  0.0947 -0.3694  0.0831
 1696SOL    HW216548   3.946   1.002  15.111  1.2854 -0.1502 -2.9860
 1697SOL     OW16549   3.053   4.237   0.740 -0.1066  0.1599  0.1467
 1697SOL    HW116550   3.078   4.161   0.792 -3.2896 -1.5672 -0.8468
 1697SOL    HW216551   3.020   4.200   0.658 -1.7323  1.6575  0.1256
 1698SOL     OW16552   0.106   0.772   7.163  0.1324  0.1493  0.4812
 1698SOL    HW116553   0.047   0.790   7.090  0.5768  2.7646  0.7533
 1698SOL    HW216554   0.185   0.811   7.124 -1.8122  0.7848 -2.8597
 1699SOL     OW16555   1.805   3.169  16.925  0.2253  0.1166  0.3264
 1699SOL    HW116556   1.759   3.222  16.860  1.4695  1.9004  0.9054
 1699SOL    HW216557   1.892   3.161  16.885 -0.0144  1.5004 -0.4469
 1700SOL     OW16558   2.602   3.121   4.073 -0.1283  0.0924 -0.5573
 1700SOL    HW116559   2.602   3.034   4.111  0.0709  0.8286  1.1261
 1700SOL    HW216560   2.599   3.108   3.979  0.4776 -1.5375 -0.3365
 1701SOL     OW16561   4.126   0.212  16.581  0.0090 -0.0876  0.1228
 1701SOL    HW116562   4.191   0.182  16.645 -0.0222  1.0654  0.6992
 1701SOL    HW216563   4.188   0.221  16.508  0.2195 -1.1350  0.1770
 1702SOL     OW16564   3.555   4.158  15.901 -0.6727 -0.7135 -0.2524
 1702SOL    HW116565   3.522   4.245  15.877 -0.3927 -1.2337 -2.5055
 1702SOL    HW216566   3.637   4.173  15.947 -0.5995 -0.8935 -0.3256
 1703SOL     OW16567   3.365   2.460   3.386 -0.5200 -0.3210  0.3227
 1703SOL    HW116568   3.423   2.384   3.382  0.8831  0.8223 -0.9140
 1703SOL    HW216569   3.326   2.456   3.298 -4.1190  0.0527  1.8858
 1704SOL     OW16570   0.130   2.878   4.785  0.2556 -0.1589 -0.0860
 1704SOL    HW116571   0.044   2.859   4.747  0.9784  0.7328 -2.1778
 1704SOL    HW216572   0.180   2.809   4.742  0.3570  0.1412 -0.4400
 1705SOL     OW16573   3.232   2.820   8.334 -0.2085  0.9506 -0.1998
 1705SOL    HW116574   3.147   2.831   8.376 -1.3612  0.5607 -2.4443
 1705SOL    HW216575   3.293   2.839   8.406  1.6312 -0.8936 -1.2939
 1706SOL     OW16576   2.606   2.193   3.721  0.1079  0.8497 -0.6299
 1706SOL    HW116577   2.565   2.185   3.807  0.6505  3.5972 -0.1133
 1706SOL    HW216578   2.695   2.165   3.746 -0.8533 -2.2771 -0.7108
 1707SOL     OW16579   1.118   3.052  17.362  0.5116  0.6833  0.4841
 1707SOL    HW116580   1.209   3.046  17.334  0.0400  0.4606 -1.0511
 1707SOL    HW216581   1.085   2.968  17.332  0.3180  0.6606  0.7705
 1708SOL     OW16582   1.325   3.622   3.428  0.5204  0.1662 -0.1482
 1708SOL    HW116583   1.243   3.662   3.400 -0.0905 -2.0358 -1.4760
 1708SOL    HW216584   1.380   3.697   3.406  0.2133 -0.3500 -2.6418
 1709SOL     OW16585   1.308   1.727  12.097 -0.0111  0.2985  0.0553
 1709SOL    HW116586   1.271   1.731  12.009 -0.9808  0.0228  0.4544
 1709SOL    HW216587   1.379   1.665  12.080 -1.6185 -2.1731  2.1390
 1710SOL     OW16588   0.623   2.200   2.748  0.1411  0.0806  0.2044
 1710SOL    HW116589   0.579   2.161   2.672 -2.6106  0.0752  1.7814
 1710SOL    HW216590   0.673   2.122   2.770 -0.6965  0.3341  3.0882
 1711SOL     OW16591   3.399   4.630   3.358 -0.5435  0.4662  0.1746
 1711SOL    HW116592   3.404   4.657   3.449  0.1948  0.3855  0.1636
 1711SOL    HW216593   3.304   4.626   3.350 -0.5265  0.6769 -0.1518
 1712SOL     OW16594   0.465   3.285   6.112 -0.8667 -0.0224  0.3709
 1712SOL    HW116595   0.433   3.221   6.049  0.2351  1.3754 -1.6109
 1712SOL    HW216596   0.524   3.223   6.155  0.4348  1.4456  0.7596
 1713SOL     OW16597   4.411   3.308  17.290  0.0002  0.4056  0.5912
 1713SOL    HW116598   4.421   3.368  17.216 -1.1154 -2.1145 -1.5989
 1713SOL    HW216599   4.500   3.298  17.322 -0.2774 -2.1152  0.5678
 1714SOL     OW16600   3.005   2.479  16.341 -0.4050  0.4056 -0.2991
 1714SOL    HW116601   2.912   2.501  16.346 -0.8666 -1.8196  1.1030
 1714SOL    HW216602   3.030   2.452  16.429  0.8760 -1.5542 -1.2673
 1715SOL     OW16603   0.499   1.836   3.491 -0.4548  0.3860  0.5158
 1715SOL    HW116604   0.491   1.757   3.437 -2.9241  0.8583  0.1722
 1715SOL    HW216605   0.544   1.896   3.432 -2.0397  0.3368 -0.7454
 1716SOL     OW16606   4.306   2.703  13.940 -0.1794  0.0434  0.6772
 1716SOL    HW116607   4.226   2.750  13.915 -0.2828  0.5863  2.0206
 1716SOL    HW216608   4.289   2.616  13.906 -0.7605  0.0294  1.0025
 1717SOL     OW16609   2.451   1.691   3.432  0.2515  0.3173 -0.1335
 1717SOL    HW116610   2.377   1.734   3.389 -0.0513 -0.1243 -0.0449
 1717SOL    HW216611   2.520   1.757   3.441 -0.1694  1.1714 -2.9790
 1718SOL     OW16612   4.184   4.515  15.032 -0.6315 -0.5748 -0.1699
 1718SOL    HW116613   4.238   4.487  14.958  0.9674  1.1774  0.3290
 1718SOL    HW216614   4.148   4.598  15.001 -0.9354 -0.8300 -0.4952
 1719SOL     OW16615   3.338   4.173   3.698 -0.0452  0.6439 -0.2569
 1719SOL    HW116616   3.402   4.130   3.754  0.1232 -0.3971 -1.2595
 1719SOL    HW216617   3.279   4.192   3.770 -0.7078 -0.8990 -0.3884
 1720SOL     OW16618   1.369   0.877   8.291  0.0443 -0.2696 -0.3669
 1720SOL    HW116619   1.332   0.905   8.207  2.3479  0.9715 -0.9888
 1720SOL    HW216620   1.423   0.951   8.318  1.0805  0.3143 -3.9198
 1721SOL     OW16621   0.969   4.361   8.682 -0.1729  0.0762 -0.4948
 1721SOL    HW116622   0.922   4.282   8.656 -0.0627  0.5927 -2.3071
 1721SOL    HW216623   1.047   4.315   8.713 -0.9613 -1.8890 -1.4124
 1722SOL     OW16624   3.895   1.625   7.593  0.3919  0.4545  0.0650
 1722SOL    HW116625   3.976   1.666   7.623 -0.1974  0.5494  1.5157
 1722SOL    HW216626   3.842   1.687   7.543 -1.9936  0.1211  2.1610
 1723SOL     OW16627   1.715   4.694   9.041 -0.2286 -0.0455  0.3784
 1723SOL    HW116628   1.705   0.068   9.034  0.9165  0.0951  0.5924
 1723SOL    HW216629   1.720   4.673   9.134 -0.3502 -2.4430 -0.1721
 1724SOL     OW16630   2.437   1.716   4.116  0.4331 -0.0656 -0.1601
 1724SOL    HW116631   2.409   1.699   4.026 -1.3592 -0.8347  0.5349
 1724SOL    HW216632   2.525   1.751   4.103  0.9985 -0.6295  2.1927
 1725SOL     OW16633   3.902   2.431   1.804 -0.3926 -0.7768 -0.3325
 1725SOL    HW116634   3.833   2.394   1.748  0.0613 -0.1821 -1.2968
 1725SOL    HW216635   3.972   2.444   1.740 -1.4321  3.7966 -0.5243
 1726SOL     OW16636   2.360   1.503   3.592  0.0386  0.2555 -0.2690
 1726SOL    HW116637   2.395   1.574   3.539 -0.1895 -0.2971 -1.1680
 1726SOL    HW216638   2.402   1.424   3.557  1.5532  0.1586  1.8048
 1727SOL     OW16639   1.855   3.735   8.750 -0.3294 -0.2467 -1.0208
 1727SOL    HW116640   1.779   3.693   8.791  0.9237  0.2250  1.7993
 1727SOL    HW216641   1.865   3.806   8.813 -1.4822 -0.1752 -0.9032
 1728SOL     OW16642   0.842   0.517   6.139  0.2159  0.3137  0.2972
 1728SOL    HW116643   0.805   0.471   6.064  0.1959  2.1816 -0.8640
 1728SOL    HW216644   0.792   0.475   6.207  1.3781  1.6794  2.0081
 1729SOL     OW16645   0.641   2.232   7.579  0.6215 -0.3264  0.0792
 1729SOL    HW116646   0.668   2.324   7.575  1.1085 -0.4223  1.0176
 1729SOL    HW216647   0.569   2.234   7.516  0.7984  1.1358 -0.0786
 1730SOL     OW16648   0.788   4.566   3.982  0.4477 -0.4448  0.0987
 1730SOL    HW116649   0.783   4.661   3.986 -3.0129 -0.6200  0.1827
 1730SOL    HW216650   0.826   4.540   4.066 -1.5670 -0.6680  0.9599
 1731SOL     OW16651   3.875   4.556  10.168  0.6579 -0.4349 -0.6980
 1731SOL    HW116652   3.854   4.492  10.101 -0.6599 -0.6657 -0.0841
 1731SOL    HW216653   3.822   4.632  10.142  1.8386  0.2483 -1.0754
 1732SOL     OW16654   3.982   1.211   6.000 -0.0665  0.2069 -0.1590
 1732SOL    HW116655   3.937   1.234   5.918 -0.9573  1.0679  0.5717
 1732SOL    HW216656   4.022   1.128   5.973 -1.2953 -0.3637 -0.2490
 1733SOL     OW16657   1.877   1.361   6.651 -0.0113 -0.1615  0.3459
 1733SOL    HW116658   1.968   1.388   6.636  0.3113 -1.2245  0.3353
 1733SOL    HW216659   1.878   1.370   6.746 -1.6921 -0.0622  0.3507
 1734SOL     OW16660   4.264   4.398   8.511 -0.1937 -0.3816 -0.2828
 1734SOL    HW116661   4.238   4.310   8.540  0.6581 -0.9765 -1.3297
 1734SOL    HW216662   4.189   4.419   8.456  1.1980 -0.3085 -2.1366
 1735SOL     OW16663   4.363   3.867   3.029  0.1011  0.0663 -0.2311
 1735SOL    HW116664   4.390   3.828   3.112 -0.6366 -1.6381 -0.7937
 1735SOL    HW216665   4.430   3.827   2.974 -0.2251 -0.4414 -0.2624
 1736SOL     OW16666   0.482   2.563   3.467  0.5129  0.4883 -0.3414
 1736SOL    HW116667   0.417   2.504   3.504  0.4849  0.6178 -0.1801
 1736SOL    HW216668   0.429   2.643   3.458 -0.5989 -0.3240 -1.0012
 1737SOL     OW16669   0.992   0.454   8.592 -0.3786  0.4770 -0.2349
 1737SOL    HW116670   1.066   0.455   8.530 -1.4253  0.6382 -1.4817
 1737SOL    HW216671   0.960   0.366   8.572  3.7253 -0.4340 -3.0128
 1738SOL     OW16672   2.059   2.522   1.546  0.3000  0.1932 -0.5045
 1738SOL    HW116673   1.989   2.551   1.605  2.5016 -1.9662  3.1989
 1738SOL    HW216674   2.063   2.427   1.557  1.4530  0.1783 -1.0383
 1739SOL     OW16675   0.491   2.838   4.816 -0.3187  0.3159 -0.2541
 1739SOL    HW116676   0.406   2.809   4.785 -0.2866 -2.1497  1.9975
 1739SOL    HW216677   0.529   2.850   4.729  1.5960 -0.6418  0.4394
 1740SOL     OW16678   1.271   3.840   6.651  0.4134  0.8406 -0.2501
 1740SOL    HW116679   1.247   3.808   6.564  1.2298  3.2296 -1.3708
 1740SOL    HW216680   1.320   3.763   6.678 -2.2571 -0.2627  1.4174
 1741SOL     OW16681   2.651   1.555   6.824 -0.1586  0.0011  0.9520
 1741SOL    HW116682   2.705   1.628   6.794 -1.1643 -0.1409 -1.1893
 1741SOL    HW216683   2.577   1.551   6.764  0.5032 -1.8832  0.2370
 1742SOL     OW16684   4.670   4.622   8.691 -0.2103  0.0697  0.2120
 1742SOL    HW116685   4.600   4.658   8.638  1.8627  0.4713 -2.2298
 1742SOL    HW216686   0.029   4.667   8.665 -0.7246  1.0430  0.3388
 1743SOL     OW16687   4.027   4.089  14.051 -0.3153 -0.2329 -0.2218
 1743SOL    HW116688   4.005   4.122  14.138 -1.1917 -0.5440 -0.3210
 1743SOL    HW216689   4.001   4.154  13.986  0.4882  0.5095  0.2034
 1744SOL     OW16690   1.744   2.617   9.787  0.0911  0.0391  0.0146
 1744SOL    HW116691   1.717   2.604   9.696 -1.5289 -1.8322  0.7776
 1744SOL    HW216692   1.705   2.702   9.809  1.5024  0.2174  1.8838
 1745SOL     OW16693   2.505   2.113  10.834  0.2915 -0.0603  0.2870
 1745SOL    HW116694   2.460   2.174  10.891  2.4445 -0.4722  2.4195
 1745SOL    HW216695   2.423   2.067  10.815  0.5331 -0.2727 -0.2362
 1746SOL     OW16696   1.377   2.020   3.835 -0.9217  0.0063  0.1047
 1746SOL    HW116697   1.372   2.064   3.750  2.7140 -1.7919 -1.0483
 1746SOL    HW216698   1.297   1.967   3.840  0.2184 -1.6441  1.0612
 1747SOL     OW16699   0.427   4.651   2.334 -0.5369  0.0362  0.4898
 1747SOL    HW116700   0.361   4.707   2.292 -0.7326  0.2056  1.0292
 1747SOL    HW216701   0.399   4.649   2.425 -2.0342 -1.3263  0.0138
 1748SOL     OW16702   1.774   0.267   9.468  0.1622  1.0450  0.1727
 1748SOL    HW116703   1.749   0.178   9.446  1.1429  0.8346 -0.0808
 1748SOL    HW216704   1.733   0.277   9.553  0.8471 -0.6250  0.6915
 1749SOL     OW16705   2.859   3.192   7.542  0.0667  0.2566  0.4038
 1749SOL    HW116706   2.878   3.144   7.623  0.1817 -1.5245 -0.6791
 1749SOL    HW216707   2.768   3.168   7.524  0.8937 -2.1133 -0.5975
 1750SOL     OW16708   3.601   4.469   6.164  0.0179  0.1816  0.3166
 1750SOL    HW116709   3.686   4.492   6.201  0.0799 -0.2465  0.4422
 1750SOL    HW216710   3.554   4.532   6.218 -2.2613  0.3522 -1.8651
 1751SOL     OW16711   0.981   4.642   7.851 -0.3275  0.0828 -0.2270
 1751SOL    HW116712   1.027   4.610   7.774  0.5255 -0.8851  0.6728
 1751SOL    HW216713   1.023   0.007   7.858 -2.0938  0.7604  2.1507
 1752SOL     OW16714   2.434   1.757   2.859  0.0904 -0.0470 -0.6240
 1752SOL    HW116715   2.484   1.677   2.873 -0.4499 -0.1546  0.6432
 1752SOL    HW216716   2.400   1.741   2.771 -0.4140  0.7213 -0.5701
 1753SOL     OW16717   1.737   2.175   3.337  0.0385 -0.3585  0.7369
 1753SOL    HW116718   1.688   2.096   3.361 -1.1429  0.5952  1.5190
 1753SOL    HW216719   1.670   2.225   3.289  2.2683 -1.1075 -3.1303
 1754SOL     OW16720   4.160   0.870   5.727  0.3587 -0.6383 -0.5853
 1754SOL    HW116721   4.239   0.829   5.762  1.3140  2.1295  0.5501
 1754SOL    HW216722   4.142   0.836   5.640  1.5059  1.5171 -1.6612
 1755SOL     OW16723   4.195   0.763   4.911 -0.6415  0.4240  0.0858
 1755SOL    HW116724   4.141   0.807   4.976 -1.0650  0.9972 -0.6533
 1755SOL    HW216725   4.206   0.826   4.840  0.4788  2.1397  1.7539
 1756SOL     OW16726   2.838   2.248   8.546  0.2532  0.1708  0.5591
 1756SOL    HW116727   2.900   2.185   8.510 -2.1289 -1.5662 -0.5396
 1756SOL    HW216728   2.762   2.236   8.488  0.0123 -2.6255  1.4242
 1757SOL     OW16729   1.106   2.457   7.007  0.6336  0.1192  0.0461
 1757SOL    HW116730   1.125   2.510   6.930  0.5536 -0.9841 -0.7390
 1757SOL    HW216731   1.156   2.500   7.075 -0.1777  1.3977 -0.1656
 1758SOL     OW16732   2.872   4.624  12.400 -0.1713  0.4151 -0.4406
 1758SOL    HW116733   2.826   4.704  12.373  0.0506  0.0069 -2.0645
 1758SOL    HW216734   2.840   4.612  12.489  1.7199 -0.7698  0.0690
 1759SOL     OW16735   4.642   2.045   6.643 -0.2557 -0.0402  0.1050
 1759SOL    HW116736   4.595   2.082   6.718 -0.5349  0.8981 -0.5380
 1759SOL    HW216737   4.628   2.111   6.576  3.0682  1.9018  1.2767
 1760SOL     OW16738   3.045   4.470   7.268  0.6670 -0.4895  1.0531
 1760SOL    HW116739   3.002   4.539   7.217 -1.9582 -3.5135 -0.8488
 1760SOL    HW216740   3.130   4.513   7.276  0.3654  0.0561  1.3309
 1761SOL     OW16741   3.430   2.507  11.904 -0.7251 -0.3099 -0.5135
 1761SOL    HW116742   3.446   2.487  11.812 -0.0703 -1.1815 -0.2058
 1761SOL    HW216743   3.377   2.586  11.889  1.4041  0.9163 -1.5537
 1762SOL     OW16744   1.066   2.848  12.329  0.4277 -0.0780 -1.0317
 1762SOL    HW116745   1.015   2.897  12.265  0.9542  0.6786 -0.8782
 1762SOL    HW216746   1.055   2.755  12.310 -0.6333 -0.5547  1.8131
 1763SOL     OW16747   1.671   2.779   2.976  0.1659  0.5207 -0.1543
 1763SOL    HW116748   1.598   2.833   3.007  1.1980  1.4349  0.6800
 1763SOL    HW216749   1.667   2.698   3.027 -2.1703  0.4598 -0.4509
 1764SOL     OW16750   3.581   2.829   4.429 -0.1744  0.0983  0.1281
 1764SOL    HW116751   3.583   2.737   4.456 -2.7106 -0.0870 -0.2705
 1764SOL    HW216752   3.674   2.849   4.423 -0.2845  0.3900 -0.5831
 1765SOL     OW16753   1.731   1.093   5.213 -0.2078  0.7203  0.3847
 1765SOL    HW116754   1.683   1.149   5.152 -0.7016 -1.4685 -1.2409
 1765SOL    HW216755   1.714   1.134   5.298  0.0059 -3.3343  2.4168
 1766SOL     OW16756   4.223   2.086  17.271 -0.1370  0.2789 -0.3187
 1766SOL    HW116757   4.162   2.061  17.341  1.1612 -0.6174  0.5015
 1766SOL    HW216758   4.283   2.014  17.291  0.9137  0.2496 -3.4980
 1767SOL     OW16759   3.827   3.399  10.809 -0.3828  0.8132 -0.3044
 1767SOL    HW116760   3.819   3.368  10.899  0.2127  0.5503 -0.3404
 1767SOL    HW216761   3.740   3.437  10.808 -1.1174 -0.8230  1.4072
 1768SOL     OW16762   4.537   1.388   0.747 -0.4782 -0.0569 -0.1464
 1768SOL    HW116763   4.507   1.450   0.814 -0.0301 -1.5333  1.3921
 1768SOL    HW216764   4.455   1.358   0.709 -0.4162  0.6141 -0.8084
 1769SOL     OW16765   4.303   2.094   6.337  0.4348 -1.0706  0.1137
 1769SOL    HW116766   4.310   2.105   6.432  1.1963  0.4793 -0.1288
 1769SOL    HW216767   4.208   2.100   6.326  0.4808  1.6015  1.2481
 1770SOL     OW16768   0.104   2.975   3.487  0.7760 -0.2067 -0.1780
 1770SOL    HW116769   0.017   3.013   3.474  1.5364  1.5388 -0.0692
 1770SOL    HW216770   0.087   2.939   3.574  2.1226 -0.7383 -0.1435
 1771SOL     OW16771   1.779   4.638   8.163 -0.2377 -0.5082 -0.3324
 1771SOL    HW116772   1.830   4.563   8.193  1.1786  0.2628 -0.8206
 1771SOL    HW216773   1.755   4.682   8.244 -0.4251 -0.2940 -0.5042
 1772SOL     OW16774   0.705   4.122   0.110 -0.1306 -0.3170  0.5280
 1772SOL    HW116775   0.775   4.156   0.055 -0.3688  0.7672  0.9054
 1772SOL    HW216776   0.752   4.056   0.161  0.9071 -1.1982 -1.5881
 1773SOL     OW16777   2.736   1.612   8.222  0.1455 -0.3819 -0.7799
 1773SOL    HW116778   2.732   1.528   8.268  0.5643  1.1470  2.0370
 1773SOL    HW216779   2.816   1.652   8.257 -0.3798 -2.3202  2.5299
 1774SOL     OW16780   2.906   3.876   1.470 -0.1097 -0.0358  0.0534
 1774SOL    HW116781   2.985   3.899   1.520 -1.1833 -1.2414  2.2918
 1774SOL    HW216782   2.860   3.835   1.543  0.0119 -1.3021 -0.5948
 1775SOL     OW16783   1.675   0.693   2.159  0.3271 -0.0518 -0.4227
 1775SOL    HW116784   1.683   0.733   2.072 -0.6019  1.3910  0.1570
 1775SOL    HW216785   1.584   0.718   2.172  0.3410 -0.6118  0.7060
 1776SOL     OW16786   0.862   3.320   9.081  0.1743 -1.3568 -0.0590
 1776SOL    HW116787   0.911   3.389   9.036  0.8772 -1.0546  1.1541
 1776SOL    HW216788   0.928   3.254   9.101 -1.3535 -2.3823  1.5421
 1777SOL     OW16789   4.670   2.305   6.530  0.1653  0.3230  0.1144
 1777SOL    HW116790   4.673   2.296   6.625  0.7571  0.2894  0.0937
 1777SOL    HW216791   4.669   2.401   6.530  1.0612  0.3327  1.6622
 1778SOL     OW16792   1.509   2.369   8.666  0.0013 -0.1807 -0.4307
 1778SOL    HW116793   1.599   2.371   8.634  0.2613 -0.4162  0.2977
 1778SOL    HW216794   1.477   2.290   8.622 -2.2422  0.5851 -0.1641
 1779SOL     OW16795   0.240   0.242   9.719  0.7909 -0.4989 -0.0690
 1779SOL    HW116796   0.312   0.243   9.656  1.3630  0.3629  0.5924
 1779SOL    HW216797   0.279   0.281   9.798 -1.7374  0.6297  0.6297
 1780SOL     OW16798   3.036   3.916   3.599 -0.2832 -0.4805 -0.0593
 1780SOL    HW116799   2.960   3.882   3.553 -1.5085 -0.0312  1.6272
 1780SOL    HW216800   3.084   3.949   3.523  1.7289  1.8361  2.2352
 1781SOL     OW16801   1.090   3.392  11.441 -0.2585 -0.3229 -0.0222
 1781SOL    HW116802   1.055   3.446  11.511 -0.1090 -1.0487  0.6186
 1781SOL    HW216803   1.087   3.301  11.471 -1.0638 -0.4270 -0.4204
 1782SOL     OW16804   4.556   1.305   6.178  0.6902  0.0778  0.3302
 1782SOL    HW116805   4.627   1.344   6.229  0.3027 -0.3258  1.1808
 1782SOL    HW216806   4.551   1.363   6.102 -0.3409  0.8697  0.9884
 1783SOL     OW16807   1.539   3.021   8.648  0.6697  0.0479  0.2544
 1783SOL    HW116808   1.602   3.012   8.577 -0.0817 -1.2026 -0.2449
 1783SOL    HW216809   1.543   2.928   8.672 -0.0751 -0.3823 -1.3385
 1784SOL     OW16810   0.744   4.463   6.777 -0.1258 -0.3238 -0.0127
 1784SOL    HW116811   0.786   4.481   6.861  0.2195 -2.1324  0.1914
 1784SOL    HW216812   0.735   4.369   6.792  0.3048 -0.7265 -2.3381
 1785SOL     OW16813   0.145   0.805  13.717 -1.0742  0.1845  0.1716
 1785SOL    HW116814   0.193   0.876  13.674 -0.0520 -0.0887  0.8690
 1785SOL    HW216815   0.125   0.855  13.796 -3.7059  2.3014 -1.7975
 1786SOL     OW16816   1.135   4.463  16.411 -0.4712 -0.2236  0.3933
 1786SOL    HW116817   1.153   4.506  16.495  0.6832  0.2749 -0.1158
 1786SOL    HW216818   1.074   4.520  16.364 -1.5366  0.4094  2.4969
 1787SOL     OW16819   3.510   1.343   2.527 -0.2911  0.6326 -0.6533
 1787SOL    HW116820   3.509   1.272   2.463  0.7447  0.3435 -0.3345
 1787SOL    HW216821   3.541   1.415   2.471 -0.6658  0.5186 -1.0083
 1788SOL     OW16822   2.053   1.828   4.258 -0.3795 -0.3110  0.0270
 1788SOL    HW116823   1.968   1.865   4.231 -0.6114 -1.3327 -0.6346
 1788SOL    HW216824   2.102   1.857   4.181  0.2156 -1.5107 -0.0353
 1789SOL     OW16825   2.809   0.657   4.417  0.4778  0.8091  0.2272
 1789SOL    HW116826   2.749   0.662   4.492  2.2417 -4.1190  1.9274
 1789SOL    HW216827   2.755   0.609   4.355  0.7596 -0.8170  1.2614
 1790SOL     OW16828   3.665   2.731   9.521 -0.0740  0.2697 -0.3311
 1790SOL    HW116829   3.662   2.765   9.610  0.9526  1.1610 -0.6424
 1790SOL    HW216830   3.687   2.642   9.550  0.9115  0.5276 -0.2741
 1791SOL     OW16831   1.147   2.460   9.069  0.0884 -0.0661 -0.0862
 1791SOL    HW116832   1.152   2.479   8.975  1.5172 -0.2315 -0.0451
 1791SOL    HW216833   1.221   2.408   9.100  0.9540  0.1970 -1.7037
 1792SOL     OW16834   1.011   2.200   8.891  0.2397  0.9626  0.8210
 1792SOL    HW116835   0.978   2.191   8.980  0.1177 -2.4105  0.4344
 1792SOL    HW216836   1.087   2.142   8.885 -0.9861 -0.3981 -1.5004
 1793SOL     OW16837   2.275   0.898  16.864 -0.3950  0.2149  0.1435
 1793SOL    HW116838   2.336   0.880  16.935 -0.1980  1.0473  0.1818
 1793SOL    HW216839   2.326   0.957  16.808 -0.8920  0.2103 -0.3162
 1794SOL     OW16840   1.079   0.333   8.187  0.1446 -0.3321 -0.3366
 1794SOL    HW116841   0.995   0.343   8.233  0.4752 -0.2185  0.2495
 1794SOL    HW216842   1.079   0.238   8.171 -2.8887 -0.4859  0.5588
 1795SOL     OW16843   0.874   1.983   3.435 -0.5926  0.1400 -0.4926
 1795SOL    HW116844   0.876   1.903   3.489 -0.9463  0.6450  0.2695
 1795SOL    HW216845   0.791   1.970   3.389 -0.0985  1.1995 -1.6676
 1796SOL     OW16846   1.179   3.765   2.467  0.5087  0.1502  0.1635
 1796SOL    HW116847   1.264   3.778   2.426 -0.0937  1.0291 -0.8207
 1796SOL    HW216848   1.157   3.853   2.496  0.7453  0.5027 -0.7275
 1797SOL     OW16849   0.777   0.607   1.123  0.7857  0.5477 -0.3377
 1797SOL    HW116850   0.711   0.675   1.137 -1.1918 -1.3398 -0.3345
 1797SOL    HW216851   0.738   0.519   1.127  1.8752  0.1070  0.6061
 1798SOL     OW16852   1.666   4.576  16.497 -0.5220  0.2136 -0.4096
 1798SOL    HW116853   1.668   4.577  16.592  0.8381  0.5518 -0.4471
 1798SOL    HW216854   1.583   4.528  16.493 -0.5905  0.2328  1.0785
 1799SOL     OW16855   3.264   0.791   5.156 -0.0404  0.6596 -0.2550
 1799SOL    HW116856   3.297   0.799   5.245  0.3083 -2.0020 -0.1594
 1799SOL    HW216857   3.247   0.883   5.135  1.8847  1.0050 -0.2860
 1800SOL     OW16858   1.715   0.502  17.314 -0.1051  0.3634 -0.1019
 1800SOL    HW116859   1.709   0.488  17.408  1.3628  1.2729  0.1237
 1800SOL    HW216860   1.654   0.575  17.304  0.8050  0.8968 -1.8030
 1801SOL     OW16861   3.879   1.220   2.850 -0.2162 -0.2529  0.2221
 1801SOL    HW116862   3.966   1.259   2.840 -0.5181 -0.1957 -2.0886
 1801SOL    HW216863   3.854   1.195   2.761 -0.8138  1.2458 -0.0283
 1802SOL     OW16864   4.451   0.098   5.439  0.1915 -0.7613  0.5400
 1802SOL    HW116865   4.390   0.172   5.435  0.0288 -0.9344 -0.3267
 1802SOL    HW216866   4.504   0.126   5.365  0.1516 -0.2068  0.7221
 1803SOL     OW16867   0.875   1.605   8.286  0.4475  0.1125 -0.8354
 1803SOL    HW116868   0.944   1.638   8.343  0.8889  0.8179 -1.7821
 1803SOL    HW216869   0.811   1.675   8.293  0.2491 -0.1543  0.0595
 1804SOL     OW16870   1.822   3.682   2.857 -0.0897 -0.0632 -0.1222
 1804SOL    HW116871   1.820   3.696   2.762 -0.5465  1.4234  0.1156
 1804SOL    HW216872   1.885   3.750   2.882  0.5613 -0.4993 -0.5510
 1805SOL     OW16873   3.849   0.355   8.603 -0.1877 -0.7710  0.1395
 1805SOL    HW116874   3.771   0.350   8.548  0.1369  1.8346 -0.5864
 1805SOL    HW216875   3.884   0.443   8.587 -0.2166 -0.5130  1.5302
 1806SOL     OW16876   1.658   4.563   7.162 -0.4266  0.2496  0.8140
 1806SOL    HW116877   1.674   4.607   7.245  0.6060 -0.9903  1.2577
 1806SOL    HW216878   1.663   4.636   7.099  0.7630  0.4202  1.1184
 1807SOL     OW16879   2.084   0.732  12.243 -0.5544  0.6341  0.1142
 1807SOL    HW116880   2.011   0.671  12.252 -0.0981  0.1938  0.7920
 1807SOL    HW216881   2.044   0.818  12.228  0.1474  0.8247 -0.6708
 1808SOL     OW16882   4.196   4.354   6.872  0.2121 -0.1703  0.2481
 1808SOL    HW116883   4.180   4.314   6.786 -0.1409  1.3463 -0.3844
 1808SOL    HW216884   4.252   4.427   6.845  1.3341 -1.3230 -0.5450
 1809SOL     OW16885   0.461   2.316   4.958 -0.2496  0.1343 -0.4324
 1809SOL    HW116886   0.459   2.282   5.047 -2.5536 -0.4822 -0.7157
 1809SOL    HW216887   0.552   2.346   4.949 -0.7283  1.5385 -0.5452
 1810SOL     OW16888   4.383   2.065   4.346 -0.4679 -0.3167  0.6322
 1810SOL    HW116889   4.426   2.109   4.419 -4.1488  0.3135  2.4497
 1810SOL    HW216890   4.454   2.040   4.288 -0.0799  1.0962  0.5083
 1811SOL     OW16891   3.232   2.915   9.914 -0.0365  0.1290 -0.1193
 1811SOL    HW116892   3.223   2.861   9.835 -0.4239 -1.8745  1.2927
 1811SOL    HW216893   3.261   3.000   9.880 -3.0291  1.2148 -0.0173
 1812SOL     OW16894   2.514   1.870  11.551  0.2010  0.2418 -0.1562
 1812SOL    HW116895   2.550   1.852  11.464 -0.5220  0.6722 -0.5421
 1812SOL    HW216896   2.593   1.891  11.601  0.4727 -0.7539 -0.1780
 1813SOL     OW16897   0.467   0.542  15.681 -0.4334  0.4224  0.2728
 1813SOL    HW116898   0.523   0.582  15.615  1.5285 -1.8802  0.5608
 1813SOL    HW216899   0.425   0.469  15.636  2.0668 -0.6146 -0.3651
 1814SOL     OW16900   2.578   1.477   0.393  0.3432  0.2529 -0.1579
 1814SOL    HW116901   2.644   1.417   0.429 -1.1150 -1.0269  0.3651
 1814SOL    HW216902   2.521   1.487   0.470  1.0494  1.8585  0.1461
 1815SOL     OW16903   0.827   4.690   5.817  0.5555  0.1216 -0.1725
 1815SOL    HW116904   0.787   0.029   5.756 -0.2381 -0.3331 -0.1012
 1815SOL    HW216905   0.794   4.609   5.779 -0.8483  0.0764  1.1268
 1816SOL     OW16906   3.278   3.032   2.966  0.3099  0.6753 -0.4487
 1816SOL    HW116907   3.282   3.115   3.013  0.8058  0.5715 -0.3099
 1816SOL    HW216908   3.259   3.055   2.875  1.7367  1.7467 -0.4733
 1817SOL     OW16909   2.176   4.306   2.929 -0.6415  0.0207 -0.1574
 1817SOL    HW116910   2.092   4.288   2.886 -1.1275  1.0826  0.3293
 1817SOL    HW216911   2.227   4.239   2.883  0.1471  0.3521  0.2333
 1818SOL     OW16912   4.388   2.106   5.405  0.4043 -0.4523  0.1829
 1818SOL    HW116913   4.393   2.069   5.317  0.1247  1.7782 -0.7690
 1818SOL    HW216914   4.438   2.185   5.388 -0.6813  0.2378  0.2163
 1819SOL     OW16915   4.441   0.956  13.707  0.4155 -0.1801 -0.5661
 1819SOL    HW116916   4.495   1.011  13.651 -0.6870 -1.2111 -2.6615
 1819SOL    HW216917   4.444   1.011  13.785 -0.6321 -1.5161  0.4101
 1820SOL     OW16918   3.994   3.387   4.973  0.1220  0.5586 -0.1253
 1820SOL    HW116919   3.937   3.435   5.033  2.3016 -0.1604  2.5004
 1820SOL    HW216920   4.016   3.464   4.922 -0.9969  1.3565  0.6040
 1821SOL     OW16921   0.320   3.205   7.103  0.0638 -0.5632 -0.1387
 1821SOL    HW116922   0.292   3.124   7.061 -2.1241  0.7791 -1.2968
 1821SOL    HW216923   0.410   3.214   7.069 -0.2016 -1.0992 -0.9855
 1822SOL     OW16924   1.838   3.013   9.164  0.1400 -0.2015  0.7187
 1822SOL    HW116925   1.750   2.982   9.186 -0.6839  0.6633 -1.3365
 1822SOL    HW216926   1.864   3.052   9.247 -1.8099  2.3863  0.1121
 1823SOL     OW16927   4.263   0.233   6.207  0.2112 -0.0212 -0.0723
 1823SOL    HW116928   4.301   0.319   6.228  0.2778 -0.7806  2.9455
 1823SOL    HW216929   4.292   0.188   6.287  0.4357 -0.2116 -0.2632
 1824SOL     OW16930   1.948   2.287   4.136 -0.3782  0.0574 -0.0972
 1824SOL    HW116931   1.929   2.378   4.161 -1.0850 -0.3293  0.7834
 1824SOL    HW216932   1.886   2.267   4.067 -0.2666 -0.6735  0.0176
 1825SOL     OW16933   2.204   2.700   0.539  0.1113 -0.1497 -0.0720
 1825SOL    HW116934   2.143   2.756   0.588  1.7143  2.4449 -1.0665
 1825SOL    HW216935   2.135   2.646   0.499 -0.7104 -0.1470  1.3233
 1826SOL     OW16936   2.798   2.928   5.667  0.0095  0.1430  0.1427
 1826SOL    HW116937   2.745   2.850   5.648 -0.3289  0.8764 -1.9143
 1826SOL    HW216938   2.820   2.965   5.581  3.1437 -0.4853  0.6586
 1827SOL     OW16939   1.803   0.563   8.279  0.1419  0.1882 -0.5084
 1827SOL    HW116940   1.761   0.642   8.246  0.3684  0.7057  0.4551
 1827SOL    HW216941   1.747   0.547   8.355  0.8149  0.9704  0.1325
 1828SOL     OW16942   4.371   1.388   3.347  0.1432  0.5156  0.8058
 1828SOL    HW116943   4.326   1.423   3.269 -1.0134 -0.2260  1.1478
 1828SOL    HW216944   4.350   1.295   3.340  1.7748 -0.0021  2.9409
 1829SOL     OW16945   2.359   3.270   5.988  0.4996 -0.2258 -0.1979
 1829SOL    HW116946   2.331   3.196   5.934 -2.7281  0.2547  0.8299
 1829SOL    HW216947   2.426   3.228   6.042 -0.0011 -0.5275  0.1936
 1830SOL     OW16948   0.577   2.321  17.383  0.0586  0.0987  0.2614
 1830SOL    HW116949   0.487   2.339  17.407 -0.0944 -0.7925  0.3660
 1830SOL    HW216950   0.588   2.360  17.296 -0.5895 -0.9445 -0.2982
 1831SOL     OW16951   3.060   4.444   2.996 -0.0490  0.0282 -0.3731
 1831SOL    HW116952   3.150   4.476   3.004 -0.2289  0.3762  0.2879
 1831SOL    HW216953   3.070   4.356   3.032 -1.7624 -0.3583 -0.8049
 1832SOL     OW16954   1.467   0.419  17.658  0.1500 -0.0741 -1.1963
 1832SOL    HW116955   1.435   0.436  17.570 -0.6054 -0.5186 -1.0129
 1832SOL    HW216956   1.559   0.440  17.647  0.0653  1.0771  0.2086
 1833SOL     OW16957   2.732   2.272   8.252  0.1056  0.1445  0.0033
 1833SOL    HW116958   2.641   2.285   8.225  0.5732 -0.7116 -1.9696
 1833SOL    HW216959   2.731   2.179   8.272  2.0793 -0.4632 -2.7032
 1834SOL     OW16960   2.632   0.201   4.809 -0.3059  0.4539 -0.0203
 1834SOL    HW116961   2.610   0.290   4.779  0.3362  0.2182 -1.1748
 1834SOL    HW216962   2.560   0.146   4.780  1.2560 -1.6410  0.1434
 1835SOL     OW16963   2.303   0.141   9.968  1.1153 -0.1326  0.2089
 1835SOL    HW116964   2.399   0.138   9.973  1.0096  0.1577  2.2168
 1835SOL    HW216965   2.290   0.168   9.877  0.8528 -1.5823 -0.1778
 1836SOL     OW16966   0.039   1.833   4.809  0.5441 -0.4020  0.2054
 1836SOL    HW116967   4.715   1.887   4.874 -0.6135 -0.5700 -0.4568
 1836SOL    HW216968   0.041   1.744   4.845 -0.8818  0.7049  3.0662
 1837SOL     OW16969   2.631   1.351   4.291 -1.0620  0.4828 -0.2066
 1837SOL    HW116970   2.664   1.357   4.201 -0.1756  1.6010  0.1908
 1837SOL    HW216971   2.613   1.257   4.303 -1.8209  1.0019  2.6519
 1838SOL     OW16972   1.511   1.549  12.028 -0.5696  0.8989  0.4656
 1838SOL    HW116973   1.447   1.480  12.009 -0.0032 -0.1008  2.1539
 1838SOL    HW216974   1.583   1.496  12.062 -1.6335  0.2972  1.7661
 1839SOL     OW16975   0.708   0.491  13.667 -0.0083 -0.4942 -0.7443
 1839SOL    HW116976   0.613   0.502  13.664 -0.1463 -1.3038  0.4957
 1839SOL    HW216977   0.741   0.579  13.648 -2.4808  1.3116  3.1736
 1840SOL     OW16978   3.729   2.419   7.874 -0.0766 -0.0640 -0.2363
 1840SOL    HW116979   3.669   2.490   7.852  1.8784  1.8996  0.7500
 1840SOL    HW216980   3.707   2.405   7.966  2.0025 -2.4053 -0.0827
 1841SOL     OW16981   0.763   3.942  16.529  0.6015 -0.3834  0.3460
 1841SOL    HW116982   0.744   3.855  16.564  1.9844 -1.4355 -1.4762
 1841SOL    HW216983   0.769   3.992  16.610  0.1839  0.7394 -0.3099
 1842SOL     OW16984   2.524   4.504  10.845  0.0962  0.4472  0.3422
 1842SOL    HW116985   2.554   4.593  10.827 -0.1985  0.3701 -0.5400
 1842SOL    HW216986   2.606   4.462  10.822 -0.7088  0.2270 -2.1266
 1843SOL     OW16987   4.600   0.236  13.100  0.2170  0.7676  0.0283
 1843SOL    HW116988   4.650   0.302  13.053 -1.2903  0.8650 -1.4694
 1843SOL    HW216989   4.625   0.155  13.055 -3.3630 -1.1112  1.4441
 1844SOL     OW16990   1.807   0.470  12.090 -0.1466 -0.6338  0.1268
 1844SOL    HW116991   1.712   0.467  12.086 -0.0597  0.9280 -3.6062
 1844SOL    HW216992   1.820   0.562  12.068  0.4650 -0.6684  0.3467
 1845SOL     OW16993   3.678   0.669  17.276  0.1224 -0.0528  0.1520
 1845SOL    HW116994   3.720   0.630  17.199  0.2503  0.9975 -0.3002
 1845SOL    HW216995   3.673   0.598  17.341 -2.2159 -0.1117 -0.0975
 1846SOL     OW16996   3.379   0.564   1.963  0.5951  0.2989  0.1042
 1846SOL    HW116997   3.371   0.644   2.014 -0.3496 -0.3491  0.9739
 1846SOL    HW216998   3.442   0.588   1.895 -1.7684 -0.0100 -2.1829
 1847SOL     OW16999   2.514   0.467   1.673 -0.3195 -0.1242  0.5955
 1847SOL    HW117000   2.494   0.536   1.737 -1.9641 -0.2753  0.2416
 1847SOL    HW217001   2.504   0.388   1.727 -0.0916 -0.9604 -0.6010
 1848SOL     OW17002   3.009   1.956   1.139 -0.0608 -0.3357  0.4096
 1848SOL    HW117003   2.978   1.963   1.049 -1.0314  1.1695  0.8644
 1848SOL    HW217004   3.063   2.035   1.137  1.3647 -1.2611  2.1385
 1849SOL     OW17005   3.123   2.787   4.306 -0.3101  0.3194  0.0808
 1849SOL    HW117006   3.095   2.771   4.396  0.5541  1.9045  0.6318
 1849SOL    HW217007   3.201   2.834   4.334  0.4503 -1.2418  0.5766
 1850SOL     OW17008   3.421   3.955  13.063 -0.1386 -0.5110 -0.1956
 1850SOL    HW117009   3.328   3.955  13.086 -0.1681 -0.6601 -0.3153
 1850SOL    HW217010   3.412   3.926  12.972  0.7884  0.8314 -0.7132
 1851SOL     OW17011   2.328   3.669   1.077  0.4455 -0.3614  0.3599
 1851SOL    HW117012   2.258   3.606   1.063  1.2769 -1.5321  1.3785
 1851SOL    HW217013   2.343   3.670   1.172 -0.9199 -1.7659  0.6010
 1852SOL     OW17014   2.352   2.813  10.924  0.2494  0.1163 -0.0685
 1852SOL    HW117015   2.419   2.800  10.856 -0.5135  0.4108 -0.8746
 1852SOL    HW217016   2.409   2.849  10.992  1.3078  0.7491 -1.2672
 1853SOL     OW17017   2.849   0.745   1.821 -0.0336  0.2821 -0.0401
 1853SOL    HW117018   2.775   0.734   1.881  0.5043  0.3208  0.6346
 1853SOL    HW217019   2.807   0.804   1.758 -3.2493 -1.9592  0.0274
 1854SOL     OW17020   3.633   2.067   4.836 -0.8904  0.1383 -0.5115
 1854SOL    HW117021   3.624   2.122   4.758  0.8232 -0.8992 -1.4371
 1854SOL    HW217022   3.548   2.084   4.877  0.0814  0.3993  1.3782
 1855SOL     OW17023   4.000   2.209  17.483  0.5302 -0.1535 -0.1141
 1855SOL    HW117024   3.923   2.224  17.427  0.1280  0.6769  0.6559
 1855SOL    HW217025   4.020   2.117  17.462 -2.0674 -0.4237 -1.4058
 1856SOL     OW17026   0.068   3.827   4.249  0.2928 -0.1521  0.0127
 1856SOL    HW117027   0.143   3.884   4.235  2.0783 -2.6183 -0.5586
 1856SOL    HW217028   0.094   3.753   4.194 -3.3009 -0.4717 -1.2589
 1857SOL     OW17029   3.083   1.654   2.158  0.1289  0.0994  0.4664
 1857SOL    HW117030   3.022   1.716   2.118  0.2744  0.6529  1.0865
 1857SOL    HW217031   3.025   1.614   2.222 -0.9639  0.9855  0.0349
 1858SOL     OW17032   4.649   3.045   9.989  0.3266 -0.8575  0.3592
 1858SOL    HW117033   4.616   3.017  10.074 -0.2646  0.0454  0.4238
 1858SOL    HW217034   4.721   3.103  10.015 -1.3025  0.9168  0.8602
 1859SOL     OW17035   2.721   2.976  14.727  0.2061 -0.2536  0.3440
 1859SOL    HW117036   2.754   2.913  14.792 -2.2663 -0.3116  1.5601
 1859SOL    HW217037   2.651   3.018  14.777 -1.2558 -2.5517  0.2549
 1860SOL     OW17038   2.403   4.353  17.031  0.5900  0.2414 -0.0917
 1860SOL    HW117039   2.476   4.388  17.082 -0.0807  1.7139 -0.1286
 1860SOL    HW217040   2.407   4.388  16.942 -2.0173  2.7400  0.7717
 1861SOL     OW17041   4.315   1.557   5.679  0.8607 -0.0271  0.0203
 1861SOL    HW117042   4.361   1.566   5.596 -1.5435 -3.6011 -1.7012
 1861SOL    HW217043   4.272   1.639   5.704  0.3562  0.6380 -3.0850
 1862SOL     OW17044   0.483   2.818   2.331 -0.0672  0.3984 -0.4011
 1862SOL    HW117045   0.435   2.901   2.324 -1.3974 -0.1063  2.4911
 1862SOL    HW217046   0.408   2.760   2.327  1.4967 -1.5718 -0.8814
 1863SOL     OW17047   2.822   0.259   7.454  0.3994 -0.0277 -0.1830
 1863SOL    HW117048   2.848   0.329   7.394  0.9352  0.1653  0.2757
 1863SOL    HW217049   2.726   0.249   7.454  0.2601  1.3927  0.3489
 1864SOL     OW17050   0.975   0.789   3.553  0.0721 -0.5498  0.5329
 1864SOL    HW117051   1.067   0.801   3.577 -0.0001 -0.6817  0.8808
 1864SOL    HW217052   0.934   0.848   3.616 -0.7285 -0.6700  0.1242
 1865SOL     OW17053   3.350   2.620  11.259 -0.0984 -0.1156 -0.1005
 1865SOL    HW117054   3.444   2.608  11.270 -0.4187 -0.2323  2.3910
 1865SOL    HW217055   3.345   2.698  11.314 -0.0783 -1.4472  1.7916
 1866SOL     OW17056   1.933   2.646   6.191  0.1205 -0.7409  0.4049
 1866SOL    HW117057   1.861   2.660   6.129 -1.6301 -1.2034  2.3471
 1866SOL    HW217058   1.902   2.677   6.276 -0.6952  0.2417 -0.2588
 1867SOL     OW17059   2.258   1.896   3.407 -0.8007  0.5828  0.0305
 1867SOL    HW117060   2.291   1.964   3.349  1.1099 -2.9207 -2.9385
 1867SOL    HW217061   2.168   1.874   3.383 -0.8933  0.9169  0.0715
 1868SOL     OW17062   1.776   2.113   2.533  0.2618 -0.1900 -0.6488
 1868SOL    HW117063   1.723   2.142   2.607  2.4942  0.3408  0.7115
 1868SOL    HW217064   1.859   2.122   2.579  0.2175  2.1168 -1.0150
 1869SOL     OW17065   0.726   4.585   0.879 -0.1768  0.0599 -0.3838
 1869SOL    HW117066   0.771   4.524   0.937 -1.8356  0.3195  1.2109
 1869SOL    HW217067   0.644   4.597   0.928  0.7686  0.4250  1.1241
 1870SOL     OW17068   1.612   2.335   8.081  0.2935  0.0766 -0.0978
 1870SOL    HW117069   1.542   2.371   8.027  0.5330  1.4346  0.5127
 1870SOL    HW217070   1.683   2.396   8.062  0.1875 -0.3320 -1.8626
 1871SOL     OW17071   1.521   3.257   1.719 -0.4128 -0.3972 -0.0551
 1871SOL    HW117072   1.506   3.163   1.733  2.5912 -0.5784  1.8360
 1871SOL    HW217073   1.592   3.258   1.655 -1.0810  0.3172 -0.7743
 1872SOL     OW17074   1.692   2.841   2.151 -1.3765  0.0187  0.1381
 1872SOL    HW117075   1.694   2.758   2.198  1.4005  0.9385  1.6513
 1872SOL    HW217076   1.631   2.814   2.082 -1.2238 -0.7139  0.2906
 1873SOL     OW17077   4.503   0.146   9.249  0.3492  0.0909  0.0071
 1873SOL    HW117078   4.556   0.120   9.174 -0.0556  2.7322 -1.1967
 1873SOL    HW217079   4.567   0.181   9.310  0.2344 -0.3444  0.3833
 1874SOL     OW17080   1.658   3.460   2.913 -0.2131 -0.4756  0.5012
 1874SOL    HW117081   1.616   3.431   2.832 -0.5949 -0.3838  0.6712
 1874SOL    HW217082   1.720   3.528   2.886 -0.6281 -0.0142  0.7048
 1875SOL     OW17083   4.711   1.523   7.525  0.3105 -0.4599 -0.0512
 1875SOL    HW117084   0.061   1.508   7.587  0.0733  1.8613  0.7842
 1875SOL    HW217085   4.665   1.439   7.530  2.6990 -1.5086  3.9441
 1876SOL     OW17086   3.285   3.640  14.744  0.3748  0.2545 -0.5316
 1876SOL    HW117087   3.305   3.547  14.750  1.0592  0.4464  0.1517
 1876SOL    HW217088   3.190   3.648  14.732  0.0509 -0.2717  1.8059
 1877SOL     OW17089   2.151   0.047   1.871  0.0160 -0.1474  0.2348
 1877SOL    HW117090   2.056   0.041   1.861  0.1956 -1.0228 -0.9401
 1877SOL    HW217091   2.158   4.697   1.935  0.1095  1.6909  2.2549
 1878SOL     OW17092   2.119   2.572   1.196 -0.0354 -0.5995  0.0466
 1878SOL    HW117093   2.126   2.479   1.216  0.5498 -0.3875  0.8337
 1878SOL    HW217094   2.167   2.616   1.267 -0.3510  0.0988 -0.1714
 1879SOL     OW17095   1.199   4.256   8.772 -0.0490 -0.8263 -0.3231
 1879SOL    HW117096   1.264   4.193   8.804 -1.5954 -2.3084 -0.0911
 1879SOL    HW217097   1.254   4.304   8.710  1.9771 -1.1196  1.2308
 1880SOL     OW17098   2.796   2.033   1.585 -0.1812  0.3196 -0.0693
 1880SOL    HW117099   2.743   2.019   1.506 -0.9953 -0.8153  0.6703
 1880SOL    HW217100   2.873   1.979   1.568 -1.2373 -1.0902 -0.4147
 1881SOL     OW17101   1.064   1.636   4.098  0.2198 -0.2027 -0.0527
 1881SOL    HW117102   1.064   1.675   4.186 -0.5463 -2.2280  0.8716
 1881SOL    HW217103   0.984   1.679   4.069  0.8215  0.9415 -0.0287
 1882SOL     OW17104   0.295   2.644   2.409  0.7293  0.2700  0.7932
 1882SOL    HW117105   0.251   2.721   2.445  1.2415  1.3257 -0.8519
 1882SOL    HW217106   0.235   2.582   2.450  0.7613  0.5614  1.2829
 1883SOL     OW17107   3.479   0.596  12.317  0.2387 -0.0105  0.1985
 1883SOL    HW117108   3.550   0.532  12.311 -2.0356 -2.2809 -2.3152
 1883SOL    HW217109   3.519   0.681  12.338 -0.4929  0.7089 -1.3493
 1884SOL     OW17110   0.577   4.686   1.848 -0.1182 -0.2037  0.6699
 1884SOL    HW117111   0.569   4.629   1.772 -1.1274  0.2908  0.4107
 1884SOL    HW217112   0.653   4.640   1.883 -1.3779 -2.5041  0.4046
 1885SOL     OW17113   3.253   1.262   8.945  0.3568  0.3785  0.3316
 1885SOL    HW117114   3.216   1.244   9.031  3.6551 -0.3991  1.6056
 1885SOL    HW217115   3.279   1.354   8.956 -0.0020  0.2838  1.9512
 1886SOL     OW17116   3.334   3.620   8.847  0.7476  0.0811 -0.3406
 1886SOL    HW117117   3.377   3.577   8.921  3.5545  2.2956 -0.7017
 1886SOL    HW217118   3.254   3.567   8.836  1.4905 -1.4269  1.5525
 1887SOL     OW17119   2.879   2.512  15.222  0.4700  0.3157 -0.1334
 1887SOL    HW117120   2.950   2.455  15.253  0.1286 -0.2669 -0.4201
 1887SOL    HW217121   2.871   2.572  15.296 -0.1222 -0.8130  0.7068
 1888SOL     OW17122   1.838   0.516   1.705  0.1676 -0.4689 -0.7226
 1888SOL    HW117123   1.804   0.454   1.640 -0.6439 -0.3886 -0.3814
 1888SOL    HW217124   1.866   0.593   1.655 -0.9742 -1.7135 -3.2814
 1889SOL     OW17125   0.923   2.329   6.842  0.1510 -0.0998 -0.1017
 1889SOL    HW117126   0.912   2.384   6.764 -2.5664  0.9219  1.0231
 1889SOL    HW217127   0.993   2.378   6.886  0.8170 -1.4505  0.3398
 1890SOL     OW17128   0.178   0.945   2.377  0.4511  0.0739 -0.1436
 1890SOL    HW117129   0.108   0.914   2.320  2.5417  0.5284 -2.9598
 1890SOL    HW217130   0.232   0.868   2.394  0.4418 -0.2396 -1.5502
 1891SOL     OW17131   2.159   3.312   3.693 -0.0943  0.2890  1.1853
 1891SOL    HW117132   2.226   3.269   3.640  0.5432  0.6077  1.7226
 1891SOL    HW217133   2.194   3.284   3.778 -1.5972 -0.7592  1.4485
 1892SOL     OW17134   3.135   0.325   3.299  0.0538  0.3418 -0.0342
 1892SOL    HW117135   3.211   0.317   3.241 -1.2358 -0.7572 -1.5704
 1892SOL    HW217136   3.082   0.261   3.251 -0.0128 -0.4716  1.1184
 1893SOL     OW17137   4.505   0.196   3.875  0.0360 -0.1156  0.1527
 1893SOL    HW117138   4.578   0.203   3.812  0.1046  1.1385  0.3755
 1893SOL    HW217139   4.532   0.118   3.924  1.6409  1.4677  1.8028
 1894SOL     OW17140   4.072   0.899   6.358 -0.0763 -0.2858  0.3290
 1894SOL    HW117141   4.143   0.910   6.295 -0.7567 -0.2393 -0.4323
 1894SOL    HW217142   4.060   0.806   6.338  1.8796 -0.7659  1.4012
 1895SOL     OW17143   3.200   0.325  15.899 -0.3933  0.1057  0.0502
 1895SOL    HW117144   3.177   0.385  15.970  1.8925 -0.5939  1.3693
 1895SOL    HW217145   3.274   0.376  15.867 -1.4152  1.3674 -0.3018
 1896SOL     OW17146   3.561   2.234   4.156 -0.0495 -0.1121  0.2380
 1896SOL    HW117147   3.544   2.320   4.195 -0.7445  0.9150 -2.3132
 1896SOL    HW217148   3.469   2.206   4.151 -0.0341 -0.3137  1.1542
 1897SOL     OW17149   0.756   2.151   4.449 -0.4489  0.1739 -0.7840
 1897SOL    HW117150   0.744   2.226   4.390  1.3756  1.9647  1.0731
 1897SOL    HW217151   0.683   2.169   4.508  1.1475  2.0315  0.6606
 1898SOL     OW17152   1.225   0.721   2.673 -0.0948 -0.1496 -0.0901
 1898SOL    HW117153   1.256   0.801   2.716  1.6271 -1.2518  0.6925
 1898SOL    HW217154   1.198   0.668   2.748  2.8889 -2.0883 -0.4095
 1899SOL     OW17155   2.162   3.467   9.007  0.3635 -0.7737  0.6853
 1899SOL    HW117156   2.181   3.401   8.940 -1.1778 -0.2314 -0.2725
 1899SOL    HW217157   2.173   3.411   9.084  1.1526  1.1081  1.9311
 1900SOL     OW17158   4.718   0.440  13.802 -0.0816  0.6371  0.3322
 1900SOL    HW117159   4.716   0.423  13.708 -1.2467 -1.4231  0.7403
 1900SOL    HW217160   0.079   0.486  13.816  0.1802  0.4150 -0.4707
 1901SOL     OW17161   0.269   0.878   9.599  0.5877 -0.0841 -0.3850
 1901SOL    HW117162   0.248   0.944   9.665  2.3697  0.8077 -0.6965
 1901SOL    HW217163   0.329   0.838   9.662  1.3250  2.3804  0.4985
 1902SOL     OW17164   3.981   2.570  14.654 -0.4749 -0.2329  0.2901
 1902SOL    HW117165   4.003   2.662  14.672  2.4802 -0.6306 -1.2428
 1902SOL    HW217166   4.052   2.547  14.594  1.5992  1.2709  2.1638
 1903SOL     OW17167   3.286   0.212   6.414  0.2948  0.2306 -0.3363
 1903SOL    HW117168   3.323   0.214   6.503  0.0600 -0.5449 -0.2207
 1903SOL    HW217169   3.274   0.118   6.400  2.0127  0.2208 -1.6175
 1904SOL     OW17170   0.889   2.147  15.369  0.7399  0.1127  0.6491
 1904SOL    HW117171   0.969   2.187  15.403  1.1651 -0.1211 -0.0745
 1904SOL    HW217172   0.841   2.228  15.356  0.5682  0.5319  3.8591
 1905SOL     OW17173   1.051   0.312   4.993  0.2232  0.1270  0.1154
 1905SOL    HW117174   1.060   0.342   4.903 -1.0059  0.7934  0.2055
 1905SOL    HW217175   0.983   0.245   4.990 -0.3231  0.7006 -0.3270
 1906SOL     OW17176   1.565   0.090   4.556 -0.1654  0.3367  0.4167
 1906SOL    HW117177   1.638   0.111   4.614  0.8518  0.6049 -0.9680
 1906SOL    HW217178   1.507   0.041   4.615  0.2774 -4.1169 -2.8371
 1907SOL     OW17179   2.415   4.595   8.381 -0.1217  0.4348  0.0262
 1907SOL    HW117180   2.399   4.569   8.471 -1.4753  0.5092 -0.2008
 1907SOL    HW217181   2.436   4.688   8.393  3.1529 -0.3689  0.5799
 1908SOL     OW17182   3.958   4.339   6.287  0.1481  0.6665  0.0228
 1908SOL    HW117183   3.943   4.247   6.306 -1.3573  0.6487 -1.1889
 1908SOL    HW217184   3.884   4.377   6.335 -1.0562 -0.8820 -0.5924
 1909SOL     OW17185   1.443   1.348   5.571 -0.1489 -0.1473 -0.4305
 1909SOL    HW117186   1.374   1.284   5.588 -0.1518 -0.9932 -3.5149
 1909SOL    HW217187   1.435   1.384   5.659 -2.8139 -3.1190  0.5510
 1910SOL     OW17188   0.289   3.712   8.277  0.0080  0.7960 -0.0231
 1910SOL    HW117189   0.211   3.697   8.222  0.4547 -0.7286 -0.2309
 1910SOL    HW217190   0.275   3.804   8.299 -0.7915  0.4964  0.7152
 1911SOL     OW17191   1.878   2.555   4.179  0.0192 -0.5455 -0.5456
 1911SOL    HW117192   1.873   2.608   4.259 -4.1888 -0.7086 -0.6645
 1911SOL    HW217193   1.793   2.574   4.139 -0.5664 -0.1973  0.8596
 1912SOL     OW17194   4.003   1.267   9.786  0.2034 -0.0260 -0.5798
 1912SOL    HW117195   4.001   1.172   9.794 -1.3416  0.1057  0.4976
 1912SOL    HW217196   3.922   1.295   9.828  1.7204  0.7514  1.8687
 1913SOL     OW17197   3.688   2.258  11.465  0.3847  0.1108  0.4080
 1913SOL    HW117198   3.626   2.296  11.403 -0.8479 -0.0888  1.5259
 1913SOL    HW217199   3.714   2.184  11.412  0.9461  2.3510 -2.4329
 1914SOL     OW17200   0.687   1.955  13.385  0.5630 -0.0397  0.5422
 1914SOL    HW117201   0.651   1.871  13.414 -0.1586  0.9912  2.6465
 1914SOL    HW217202   0.630   1.985  13.314 -0.3654 -1.1066  0.8307
 1915SOL     OW17203   3.456   2.248   2.394  0.1201 -0.2161 -0.0596
 1915SOL    HW117204   3.514   2.176   2.367 -0.2069 -0.9176  1.1092
 1915SOL    HW217205   3.387   2.199   2.439 -0.0292 -1.4422 -1.6171
 1916SOL     OW17206   2.290   2.660   6.611  0.0671  0.0450  0.4270
 1916SOL    HW117207   2.369   2.672   6.665 -0.4856  1.3010  0.9565
 1916SOL    HW217208   2.297   2.724   6.540 -1.0128 -2.5583 -2.0135
 1917SOL     OW17209   4.382   3.566   4.355 -0.1482  0.0552 -0.3427
 1917SOL    HW117210   4.337   3.642   4.391  0.1828  0.7061 -1.2782
 1917SOL    HW217211   4.315   3.508   4.318  0.8567 -0.2540 -1.6990
 1918SOL     OW17212   3.220   0.360   4.561  0.0141  0.6402 -0.6474
 1918SOL    HW117213   3.160   0.427   4.529 -0.4535  0.6352  0.2265
 1918SOL    HW217214   3.271   0.344   4.482  0.7344 -1.5179  0.2408
 1919SOL     OW17215   1.248   0.602   8.796 -0.1709  0.0366  0.0915
 1919SOL    HW117216   1.250   0.524   8.851 -0.5183 -0.5204 -0.6998
 1919SOL    HW217217   1.157   0.615   8.770  0.3437 -0.7067 -2.0868
 1920SOL     OW17218   2.525   3.532   4.977  0.0741 -0.0849  0.0733
 1920SOL    HW117219   2.571   3.482   4.910 -0.6482 -1.7216  0.8006
 1920SOL    HW217220   2.552   3.617   4.942 -0.5040  0.6312  1.3454
 1921SOL     OW17221   0.478   0.170  15.527 -0.0996  0.5278 -0.2726
 1921SOL    HW117222   0.458   0.118  15.605  0.0131  1.3089  0.2691
 1921SOL    HW217223   0.410   0.237  15.519  0.4019  0.8517 -1.7742
 1922SOL     OW17224   4.141   4.429   9.938 -0.0762 -0.4756 -0.0808
 1922SOL    HW117225   4.072   4.419   9.872  1.7274  1.4765 -2.2968
 1922SOL    HW217226   4.211   4.454   9.877  0.0488  0.6482  0.5357
 1923SOL     OW17227   1.544   0.185   5.017  0.1044 -0.5009 -0.4423
 1923SOL    HW117228   1.589   0.115   4.969  0.7488 -0.5952  0.2923
 1923SOL    HW217229   1.461   0.142   5.038  0.0739 -1.4896 -2.6229
 1924SOL     OW17230   3.396   0.736  15.646 -0.4052  0.2411  0.3908
 1924SOL    HW117231   3.427   0.824  15.670 -1.5173  0.6251  0.4276
 1924SOL    HW217232   3.342   0.768  15.573 -0.9203 -0.8567  0.2985
 1925SOL     OW17233   3.592   2.026   0.784  0.0730 -0.5944  0.3096
 1925SOL    HW117234   3.644   1.950   0.808  1.1202 -0.2059 -0.7358
 1925SOL    HW217235   3.646   2.071   0.719 -2.1789  1.7408  0.0568
 1926SOL     OW17236   3.700   3.834  14.548 -0.3408 -0.3030 -0.6662
 1926SOL    HW117237   3.632   3.836  14.616  0.6461 -0.8459  0.3278
 1926SOL    HW217238   3.673   3.911  14.497  0.5710  0.7907  0.4829
 1927SOL     OW17239   1.051   4.692  17.164  0.2457  0.2324 -0.6703
 1927SOL    HW117240   0.957   4.701  17.152  0.0495 -1.7391 -0.6847
 1927SOL    HW217241   1.072   0.049  17.215 -1.7307  1.2640 -1.4765
 1928SOL     OW17242   1.314   2.037   7.756  0.1730 -0.2556  0.0516
 1928SOL    HW117243   1.323   2.052   7.850 -2.8107 -2.1063  0.6317
 1928SOL    HW217244   1.406   2.038   7.731  0.0475 -1.4893 -0.4952
 1929SOL     OW17245   1.425   4.462   9.101  0.2519  0.1905  0.2403
 1929SOL    HW117246   1.447   4.537   9.156 -2.0606  1.3095 -0.3713
 1929SOL    HW217247   1.333   4.481   9.083 -0.0302  0.7475  2.3167
 1930SOL     OW17248   3.143   4.057   8.667  0.0363 -0.1144 -0.4840
 1930SOL    HW117249   3.145   4.020   8.579  0.1809  1.8967 -1.3175
 1930SOL    HW217250   3.150   3.977   8.719  2.8303 -0.9221 -2.1245
 1931SOL     OW17251   0.325   4.188   6.401 -0.4429  0.6454  0.5343
 1931SOL    HW117252   0.230   4.188   6.392 -0.4108 -0.4322  0.2168
 1931SOL    HW217253   0.354   4.227   6.318 -2.7488 -1.6569 -1.3542
 1932SOL     OW17254   0.187   2.367   7.337 -0.3994  0.4683  0.3369
 1932SOL    HW117255   0.102   2.396   7.303 -0.1380  0.0003 -0.7329
 1932SOL    HW217256   0.247   2.381   7.264 -2.7138  1.9245 -1.2886
 1933SOL     OW17257   0.176   1.747   6.341 -0.4687 -0.0950  0.2722
 1933SOL    HW117258   0.182   1.791   6.425  0.2355  2.9390 -1.3540
 1933SOL    HW217259   0.147   1.814   6.279  0.9664  1.1335  0.9129
 1934SOL     OW17260   0.167   2.268  12.251  0.2221  0.1164 -0.3758
 1934SOL    HW117261   0.167   2.224  12.336  1.9200  1.7381  0.4624
 1934SOL    HW217262   0.095   2.222  12.207 -1.3041  0.3357  1.8916
 1935SOL     OW17263   3.971   4.140   2.893 -0.5365 -0.6097 -0.4827
 1935SOL    HW117264   3.930   4.227   2.898  1.0612 -0.0137  2.6025
 1935SOL    HW217265   3.975   4.143   2.798 -1.1757 -1.3724 -0.5321
 1936SOL     OW17266   3.182   3.186  14.660 -0.3370  0.3985  0.5274
 1936SOL    HW117267   3.102   3.136  14.642 -1.2125  1.4756  1.3928
 1936SOL    HW217268   3.145   3.264  14.701  2.4249  0.8415  2.1499
 1937SOL     OW17269   4.435   2.906   8.407 -0.3494  0.2427 -0.3766
 1937SOL    HW117270   4.494   2.837   8.379 -1.6507 -1.4342  0.9848
 1937SOL    HW217271   4.441   2.962   8.330 -0.2008  2.0210  0.9140
 1938SOL     OW17272   3.850   0.014   9.853 -0.0325 -0.2045  0.3100
 1938SOL    HW117273   3.787   0.075   9.814 -2.0428 -2.5731 -0.1747
 1938SOL    HW217274   3.794   4.719   9.929 -1.5401  0.4042 -0.6603
 1939SOL     OW17275   0.133   0.390   7.113  0.1474  0.2133  0.6520
 1939SOL    HW117276   0.100   0.389   7.023  2.3099  1.7805 -0.1542
 1939SOL    HW217277   0.067   0.442   7.160  1.5135  1.8583  0.7299
 1940SOL     OW17278   4.004   4.368  17.121  0.0276  0.2916 -0.3107
 1940SOL    HW117279   4.093   4.335  17.133  0.5647  1.5736 -0.7794
 1940SOL    HW217280   3.982   4.432  17.188 -2.2607  0.7179 -1.4753
 1941SOL     OW17281   1.792   3.888   1.973 -0.0824  0.4995  0.3842
 1941SOL    HW117282   1.704   3.923   1.989 -1.2192 -2.6455  1.0065
 1941SOL    HW217283   1.814   3.866   2.063 -0.5126  1.0495  0.6266
 1942SOL     OW17284   3.224   3.103   8.297  0.3030  0.3709  0.2579
 1942SOL    HW117285   3.192   3.031   8.243  1.0320 -1.7897  2.6710
 1942SOL    HW217286   3.221   3.175   8.235 -2.9282 -0.1200 -0.1516
 1943SOL     OW17287   4.343   1.789   2.073  0.9664  0.1362 -0.4576
 1943SOL    HW117288   4.414   1.787   2.137  1.3789 -0.3569 -0.9350
 1943SOL    HW217289   4.340   1.881   2.046 -2.0727  0.6676  1.6763
 1944SOL     OW17290   3.572   1.917   3.694 -0.1509 -0.3066  0.0285
 1944SOL    HW117291   3.538   1.879   3.613  0.5779 -0.2966 -0.2747
 1944SOL    HW217292   3.513   1.992   3.693 -0.6112 -0.7019 -2.4845
 1945SOL     OW17293   4.582   1.694   1.136  0.0962  0.4535 -0.4506
 1945SOL    HW117294   4.571   1.758   1.065  1.6155  1.2012 -0.0303
 1945SOL    HW217295   4.678   1.694   1.142  0.3350  0.2648 -4.2728
 1946SOL     OW17296   2.144   3.145   9.266  0.0962 -0.4074  0.3389
 1946SOL    HW117297   2.163   3.213   9.331 -0.2148 -0.1741  0.1902
 1946SOL    HW217298   2.051   3.140   9.288  0.0707  0.2967  0.3897
 1947SOL     OW17299   1.691   4.106   7.306  0.2575 -0.6072  0.4219
 1947SOL    HW117300   1.709   4.190   7.263 -0.5439 -0.0481  1.1760
 1947SOL    HW217301   1.714   4.126   7.396  0.2046  3.4089 -0.4713
 1948SOL     OW17302   2.107   3.535  17.670  0.1738 -0.0905  0.3252
 1948SOL    HW117303   2.040   3.543   0.051  0.7517 -1.1994  1.0194
 1948SOL    HW217304   2.114   3.627  17.646  1.3356  0.1349  1.5056
 1949SOL     OW17305   3.912   3.631   5.363  0.2856  0.4451  0.3410
 1949SOL    HW117306   3.891   3.664   5.276 -2.4757  0.1504  0.9115
 1949SOL    HW217307   3.865   3.550   5.383  2.0212 -1.0739 -1.6109
 1950SOL     OW17308   2.303   0.350   3.851 -0.2213  0.4097 -0.0783
 1950SOL    HW117309   2.263   0.376   3.768  1.6502  1.0666 -0.7684
 1950SOL    HW217310   2.263   0.263   3.858 -0.7618  0.7852  1.5859
 1951SOL     OW17311   0.407   2.166  10.912  0.0257  0.0030  0.6828
 1951SOL    HW117312   0.476   2.191  10.973  0.6320  1.4966 -0.5996
 1951SOL    HW217313   0.385   2.243  10.859 -2.6862 -1.2905 -0.0714
 1952SOL     OW17314   0.722   0.165   5.611  0.1401  0.3091 -0.0693
 1952SOL    HW117315   0.753   0.255   5.598  0.2519  0.2271 -0.3889
 1952SOL    HW217316   0.638   0.168   5.565  0.3308 -0.0011 -0.4356
 1953SOL     OW17317   1.116   1.037  11.273  0.4359  0.2729  0.4459
 1953SOL    HW117318   1.206   1.061  11.294  0.2672  0.6958  0.6779
 1953SOL    HW217319   1.141   0.984  11.197  0.6654  2.5351 -1.0517
 1954SOL     OW17320   1.316   4.333   0.982  0.1295  0.1193 -0.1204
 1954SOL    HW117321   1.224   4.319   1.003  0.1919  0.3963  0.3442
 1954SOL    HW217322   1.370   4.313   1.059  0.9830 -0.0338 -0.7505
 1955SOL     OW17323   2.551   3.602   7.360 -0.1132 -0.2473 -0.0410
 1955SOL    HW117324   2.483   3.641   7.414 -0.4177 -0.5961 -0.1690
 1955SOL    HW217325   2.592   3.672   7.310  3.2586 -2.6856 -0.7392
 1956SOL     OW17326   0.768   2.175  14.088 -0.1612 -0.4217  0.2031
 1956SOL    HW117327   0.717   2.229  14.148 -3.0669 -1.9648 -0.8961
 1956SOL    HW217328   0.839   2.143  14.145 -0.2578 -1.7550 -0.4352
 1957SOL     OW17329   1.096   0.431   7.399  0.2423 -0.5793  0.1428
 1957SOL    HW117330   1.143   0.514   7.411  0.2181 -0.3028 -1.6124
 1957SOL    HW217331   1.059   0.404   7.482  0.6529  0.9480  0.8269
 1958SOL     OW17332   1.212   1.944   7.320  0.2263 -0.2783  0.1012
 1958SOL    HW117333   1.256   1.991   7.390  0.8053 -0.6780  0.0111
 1958SOL    HW217334   1.142   2.007   7.303 -0.8157 -1.4678 -0.0704
 1959SOL     OW17335   1.854   0.530  10.734  0.2336 -0.1587 -0.1425
 1959SOL    HW117336   1.865   0.611  10.684  0.0357 -0.1418 -0.1577
 1959SOL    HW217337   1.771   0.501  10.696  1.0238  0.3422 -2.2283
 1960SOL     OW17338   4.123   3.906   1.222  0.3759 -0.1479  0.2210
 1960SOL    HW117339   4.108   3.936   1.311  1.4179  0.5008  0.1664
 1960SOL    HW217340   4.216   3.920   1.207  0.3910  0.3684  0.8368
 1961SOL     OW17341   0.066   0.191   0.219  0.9704 -0.3248 -0.3970
 1961SOL    HW117342   0.019   0.120   0.175  0.8936 -1.4626  1.5100
 1961SOL    HW217343   0.124   0.226   0.152  1.8172 -0.2139  0.4010
 1962SOL     OW17344   4.551   3.487   7.852 -0.2647  0.0585 -0.4400
 1962SOL    HW117345   4.584   3.397   7.847  1.8479  0.8055 -0.1386
 1962SOL    HW217346   4.632   3.531   7.823  0.6654 -0.7865  0.8743
 1963SOL     OW17347   1.803   2.756   9.448  0.2451 -0.0104 -0.4855
 1963SOL    HW117348   1.875   2.753   9.510 -0.3279 -2.2428  0.0982
 1963SOL    HW217349   1.780   2.849   9.444 -2.6674 -0.6615  0.7108
 1964SOL     OW17350   0.103   4.062   8.850  0.1435  0.1167 -0.6512
 1964SOL    HW117351   0.142   4.083   8.765 -0.3765 -0.4996 -1.0397
 1964SOL    HW217352   0.169   4.105   8.903 -1.5708  0.3113  1.3061
 1965SOL     OW17353   3.635   2.057  14.818 -0.3043  0.2500  0.1197
 1965SOL    HW117354   3.652   2.028  14.908 -1.5780  0.6458  0.4944
 1965SOL    HW217355   3.540   2.042  14.812 -0.3013  1.1467 -1.9207
 1966SOL     OW17356   3.928   3.883  14.240 -0.0569  0.2709  0.5458
 1966SOL    HW117357   3.957   3.834  14.318  0.0143  2.9334  2.1759
 1966SOL    HW217358   3.922   3.970  14.279  2.7170  1.4357 -1.6338
 1967SOL     OW17359   0.918   3.729  16.866  0.6108 -0.2025 -0.3139
 1967SOL    HW117360   0.954   3.641  16.857  0.8883 -0.3972  2.9004
 1967SOL    HW217361   0.865   3.738  16.786 -0.9938  0.0911  0.7887
 1968SOL     OW17362   1.843   0.738  17.607 -0.1662 -0.7781  0.5851
 1968SOL    HW117363   1.829   0.762   0.012  0.1588 -1.0731  0.7074
 1968SOL    HW217364   1.752   0.745  17.578 -1.1075 -2.9472  3.0732
 1969SOL     OW17365   3.397   4.406   3.582  0.1233 -0.0503  0.6910
 1969SOL    HW117366   3.380   4.317   3.614 -0.5170 -1.0977 -2.6409
 1969SOL    HW217367   3.366   4.461   3.654  0.5715  1.9741 -0.6643
 1970SOL     OW17368   1.794   4.442   6.738 -0.0944  0.5779 -0.7694
 1970SOL    HW117369   1.804   4.352   6.768 -0.9226  0.7080 -0.0933
 1970SOL    HW217370   1.816   4.425   6.647  0.4637  0.9865 -0.7114
 1971SOL     OW17371   0.497   3.189  13.808  0.2104  0.3407  0.0174
 1971SOL    HW117372   0.448   3.156  13.732 -1.6434  0.3627  1.2012
 1971SOL    HW217373   0.582   3.147  13.807  0.0917  0.1190 -1.3528
 1972SOL     OW17374   0.185   0.150   2.022 -0.0343 -0.3174  0.6207
 1972SOL    HW117375   0.138   0.228   1.993  0.9632  0.7281  1.8580
 1972SOL    HW217376   0.273   0.170   1.989  0.0611 -0.5778  0.7132
 1973SOL     OW17377   0.916   2.446   2.151 -0.5815  0.2003 -0.0989
 1973SOL    HW117378   0.837   2.437   2.098 -1.0176 -0.6283  0.6967
 1973SOL    HW217379   0.963   2.364   2.134 -2.1538  0.3171 -5.0076
 1974SOL     OW17380   0.516   1.356   3.724  0.0614 -0.7253 -0.2551
 1974SOL    HW117381   0.602   1.357   3.683  0.7342 -0.0153  1.1695
 1974SOL    HW217382   0.465   1.335   3.646  0.8696  2.8755 -1.7719
 1975SOL     OW17383   0.089   2.811   5.962  0.7328  0.1158 -0.3231
 1975SOL    HW117384   0.025   2.788   5.895  0.2030  0.3488  0.1039
 1975SOL    HW217385   0.036   2.844   6.035  1.1491 -2.1407  1.0208
 1976SOL     OW17386   0.404   3.271   0.844 -0.5553 -0.6133 -0.1106
 1976SOL    HW117387   0.343   3.327   0.797  0.4002  0.8578  0.4000
 1976SOL    HW217388   0.459   3.338   0.885 -0.3658 -0.6630 -0.2840
 1977SOL     OW17389   1.879   3.363   2.691 -0.0405  0.0334 -0.0557
 1977SOL    HW117390   1.926   3.437   2.730  0.1804 -0.8757  1.4448
 1977SOL    HW217391   1.948   3.298   2.710 -0.3045  0.3420  1.9593
 1978SOL     OW17392   3.338   0.739   2.709 -0.0689  0.4928 -0.5674
 1978SOL    HW117393   3.265   0.773   2.658 -0.3579 -1.2575 -1.3035
 1978SOL    HW217394   3.322   0.644   2.712  0.6932  0.3722 -0.3578
 1979SOL     OW17395   0.864   0.834   4.075 -0.1433  0.1017  0.9148
 1979SOL    HW117396   0.779   0.864   4.109  0.3004  0.8666  1.3479
 1979SOL    HW217397   0.903   0.922   4.075  0.0673  0.0235 -2.9869
 1980SOL     OW17398   4.297   2.405   8.999  0.0323 -0.0184 -0.5119
 1980SOL    HW117399   4.353   2.482   9.011  0.3911 -0.5179  1.0943
 1980SOL    HW217400   4.211   2.446   8.989  0.1104 -0.0164 -1.1633
 1981SOL     OW17401   2.635   3.711   7.694 -0.1230 -0.6382 -0.2028
 1981SOL    HW117402   2.699   3.750   7.634 -0.6690  2.0106  0.9096
 1981SOL    HW217403   2.701   3.652   7.729  0.4712 -0.2010 -0.5774
 1982SOL     OW17404   1.177   3.466  11.207  0.3646  0.3023  0.3572
 1982SOL    HW117405   1.133   3.448  11.290 -1.3495  1.6580 -0.2486
 1982SOL    HW217406   1.265   3.432  11.221  1.8637  3.6521 -0.9206
 1983SOL     OW17407   4.266   2.684   1.188  0.3758 -0.8138 -0.1496
 1983SOL    HW117408   4.315   2.695   1.270 -0.9744 -1.0830  0.6908
 1983SOL    HW217409   4.239   2.775   1.182  0.6538 -0.8769 -2.1246
 1984SOL     OW17410   4.721   0.010  14.648  0.3981 -0.2789 -0.1408
 1984SOL    HW117411   4.707   0.025  14.554  2.6587 -0.1725 -0.4509
 1984SOL    HW217412   0.053   4.652  14.639 -0.8342 -1.1575  0.1901
 1985SOL     OW17413   4.418   2.739   5.634  0.5911 -0.2740  0.0580
 1985SOL    HW117414   4.421   2.677   5.561  0.2015 -1.4058  0.9932
 1985SOL    HW217415   4.387   2.819   5.592  1.7168  0.7046  1.0819
 1986SOL     OW17416   0.285   3.609   0.928 -0.0275 -0.3837  0.5912
 1986SOL    HW117417   0.228   3.549   0.976  0.5066 -0.5282  1.0499
 1986SOL    HW217418   0.373   3.573   0.939  0.8202  1.1834 -1.1365
 1987SOL     OW17419   2.119   2.332   8.775  0.8576 -0.7505 -0.2900
 1987SOL    HW117420   2.025   2.338   8.761  1.0913  0.6636 -1.2021
 1987SOL    HW217421   2.126   2.374   8.861 -2.1175 -2.3911  0.7528
 1988SOL     OW17422   1.135   1.930   3.823 -0.1694  0.0683 -0.0555
 1988SOL    HW117423   1.113   1.987   3.750  0.9965  0.2316 -0.2680
 1988SOL    HW217424   1.043   1.907   3.838 -0.0813  0.5914  1.2956
 1989SOL     OW17425   2.627   1.043   8.163  0.2217 -0.4631  0.5950
 1989SOL    HW117426   2.687   1.063   8.090 -1.2663  2.6796  0.1992
 1989SOL    HW217427   2.560   0.998   8.112 -0.1687  0.6016  0.1721
 1990SOL     OW17428   1.776   1.396   2.928  0.3983  0.6000  0.2280
 1990SOL    HW117429   1.850   1.456   2.920  0.9634 -0.1171  0.0858
 1990SOL    HW217430   1.823   1.333   2.983 -0.1979  0.0255  0.0815
 1991SOL     OW17431   2.634   3.267   3.470 -0.3163 -0.0621  0.1180
 1991SOL    HW117432   2.652   3.347   3.420 -0.2073 -0.3482 -0.3038
 1991SOL    HW217433   2.539   3.275   3.474 -0.3043  0.1001  0.0703
 1992SOL     OW17434   2.808   3.382   8.226  0.1142 -0.5387 -0.1779
 1992SOL    HW117435   2.828   3.450   8.290  1.2003 -1.0206  0.0118
 1992SOL    HW217436   2.749   3.331   8.282 -0.4287  0.1530 -0.1241
 1993SOL     OW17437   2.283   1.029   6.540 -0.4237  0.2745 -0.0307
 1993SOL    HW117438   2.299   1.087   6.465 -0.2465 -1.2891 -1.1973
 1993SOL    HW217439   2.257   0.946   6.502  1.0855 -0.2305  0.0425
 1994SOL     OW17440   3.079   0.407   4.957  0.0907 -0.3198  0.6527
 1994SOL    HW117441   3.026   0.407   4.877 -1.6348  3.3011  1.7763
 1994SOL    HW217442   3.134   0.486   4.950 -0.1661 -0.2353 -0.4469
 1995SOL     OW17443   0.203   2.706   5.612  0.0361  0.7919 -0.9094
 1995SOL    HW117444   0.163   2.687   5.527  0.3077 -1.0156 -0.6243
 1995SOL    HW217445   0.142   2.652   5.662 -1.2866  2.3238 -0.8437
 1996SOL     OW17446   3.254   4.435   7.635 -0.2252  0.4561  0.1897
 1996SOL    HW117447   3.196   4.439   7.711  1.5635 -0.3342  1.6138
 1996SOL    HW217448   3.339   4.421   7.677 -0.7695 -2.3168  0.3849
 1997SOL     OW17449   2.475   4.699   2.170 -0.3083  0.8759  0.0345
 1997SOL    HW117450   2.495   4.696   2.077 -0.9182  0.5678 -0.0871
 1997SOL    HW217451   2.557   4.680   2.215  0.5334  1.2527 -1.3750
 1998SOL     OW17452   3.679   2.258   5.676  0.3589  0.0538 -0.2238
 1998SOL    HW117453   3.714   2.211   5.600  0.1465 -0.9883  0.3174
 1998SOL    HW217454   3.609   2.201   5.708  2.5848 -1.0581  2.6955
 1999SOL     OW17455   2.785   1.664   5.103 -0.7319 -0.4562 -0.1182
 1999SOL    HW117456   2.844   1.619   5.164 -2.6396  1.2396  2.9811
 1999SOL    HW217457   2.755   1.737   5.158  0.8477 -0.5856  0.9170
 2000SOL     OW17458   1.434   0.186   6.196 -0.0550  0.6184 -0.5517
 2000SOL    HW117459   1.373   0.197   6.269  0.6980 -0.1331  0.1917
 2000SOL    HW217460   1.434   0.273   6.156 -2.1160  0.8955  0.0549
 2001SOL     OW17461   4.141   3.367  13.237 -0.2297  0.3229 -0.3756
 2001SOL    HW117462   4.070   3.381  13.299 -0.8226  1.0655 -1.2269
 2001SOL    HW217463   4.103   3.405  13.158  0.2412  2.4231  0.3937
 2002SOL     OW17464   2.137   1.424  11.493 -0.1368  0.0089  0.5145
 2002SOL    HW117465   2.172   1.362  11.429  0.3858 -0.8812  1.6522
 2002SOL    HW217466   2.055   1.452  11.452 -0.7053 -1.2598  0.7702
 2003SOL     OW17467   4.684   0.872   2.242 -0.1373 -0.7799  0.4240
 2003SOL    HW117468   4.628   0.796   2.224 -1.0817  0.0293 -0.0727
 2003SOL    HW217469   4.620   0.940   2.262  0.5282 -0.4127  1.3185
 2004SOL     OW17470   0.579   2.879  12.202 -0.3411  0.2018 -0.1419
 2004SOL    HW117471   0.597   2.973  12.202 -2.8089  0.6890 -0.8684
 2004SOL    HW217472   0.492   2.875  12.244 -0.0903 -1.3578  0.2132
 2005SOL     OW17473   1.678   1.467   7.239 -0.3025  0.1381  0.0853
 2005SOL    HW117474   1.649   1.500   7.154 -2.4332  0.1911  0.8482
 2005SOL    HW217475   1.658   1.374   7.242 -1.2606  0.3741  0.7458
 2006SOL     OW17476   4.721   3.377   6.280  0.1282  0.1209  0.2153
 2006SOL    HW117477   4.659   3.428   6.228 -2.5762 -1.3838  2.0051
 2006SOL    HW217478   4.672   3.373   6.362 -1.3675  0.2497 -0.6809
 2007SOL     OW17479   4.302   0.306   3.736  0.1261  0.0453  0.2494
 2007SOL    HW117480   4.377   0.269   3.781 -2.0999 -3.7209  0.8982
 2007SOL    HW217481   4.325   0.399   3.731 -0.4312  0.0815 -1.8645
 2008SOL     OW17482   4.666   3.992   0.511 -0.5166 -0.4445 -0.0350
 2008SOL    HW117483   4.601   4.048   0.554  0.1050  0.5939 -0.4673
 2008SOL    HW217484   4.633   3.999   0.422 -2.4606 -0.3374  0.6902
 2009SOL     OW17485   4.128   3.604  10.553  0.0703 -0.2809 -0.1017
 2009SOL    HW117486   4.063   3.674  10.563 -1.3344 -1.9193  2.2692
 2009SOL    HW217487   4.205   3.659  10.545  0.9686 -1.1806  2.3786
 2010SOL     OW17488   2.453   0.928   7.987 -0.1118 -0.0805  0.1791
 2010SOL    HW117489   2.365   0.894   7.970 -1.1245  1.8356  1.5554
 2010SOL    HW217490   2.449   1.003   7.928 -0.6743 -1.4394 -1.4970
 2011SOL     OW17491   2.811   1.912   6.676  0.3724  0.0903 -0.1054
 2011SOL    HW117492   2.733   1.861   6.656  0.0684  0.8130 -0.7745
 2011SOL    HW217493   2.779   1.997   6.647 -1.0073 -0.1185  0.7909
 2012SOL     OW17494   3.429   1.940  17.395  0.2198  0.4436  0.2611
 2012SOL    HW117495   3.378   2.014  17.428  2.4850  1.8681  0.5751
 2012SOL    HW217496   3.508   1.953  17.447 -0.4338  1.3072  1.0506
 2013SOL     OW17497   4.100   3.411   6.374 -0.2462  0.3808  0.3389
 2013SOL    HW117498   4.018   3.460   6.378 -0.2521  0.2240  2.4496
 2013SOL    HW217499   4.164   3.479   6.392 -1.1107  1.4627 -0.6793
 2014SOL     OW17500   0.359   0.776   3.248  0.0591  0.5074  0.2869
 2014SOL    HW117501   0.330   0.830   3.175  0.1136  0.3001  0.1137
 2014SOL    HW217502   0.345   0.851   3.307  0.0133  0.0148  0.9056
 2015SOL     OW17503   2.443   0.528   0.748  0.1046 -0.0105  0.3854
 2015SOL    HW117504   2.464   0.484   0.666 -1.1966  0.3209 -0.1293
 2015SOL    HW217505   2.464   0.458   0.810 -0.3157  0.6956  1.3274
 2016SOL     OW17506   2.358   1.595   9.609 -0.0960  0.2012  0.5683
 2016SOL    HW117507   2.278   1.545   9.598  0.3324 -0.8486  2.1528
 2016SOL    HW217508   2.364   1.610   9.704  2.5141  0.3891  0.3842
 2017SOL     OW17509   4.526   3.420   3.140 -0.4435  0.5137  0.1354
 2017SOL    HW117510   4.431   3.427   3.137 -0.3965  1.1067 -0.0545
 2017SOL    HW217511   4.537   3.346   3.199 -0.4176 -2.3903 -3.5129
 2018SOL     OW17512   0.140   3.899   7.937 -0.3965  0.2587  0.2550
 2018SOL    HW117513   0.083   3.935   8.004 -1.1077 -0.5890  0.1138
 2018SOL    HW217514   0.096   3.824   7.896  1.1264  0.2093 -1.2902
 2019SOL     OW17515   4.452   1.438   0.036  0.1606 -0.3553  0.4408
 2019SOL    HW117516   4.417   1.408   0.120 -0.8526  0.2097  0.2198
 2019SOL    HW217517   4.474   1.354  17.681 -0.9973  0.3499 -1.5765
 2020SOL     OW17518   3.443   2.038   1.681  0.0490 -0.7945 -0.7203
 2020SOL    HW117519   3.375   2.021   1.747 -0.7153  2.3727 -0.7232
 2020SOL    HW217520   3.483   1.951   1.679 -1.7856 -1.6884  0.8437
 2021SOL     OW17521   3.871   1.758   2.970  0.5943 -0.5038  0.2120
 2021SOL    HW117522   3.894   1.820   3.039  0.9895 -1.0845  0.6116
 2021SOL    HW217523   3.887   1.674   3.015  1.6189 -1.4745 -1.9892
 2022SOL     OW17524   3.412   3.237   8.437 -1.0728  0.2821 -0.1143
 2022SOL    HW117525   3.464   3.272   8.365  0.3345  0.7925  1.1490
 2022SOL    HW217526   3.368   3.161   8.399  0.5368  0.0657 -1.5603
 2023SOL     OW17527   2.938   3.096   9.079 -0.7360  0.5626 -0.4838
 2023SOL    HW117528   2.995   3.154   9.029 -3.1288  1.2866 -2.3780
 2023SOL    HW217529   2.938   3.024   9.015 -0.1691 -0.3155  0.4887
 2024SOL     OW17530   1.262   1.942   6.314 -0.1562  0.4797 -0.4600
 2024SOL    HW117531   1.216   1.922   6.396  1.0890  0.6339  0.2621
 2024SOL    HW217532   1.193   1.991   6.269 -1.2782 -1.0358 -0.4080
 2025SOL     OW17533   2.788   4.353   7.317  1.0568  0.0316 -0.0214
 2025SOL    HW117534   2.770   4.409   7.393 -0.3280 -0.9998  0.4100
 2025SOL    HW217535   2.884   4.353   7.316  1.0642 -0.1327  0.6905
 2026SOL     OW17536   3.673   0.137   2.491  0.4096  0.4028 -0.3094
 2026SOL    HW117537   3.757   0.120   2.449  0.5736 -0.2336  0.2705
 2026SOL    HW217538   3.653   0.223   2.454 -2.4137 -1.0637 -2.1773
 2027SOL     OW17539   1.718   0.761   1.771 -0.3502 -0.0909  0.1646
 2027SOL    HW117540   1.743   0.669   1.783 -1.3861 -0.4753 -0.6683
 2027SOL    HW217541   1.681   0.790   1.855 -2.5711  0.6419 -1.0735
 2028SOL     OW17542   3.211   1.758   4.036 -0.2057  0.1586  0.3407
 2028SOL    HW117543   3.129   1.717   4.008 -0.2339  0.2253  0.3257
 2028SOL    HW217544   3.196   1.836   3.983  0.4068 -0.1617 -0.3086
 2029SOL     OW17545   2.046   4.428   8.072  0.4208 -0.7725  0.1766
 2029SOL    HW117546   2.090   4.459   8.151 -0.6534 -0.1738  0.5320
 2029SOL    HW217547   1.992   4.358   8.107  1.5822 -2.3559 -1.1681
 2030SOL     OW17548   3.917   2.607  14.321  0.2325 -0.4488  0.5174
 2030SOL    HW117549   3.895   2.576  14.233  1.7887 -2.2564  0.7605
 2030SOL    HW217550   3.864   2.541  14.366 -1.4724 -0.4493 -1.5288
 2031SOL     OW17551   0.756   3.124  13.852  0.3147 -0.1256 -0.2571
 2031SOL    HW117552   0.766   3.035  13.885 -1.3860 -0.5252 -0.8229
 2031SOL    HW217553   0.796   3.171  13.925 -1.9472 -1.3701  1.7493
 2032SOL     OW17554   0.492   1.986   3.707  0.5543 -0.1683 -0.5225
 2032SOL    HW117555   0.471   1.963   3.617 -0.3783 -0.3754 -0.2583
 2032SOL    HW217556   0.497   1.893   3.730  1.3567 -0.4546 -1.8477
 2033SOL     OW17557   4.574   2.659   9.616  0.3904  0.4023  0.2206
 2033SOL    HW117558   4.580   2.709   9.697 -0.1205  1.1309 -0.1984
 2033SOL    HW217559   4.500   2.605   9.645 -0.0538  0.9789  0.1547
 2034SOL     OW17560   0.808   2.154   1.114  0.3392 -0.0321  0.1546
 2034SOL    HW117561   0.791   2.211   1.039 -0.0848  0.8552  0.9308
 2034SOL    HW217562   0.872   2.089   1.085  2.3321  2.1567 -0.3366
 2035SOL     OW17563   2.392   2.654   5.214  0.0104  0.2179  0.2320
 2035SOL    HW117564   2.436   2.638   5.130  0.1308 -0.0278  0.3421
 2035SOL    HW217565   2.325   2.714   5.182 -0.6757 -0.6801 -0.0148
 2036SOL     OW17566   4.087   0.001   6.714 -0.0002  0.4307 -0.2956
 2036SOL    HW117567   4.054   4.712   6.803  2.9944  1.5898  0.9459
 2036SOL    HW217568   4.116   0.091   6.702 -2.3904  1.1176 -0.9183
 2037SOL     OW17569   2.080   0.708  14.293  0.5868 -0.2682  0.2882
 2037SOL    HW117570   2.037   0.676  14.372  1.1165 -2.5487 -0.3532
 2037SOL    HW217571   2.149   0.767  14.324 -0.9591  0.9023  1.5011
 2038SOL     OW17572   0.157   0.969   8.782  0.0724 -0.0607 -0.3350
 2038SOL    HW117573   0.141   0.880   8.813 -0.1731 -0.2214 -0.9102
 2038SOL    HW217574   0.074   0.989   8.738  0.5182  0.6833 -0.8309
 2039SOL     OW17575   0.220   2.870   2.524  0.2577  0.8747  0.4409
 2039SOL    HW117576   0.237   2.919   2.444 -0.9565  0.6931  0.0634
 2039SOL    HW217577   0.190   2.938   2.584 -1.3179 -0.3695  1.0976
 2040SOL     OW17578   1.501   2.400   1.785 -0.2966 -0.0967  0.7436
 2040SOL    HW117579   1.469   2.469   1.727  2.3634 -1.5066 -2.3659
 2040SOL    HW217580   1.579   2.435   1.828 -0.6932  0.5940  0.8987
 2041SOL     OW17581   1.394   4.166   7.797  0.4132  0.0267 -0.3131
 2041SOL    HW117582   1.427   4.095   7.852  0.1425  0.0333 -0.1393
 2041SOL    HW217583   1.307   4.127   7.791  0.3826 -0.0062  0.3247
 2042SOL     OW17584   0.909   2.100   5.051 -0.2506  0.4935 -0.2333
 2042SOL    HW117585   0.998   2.131   5.034 -0.7003  3.1954  2.2059
 2042SOL    HW217586   0.935   2.037   5.119  0.9009 -0.5523 -1.6627
 2043SOL     OW17587   2.035   3.892   3.168 -0.4925  0.2244  0.1858
 2043SOL    HW117588   1.947   3.860   3.189 -0.5967  0.5949  0.3250
 2043SOL    HW217589   2.027   3.987   3.175 -0.8489  0.1126  1.2880
 2044SOL     OW17590   3.055   0.164   3.781 -0.4268  0.0134  0.1869
 2044SOL    HW117591   3.024   0.226   3.848 -0.7558 -0.9829  0.9677
 2044SOL    HW217592   3.062   0.090   3.842  1.3279  0.4259  0.4790
 2045SOL     OW17593   3.620   2.695  12.180  0.2465 -0.2702  0.4502
 2045SOL    HW117594   3.563   2.744  12.240 -0.0043  1.1976 -0.9873
 2045SOL    HW217595   3.582   2.607  12.185  0.2739 -0.5138 -3.8292
 2046SOL     OW17596   0.393   2.461  13.361  0.2646  0.2445  0.1740
 2046SOL    HW117597   0.346   2.513  13.426 -2.4519 -0.9505 -0.8433
 2046SOL    HW217598   0.336   2.449  13.285  2.6024 -1.2955 -1.3339
 2047SOL     OW17599   2.996   0.295   6.410 -0.0646 -0.1832  0.0268
 2047SOL    HW117600   3.090   0.281   6.421  0.0452  0.2339 -0.3977
 2047SOL    HW217601   2.961   0.218   6.366 -0.8508  1.1275 -1.6588
 2048SOL     OW17602   0.309   2.073  14.717 -0.3712 -0.0792 -0.4143
 2048SOL    HW117603   0.314   2.072  14.813  2.4036  0.6284 -0.5398
 2048SOL    HW217604   0.254   2.150  14.705 -1.4813 -0.9859 -1.0466
 2049SOL     OW17605   4.098   1.762   7.683 -0.2466  0.4100  0.1756
 2049SOL    HW117606   4.146   1.805   7.754  0.9716 -0.5177 -0.0972
 2049SOL    HW217607   4.157   1.765   7.608 -0.3716  0.5607  0.0812
 2050SOL     OW17608   3.910   4.527   7.312 -0.0475  0.0300 -0.3477
 2050SOL    HW117609   3.992   4.556   7.273  0.8782 -2.3457 -0.1473
 2050SOL    HW217610   3.860   4.499   7.236  1.0749  0.7285 -1.3282
 2051SOL     OW17611   2.621   4.544   7.825  0.5323 -0.1194 -0.1822
 2051SOL    HW117612   2.526   4.553   7.820  0.7210  2.3767  0.9340
 2051SOL    HW217613   2.637   4.634   7.852 -1.5261  0.0424  0.4889
 2052SOL     OW17614   1.620   1.631   7.033 -0.5824 -0.1263  0.6282
 2052SOL    HW117615   1.527   1.651   7.046 -1.6428 -2.8586 -2.5909
 2052SOL    HW217616   1.653   1.702   7.088  0.1074 -0.5711  0.7816
 2053SOL     OW17617   1.352   4.047   3.385  0.5470  0.1974  0.4610
 2053SOL    HW117618   1.388   4.126   3.425  0.7673  0.3331 -0.0000
 2053SOL    HW217619   1.285   4.016   3.446 -0.0304 -0.5279 -0.5469
 2054SOL     OW17620   0.339   3.565  11.429 -0.4933  0.5162  0.7123
 2054SOL    HW117621   0.294   3.546  11.512 -1.0519  1.5283  0.6438
 2054SOL    HW217622   0.278   3.628  11.391 -0.5263 -0.4167 -0.7617
 2055SOL     OW17623   4.276   2.723   0.865  0.2411  0.4275 -0.5047
 2055SOL    HW117624   4.198   2.726   0.810  0.4534 -1.7506 -0.9053
 2055SOL    HW217625   4.286   2.629   0.880  1.1709  0.5098 -0.5792
 2056SOL     OW17626   0.770   2.370   4.293  0.0675 -0.0594  0.4184
 2056SOL    HW117627   0.761   2.317   4.214 -1.0408 -0.3561  0.7343
 2056SOL    HW217628   0.834   2.435   4.265 -0.9364  0.5209 -0.4943
 2057SOL     OW17629   1.813   3.752  16.340 -0.6589  0.1297  0.0495
 2057SOL    HW117630   1.742   3.688  16.340 -1.7950  1.3949  1.5452
 2057SOL    HW217631   1.865   3.731  16.418  1.3174  1.0947 -1.0122
 2058SOL     OW17632   4.159   1.879   6.961 -0.6482 -0.0379 -0.2446
 2058SOL    HW117633   4.199   1.795   6.940 -0.5845  0.4714 -2.1334
 2058SOL    HW217634   4.193   1.889   7.050 -0.0427 -0.3512 -0.4422
 2059SOL     OW17635   2.260   3.030  16.825  0.3662 -0.2156 -0.5317
 2059SOL    HW117636   2.258   3.114  16.872 -1.3767  0.3428 -1.6010
 2059SOL    HW217637   2.173   2.994  16.843 -0.6344  3.0974  1.3262
 2060SOL     OW17638   0.116   2.507   7.004 -0.1567 -0.4635 -0.3695
 2060SOL    HW117639   0.084   2.596   6.991 -0.5859 -0.7262 -1.0978
 2060SOL    HW217640   0.103   2.470   6.917 -2.7961 -0.7636  0.1452
 2061SOL     OW17641   3.910   1.082   6.259 -0.5580 -0.1771 -0.1777
 2061SOL    HW117642   3.939   1.009   6.313  0.9923  0.0665 -0.6924
 2061SOL    HW217643   3.985   1.104   6.204 -0.4420 -0.4030 -0.1078
 2062SOL     OW17644   4.416   4.436  15.407  0.0337  0.0440  0.4409
 2062SOL    HW117645   4.469   4.503  15.363  0.1293 -0.2150  0.1605
 2062SOL    HW217646   4.325   4.457  15.387  0.8733  0.7877 -2.6249
 2063SOL     OW17647   1.558   2.028   4.094 -0.4753 -0.1982 -0.4615
 2063SOL    HW117648   1.587   2.059   4.008 -1.1857 -1.4813 -1.1635
 2063SOL    HW217649   1.467   2.056   4.082 -1.0058 -0.9456  1.9226
 2064SOL     OW17650   4.106   3.338   7.326  0.1531  0.4962  0.3084
 2064SOL    HW117651   4.023   3.308   7.363  0.3799 -0.0495  0.3694
 2064SOL    HW217652   4.157   3.271   7.371  0.9559  1.2745  0.5679
 2065SOL     OW17653   2.902   2.991   3.541 -0.0380 -0.0812  0.0508
 2065SOL    HW117654   2.811   3.011   3.562  0.0378  0.8795 -0.5817
 2065SOL    HW217655   2.897   2.932   3.466  0.8200  0.7437 -0.6484
 2066SOL     OW17656   3.245   3.605   6.021  0.4480 -0.8438 -0.7541
 2066SOL    HW117657   3.254   3.701   6.020 -0.8151 -0.7397 -1.4761
 2066SOL    HW217658   3.327   3.580   5.978  0.7644 -2.7780  0.9902
 2067SOL     OW17659   1.841   2.615   1.094  0.9799  0.7121  0.1101
 2067SOL    HW117660   1.783   2.557   1.143 -0.2067  1.9722  0.1857
 2067SOL    HW217661   1.926   2.600   1.134  0.7923 -0.7754 -0.0422
 2068SOL     OW17662   1.931   0.778   6.860 -0.0953  0.3206 -0.0980
 2068SOL    HW117663   1.986   0.853   6.884 -2.2712  1.4286  1.4953
 2068SOL    HW217664   1.874   0.775   6.936 -0.9118  1.7545 -0.6436
 2069SOL     OW17665   4.088   0.997   2.551  0.3299  0.2145 -0.2260
 2069SOL    HW117666   4.127   0.911   2.572  0.9790  0.1452 -1.6989
 2069SOL    HW217667   4.170   1.043   2.531  0.2168 -0.4324 -2.2428
 2070SOL     OW17668   0.760   3.351   8.076  0.0184 -0.0191  0.3311
 2070SOL    HW117669   0.701   3.320   8.144 -0.9323 -0.6571 -0.7763
 2070SOL    HW217670   0.844   3.329   8.114  0.4333  2.5713  0.9308
 2071SOL     OW17671   2.713   1.323   9.583  0.3889  0.2601  0.3868
 2071SOL    HW117672   2.643   1.272   9.543  1.0973  0.5510 -1.2359
 2071SOL    HW217673   2.776   1.342   9.513  0.0369 -1.6824 -0.4546
 2072SOL     OW17674   4.415   2.880  13.761  0.4494  0.4479 -0.1547
 2072SOL    HW117675   4.403   2.820  13.835 -0.4799  1.8637  0.8230
 2072SOL    HW217676   4.325   2.884  13.728  1.0168 -0.9406 -1.8674
 2073SOL     OW17677   3.748   2.037  16.703  0.1469  0.0322 -0.0934
 2073SOL    HW117678   3.836   2.074  16.699 -0.5638  1.6388 -1.1454
 2073SOL    HW217679   3.760   1.943  16.698  0.9037  0.2392 -2.0719
 2074SOL     OW17680   0.981   1.017   2.241  0.1239 -0.7710  0.4210
 2074SOL    HW117681   1.009   1.102   2.276  2.0935  0.2061 -3.5090
 2074SOL    HW217682   0.968   0.970   2.324  2.4170 -1.0060  0.6455
 2075SOL     OW17683   4.527   3.645   2.227  0.3561 -0.4165 -0.5241
 2075SOL    HW117684   4.469   3.680   2.159 -0.2825 -1.5004 -0.5307
 2075SOL    HW217685   4.592   3.607   2.168  0.8196 -3.0518  1.7244
 2076SOL     OW17686   1.489   4.136  15.423  0.1493  0.4750 -0.3135
 2076SOL    HW117687   1.412   4.146  15.480 -0.4401  0.3561 -1.0999
 2076SOL    HW217688   1.474   4.180  15.340  2.1867 -0.4182 -1.1503
 2077SOL     OW17689   3.007   0.441   5.341  1.0914 -0.2391 -0.2501
 2077SOL    HW117690   2.942   0.433   5.411  0.2172 -0.3545 -1.0648
 2077SOL    HW217691   2.976   0.515   5.289 -0.5752 -0.6279  0.1869
 2078SOL     OW17692   3.641   1.995   1.235 -0.1860  0.2515  0.2083
 2078SOL    HW117693   3.579   1.934   1.196  0.3113  0.4256 -0.8616
 2078SOL    HW217694   3.584   2.072   1.228 -0.9733 -0.4412 -1.0205
 2079SOL     OW17695   1.362   1.553   4.757 -0.6449  0.5041 -0.0679
 2079SOL    HW117696   1.388   1.593   4.840  0.2478  0.2276 -0.2073
 2079SOL    HW217697   1.379   1.618   4.690  2.0112 -1.4744 -1.3042
 2080SOL     OW17698   3.298   2.650   4.775  0.4281  0.5816 -0.5993
 2080SOL    HW117699   3.373   2.591   4.770  0.0234  0.0529 -0.5112
 2080SOL    HW217700   3.336   2.732   4.743  1.6200  0.6842  1.1199
 2081SOL     OW17701   2.980   3.560   6.947  0.1551  0.4082  0.2540
 2081SOL    HW117702   2.891   3.593   6.958 -0.4783 -0.5688 -1.9566
 2081SOL    HW217703   2.986   3.557   6.852 -1.4929 -0.8064  0.1811
 2082SOL     OW17704   0.076   4.408   6.804 -0.6112  0.2815  0.1674
 2082SOL    HW117705   0.168   4.405   6.830 -0.3651 -3.5750 -1.1297
 2082SOL    HW217706   0.030   4.435   6.884  0.8191 -3.1858  2.1829
 2083SOL     OW17707   3.508   4.645  13.949 -0.0611  0.7289 -0.0422
 2083SOL    HW117708   3.508   4.682  13.860 -1.3525 -1.6748 -1.0241
 2083SOL    HW217709   3.415   4.640  13.970 -0.8663 -0.0509 -3.6929
 2084SOL     OW17710   2.938   4.173   8.775 -0.2206  0.2511 -0.4150
 2084SOL    HW117711   2.919   4.103   8.838  0.8110  0.6226  0.3185
 2084SOL    HW217712   3.015   4.139   8.729 -0.6351 -0.9255 -0.2239
 2085SOL     OW17713   3.583   3.804   4.213  0.1591  0.3080  0.0114
 2085SOL    HW117714   3.608   3.896   4.215 -2.1804  0.9648 -1.4250
 2085SOL    HW217715   3.669   3.771   4.186  0.2585  1.0482 -0.5755
 2086SOL     OW17716   2.363   2.113   4.294  0.3684  0.0870  0.1928
 2086SOL    HW117717   2.380   2.020   4.312  0.6897  0.5339  2.2007
 2086SOL    HW217718   2.329   2.109   4.205  1.1957  0.7866 -0.1483
 2087SOL     OW17719   0.765   2.337   5.002 -0.3588  0.1752  0.2492
 2087SOL    HW117720   0.845   2.387   4.984  0.4173 -1.0917  0.2067
 2087SOL    HW217721   0.800   2.252   5.027  1.6013  0.2722 -2.1817
 2088SOL     OW17722   1.396   2.075   6.571  0.6044  0.1575 -0.1316
 2088SOL    HW117723   1.406   1.982   6.591  1.1622  0.5241  1.2692
 2088SOL    HW217724   1.302   2.094   6.566  0.6398 -0.0773 -1.6044
 2089SOL     OW17725   3.617   4.012  11.544 -0.3372  0.0726  0.0939
 2089SOL    HW117726   3.536   3.968  11.569  0.4562 -0.4712  1.6797
 2089SOL    HW217727   3.667   4.015  11.625  0.0341  0.1296 -0.1338
 2090SOL     OW17728   0.326   3.645   6.902 -0.2549  0.0379 -0.4793
 2090SOL    HW117729   0.338   3.599   6.819 -1.6715 -0.3604 -0.4591
 2090SOL    HW217730   0.286   3.578   6.958  1.2315 -0.7646 -0.3861
 2091SOL     OW17731   3.276   1.089   2.460  0.4128 -0.0010  0.0153
 2091SOL    HW117732   3.329   1.151   2.410  1.9454 -1.3219  0.0344
 2091SOL    HW217733   3.295   1.007   2.414 -1.0624  0.0597 -0.7247
 2092SOL     OW17734   2.056   3.553  12.824 -0.1397 -0.2155  0.3301
 2092SOL    HW117735   2.129   3.544  12.763  0.1486  0.0496  0.6383
 2092SOL    HW217736   1.993   3.584  12.759  0.1174 -1.7182 -0.6165
 2093SOL     OW17737   0.668   1.587   0.984 -0.2590  0.3310 -0.0204
 2093SOL    HW117738   0.661   1.679   0.959 -0.6185 -0.1833 -1.8061
 2093SOL    HW217739   0.756   1.588   1.021 -0.2502 -1.8579  0.0260
 2094SOL     OW17740   1.771   2.444   5.691  0.2935 -0.1934  0.1794
 2094SOL    HW117741   1.832   2.454   5.764  0.7267 -1.2298 -0.0392
 2094SOL    HW217742   1.799   2.359   5.659  0.5563 -0.5885  1.4316
 2095SOL     OW17743   4.561   1.983   3.078  0.3796  0.3704  0.0472
 2095SOL    HW117744   4.501   1.930   3.132  1.6163 -1.6819 -0.5744
 2095SOL    HW217745   4.588   2.058   3.130  1.1971  0.7492 -0.9234
 2096SOL     OW17746   3.325   0.472   2.726 -0.2774  0.1563  0.1019
 2096SOL    HW117747   3.386   0.398   2.729 -1.7802 -1.1019 -0.3596
 2096SOL    HW217748   3.259   0.447   2.790  0.8758 -2.0255  0.4325
 2097SOL     OW17749   2.064   0.884   9.257  0.2448  0.3154  0.7146
 2097SOL    HW117750   2.097   0.909   9.171 -0.4741  0.3980  0.4663
 2097SOL    HW217751   2.044   0.791   9.260  0.4604  0.2447 -0.0113
 2098SOL     OW17752   2.788   0.463   2.966  0.5826 -0.2756  0.3899
 2098SOL    HW117753   2.798   0.389   3.026  1.1845 -0.7048 -0.2409
 2098SOL    HW217754   2.697   0.445   2.942  0.4953 -3.0237  2.8053
 2099SOL     OW17755   2.825   4.403   8.788  0.0202 -0.5678  0.2796
 2099SOL    HW117756   2.874   4.324   8.767  1.2422  0.3186 -0.2600
 2099SOL    HW217757   2.894   4.459   8.825 -1.1756  0.5233  0.8875
 2100SOL     OW17758   2.037   4.605   5.417 -0.2822 -0.0373 -0.3752
 2100SOL    HW117759   1.955   4.598   5.466 -0.6152  4.0561 -0.3453
 2100SOL    HW217760   2.088   4.673   5.461 -2.1825  0.3317  1.2714
 2101SOL     OW17761   3.661   2.340  17.538  0.0972  0.3289 -0.7930
 2101SOL    HW117762   3.610   2.418  17.516 -0.6540  0.5819  1.8650
 2101SOL    HW217763   3.731   2.357  17.474  1.8841 -1.0451  0.7941
 2102SOL     OW17764   0.671   2.263   5.634  0.4030  0.5390  0.5547
 2102SOL    HW117765   0.675   2.320   5.557  2.0288  0.8884  0.8997
 2102SOL    HW217766   0.689   2.182   5.588  0.3467  0.9639 -0.2235
 2103SOL     OW17767   4.649   0.489   6.093  0.1793  0.6312 -0.2924
 2103SOL    HW117768   4.669   0.520   6.181 -0.8954 -1.6823  0.7564
 2103SOL    HW217769   0.009   0.496   6.042  1.3532 -1.1506  1.3309
 2104SOL     OW17770   1.887   3.226   4.028  0.1588 -0.2980  0.2468
 2104SOL    HW117771   1.917   3.138   4.050  0.4378 -0.3168 -0.2101
 2104SOL    HW217772   1.916   3.268   4.109 -0.7556 -0.5549  0.6997
 2105SOL     OW17773   3.027   0.039  15.529 -0.3814 -0.4868 -0.0039
 2105SOL    HW117774   3.007   0.050  15.622 -0.8793 -3.4144  0.2083
 2105SOL    HW217775   2.974   4.684  15.505  1.2501 -1.1595 -1.4574
 2106SOL     OW17776   4.268   0.455   6.638  0.0037  0.2786  0.1683
 2106SOL    HW117777   4.301   0.461   6.548 -0.6187  0.8711 -0.0245
 2106SOL    HW217778   4.312   0.529   6.680  1.5440 -0.8350  0.4709
 2107SOL     OW17779   1.746   3.543   7.979  0.4110 -0.7099 -0.3705
 2107SOL    HW117780   1.712   3.453   7.986  1.4686 -0.9712  1.3641
 2107SOL    HW217781   1.828   3.533   8.027  0.8194 -0.1480 -0.9552
 2108SOL     OW17782   0.531   3.402   8.731 -0.2043 -0.1774 -0.2902
 2108SOL    HW117783   0.526   3.460   8.807  0.6813 -0.6172  0.1014
 2108SOL    HW217784   0.622   3.373   8.736 -0.2479 -0.9061 -3.3181
 2109SOL     OW17785   2.854   3.855   7.582 -0.2273  0.0782 -0.1436
 2109SOL    HW117786   2.849   3.950   7.566 -1.0160  0.1599  0.5420
 2109SOL    HW217787   2.945   3.838   7.603  0.0300  2.4591  0.6862
 2110SOL     OW17788   3.558   0.074   5.380 -0.0692  0.4667  0.1999
 2110SOL    HW117789   3.545   0.122   5.462  0.7584  0.3249  0.4107
 2110SOL    HW217790   3.487   0.115   5.331  1.7062  1.9115 -1.1491
 2111SOL     OW17791   3.162   4.131   8.976  0.2038 -0.0933  0.4853
 2111SOL    HW117792   3.074   4.108   9.004  0.1107 -1.7525 -1.1738
 2111SOL    HW217793   3.191   4.049   8.936  1.0851  1.4035 -1.9246
 2112SOL     OW17794   1.870   3.121   9.415  0.8181 -0.5567 -0.4877
 2112SOL    HW117795   1.795   3.181   9.410 -0.4162 -1.9034  2.0872
 2112SOL    HW217796   1.912   3.151   9.496 -1.8446 -1.7559  1.3282
 2113SOL     OW17797   0.330   1.288   3.177 -0.4226  0.5636 -0.4104
 2113SOL    HW117798   0.403   1.231   3.153  0.6228  2.5439 -1.9985
 2113SOL    HW217799   0.338   1.361   3.115 -1.0714  0.9894  0.0126
 2114SOL     OW17800   0.379   0.252   3.383 -0.2095 -0.0680  0.1729
 2114SOL    HW117801   0.458   0.260   3.329  0.1639 -0.6105  0.6382
 2114SOL    HW217802   0.323   0.318   3.342  1.6914  1.4930  0.1132
 2115SOL     OW17803   1.328   2.438  16.829 -0.1239  0.5758 -0.3984
 2115SOL    HW117804   1.354   2.348  16.808  1.8063 -0.1112  4.8244
 2115SOL    HW217805   1.371   2.474  16.751  4.1528  1.0536  2.1691
 2116SOL     OW17806   0.428   0.819   2.027 -0.3584  0.2674  0.2322
 2116SOL    HW117807   0.337   0.824   1.995  0.1715 -0.0539 -1.3328
 2116SOL    HW217808   0.463   0.903   1.997 -1.2448  0.9710  1.1768
 2117SOL     OW17809   4.353   1.136  10.717  0.0969  0.5778  0.3566
 2117SOL    HW117810   4.345   1.173  10.805  1.7784 -0.3283  0.8916
 2117SOL    HW217811   4.330   1.220  10.677  0.5158  0.1105 -0.8676
 2118SOL     OW17812   0.125   0.553   9.798  0.1248 -0.8437 -0.3874
 2118SOL    HW117813   0.197   0.536   9.737 -0.0688 -1.4063 -0.4585
 2118SOL    HW217814   0.167   0.584   9.878  0.6991  1.0024 -1.3991
 2119SOL     OW17815   4.463   2.208   7.520  0.6752 -0.1084 -0.1279
 2119SOL    HW117816   4.370   2.229   7.522  0.4603 -1.1573  0.7320
 2119SOL    HW217817   4.502   2.294   7.535 -0.2141  0.3387 -0.4361
 2120SOL     OW17818   0.814   2.048   5.583  0.2112  0.1717  0.0569
 2120SOL    HW117819   0.884   2.070   5.522  1.6212 -0.5013  1.4210
 2120SOL    HW217820   0.861   2.017   5.660 -0.5341 -0.7042  0.1522
 2121SOL     OW17821   3.403   4.204   5.872  0.0939  0.1675  0.1609
 2121SOL    HW117822   3.334   4.175   5.931  0.3746  1.4256  1.0973
 2121SOL    HW217823   3.381   4.295   5.850 -0.6653 -0.3410 -1.2134
 2122SOL     OW17824   0.033   3.657  13.185 -0.0981  0.1580 -0.5205
 2122SOL    HW117825   4.677   3.705  13.215  0.0919 -0.3138  0.7240
 2122SOL    HW217826   0.039   3.686  13.094  2.5541  1.8825  0.2163
 2123SOL     OW17827   1.174   2.628   6.792 -0.1439 -0.1450  0.3212
 2123SOL    HW117828   1.105   2.683   6.757  0.6982 -1.1821 -2.9807
 2123SOL    HW217829   1.238   2.678   6.842  0.0124  0.0089 -0.0362
 2124SOL     OW17830   0.365   1.057   6.442 -0.2332  0.3860  0.8902
 2124SOL    HW117831   0.443   1.110   6.425  1.5361 -3.3248 -2.5094
 2124SOL    HW217832   0.304   1.126   6.416 -0.6760 -0.3538 -0.0859
 2125SOL     OW17833   1.499   2.771   1.918 -0.0328 -0.1627  0.3354
 2125SOL    HW117834   1.471   2.691   1.962 -1.6449  0.2564  0.0698
 2125SOL    HW217835   1.438   2.781   1.846 -0.4529 -1.7251  0.4744
 2126SOL     OW17836   4.541   0.857  14.871 -0.0174  0.1617 -0.1461
 2126SOL    HW117837   4.498   0.937  14.841  0.6775  0.4216 -0.4304
 2126SOL    HW217838   4.566   0.872  14.962 -2.1074  1.5491  0.2051
 2127SOL     OW17839   0.178   0.357   5.939 -0.3542  0.3243 -0.0363
 2127SOL    HW117840   0.269   0.345   5.910 -0.4363  0.0313 -0.1666
 2127SOL    HW217841   0.177   0.345   6.034 -1.6177  0.1705 -0.0750
 2128SOL     OW17842   3.211   1.159  17.652 -0.8626  0.4117 -0.0810
 2128SOL    HW117843   3.147   1.096  17.618 -1.2252  0.5339  0.3802
 2128SOL    HW217844   3.250   1.121   0.043  1.0258  1.2941 -0.5962
 2129SOL     OW17845   2.077   3.481   6.641  0.1932 -0.5828 -0.3789
 2129SOL    HW117846   2.165   3.452   6.665  0.9150 -0.3678 -2.7601
 2129SOL    HW217847   2.037   3.489   6.727 -0.9634  3.2725 -1.2871
 2130SOL     OW17848   4.290   0.719  14.235 -0.1860 -0.1261  0.1492
 2130SOL    HW117849   4.336   0.779  14.176 -1.0830  1.5344  1.1493
 2130SOL    HW217850   4.361   0.697  14.295  0.3789  1.6303  0.1068
 2131SOL     OW17851   4.116   0.261   0.669 -0.4917 -0.1483  0.1813
 2131SOL    HW117852   4.051   0.194   0.651  0.6908 -1.3154  0.2572
 2131SOL    HW217853   4.141   0.283   0.579  0.6676  1.2659  0.8512
 2132SOL     OW17854   0.514   1.665  10.539  0.0919 -0.5927  0.2751
 2132SOL    HW117855   0.519   1.606  10.464 -0.8229 -0.4607  0.1199
 2132SOL    HW217856   0.463   1.627  10.610 -2.5978 -0.4843 -1.6221
 2133SOL     OW17857   4.603   0.703  14.085  0.8620 -0.3387 -0.0876
 2133SOL    HW117858   4.674   0.750  14.128  0.8893 -0.9228  0.4964
 2133SOL    HW217859   4.627   0.615  14.116  1.3021  0.1487  0.9223
 2134SOL     OW17860   0.630   4.132   1.155  0.1781 -0.0734  0.1560
 2134SOL    HW117861   0.673   4.067   1.100  0.8143 -0.3901  1.0382
 2134SOL    HW217862   0.575   4.188   1.099  0.5250 -3.3418 -3.4337
 2135SOL     OW17863   3.285   0.196   0.048 -0.6409  0.7923  0.4779
 2135SOL    HW117864   3.279   0.101   0.054  0.1863  0.8298  1.7455
 2135SOL    HW217865   3.247   0.224   0.131  1.6653 -0.5341  1.9820
 2136SOL     OW17866   4.284   3.163  11.516  0.0884 -0.5589  0.2082
 2136SOL    HW117867   4.267   3.257  11.507 -0.3822 -0.6839 -0.2132
 2136SOL    HW217868   4.360   3.155  11.574  0.8453 -1.5515 -0.9418
 2137SOL     OW17869   3.870   1.494   1.970  0.5595  0.1922 -0.2858
 2137SOL    HW117870   3.797   1.461   1.917  0.2831 -1.7009  1.2536
 2137SOL    HW217871   3.940   1.509   1.907 -1.1798 -1.8677 -2.7215
 2138SOL     OW17872   3.961   2.866   2.115 -0.2868 -0.1701 -0.0845
 2138SOL    HW117873   3.930   2.797   2.057 -3.3912  1.5848 -0.4969
 2138SOL    HW217874   4.047   2.825   2.124 -0.1754 -0.0969 -0.7708
 2139SOL     OW17875   4.230   2.180  13.255 -0.7124  0.0891 -0.1048
 2139SOL    HW117876   4.258   2.272  13.246 -0.0830  0.2394  3.5641
 2139SOL    HW217877   4.217   2.158  13.347 -0.2561  0.4940  0.0544
 2140SOL     OW17878   3.812   4.015   1.082  0.0552  0.5974  0.2041
 2140SOL    HW117879   3.759   4.077   1.132 -0.8984 -0.3881  0.4155
 2140SOL    HW217880   3.768   3.930   1.081  0.6776  0.2977 -0.9868
 2141SOL     OW17881   2.373   4.266   9.631 -0.2026  0.5289 -0.1519
 2141SOL    HW117882   2.291   4.303   9.600 -0.7829 -1.0720 -0.5220
 2141SOL    HW217883   2.374   4.289   9.724  0.1541  0.6716 -0.1882
 2142SOL     OW17884   2.460   1.885   0.219 -0.6993 -0.1952  0.0886
 2142SOL    HW117885   2.442   1.969   0.261  2.1160  0.7501 -0.6342
 2142SOL    HW217886   2.374   1.844   0.214 -1.4606  1.2831  0.9551
 2143SOL     OW17887   0.274   0.551   1.749  0.0676 -0.1949  0.6774
 2143SOL    HW117888   0.263   0.634   1.703  0.5771 -1.1549 -1.1635
 2143SOL    HW217889   0.324   0.575   1.827  1.5795 -1.8754  0.2209
 2144SOL     OW17890   3.693   1.991  15.063  0.0140 -0.1666 -0.2447
 2144SOL    HW117891   3.715   1.915  15.116 -0.9953 -0.8614 -0.8205
 2144SOL    HW217892   3.730   2.062  15.116 -1.6276  0.2480  0.3293
 2145SOL     OW17893   0.295   3.940   2.849 -0.6753 -0.6488 -0.1493
 2145SOL    HW117894   0.238   3.870   2.882 -0.8692 -0.7219 -0.6328
 2145SOL    HW217895   0.338   3.971   2.928  1.4766 -2.2954 -0.6818
 2146SOL     OW17896   2.443   3.068   5.143 -0.0206 -0.1407  0.0092
 2146SOL    HW117897   2.513   3.118   5.185  1.5588 -0.9077 -1.7389
 2146SOL    HW217898   2.380   3.059   5.214 -1.2866 -1.2482 -1.2559
 2147SOL     OW17899   2.721   0.679   3.557 -0.7868  0.2522 -0.0875
 2147SOL    HW117900   2.777   0.606   3.530 -2.3391 -0.8977 -0.1522
 2147SOL    HW217901   2.640   0.637   3.586  0.4005 -1.4479  0.7984
 2148SOL     OW17902   2.963   2.921   1.381  0.2287 -0.4372  0.1185
 2148SOL    HW117903   2.881   2.953   1.344  0.2271  1.3537  1.6323
 2148SOL    HW217904   2.939   2.829   1.389  3.6928 -1.5315 -1.9529
 2149SOL     OW17905   0.112   1.847   6.637 -0.2077  0.0370 -0.0852
 2149SOL    HW117906   0.037   1.906   6.625  0.4773  0.9857  0.2445
 2149SOL    HW217907   0.081   1.776   6.693  1.5242  0.7499  1.7755
 2150SOL     OW17908   1.609   4.132   9.271  0.0610 -0.4253  0.2179
 2150SOL    HW117909   1.547   4.171   9.333  1.1146 -0.4016  1.2607
 2150SOL    HW217910   1.557   4.061   9.234  1.7303 -1.3510 -0.3770
 2151SOL     OW17911   1.136   4.459   8.997 -0.2754  0.0851  0.5251
 2151SOL    HW117912   1.189   4.396   8.948 -0.6474 -1.7971  2.5139
 2151SOL    HW217913   1.074   4.399   9.038  0.8217  0.0802  2.1653
 2152SOL     OW17914   1.852   4.707  11.535 -0.2768  0.7016  0.1419
 2152SOL    HW117915   1.820   0.004  11.447 -0.3353 -0.4537 -0.0732
 2152SOL    HW217916   1.936   4.668  11.509 -0.2208  1.6997 -1.1954
 2153SOL     OW17917   2.991   4.353   9.916 -0.3171  0.2582 -0.2901
 2153SOL    HW117918   3.052   4.280   9.910 -3.0107 -2.0483  0.0307
 2153SOL    HW217919   2.957   4.321  10.000 -0.0399 -0.9462 -0.6384
 2154SOL     OW17920   3.349   1.071  14.163  0.3594  0.2341  0.1449
 2154SOL    HW117921   3.408   1.087  14.236  1.7176 -0.3761 -0.8286
 2154SOL    HW217922   3.408   1.082  14.089 -0.3520 -1.6239 -0.7114
 2155SOL     OW17923   0.112   3.425   8.074 -0.3642 -0.6047  0.0567
 2155SOL    HW117924   0.080   3.514   8.092  2.8489  0.9368 -1.8026
 2155SOL    HW217925   0.073   3.387   8.153 -2.7866  0.7429 -0.4757
 2156SOL     OW17926   2.920   3.037   6.520  0.7673  0.0094 -0.3314
 2156SOL    HW117927   2.834   2.999   6.541  0.2985 -0.7873 -3.6139
 2156SOL    HW217928   2.914   3.122   6.563 -0.5567 -0.0403 -0.4277
 2157SOL     OW17929   3.487   2.282  12.039  0.0254  0.6600  0.1311
 2157SOL    HW117930   3.456   2.210  11.984 -0.5995  0.4252  0.7824
 2157SOL    HW217931   3.482   2.355  11.977 -0.1620 -0.2434 -0.9005
 2158SOL     OW17932   3.120   2.975   7.598  0.3550  0.3153  0.5211
 2158SOL    HW117933   3.156   2.946   7.682  0.1841 -2.4651 -0.3446
 2158SOL    HW217934   3.028   2.975   7.625 -0.0914 -0.5186 -1.0355
 2159SOL     OW17935   4.630   0.945   8.129 -0.0480 -0.5035  0.0850
 2159SOL    HW117936   4.677   0.879   8.079  0.1105  0.3604 -0.9022
 2159SOL    HW217937   4.539   0.915   8.138  0.5754 -2.7053 -1.0842
 2160SOL     OW17938   4.641   1.496   5.395  0.2378  0.1337 -0.1011
 2160SOL    HW117939   4.703   1.512   5.466 -1.0599  2.6508  0.4935
 2160SOL    HW217940   4.559   1.540   5.419 -0.7822 -1.2125 -1.1376
 2161SOL     OW17941   4.596   1.297   2.641 -0.2468 -0.4515  0.0726
 2161SOL    HW117942   4.539   1.361   2.684 -1.9057 -1.2821 -0.9190
 2161SOL    HW217943   4.528   1.230   2.648 -1.0677  0.2998 -0.8282
 2162SOL     OW17944   4.631   4.480   6.005  0.0700  0.2141 -0.2503
 2162SOL    HW117945   4.625   4.485   5.909 -0.6779 -2.5247 -0.3396
 2162SOL    HW217946   4.575   4.404   6.016  1.0205 -0.6541 -1.3558
 2163SOL     OW17947   2.133   3.267   8.027 -0.3997 -0.2708  0.2132
 2163SOL    HW117948   2.192   3.195   8.050 -0.9803 -0.6926  0.3913
 2163SOL    HW217949   2.065   3.253   8.093 -0.2133  0.5340  0.5819
 2164SOL     OW17950   3.512   3.281  11.203  0.1704  0.2932 -0.5583
 2164SOL    HW117951   3.438   3.230  11.236  0.2540  0.5507  0.0308
 2164SOL    HW217952   3.484   3.371  11.221 -0.7602  0.4319 -2.6119
 2165SOL     OW17953   3.968   3.518   9.515  0.2491 -0.6896 -0.1639
 2165SOL    HW117954   3.970   3.587   9.448 -2.5944 -1.0010 -0.5797
 2165SOL    HW217955   3.881   3.533   9.551  0.7628  1.1497  0.3353
 2166SOL     OW17956   2.304   3.734   3.751  0.0284  0.1709  0.4384
 2166SOL    HW117957   2.317   3.656   3.698  2.4358 -0.6858  2.2510
 2166SOL    HW217958   2.210   3.743   3.764 -0.5393 -1.4287 -2.7147
 2167SOL     OW17959   3.763   4.703  12.750 -0.1759 -0.3214 -0.1701
 2167SOL    HW117960   3.705   0.029  12.811  0.8340  1.0359 -0.2488
 2167SOL    HW217961   3.708   4.678  12.676  1.6891 -1.1405 -1.2764
 2168SOL     OW17962   3.202   2.838   4.991  0.1494  0.1237  0.0338
 2168SOL    HW117963   3.192   2.752   4.950 -1.7491  0.8786 -1.0851
 2168SOL    HW217964   3.113   2.871   5.004  0.6031  0.9244  1.1647
 2169SOL     OW17965   2.862   3.244  14.858 -0.1191  0.3473  0.3422
 2169SOL    HW117966   2.814   3.282  14.784 -1.4283 -1.2545  0.3903
 2169SOL    HW217967   2.944   3.292  14.844 -0.3359  0.3715 -0.8396
 2170SOL     OW17968   2.996   1.678   1.093 -0.0673  0.1925  0.0300
 2170SOL    HW117969   3.040   1.683   1.009 -0.9185  0.5000 -0.3994
 2170SOL    HW217970   3.033   1.755   1.136  1.2932 -0.1232 -0.5872
 2171SOL     OW17971   1.288   1.484   8.503  0.3875 -0.5207  0.4696
 2171SOL    HW117972   1.358   1.441   8.454 -0.9970 -1.4673 -0.6845
 2171SOL    HW217973   1.222   1.488   8.433  1.9078  1.0919 -0.8885
 2172SOL     OW17974   1.278   1.920  12.624  0.2993 -0.3958 -0.4225
 2172SOL    HW117975   1.299   1.902  12.532 -1.6257 -2.2041 -0.5073
 2172SOL    HW217976   1.295   2.014  12.634  1.1693 -1.0306  4.1975
 2173SOL     OW17977   0.044   2.536  10.919  0.4321  0.0628  0.2829
 2173SOL    HW117978   4.719   2.458  10.951  1.1724 -1.2979 -1.9374
 2173SOL    HW217979   4.690   2.574  10.873 -0.0372  0.8361  1.6953
 2174SOL     OW17980   1.531   2.610   3.313  0.0881  0.2770 -0.9926
 2174SOL    HW117981   1.458   2.568   3.359  1.8035 -0.9951  0.6011
 2174SOL    HW217982   1.497   2.699   3.308 -0.1412  0.2771  0.4910
 2175SOL     OW17983   4.045   1.181  10.595 -0.3635  0.0562  0.0403
 2175SOL    HW117984   4.081   1.092  10.593 -0.7713 -0.1324  1.0738
 2175SOL    HW217985   4.012   1.203  10.682  1.3044 -2.7924  1.3950
 2176SOL     OW17986   3.661   4.287  13.789  0.0978  0.5177 -0.2464
 2176SOL    HW117987   3.666   4.308  13.882 -1.7138  2.1597 -0.5320
 2176SOL    HW217988   3.665   4.362  13.729 -1.8895 -0.7178 -1.9425
 2177SOL     OW17989   1.192   1.747   7.997 -0.4526  0.2084 -0.5097
 2177SOL    HW117990   1.166   1.794   8.076 -0.4754  1.3445 -1.1870
 2177SOL    HW217991   1.280   1.782   7.989  0.6804 -2.1286  1.6485
 2178SOL     OW17992   3.315   2.434   9.758 -0.0264  0.0567 -0.5240
 2178SOL    HW117993   3.364   2.516   9.749  0.4492 -0.2009 -0.2912
 2178SOL    HW217994   3.237   2.458   9.710  0.2927  1.1152 -0.5104
 2179SOL     OW17995   0.826   4.263   8.392  0.1676  0.4354 -0.1323
 2179SOL    HW117996   0.886   4.311   8.336  0.3929  3.2522  2.5095
 2179SOL    HW217997   0.798   4.196   8.329 -3.3649 -0.8346  2.7671
 2180SOL     OW17998   0.779   0.347   0.952 -0.3221  0.2965  0.0292
 2180SOL    HW117999   0.710   0.372   0.890 -0.9123 -0.2425  0.4743
 2180SOL    HW218000   0.858   0.345   0.898 -0.6849  1.1025 -0.5308
 2181SOL     OW18001   3.764   0.902   0.155  0.1424  0.4862 -0.4175
 2181SOL    HW118002   3.777   0.885   0.062 -0.7223  1.3732 -0.7059
 2181SOL    HW218003   3.770   0.817   0.198  2.4479  0.5661 -0.6064
 2182SOL     OW18004   1.841   1.660   6.228 -0.1730  0.0882 -0.3290
 2182SOL    HW118005   1.879   1.677   6.314  2.1435 -0.7086 -1.2127
 2182SOL    HW218006   1.912   1.688   6.170 -0.2838  0.9100 -0.0673
 2183SOL     OW18007   4.003   1.802   2.345 -0.2327  0.7106  0.4675
 2183SOL    HW118008   3.939   1.757   2.290  0.0433  1.0124 -0.0997
 2183SOL    HW218009   3.941   1.872   2.368 -1.0421  0.9755 -2.5383
 2184SOL     OW18010   1.400   4.455   6.537  0.2401 -0.3114 -0.3405
 2184SOL    HW118011   1.379   4.472   6.445 -0.5047 -1.2723 -0.3536
 2184SOL    HW218012   1.315   4.423   6.566 -0.0303  0.1561 -0.6057
 2185SOL     OW18013   4.217   0.293   7.443  0.1655 -0.2229  0.5359
 2185SOL    HW118014   4.290   0.261   7.496  1.1826  2.0005  0.4617
 2185SOL    HW218015   4.194   0.363   7.503 -1.0707  0.3304 -0.5940
 2186SOL     OW18016   0.236   0.485   5.514 -0.0525 -0.0668  0.6649
 2186SOL    HW118017   0.158   0.540   5.519  0.1319  0.3186 -0.8378
 2186SOL    HW218018   0.301   0.535   5.564 -1.1136  0.5202  1.4331
 2187SOL     OW18019   0.047   4.601   6.608 -0.6759 -0.1550 -0.1472
 2187SOL    HW118020   0.047   4.525   6.667 -0.7668  0.6919  0.9521
 2187SOL    HW218021   0.034   4.552   6.527 -1.9045  1.3182 -0.8421
 2188SOL     OW18022   2.427   0.286   9.367 -0.4711  0.0443 -0.7219
 2188SOL    HW118023   2.335   0.280   9.339 -0.3339  2.0152 -1.6305
 2188SOL    HW218024   2.461   0.324   9.287  0.1877  0.6151 -0.1738
 2189SOL     OW18025   1.403   3.845  15.582  0.3853  0.0333 -0.0212
 2189SOL    HW118026   1.498   3.835  15.581  0.2313 -1.6503  0.7914
 2189SOL    HW218027   1.387   3.938  15.573  0.4791  0.0210 -0.3215
 2190SOL     OW18028   1.777   2.544   5.423  0.1856 -0.2166 -0.2016
 2190SOL    HW118029   1.789   2.488   5.500 -0.0253  0.3325  0.2319
 2190SOL    HW218030   1.685   2.558   5.443  0.9003  3.7270  0.4310
 2191SOL     OW18031   1.122   4.581   1.290  0.1249  0.5032  0.3918
 2191SOL    HW118032   1.143   4.673   1.279  0.0333  0.5009  0.2070
 2191SOL    HW218033   1.059   4.582   1.363 -0.8146 -1.8459 -0.3759
 2192SOL     OW18034   3.289   0.699  11.085 -0.0920  0.1645 -0.2822
 2192SOL    HW118035   3.289   0.744  11.000 -0.0503 -2.0825 -1.4755
 2192SOL    HW218036   3.382   0.699  11.107 -0.1589  0.6158  0.0056
 2193SOL     OW18037   4.162   3.357   9.392 -0.6271  0.5611 -0.0406
 2193SOL    HW118038   4.161   3.447   9.425 -0.6292 -0.1886  2.0546
 2193SOL    HW218039   4.069   3.339   9.399 -0.7626  1.3861  0.2318
 2194SOL     OW18040   1.758   0.865   7.075 -0.1643 -0.2078  0.1798
 2194SOL    HW118041   1.664   0.860   7.055  0.2251 -2.8953 -1.0513
 2194SOL    HW218042   1.765   0.791   7.136  0.6592  1.3854  1.9922
 2195SOL     OW18043   4.359   2.986   7.754  0.2767 -0.7818  0.0889
 2195SOL    HW118044   4.409   3.044   7.697  1.3371 -3.3278 -1.5410
 2195SOL    HW218045   4.266   3.005   7.738  0.5263  0.5064  0.1321
 2196SOL     OW18046   0.871   1.992   6.513  0.5090 -0.0835  0.4631
 2196SOL    HW118047   0.796   2.045   6.488  0.6356  0.6142  1.5519
 2196SOL    HW218048   0.855   1.925   6.447  4.0673  1.5452 -2.0533
 2197SOL     OW18049   2.141   3.944  16.878  0.2691  0.0524 -0.0305
 2197SOL    HW118050   2.116   4.036  16.887 -2.2563 -0.6682  0.3080
 2197SOL    HW218051   2.223   3.933  16.927  1.0546  1.4157 -1.0433
 2198SOL     OW18052   0.683   2.730  12.404  0.0968  0.0832 -0.7815
 2198SOL    HW118053   0.605   2.727  12.349 -0.6079  1.0626  0.1527
 2198SOL    HW218054   0.728   2.807  12.369  0.0771  0.5696  0.2561
 2199SOL     OW18055   0.145   3.757   2.998 -0.2934 -0.4511  0.0894
 2199SOL    HW118056   0.077   3.693   2.977 -1.9357  0.2509  3.3081
 2199SOL    HW218057   0.113   3.800   3.077 -1.2102 -0.6804 -0.1587
 2200SOL     OW18058   3.085   0.975  17.531 -0.1050 -0.5984  0.1392
 2200SOL    HW118059   2.996   0.941  17.531 -0.5358  0.5180 -1.7772
 2200SOL    HW218060   3.139   0.897  17.514  0.0390 -0.8330  1.7319
 2201SOL     OW18061   0.269   1.544  17.085 -0.7038 -0.6173  0.2702
 2201SOL    HW118062   0.208   1.596  17.137 -1.1986 -1.0605  0.1339
 2201SOL    HW218063   0.305   1.487  17.152  0.1916  1.5590  1.6421
 2202SOL     OW18064   2.281   3.082   2.004 -0.3265  0.1130 -0.3263
 2202SOL    HW118065   2.345   3.154   1.999 -0.3126  0.2039  1.2636
 2202SOL    HW218066   2.236   3.106   1.923  1.0306  1.4626 -0.6857
 2203SOL     OW18067   3.181   1.489   2.373  0.8412 -0.5648  0.6844
 2203SOL    HW118068   3.194   1.543   2.295 -1.0737  0.8872  1.3913
 2203SOL    HW218069   3.145   1.546   2.440  1.5852 -2.0512  2.3437
 2204SOL     OW18070   4.688   1.718   0.040 -0.3952  0.5634  0.5978
 2204SOL    HW118071   4.672   1.638  17.677  1.1868  1.6005 -1.5856
 2204SOL    HW218072   0.058   1.701   0.063  0.2273  2.7173 -0.2391
 2205SOL     OW18073   3.602   4.362   9.223  0.2253  0.0391 -0.1220
 2205SOL    HW118074   3.617   4.452   9.252 -1.2057  1.4180 -3.6036
 2205SOL    HW218075   3.667   4.355   9.153 -0.0683 -0.0333 -0.3895
 2206SOL     OW18076   3.899   4.255  11.981  0.1286  0.2564 -0.5952
 2206SOL    HW118077   3.867   4.174  11.942 -0.5518  0.8823 -1.3633
 2206SOL    HW218078   3.948   4.231  12.059 -0.5225  1.4451  0.1983
 2207SOL     OW18079   2.105   1.853  14.632 -0.5628  0.3927  0.0162
 2207SOL    HW118080   2.039   1.830  14.697 -0.5764 -0.3885 -0.2768
 2207SOL    HW218081   2.061   1.814  14.557 -1.8761 -2.5417  2.3102
 2208SOL     OW18082   3.199   0.737  16.390  0.5901  0.6371 -0.2457
 2208SOL    HW118083   3.152   0.661  16.423  0.9249  0.2410 -0.6863
 2208SOL    HW218084   3.158   0.806  16.443 -2.5416 -0.7831 -0.8198
 2209SOL     OW18085   0.097   1.185   4.499  0.0596  1.0690  0.2347
 2209SOL    HW118086   0.106   1.100   4.541 -2.6329  0.8729  0.4365
 2209SOL    HW218087   0.048   1.176   4.417 -0.9159  0.9149  0.8331
 2210SOL     OW18088   3.108   3.180   0.545 -0.5048  0.0034 -0.2797
 2210SOL    HW118089   3.032   3.192   0.488 -0.6232  2.2789  0.3529
 2210SOL    HW218090   3.160   3.258   0.527 -1.2844  0.5824  0.0117
 2211SOL     OW18091   0.128   2.214   3.703  0.8169 -0.2946  0.1172
 2211SOL    HW118092   0.140   2.123   3.732 -2.1109 -0.4836  0.7678
 2211SOL    HW218093   0.037   2.218   3.732  0.8143 -1.5309  0.3160
 2212SOL     OW18094   2.581   1.074   9.844  0.3130 -0.2214 -0.3775
 2212SOL    HW118095   2.575   0.993   9.795  0.4124 -0.4154 -0.0738
 2212SOL    HW218096   2.518   1.130   9.800  1.2256  0.3719 -0.9427
 2213SOL     OW18097   2.138   3.638   7.869  0.2358  0.4792 -0.3273
 2213SOL    HW118098   2.185   3.558   7.848 -0.5225 -0.4178  1.4005
 2213SOL    HW218099   2.193   3.706   7.829  1.2652 -0.7205 -0.9280
 2214SOL     OW18100   4.590   1.805   8.967  0.2762 -0.2488 -0.5723
 2214SOL    HW118101   4.579   1.748   8.892  0.7801  0.3845 -1.1218
 2214SOL    HW218102   4.629   1.881   8.924 -0.8549 -1.0716 -3.0235
 2215SOL     OW18103   2.149   3.895   6.807 -0.1876  0.4307 -0.4443
 2215SOL    HW118104   2.153   3.928   6.896  0.1473 -0.5770 -0.0817
 2215SOL    HW218105   2.236   3.911   6.770 -0.1103  1.3196  0.1497
 2216SOL     OW18106   3.624   4.428  15.613  0.0582 -0.0847 -0.3910
 2216SOL    HW118107   3.671   4.477  15.681 -0.3889  1.7188 -1.3639
 2216SOL    HW218108   3.534   4.421  15.647  0.3903  0.1993  0.5582
 2217SOL     OW18109   0.563   2.480  12.438 -0.1260  1.1755  1.0733
 2217SOL    HW118110   0.592   2.571  12.431  2.8449  0.3649  2.5014
 2217SOL    HW218111   0.608   2.447  12.516 -1.9496 -0.6741  1.3289
 2218SOL     OW18112   0.667   1.484   4.383  0.0883  0.3276 -0.1587
 2218SOL    HW118113   0.728   1.529   4.442 -0.1714 -1.1579  1.2350
 2218SOL    HW218114   0.589   1.535   4.403  0.2742  0.7110 -0.4086
 2219SOL     OW18115   1.206   2.716  11.761 -0.1046 -0.2881 -0.7834
 2219SOL    HW118116   1.288   2.672  11.782 -0.9750 -0.4554  2.1272
 2219SOL    HW218117   1.210   2.717  11.665  2.7003 -2.2655 -0.6861
 2220SOL     OW18118   3.277   2.563  10.283 -0.5950  0.1493  0.5208
 2220SOL    HW118119   3.308   2.634  10.227 -0.4211 -0.9052 -0.7122
 2220SOL    HW218120   3.348   2.538  10.341  0.1002  0.1230 -0.3372
 2221SOL     OW18121   2.566   0.520   4.866 -0.1893  0.3540 -0.2295
 2221SOL    HW118122   2.548   0.531   4.959 -0.0590  2.0528 -0.4038
 2221SOL    HW218123   2.476   0.504   4.838 -0.4405 -0.5616  1.0943
 2222SOL     OW18124   2.766   1.318   0.514 -0.4069 -0.7024 -0.1758
 2222SOL    HW118125   2.794   1.240   0.561  3.8679  0.0446 -1.4856
 2222SOL    HW218126   2.811   1.307   0.431 -0.6063 -0.6597 -0.2895
 2223SOL     OW18127   3.701   1.968   3.407 -0.1683 -0.4184  0.4220
 2223SOL    HW118128   3.664   2.020   3.335  0.8582 -0.2164  0.0532
 2223SOL    HW218129   3.620   1.919   3.421 -0.0216 -1.1463 -1.2652
 2224SOL     OW18130   3.736   0.568   0.833 -0.2129 -0.3832 -0.6969
 2224SOL    HW118131   3.818   0.546   0.790  0.0171  0.6157 -0.7609
 2224SOL    HW218132   3.739   0.523   0.918 -1.0145  1.3436  0.2484
 2225SOL     OW18133   2.781   2.640  16.980 -0.2780 -0.2780  0.4454
 2225SOL    HW118134   2.808   2.682  16.899  0.3303 -0.3029  0.6346
 2225SOL    HW218135   2.751   2.557  16.942 -0.8603 -1.8940  4.3876
 2226SOL     OW18136   2.043   4.116   5.566  0.3187 -0.0670 -0.6169
 2226SOL    HW118137   1.991   4.073   5.499  0.3444 -0.7872 -0.1840
 2226SOL    HW218138   2.057   4.202   5.526 -2.0584  0.6266  0.0462
 2227SOL     OW18139   4.420   2.418   3.416  0.6094 -0.0671 -0.2957
 2227SOL    HW118140   4.505   2.461   3.428  0.6540  0.2182 -1.6553
 2227SOL    HW218141   4.399   2.445   3.327  0.3407  0.1613 -0.1618
 2228SOL     OW18142   3.520   1.677   5.545 -0.5177 -0.2947 -0.1393
 2228SOL    HW118143   3.574   1.674   5.624 -0.6595 -1.3757 -0.0968
 2228SOL    HW218144   3.506   1.584   5.529 -2.0625 -0.4617  2.1581
 2229SOL     OW18145   4.073   0.454   3.431  1.2072  0.2308  0.1621
 2229SOL    HW118146   4.040   0.448   3.341 -0.1813 -2.4786  0.8502
 2229SOL    HW218147   4.075   0.548   3.451  0.4329  0.6619 -1.8006
 2230SOL     OW18148   0.945   4.528   3.208 -0.2131  0.0037 -0.2484
 2230SOL    HW118149   0.949   4.481   3.291  0.6120  0.8900  0.2221
 2230SOL    HW218150   1.024   4.581   3.221  2.2283 -4.6108  3.7308
 2231SOL     OW18151   2.685   3.568   6.022 -0.5674  0.4987 -0.1332
 2231SOL    HW118152   2.776   3.563   5.993 -0.5037 -0.0374  0.1581
 2231SOL    HW218153   2.623   3.604   5.958 -1.4636  1.8996  1.5303
 2232SOL     OW18154   2.434   0.280   8.100 -0.1365  0.3058  0.5667
 2232SOL    HW118155   2.501   0.335   8.059  1.1639  0.3962  2.7790
 2232SOL    HW218156   2.369   0.339   8.137 -0.4096 -1.4157  2.8694
 2233SOL     OW18157   0.570   3.907   3.751 -0.5275  0.1838  0.4674
 2233SOL    HW118158   0.601   3.958   3.825  0.5892 -0.2011  0.2609
 2233SOL    HW218159   0.650   3.871   3.712 -0.3842  0.9482  0.0468
 2234SOL     OW18160   2.926   2.456   8.876 -0.2746  0.3865  0.0677
 2234SOL    HW118161   2.919   2.433   8.784 -2.1699  0.0721  0.2948
 2234SOL    HW218162   2.956   2.375   8.916  1.7074  1.8922  1.6913
 2235SOL     OW18163   1.899   0.097  10.179 -0.4801 -0.7671 -0.5002
 2235SOL    HW118164   1.822   0.063  10.225  0.0283  0.1989  1.0584
 2235SOL    HW218165   1.927   0.161  10.244  0.5039 -1.0098 -0.6959
 2236SOL     OW18166   1.278   3.086   7.151 -0.1079  0.1754  0.1818
 2236SOL    HW118167   1.200   3.078   7.206 -0.8347  1.5189 -0.6529
 2236SOL    HW218168   1.337   3.031   7.203 -2.0634 -0.6302  1.5472
 2237SOL     OW18169   2.734   0.576   0.416  0.6841 -0.3087 -0.0743
 2237SOL    HW118170   2.651   0.587   0.369  0.3842 -3.2658 -0.2308
 2237SOL    HW218171   2.782   0.652   0.381 -0.7329  0.3955 -0.4933
 2238SOL     OW18172   0.904   1.666   6.572  0.7011  0.4456  0.3399
 2238SOL    HW118173   0.913   1.679   6.666 -0.3923  2.1405  0.2136
 2238SOL    HW218174   0.876   1.754   6.548 -0.2882  0.3648  1.2313
 2239SOL     OW18175   2.450   1.176  12.741 -0.1507  0.4769 -0.2810
 2239SOL    HW118176   2.365   1.187  12.784 -1.6966 -0.2925 -3.1587
 2239SOL    HW218177   2.505   1.150  12.816  1.0284  0.3572 -1.1833
 2240SOL     OW18178   0.046   3.521   2.285  0.2419  0.1849 -0.5395
 2240SOL    HW118179   0.110   3.588   2.261  0.6060  0.3080  0.7843
 2240SOL    HW218180   0.045   3.477   2.200  1.8219 -0.5304 -0.1933
 2241SOL     OW18181   0.141   4.260   4.761  0.1689 -0.1653 -1.4099
 2241SOL    HW118182   0.127   4.251   4.855 -0.3021 -0.4129 -1.5034
 2241SOL    HW218183   0.091   4.190   4.719 -0.9449  1.1373 -2.2722
 2242SOL     OW18184   2.147   1.450  12.063 -0.0618  0.2056 -0.0336
 2242SOL    HW118185   2.182   1.410  11.983 -0.6607  1.3377 -0.8467
 2242SOL    HW218186   2.230   1.449  12.112 -1.2969 -3.2118  2.0545
 2243SOL     OW18187   4.166   2.389   8.611  0.5713  0.2529  0.2137
 2243SOL    HW118188   4.221   2.461   8.581  2.5951 -1.7797 -1.0125
 2243SOL    HW218189   4.082   2.432   8.597 -0.3236 -1.5324  0.0536
 2244SOL     OW18190   2.736   2.863  14.349  0.4343 -0.1505 -0.1461
 2244SOL    HW118191   2.656   2.897  14.308  0.1592 -1.9282 -1.1047
 2244SOL    HW218192   2.802   2.910  14.298  0.9833 -1.1290 -0.3290
 2245SOL     OW18193   3.119   0.458   8.923  0.0238 -0.5259  0.0216
 2245SOL    HW118194   3.161   0.436   8.840 -0.0890 -0.0960 -0.1512
 2245SOL    HW218195   3.057   0.386   8.920  2.0508 -2.2566 -0.2425
 2246SOL     OW18196   4.353   1.968   5.127 -0.8533  0.6732 -0.3970
 2246SOL    HW118197   4.268   1.927   5.108 -0.7097  0.5903 -0.8586
 2246SOL    HW218198   4.365   2.024   5.051 -1.1688 -0.5134 -1.3215
 2247SOL     OW18199   2.776   3.990   6.169  0.5699 -0.5169  0.0835
 2247SOL    HW118200   2.740   4.041   6.242  0.8284 -1.3156  0.7747
 2247SOL    HW218201   2.867   4.015   6.189 -0.5390  3.4249  0.0934
 2248SOL     OW18202   2.900   1.351   6.932  0.2309 -0.6943  0.1751
 2248SOL    HW118203   2.814   1.325   6.898 -0.7884  0.2786  1.9944
 2248SOL    HW218204   2.946   1.297   6.868 -0.0212  0.2516 -0.8115
 2249SOL     OW18205   3.256   3.323   7.278 -0.3550  0.7723  0.0912
 2249SOL    HW118206   3.170   3.310   7.239  0.7943 -3.3919 -1.1162
 2249SOL    HW218207   3.311   3.351   7.205 -0.5032 -0.8232 -0.6376
 2250SOL     OW18208   4.085   1.774   1.622 -0.3563 -0.2052 -0.0104
 2250SOL    HW118209   4.161   1.829   1.640  0.0243 -0.5675 -0.5018
 2250SOL    HW218210   4.108   1.759   1.530  0.3601  1.2647 -0.0694
 2251SOL     OW18211   0.731   2.721   5.913  0.0996  0.4593  0.1992
 2251SOL    HW118212   0.689   2.640   5.942  0.8905  0.4553  1.3271
 2251SOL    HW218213   0.800   2.742   5.975  0.2546  0.3052  0.0788
 2252SOL     OW18214   3.718   1.443   3.046  0.0492  0.3110 -0.8886
 2252SOL    HW118215   3.738   1.394   2.967 -0.4776 -2.5836  0.8003
 2252SOL    HW218216   3.628   1.475   3.038 -0.0972 -0.2826 -1.6263
 2253SOL     OW18217   1.508   2.812  11.774 -0.3624 -0.0409 -0.5156
 2253SOL    HW118218   1.474   2.877  11.835 -1.5479  0.0114 -1.2239
 2253SOL    HW218219   1.471   2.727  11.798 -0.9626 -0.1023 -1.6380
 2254SOL     OW18220   1.411   2.424  10.198  0.7696 -0.1472  0.8300
 2254SOL    HW118221   1.345   2.442  10.131  0.7597 -2.8747  0.1070
 2254SOL    HW218222   1.451   2.348  10.157 -0.3921 -0.9058  1.0887
 2255SOL     OW18223   2.265   2.455   5.364 -0.2427 -0.0393  0.1868
 2255SOL    HW118224   2.325   2.525   5.337  0.9552 -1.1983 -0.1894
 2255SOL    HW218225   2.215   2.454   5.282 -0.0694  1.0698  0.0743
 2256SOL     OW18226   4.639   0.693   1.757 -0.8643 -0.0299  0.1355
 2256SOL    HW118227   4.598   0.620   1.804 -1.1883  0.5035  0.6691
 2256SOL    HW218228   4.577   0.708   1.686  1.9201  0.9362 -2.1083
 2257SOL     OW18229   1.371   0.084   6.775  0.2572 -0.5065  0.0685
 2257SOL    HW118230   1.444   0.024   6.785  1.4899  0.8565 -0.8147
 2257SOL    HW218231   1.306   0.017   6.797 -0.7404  0.8761  1.3515
 2258SOL     OW18232   4.676   0.204   8.947 -0.3669  0.8543 -0.4296
 2258SOL    HW118233   4.608   0.157   8.900  0.9883 -2.0242  0.4967
 2258SOL    HW218234   4.622   0.272   8.988 -0.9674 -0.8942  1.6826
 2259SOL     OW18235   0.139   1.337   2.694 -0.1005 -0.0894  0.0314
 2259SOL    HW118236   0.046   1.322   2.679 -0.3216  0.9574  0.4181
 2259SOL    HW218237   0.167   1.365   2.607 -2.2090  0.1855 -0.5421
 2260SOL     OW18238   3.766   0.875  13.792  0.4617  0.4612 -0.0960
 2260SOL    HW118239   3.854   0.837  13.793  0.5803  0.6903 -3.9042
 2260SOL    HW218240   3.765   0.899  13.700 -0.3657  0.2592 -0.1438
 2261SOL     OW18241   4.039   4.646   5.203  0.1241  0.3362  0.4077
 2261SOL    HW118242   3.947   4.624   5.190  0.1399  0.8930 -0.6172
 2261SOL    HW218243   4.042   0.021   5.209 -2.1839  0.3799  0.8279
 2262SOL     OW18244   3.587   2.587   6.674 -0.1027 -0.4511  0.0994
 2262SOL    HW118245   3.672   2.545   6.683 -0.4006 -1.0795  0.0086
 2262SOL    HW218246   3.548   2.542   6.749 -2.1559 -1.6365 -1.6756
 2263SOL     OW18247   2.445   4.052   3.898  0.0171 -0.6620  0.0737
 2263SOL    HW118248   2.526   4.104   3.895 -0.9823  0.9100  0.5209
 2263SOL    HW218249   2.470   3.973   3.851 -0.3078 -0.8494  0.2179
 2264SOL     OW18250   1.682   1.431   7.504 -0.3670 -0.0427 -0.3096
 2264SOL    HW118251   1.626   1.357   7.530  0.4595 -0.5436  0.0406
 2264SOL    HW218252   1.691   1.413   7.411 -1.3269  0.3279 -0.4758
 2265SOL     OW18253   2.367   4.591   7.825 -0.3251 -0.8191 -0.7420
 2265SOL    HW118254   2.351   4.680   7.856 -0.2490 -1.4001  0.9775
 2265SOL    HW218255   2.278   4.564   7.801 -0.8085  0.1519 -0.0399
 2266SOL     OW18256   0.536   3.915   4.495 -0.0585  0.0774  0.0323
 2266SOL    HW118257   0.467   3.945   4.553 -1.1082 -0.1894 -1.0753
 2266SOL    HW218258   0.557   3.992   4.443 -0.3885  0.3423  0.2944
 2267SOL     OW18259   4.597   0.877   2.867  0.2538 -0.2235  0.0115
 2267SOL    HW118260   4.648   0.958   2.875 -0.9056  0.2361  2.5227
 2267SOL    HW218261   4.531   0.894   2.934  0.6917 -2.3458  0.9850
 2268SOL     OW18262   1.766   0.706  13.236  0.0307 -0.0220  0.2075
 2268SOL    HW118263   1.767   0.797  13.264 -1.0462 -0.3545  1.3013
 2268SOL    HW218264   1.859   0.696  13.214  0.0806 -0.4696  0.6347
 2269SOL     OW18265   3.629   2.109   3.158  0.4144  0.4704 -0.5068
 2269SOL    HW118266   3.684   2.186   3.162  2.2695 -0.8569 -0.6173
 2269SOL    HW218267   3.542   2.149   3.147  0.7946  1.0229 -1.4472
 2270SOL     OW18268   3.345   1.606   0.040  0.1518 -0.5163  0.0154
 2270SOL    HW118269   3.276   1.631   0.103  0.1523  0.0333 -0.2040
 2270SOL    HW218270   3.291   1.565  17.660 -0.0591 -1.8588  0.9958
 2271SOL     OW18271   0.830   3.978  16.949 -0.2948  0.0613 -0.2154
 2271SOL    HW118272   0.867   3.893  16.926 -1.4825 -1.4429  3.4347
 2271SOL    HW218273   0.842   4.018  16.862  1.4684 -2.0172 -0.9379
 2272SOL     OW18274   2.895   2.746   2.532  0.2870  0.2051  0.0155
 2272SOL    HW118275   2.866   2.680   2.469  1.0963 -0.6539  0.5478
 2272SOL    HW218276   2.942   2.805   2.473 -0.2603  3.0542  2.4114
 2273SOL     OW18277   2.589   0.703  16.128 -0.1245  0.1728 -0.1142
 2273SOL    HW118278   2.548   0.636  16.073 -2.6012  0.0405  1.8698
 2273SOL    HW218279   2.621   0.755  16.054 -1.4400  0.1768 -0.6732
 2274SOL     OW18280   1.917   4.622   4.861  0.7338 -0.5089  0.3440
 2274SOL    HW118281   1.982   4.558   4.831  1.2031 -1.3168  3.0806
 2274SOL    HW218282   1.974   4.699   4.852 -0.1488  0.2285  0.9885
 2275SOL     OW18283   3.101   1.304   1.660  0.7219  0.0082 -0.0422
 2275SOL    HW118284   3.083   1.391   1.626 -0.8464  0.3753  1.7453
 2275SOL    HW218285   3.079   1.244   1.589  0.1275 -0.7588  0.7767
 2276SOL     OW18286   4.610   0.346  13.345 -0.1581 -0.0446 -0.5400
 2276SOL    HW118287   4.667   0.408  13.300 -1.2706 -0.2863 -2.2685
 2276SOL    HW218288   4.616   0.268  13.290  0.3162  0.0147 -0.5701
 2277SOL     OW18289   2.346   2.917   4.213 -0.6159  0.1684  0.4267
 2277SOL    HW118290   2.429   2.871   4.199 -0.1554  1.5324 -1.2899
 2277SOL    HW218291   2.310   2.874   4.291 -0.4627 -0.2461  0.2640
 2278SOL     OW18292   0.064   0.932   9.143 -0.4824  0.0407 -0.7973
 2278SOL    HW118293   0.014   0.913   9.222  1.6522  0.4330  0.6376
 2278SOL    HW218294   4.715   0.917   9.079 -1.3524 -2.5006  0.7419
 2279SOL     OW18295   2.763   3.003   2.329  0.4667 -1.2034 -0.6043
 2279SOL    HW118296   2.853   3.019   2.356  0.4887 -2.2523 -0.0895
 2279SOL    HW218297   2.771   2.924   2.276 -0.7826 -0.0789 -2.4885
 2280SOL     OW18298   2.532   0.600  15.103 -0.2272 -0.0926 -0.3188
 2280SOL    HW118299   2.553   0.651  15.181 -0.6102  0.6560 -0.7020
 2280SOL    HW218300   2.560   0.516  15.140 -1.5449 -0.2823  0.2729
 2281SOL     OW18301   2.082   0.875   4.581 -0.6457 -0.1393 -0.1058
 2281SOL    HW118302   2.034   0.886   4.663 -0.7328  3.1510 -0.5979
 2281SOL    HW218303   2.047   0.793   4.546 -0.7664 -0.0826 -0.1197
 2282SOL     OW18304   1.846   4.530   2.038  0.0348  0.3770 -0.5682
 2282SOL    HW118305   1.778   4.533   2.105  1.3071 -0.5371  0.7421
 2282SOL    HW218306   1.823   4.612   1.994 -1.2259 -0.2755 -1.1218
 2283SOL     OW18307   0.015   2.469   3.956  0.0407  0.6524  0.9287
 2283SOL    HW118308   0.038   2.463   4.049  0.5023 -0.8372  0.7156
 2283SOL    HW218309   4.688   2.388   3.937 -1.2534  1.3502  1.1810
 2284SOL     OW18310   2.194   0.158   3.071 -0.6246 -0.6853 -0.1548
 2284SOL    HW118311   2.221   0.139   3.161 -1.4066  0.1190  0.2518
 2284SOL    HW218312   2.143   0.239   3.072 -0.5154 -0.6365  1.5247
 2285SOL     OW18313   2.856   2.375   3.946 -0.3724 -0.0080 -0.4928
 2285SOL    HW118314   2.930   2.393   4.004  0.9847 -0.0141 -2.2102
 2285SOL    HW218315   2.873   2.443   3.881  2.5065  0.3572  0.6372
 2286SOL     OW18316   3.609   0.723   5.877 -0.6470 -0.4560 -0.4561
 2286SOL    HW118317   3.572   0.721   5.965 -0.7498  0.7271 -0.4624
 2286SOL    HW218318   3.686   0.777   5.896  0.3225 -2.0424  0.0159
 2287SOL     OW18319   3.880   0.428   2.265 -0.9888 -0.4259  0.0992
 2287SOL    HW118320   3.964   0.412   2.222 -2.5678 -1.9607 -2.3995
 2287SOL    HW218321   3.846   0.338   2.262 -1.3827 -0.2761  0.1225
 2288SOL     OW18322   1.124   1.250  13.829  0.4815  0.5160 -0.5708
 2288SOL    HW118323   1.057   1.261  13.896 -0.2028 -1.7594 -0.8713
 2288SOL    HW218324   1.205   1.237  13.878 -0.1993 -1.6753 -0.0476
 2289SOL     OW18325   3.906   4.011  14.551 -0.4872  0.0266  0.0560
 2289SOL    HW118326   3.861   3.928  14.568  2.2617 -1.6812 -0.8598
 2289SOL    HW218327   3.840   4.079  14.563 -0.4307  0.2018 -0.6182
 2290SOL     OW18328   3.954   4.356   3.093  0.1559  0.0504  0.1135
 2290SOL    HW118329   3.927   4.392   3.009 -1.9833 -2.7798 -0.4166
 2290SOL    HW218330   3.994   4.431   3.137 -1.0077  1.1424 -0.6855
 2291SOL     OW18331   0.542   0.198   3.621  0.7493  0.0379  0.4016
 2291SOL    HW118332   0.562   0.287   3.590  1.2522 -0.4735 -0.7378
 2291SOL    HW218333   0.494   0.168   3.544  0.8811 -0.7033  0.6074
 2292SOL     OW18334   2.376   1.279  15.330 -0.2917  0.2644  0.9616
 2292SOL    HW118335   2.421   1.261  15.412 -1.7320 -2.9096  1.0554
 2292SOL    HW218336   2.409   1.366  15.307  0.3385 -0.6039 -1.3730
 2293SOL     OW18337   0.771   4.018   3.044 -0.0556 -0.1209  0.2683
 2293SOL    HW118338   0.711   3.979   3.107 -0.7605 -1.2351 -1.1070
 2293SOL    HW218339   0.855   3.979   3.070  0.1225  1.5180  2.1689
 2294SOL     OW18340   3.937   1.821   8.262 -0.0974  0.2136 -0.4057
 2294SOL    HW118341   3.945   1.915   8.245 -1.1000  0.5037  0.7177
 2294SOL    HW218342   3.998   1.775   8.205 -0.6458 -0.4003 -0.4928
 2295SOL     OW18343   2.742   4.479   2.583  0.0917 -0.0254 -0.6693
 2295SOL    HW118344   2.659   4.449   2.620 -0.0965  0.1938 -0.9174
 2295SOL    HW218345   2.802   4.430   2.639  0.8960  1.3987 -0.2915
 2296SOL     OW18346   2.670   1.855   9.235  0.6272  0.9521  0.4364
 2296SOL    HW118347   2.713   1.925   9.283  1.0794 -0.6415  2.3604
 2296SOL    HW218348   2.631   1.812   9.311 -2.8410 -1.0153 -2.4461
 2297SOL     OW18349   4.573   3.121   2.848 -0.4666  0.0941 -0.3006
 2297SOL    HW118350   4.646   3.137   2.908 -0.1673  0.6178 -0.8058
 2297SOL    HW218351   4.603   3.158   2.765  1.2566  1.3589  0.8746
 2298SOL     OW18352   0.601   0.676   3.301 -0.6634  0.1350  0.0689
 2298SOL    HW118353   0.522   0.709   3.259  0.2614  0.8117 -1.1131
 2298SOL    HW218354   0.582   0.691   3.394 -1.2547  0.5114 -0.1179
 2299SOL     OW18355   1.540   3.137   7.762 -0.3933 -0.1493  0.2239
 2299SOL    HW118356   1.515   3.184   7.683 -0.2388  1.5892  1.2047
 2299SOL    HW218357   1.469   3.151   7.825 -0.5971 -0.0762 -0.0221
 2300SOL     OW18358   0.798   3.223   5.207 -0.2654 -0.3721  0.2776
 2300SOL    HW118359   0.712   3.184   5.190  0.1659 -1.8251  1.4262
 2300SOL    HW218360   0.849   3.142   5.211  1.2382  0.7213  2.7930
 2301SOL     OW18361   0.346   3.848  12.619  0.2142 -0.1024  0.6600
 2301SOL    HW118362   0.282   3.896  12.671  0.3662  0.7326  0.0785
 2301SOL    HW218363   0.299   3.844  12.535  2.4881  0.6245 -0.6502
 2302SOL     OW18364   4.408   1.306  14.647 -0.2202 -0.3894 -0.0546
 2302SOL    HW118365   4.343   1.356  14.598 -1.1303  1.0145  2.6180
 2302SOL    HW218366   4.486   1.354  14.619  0.6972 -0.1809  2.9135
 2303SOL     OW18367   2.874   0.430   3.372 -0.4062 -0.0175  0.2355
 2303SOL    HW118368   2.953   0.381   3.346  0.3849  0.2838  2.0860
 2303SOL    HW218369   2.839   0.378   3.444  1.9958 -0.2085  1.2605
 2304SOL     OW18370   2.455   3.287   6.543  0.1740  0.1780  0.1351
 2304SOL    HW118371   2.547   3.285   6.520 -0.3083 -0.3567 -1.7677
 2304SOL    HW218372   2.455   3.213   6.603  0.5900 -2.2720 -2.8700
 2305SOL     OW18373   2.857   3.641   1.674 -0.4651 -0.1302  0.0187
 2305SOL    HW118374   2.852   3.703   1.747 -1.8528  0.9778 -1.0296
 2305SOL    HW218375   2.789   3.574   1.681 -0.3787 -0.3890 -1.5432
 2306SOL     OW18376   0.335   0.821   8.000 -0.2266 -0.0441  0.3878
 2306SOL    HW118377   0.346   0.883   7.928 -1.2378  0.0944  0.3621
 2306SOL    HW218378   0.401   0.852   8.063 -0.5124 -2.5354  1.9345
 2307SOL     OW18379   0.357   1.502   5.350  0.0372  0.1954 -0.3770
 2307SOL    HW118380   0.297   1.450   5.297  0.4160 -0.6987  0.0768
 2307SOL    HW218381   0.409   1.435   5.395 -1.1913 -1.1133 -0.8968
 2308SOL     OW18382   2.276   2.016   6.746 -0.8277 -0.3584 -0.3372
 2308SOL    HW118383   2.340   2.000   6.677 -0.8279 -0.2207 -0.3693
 2308SOL    HW218384   2.221   1.938   6.739 -1.3753 -0.3060  3.0557
 2309SOL     OW18385   4.398   2.954   6.311  0.1117  0.6258 -0.1122
 2309SOL    HW118386   4.341   3.031   6.315 -2.0794 -0.9399 -1.2893
 2309SOL    HW218387   4.343   2.889   6.267  0.6697  0.8874 -1.2022
 2310SOL     OW18388   1.725   2.336   4.379 -0.3678 -0.2670 -0.3078
 2310SOL    HW118389   1.797   2.396   4.356  0.6848 -1.2222  0.4919
 2310SOL    HW218390   1.647   2.382   4.349  0.3509  0.7618 -0.6145
 2311SOL     OW18391   1.397   0.041   3.537 -0.4596  0.2712 -0.2433
 2311SOL    HW118392   1.335   0.070   3.471 -0.1389 -0.8333 -1.0389
 2311SOL    HW218393   1.455   0.117   3.531  0.2658 -0.3462 -1.1384
 2312SOL     OW18394   4.502   3.878  11.498  1.1085  0.1600 -0.5196
 2312SOL    HW118395   4.462   3.950  11.547  1.0691 -1.3956  1.7383
 2312SOL    HW218396   4.418   3.843  11.471 -0.2607  0.5870  3.2234
 2313SOL     OW18397   0.521   4.372   2.979  0.3166  0.1232  0.2115
 2313SOL    HW118398   0.509   4.303   2.914  2.3780  1.0928 -1.2148
 2313SOL    HW218399   0.598   4.411   2.938 -0.5122 -0.1257 -1.5846
 2314SOL     OW18400   1.214   2.997   8.592 -0.3701 -0.6347 -0.7214
 2314SOL    HW118401   1.287   2.953   8.549  0.5807  0.7317 -0.4844
 2314SOL    HW218402   1.165   2.922   8.626 -0.6936 -0.0054  0.2066
 2315SOL     OW18403   0.057   3.842   9.451  0.0584  0.1257 -0.5804
 2315SOL    HW118404   0.106   3.922   9.471 -0.5119 -0.3817  2.8266
 2315SOL    HW218405   0.103   3.826   9.368  1.3271 -1.3954  0.4026
 2316SOL     OW18406   3.745   2.229   0.077  0.7829 -0.1656  0.4221
 2316SOL    HW118407   3.709   2.246  17.677 -1.7743 -0.9238  1.3244
 2316SOL    HW218408   3.740   2.320   0.106 -0.1536 -0.1361  0.1738
 2317SOL     OW18409   2.491   0.238   4.498 -0.0628  0.0759 -0.4504
 2317SOL    HW118410   2.407   0.279   4.516  0.2427  0.7314 -0.5344
 2317SOL    HW218411   2.474   0.198   4.413 -1.3088 -1.9513  0.7465
 2318SOL     OW18412   0.275   1.081  15.054  0.1400  0.4052 -0.3788
 2318SOL    HW118413   0.351   1.024  15.043 -0.2238 -0.1804  0.1734
 2318SOL    HW218414   0.243   1.076  14.964  0.3447 -2.3710 -0.3013
 2319SOL     OW18415   2.145   3.498   4.399  0.8644 -0.0406  0.2389
 2319SOL    HW118416   2.106   3.573   4.442  1.5968 -1.0222  2.6126
 2319SOL    HW218417   2.238   3.520   4.389  0.5660  1.3187  0.4924
 2320SOL     OW18418   0.947   0.882  16.741 -0.0850  0.0378  0.5767
 2320SOL    HW118419   0.931   0.788  16.751 -0.3032 -0.1370 -1.3561
 2320SOL    HW218420   0.858   0.915  16.736 -0.1870 -0.3020  0.0759
 2321SOL     OW18421   3.005   2.678   6.376  0.1206  0.4191  0.2190
 2321SOL    HW118422   3.075   2.743   6.388  0.5958  0.1048 -0.8753
 2321SOL    HW218423   3.052   2.614   6.430 -0.3676 -0.9034 -0.9497
 2322SOL     OW18424   1.358   2.825   7.673  0.2840  0.1129 -0.0994
 2322SOL    HW118425   1.416   2.804   7.599  1.3829  2.2811  0.1481
 2322SOL    HW218426   1.326   2.912   7.649  2.2166  0.7142 -0.5270
 2323SOL     OW18427   4.387   2.306   4.775 -0.3431 -0.5553 -0.1284
 2323SOL    HW118428   4.481   2.315   4.788 -0.1506 -0.8789 -1.3323
 2323SOL    HW218429   4.369   2.212   4.771 -0.9240 -0.5190  1.3311
 2324SOL     OW18430   3.287   3.407  10.184 -0.3709 -0.4355 -0.1333
 2324SOL    HW118431   3.236   3.404  10.103  0.9667  0.4506 -1.0006
 2324SOL    HW218432   3.336   3.325  10.178 -0.4514 -0.3651 -1.6604
 2325SOL     OW18433   3.419   2.618   9.480  0.2727 -0.1442  0.2404
 2325SOL    HW118434   3.397   2.622   9.573  0.0596 -0.0154  0.1833
 2325SOL    HW218435   3.501   2.667   9.487  0.5203 -0.7134  1.4376
 2326SOL     OW18436   0.180   2.421   4.202 -0.0939 -0.3110  0.3204
 2326SOL    HW118437   0.264   2.379   4.181  0.4611  0.0067  1.9320
 2326SOL    HW218438   0.129   2.349   4.239 -1.3475  0.3620 -0.0795
 2327SOL     OW18439   0.659   1.525  17.399 -0.5879  0.2100 -0.9187
 2327SOL    HW118440   0.714   1.517  17.477  1.0367  1.1642 -1.9528
 2327SOL    HW218441   0.725   1.540  17.330  0.4475  3.4558  0.7973
 2328SOL     OW18442   0.119   1.433   2.424 -0.8017 -0.2432 -0.4005
 2328SOL    HW118443   0.120   1.485   2.344 -0.7142 -1.2769 -1.0698
 2328SOL    HW218444   0.123   1.345   2.387  2.1188 -0.1345 -0.3210
 2329SOL     OW18445   2.711   1.800   5.986  0.4787  0.2046  0.2457
 2329SOL    HW118446   2.657   1.772   6.061 -3.3397  2.4566 -1.6759
 2329SOL    HW218447   2.788   1.744   5.995  0.9861  0.7030 -1.1107
 2330SOL     OW18448   3.913   4.537  15.243 -0.2369 -0.8788  0.0887
 2330SOL    HW118449   3.853   4.486  15.297 -0.4650 -0.1660  0.5095
 2330SOL    HW218450   3.870   4.620  15.222  0.3472 -0.6124 -0.0509
 2331SOL     OW18451   1.416   3.769   2.309  0.1625 -0.1112  0.2410
 2331SOL    HW118452   1.462   3.711   2.248 -0.6149  0.4432 -0.8827
 2331SOL    HW218453   1.456   3.854   2.292 -1.3593  0.4990 -0.2364
 2332SOL     OW18454   3.057   0.432  11.508  0.3816 -0.3589  0.3163
 2332SOL    HW118455   3.120   0.378  11.459 -0.4105 -0.0734 -1.0113
 2332SOL    HW218456   3.020   0.476  11.432  2.0882 -0.3199 -0.5040
 2333SOL     OW18457   0.863   4.679   8.622  0.0825  0.2821 -0.4973
 2333SOL    HW118458   0.923   4.647   8.690 -2.0361 -2.6504 -0.0470
 2333SOL    HW218459   0.915   4.661   8.544 -1.4836 -0.4706 -1.3504
 2334SOL     OW18460   0.027   0.599   1.990 -0.7449 -0.2408 -0.0949
 2334SOL    HW118461   4.718   0.653   1.917 -1.7966 -0.1048  0.4395
 2334SOL    HW218462   4.666   0.554   2.011  1.3371 -4.0697 -0.1392
 2335SOL     OW18463   2.815   2.412   7.343  0.3001 -0.0072 -0.7219
 2335SOL    HW118464   2.863   2.412   7.425  1.8705 -0.6372 -1.6293
 2335SOL    HW218465   2.758   2.335   7.349 -0.7644  0.7530 -1.0363
 2336SOL     OW18466   3.753   2.765   1.795 -0.0245 -0.2053 -0.8771
 2336SOL    HW118467   3.675   2.750   1.848 -1.3207  1.4544 -2.2793
 2336SOL    HW218468   3.725   2.713   1.720  3.9672 -1.0756 -1.7332
 2337SOL     OW18469   2.014   3.434   3.156  0.1727 -0.3490 -0.5991
 2337SOL    HW118470   1.965   3.482   3.090  0.9765  2.3519  0.7754
 2337SOL    HW218471   1.962   3.357   3.178 -1.7748  0.7827 -1.3061
 2338SOL     OW18472   0.509   2.444   1.174  0.2733 -0.0593 -0.0416
 2338SOL    HW118473   0.463   2.401   1.246  0.7349 -1.3412 -0.5273
 2338SOL    HW218474   0.516   2.538   1.194  0.1679  0.4873 -2.5292
 2339SOL     OW18475   3.324   1.285  17.125 -0.2758 -0.2324  0.5042
 2339SOL    HW118476   3.419   1.288  17.130 -0.2431 -0.2541 -0.0236
 2339SOL    HW218477   3.294   1.376  17.130  1.3019  0.2532  1.0002
 2340SOL     OW18478   2.076   1.770   6.725  0.0571 -0.0293  0.6629
 2340SOL    HW118479   2.010   1.765   6.656 -0.9051 -0.2497  1.5936
 2340SOL    HW218480   2.033   1.795   6.807  1.3399 -1.6412  1.8369
 2341SOL     OW18481   2.345   4.531   4.287 -0.2175  0.0225  0.0238
 2341SOL    HW118482   2.292   4.520   4.366  0.2627 -0.4926  0.2804
 2341SOL    HW218483   2.281   4.569   4.228  0.2524  0.6077 -0.1086
 2342SOL     OW18484   3.770   1.761  14.768 -0.1355  0.2715  0.0876
 2342SOL    HW118485   3.766   1.725  14.680  0.1153  1.3071 -0.3413
 2342SOL    HW218486   3.827   1.833  14.746 -0.2720  0.9602  1.9508
 2343SOL     OW18487   0.413   4.401  16.428 -0.0224  0.1962 -0.4720
 2343SOL    HW118488   0.397   4.368  16.340 -1.4199 -1.8505  0.5216
 2343SOL    HW218489   0.499   4.368  16.454 -1.6316 -3.4618  0.3737
 2344SOL     OW18490   1.589   0.353   4.455  0.6514 -0.2158  0.4188
 2344SOL    HW118491   1.508   0.325   4.411 -0.7369  3.1255  0.8590
 2344SOL    HW218492   1.598   0.276   4.512 -1.3692 -0.8184 -0.0576
 2345SOL     OW18493   1.604   4.623  10.250 -0.0019  0.0370  0.3401
 2345SOL    HW118494   1.528   4.678  10.230 -1.2645 -0.7189  3.0366
 2345SOL    HW218495   1.604   4.603  10.344  0.7406  0.6155  0.4683
 2346SOL     OW18496   1.361   1.762   8.865  0.0568 -0.1463 -0.3791
 2346SOL    HW118497   1.384   1.697   8.799  1.9380  1.4025 -1.2423
 2346SOL    HW218498   1.303   1.821   8.816  1.9631  1.0064 -1.2594
 2347SOL     OW18499   1.510   3.403   6.856  0.1506 -0.5941 -0.0304
 2347SOL    HW118500   1.487   3.312   6.871 -1.8485 -0.4249 -2.0147
 2347SOL    HW218501   1.477   3.448   6.934 -1.0320  1.6116 -1.7977
 2348SOL     OW18502   0.191   3.791  10.781 -0.1630 -0.4559 -0.2651
 2348SOL    HW118503   0.230   3.861  10.834  0.6603 -1.3036  0.2580
 2348SOL    HW218504   0.268   3.734  10.784 -0.5411 -0.9785 -0.4143
 2349SOL     OW18505   2.888   1.304   2.650  0.6735 -0.4688  0.2066
 2349SOL    HW118506   2.903   1.293   2.744 -0.2790 -1.1609  0.2727
 2349SOL    HW218507   2.927   1.391   2.642  1.8145 -0.8559  1.5030
 2350SOL     OW18508   0.176   2.987   8.924 -0.1484  0.7513 -0.2503
 2350SOL    HW118509   0.248   3.049   8.935  0.4009 -0.5075  3.2707
 2350SOL    HW218510   0.113   2.998   8.995 -0.6587 -1.9422 -0.2833
 2351SOL     OW18511   3.808   0.265   6.187 -0.4659 -0.2546 -0.4256
 2351SOL    HW118512   3.883   0.274   6.245 -0.4999 -2.3624 -0.0428
 2351SOL    HW218513   3.749   0.232   6.256  0.3149 -0.0002  0.3672
 2352SOL     OW18514   0.918   3.139   2.271  0.3509  0.0495 -0.2882
 2352SOL    HW118515   0.852   3.166   2.206  0.3237 -0.2837 -0.4025
 2352SOL    HW218516   0.870   3.066   2.309 -0.7405  1.2259  0.5787
 2353SOL     OW18517   3.810   3.753   2.719  0.0476  0.1224 -0.4861
 2353SOL    HW118518   3.772   3.668   2.743  2.2068 -0.8265 -0.4510
 2353SOL    HW218519   3.764   3.771   2.637  2.9358  0.7139 -1.9939
 2354SOL     OW18520   2.918   0.749   7.854  0.2159  0.2083 -0.3186
 2354SOL    HW118521   2.928   0.737   7.760  0.1953 -2.9957  0.0825
 2354SOL    HW218522   3.007   0.764   7.886  0.9519 -2.2766 -1.1808
 2355SOL     OW18523   0.781   4.000   9.789 -0.5671  0.2946  0.1309
 2355SOL    HW118524   0.812   3.924   9.739 -0.4086 -0.0510  0.7530
 2355SOL    HW218525   0.770   4.079   9.737  1.1396 -0.8014 -1.8959
 2356SOL     OW18526   4.466   4.139  14.306 -0.4019 -0.3038 -0.2391
 2356SOL    HW118527   4.519   4.166  14.231  0.4853  1.2443  0.9359
 2356SOL    HW218528   4.515   4.066  14.344 -1.1041 -1.0682 -0.8084
 2357SOL     OW18529   3.707   1.748   7.452  0.3857  0.3063  0.4367
 2357SOL    HW118530   3.783   1.749   7.395  0.6110  0.7572  0.7385
 2357SOL    HW218531   3.653   1.805   7.397 -2.6569 -1.5603  1.4444
 2358SOL     OW18532   2.173   0.138   5.590 -0.1260 -0.0720 -0.7823
 2358SOL    HW118533   2.213   0.144   5.503  3.0579  2.6695  0.8935
 2358SOL    HW218534   2.244   0.091   5.632 -1.4791 -2.5694 -1.3175
 2359SOL     OW18535   4.172   3.452   4.249 -0.4387  0.1057 -0.0065
 2359SOL    HW118536   4.162   3.422   4.159  0.6264  0.8912 -0.3881
 2359SOL    HW218537   4.078   3.464   4.263 -0.3661 -0.1428  0.7141
 2360SOL     OW18538   0.899   3.609  11.880 -0.4724 -0.3992  0.0459
 2360SOL    HW118539   0.896   3.701  11.906  2.1448  0.0762 -1.3288
 2360SOL    HW218540   0.899   3.561  11.962 -3.5374  0.5542  0.6122
 2361SOL     OW18541   0.241   0.160  12.951  0.5714  0.3327  0.0444
 2361SOL    HW118542   0.238   0.218  13.028 -0.5353  1.5783 -0.9394
 2361SOL    HW218543   0.235   0.223  12.880  0.2744  2.7179  2.1993
 2362SOL     OW18544   2.201   2.195   4.064  0.6022 -0.1138  0.3558
 2362SOL    HW118545   2.166   2.216   3.978  1.7541  0.1346 -0.0549
 2362SOL    HW218546   2.128   2.219   4.121  0.0473 -4.1741  1.3115
 2363SOL     OW18547   1.798   4.324   7.181 -0.2096 -0.3625  0.1428
 2363SOL    HW118548   1.728   4.388   7.178 -1.2794 -1.6671 -2.1310
 2363SOL    HW218549   1.880   4.371   7.162 -0.6530  0.5861  0.6047
 2364SOL     OW18550   4.170   4.483  15.308 -0.4011  0.1977  0.5378
 2364SOL    HW118551   4.076   4.499  15.292 -0.6940 -1.5663  0.5156
 2364SOL    HW218552   4.187   4.515  15.219 -0.2921  2.3440  1.3395
 2365SOL     OW18553   4.553   3.334  14.847 -0.0092 -0.1788  0.1736
 2365SOL    HW118554   4.526   3.409  14.900 -0.0871  1.3300 -1.9874
 2365SOL    HW218555   4.492   3.267  14.879  1.5211  0.0113  3.4542
 2366SOL     OW18556   4.582   3.017  14.164 -0.9114 -0.1087 -0.6451
 2366SOL    HW118557   4.598   2.929  14.130  1.7319  0.7737 -1.7128
 2366SOL    HW218558   4.612   3.004  14.254 -3.1265  0.8134  0.2401
 2367SOL     OW18559   3.978   3.282  10.331 -0.4565  0.5417 -0.1273
 2367SOL    HW118560   3.963   3.320  10.418  2.3380 -2.0815  1.4978
 2367SOL    HW218561   3.889   3.279  10.296 -1.1013  2.0193  1.3837
 2368SOL     OW18562   2.431   4.426  13.990 -0.0652 -0.1187  0.5536
 2368SOL    HW118563   2.368   4.356  13.972  0.9994 -0.6998 -0.9532
 2368SOL    HW218564   2.395   4.463  14.070  0.8741  1.8686  0.0445
 2369SOL     OW18565   1.420   2.044  10.385  0.7135 -0.2425  0.6269
 2369SOL    HW118566   1.348   1.991  10.350  1.2669 -1.6443  1.6134
 2369SOL    HW218567   1.501   2.012  10.345 -0.2803 -0.7368 -1.0046
 2370SOL     OW18568   3.549   3.359   2.539 -0.1728  1.0317 -0.2003
 2370SOL    HW118569   3.577   3.413   2.464 -2.8913 -0.6079 -2.3548
 2370SOL    HW218570   3.492   3.297   2.494 -1.3816  1.5587  0.6087
 2371SOL     OW18571   1.093   3.302  16.090 -0.1545 -0.0451 -0.2263
 2371SOL    HW118572   1.060   3.221  16.129  1.8806 -0.3072  0.9105
 2371SOL    HW218573   1.023   3.323  16.028 -0.4330 -0.2527  0.0190
 2372SOL     OW18574   1.956   3.543   5.993  0.0748  0.5061  0.3654
 2372SOL    HW118575   1.930   3.452   6.007  0.9301  0.5443  2.2138
 2372SOL    HW218576   1.975   3.565   6.084  1.3903  1.0727 -0.0496
 2373SOL     OW18577   2.324   1.095   7.816 -0.1547 -0.5206 -0.0066
 2373SOL    HW118578   2.397   1.072   7.758  1.2144  1.9440  0.7522
 2373SOL    HW218579   2.270   1.150   7.760 -0.6220 -0.5934  0.3745
 2374SOL     OW18580   0.853   1.457   4.772  0.0009 -0.4339  1.2116
 2374SOL    HW118581   0.839   1.364   4.755  0.5414 -0.3651  0.3784
 2374SOL    HW218582   0.782   1.480   4.832  0.6868  0.8369  1.5237
 2375SOL     OW18583   3.340   3.200   2.424  0.7059  0.2637 -0.4925
 2375SOL    HW118584   3.354   3.172   2.334  2.2371 -0.5051 -0.0151
 2375SOL    HW218585   3.255   3.244   2.416  0.6950  0.3944  0.2662
 2376SOL     OW18586   1.300   3.149   9.298  0.1304  0.6710 -0.5103
 2376SOL    HW118587   1.295   3.054   9.309 -0.3254  0.6754 -0.7079
 2376SOL    HW218588   1.226   3.165   9.240  1.1502 -1.0150 -2.2663
 2377SOL     OW18589   3.074   2.466   0.629  0.2294 -0.1843  0.5207
 2377SOL    HW118590   3.156   2.441   0.672  0.3124 -0.6620  0.0756
 2377SOL    HW218591   3.094   2.411   0.554 -1.1313  2.2188 -1.5919
 2378SOL     OW18592   1.619   1.075   2.894  0.2614 -0.1231  0.2432
 2378SOL    HW118593   1.538   1.033   2.922 -0.2220  0.3208 -0.4936
 2378SOL    HW218594   1.612   1.144   2.960  0.0255  0.3362 -0.2682
 2379SOL     OW18595   4.328   0.929   4.703 -0.0843 -0.3775  0.1245
 2379SOL    HW118596   4.414   0.971   4.714 -0.3224 -0.4474  2.2579
 2379SOL    HW218597   4.349   0.869   4.632  0.4086  0.0833 -0.1206
 2380SOL     OW18598   4.206   3.913  13.867  0.5162 -0.1433 -0.1239
 2380SOL    HW118599   4.233   3.934  13.778  0.6551  0.3283  0.0270
 2380SOL    HW218600   4.280   3.945  13.918 -0.0257  1.0001 -0.0532
 2381SOL     OW18601   2.535   2.584  10.554  0.2931 -0.2842  0.2748
 2381SOL    HW118602   2.467   2.549  10.612  1.6364 -3.2144  0.0987
 2381SOL    HW218603   2.605   2.551  10.611  0.4905 -1.4261 -0.6242
 2382SOL     OW18604   1.761   3.732   3.268  0.3034 -0.0384  0.2789
 2382SOL    HW118605   1.784   3.808   3.323 -1.6852  0.2275  0.7478
 2382SOL    HW218606   1.777   3.656   3.323 -0.4446 -0.1924  0.2725
 2383SOL     OW18607   3.331   2.097  11.886  0.5777  0.0856 -0.0242
 2383SOL    HW118608   3.266   2.165  11.871 -0.2056 -0.1262  2.4457
 2383SOL    HW218609   3.281   2.016  11.874  0.8549 -0.0972  0.0521
 2384SOL     OW18610   3.986   2.737   4.102 -0.0245 -0.3299  0.2951
 2384SOL    HW118611   4.062   2.781   4.064  0.2954 -1.6494 -0.6023
 2384SOL    HW218612   4.027   2.656   4.133 -1.0107 -0.0747  2.2535
 2385SOL     OW18613   2.087   0.416   8.687 -0.5376  0.0518 -0.5402
 2385SOL    HW118614   2.161   0.427   8.747 -1.9154  1.5008  0.8851
 2385SOL    HW218615   2.009   0.432   8.740 -1.4839  0.3975 -2.0324
 2386SOL     OW18616   3.538   3.331   3.325  0.0518 -0.0034 -0.5555
 2386SOL    HW118617   3.468   3.360   3.384  0.8447  0.6123  0.0915
 2386SOL    HW218618   3.496   3.252   3.292 -0.8529 -1.2171  3.5644
 2387SOL     OW18619   3.326   0.263   4.337  0.4168 -0.6922  0.2231
 2387SOL    HW118620   3.323   0.176   4.379 -1.7055 -0.1532  1.2176
 2387SOL    HW218621   3.421   0.266   4.325  0.1747  2.6317 -0.7196
 2388SOL     OW18622   3.018   0.957   3.139  0.6640  0.1854 -0.2162
 2388SOL    HW118623   3.113   0.946   3.144  0.4231 -2.0447 -0.5337
 2388SOL    HW218624   2.997   0.893   3.071 -1.2908  0.1895  0.4012
 2389SOL     OW18625   1.870   3.985   5.960 -0.7322  0.5165  0.0141
 2389SOL    HW118626   1.926   3.924   5.912 -1.0272  1.6922 -1.8421
 2389SOL    HW218627   1.850   3.930   6.036  1.8629  0.1407  0.4268
 2390SOL     OW18628   4.077   4.428  15.840  0.0036 -0.8750  0.0524
 2390SOL    HW118629   4.133   4.494  15.799 -0.7964  0.3868  1.0139
 2390SOL    HW218630   4.131   4.349  15.838 -0.8841 -1.4805 -0.0953
 2391SOL     OW18631   4.716   2.438   8.460 -0.4167 -0.2135 -0.0545
 2391SOL    HW118632   4.690   2.385   8.535 -3.8796  2.8358  0.9308
 2391SOL    HW218633   0.081   2.472   8.484 -1.0084 -1.6258  4.1437
 2392SOL     OW18634   3.467   0.445   5.555 -0.0137  0.1821  0.3440
 2392SOL    HW118635   3.466   0.493   5.473 -0.6600  0.1969  0.3621
 2392SOL    HW218636   3.395   0.385   5.538  0.4744 -0.1941 -0.3837
 2393SOL     OW18637   4.512   1.535  10.012  0.1156 -0.4204 -0.1790
 2393SOL    HW118638   4.422   1.539   9.978 -0.1395 -0.0471  0.5317
 2393SOL    HW218639   4.558   1.557   9.932  0.8232  2.4457  0.9854
 2394SOL     OW18640   0.032   3.315   8.306 -0.2390 -0.3145  0.4381
 2394SOL    HW118641   0.055   3.327   8.398  0.0942  0.7638  0.2190
 2394SOL    HW218642   4.661   3.338   8.312 -0.1619  0.1259 -0.0955
 2395SOL     OW18643   2.197   1.979   3.704 -0.1886  0.4070 -0.0075
 2395SOL    HW118644   2.205   1.957   3.611 -0.2231 -1.5335  0.4405
 2395SOL    HW218645   2.103   1.969   3.716 -0.1982 -0.6279 -0.9311
 2396SOL     OW18646   2.750   2.167   6.584  0.2766 -0.4964  0.4766
 2396SOL    HW118647   2.721   2.183   6.495  2.0747 -0.7688 -0.1747
 2396SOL    HW218648   2.699   2.229   6.636 -0.0589  0.6183 -1.1971
 2397SOL     OW18649   0.263   2.431  17.144  0.0555 -0.2965  0.3095
 2397SOL    HW118650   0.195   2.474  17.092  0.4986 -1.0259 -0.8947
 2397SOL    HW218651   0.202   2.373  17.190 -0.1232 -1.4321 -1.3508
 2398SOL     OW18652   3.738   4.320   7.057  0.1526 -0.0265 -0.4427
 2398SOL    HW118653   3.742   4.338   6.963  0.6862  0.2615 -0.3632
 2398SOL    HW218654   3.658   4.371   7.073  1.3389  2.0488 -1.0533
 2399SOL     OW18655   0.967   4.080  11.028  0.3687  0.4036 -0.3969
 2399SOL    HW118656   0.917   4.157  11.001  1.9497  1.4492 -0.3945
 2399SOL    HW218657   1.025   4.131  11.085  0.0064 -1.5144  1.6454
 2400SOL     OW18658   3.640   2.276   4.644  0.0936  0.4188 -0.2633
 2400SOL    HW118659   3.666   2.339   4.577  1.1852  0.9549  0.6668
 2400SOL    HW218660   3.549   2.283   4.615 -0.5249 -0.5590  1.4012
 2401SOL     OW18661   2.908   3.363   5.214  0.0705 -0.0801 -0.7533
 2401SOL    HW118662   2.977   3.410   5.261 -1.3844  0.4546  0.8757
 2401SOL    HW218663   2.833   3.392   5.266  1.6934 -0.5687  1.8177
 2402SOL     OW18664   0.110   0.927  11.380  0.3354  0.2733 -0.2467
 2402SOL    HW118665   0.048   0.949  11.450 -0.2996 -0.8137 -0.4775
 2402SOL    HW218666   0.190   0.904  11.427  0.4593 -2.0723 -1.6012
 2403SOL     OW18667   0.067   3.959  11.532 -0.0602 -0.0728  0.0750
 2403SOL    HW118668   0.064   3.919  11.619 -0.0981 -0.1904  0.0203
 2403SOL    HW218669   4.700   3.934  11.502 -0.0911 -2.3682  2.0819
 2404SOL     OW18670   4.422   0.756   2.686  0.2823  0.0239  0.1149
 2404SOL    HW118671   4.470   0.805   2.753  2.0152 -1.4822 -0.0244
 2404SOL    HW218672   4.487   0.700   2.644  0.8338 -0.4754  1.6264
 2405SOL     OW18673   4.190   1.496   6.323  0.1314  0.0340 -0.2399
 2405SOL    HW118674   4.122   1.489   6.256  1.6762 -1.6994 -1.6225
 2405SOL    HW218675   4.257   1.427   6.322 -0.3053 -0.4153  0.9131
 2406SOL     OW18676   2.797   1.722   0.586 -0.0930 -0.2018  0.0617
 2406SOL    HW118677   2.775   1.808   0.624 -2.2152 -0.3423 -0.8386
 2406SOL    HW218678   2.760   1.742   0.500  0.0423 -0.4762 -0.0589
 2407SOL     OW18679   1.926   0.114   6.271  0.1672  0.4270 -0.2902
 2407SOL    HW118680   1.860   0.098   6.337 -0.3791 -0.3335 -1.0187
 2407SOL    HW218681   1.906   0.049   6.203 -2.6244  1.1676 -0.1442
 2408SOL     OW18682   3.927   1.514  13.603 -0.4419 -0.1480  0.2689
 2408SOL    HW118683   3.862   1.585  13.600  0.2057  0.3296 -2.1253
 2408SOL    HW218684   3.917   1.476  13.691  0.8656  1.0279  0.9342
 2409SOL     OW18685   4.096   4.707   9.784 -0.7647  0.7309 -0.3615
 2409SOL    HW118686   4.005   4.720   9.809 -0.2505  0.6892  1.5721
 2409SOL    HW218687   4.104   0.008   9.691  1.2393 -1.8427 -0.8060
 2410SOL     OW18688   3.449   2.178  15.317  0.0428 -0.2502 -0.1554
 2410SOL    HW118689   3.462   2.174  15.222  0.4015  0.1974 -0.1227
 2410SOL    HW218690   3.356   2.200  15.318 -0.5057 -2.5391  0.0182
 2411SOL     OW18691   3.601   1.983  17.161 -0.6168 -0.1949  0.0033
 2411SOL    HW118692   3.544   2.000  17.235  0.6109 -0.6118  1.0478
 2411SOL    HW218693   3.691   1.995  17.191 -0.5923 -2.0007  0.6896
 2412SOL     OW18694   2.226   4.474   9.220 -0.1314  0.0403 -0.4228
 2412SOL    HW118695   2.181   4.462   9.303  2.0189 -0.1948  0.7160
 2412SOL    HW218696   2.309   4.433   9.245  1.3268  0.9853 -3.6352
 2413SOL     OW18697   0.176   2.738   2.030 -0.7908 -0.2426  0.2513
 2413SOL    HW118698   0.254   2.783   1.996 -0.9050 -0.3604 -0.1705
 2413SOL    HW218699   0.111   2.802   2.003  0.8792  1.6309  0.6213
 2414SOL     OW18700   2.435   2.815   2.951  0.0815  0.0365 -0.1953
 2414SOL    HW118701   2.458   2.817   3.044  0.1835  1.0584 -0.2455
 2414SOL    HW218702   2.408   2.906   2.939 -1.1540 -0.0415  1.8329
 2415SOL     OW18703   4.363   3.270   5.593  0.6656  0.1683  0.2175
 2415SOL    HW118704   4.358   3.338   5.661  1.5040  1.0769 -0.6274
 2415SOL    HW218705   4.409   3.323   5.528  0.1092 -0.3835 -0.6208
 2416SOL     OW18706   2.494   2.371   6.114 -0.7368  0.5018 -0.2888
 2416SOL    HW118707   2.587   2.394   6.111 -1.0073  1.5415 -1.0672
 2416SOL    HW218708   2.463   2.432   6.181 -1.7350  0.6301 -0.8617
 2417SOL     OW18709   2.947   0.337   2.373  0.1695  0.2766  0.0254
 2417SOL    HW118710   2.861   0.359   2.335  0.3044  1.7389  0.5705
 2417SOL    HW218711   2.982   0.425   2.383 -1.1172  0.8409 -0.3277
 2418SOL     OW18712   1.208   3.367   7.424 -0.1124  0.4232 -0.4762
 2418SOL    HW118713   1.116   3.390   7.414 -0.5510 -0.0038  2.6853
 2418SOL    HW218714   1.209   3.278   7.388 -0.6683 -0.1381  0.8908
 2419SOL     OW18715   2.452   0.902  14.809 -0.0044 -0.1288 -0.0904
 2419SOL    HW118716   2.443   0.955  14.888  1.4217 -0.4260  0.2692
 2419SOL    HW218717   2.371   0.851  14.810  1.2659 -2.2112 -1.0190
 2420SOL     OW18718   2.912   0.025   5.092  0.2180  0.6759 -0.0324
 2420SOL    HW118719   2.950   4.685   5.028  1.3353  1.6809 -0.3432
 2420SOL    HW218720   2.980   0.086   5.121  1.0606  0.3326 -1.2809
 2421SOL     OW18721   2.922   3.863  11.802 -0.1728 -0.0747  0.3179
 2421SOL    HW118722   2.879   3.902  11.879 -1.1474 -2.4012  0.9323
 2421SOL    HW218723   2.846   3.828  11.757  1.6470 -2.4955 -0.8492
 2422SOL     OW18724   3.965   2.504  12.508 -0.3842  0.5067 -0.0593
 2422SOL    HW118725   4.053   2.495  12.473 -0.9150  2.2500 -1.8141
 2422SOL    HW218726   3.925   2.419  12.490  1.6990 -0.1494 -1.6181
 2423SOL     OW18727   2.896   3.418   9.334  0.1588 -0.7428 -0.7093
 2423SOL    HW118728   2.913   3.440   9.426 -0.1814 -1.6364 -0.4334
 2423SOL    HW218729   2.936   3.331   9.329  0.7599 -0.4972 -0.1155
 2424SOL     OW18730   2.763   1.796   2.791 -0.1630  0.3738 -0.1847
 2424SOL    HW118731   2.725   1.745   2.719  1.8127  2.2566 -2.5936
 2424SOL    HW218732   2.850   1.758   2.802 -0.5580 -0.3265  0.4670
 2425SOL     OW18733   2.846   2.527   8.273 -0.3953  0.0966 -0.0580
 2425SOL    HW118734   2.933   2.507   8.240  0.4274  1.6282  1.1473
 2425SOL    HW218735   2.798   2.444   8.276  1.4555 -0.9390  0.6760
 2426SOL     OW18736   2.437   3.140  16.658  0.0228  0.1283  0.1970
 2426SOL    HW118737   2.411   3.231  16.672 -3.0324 -0.7019 -0.2818
 2426SOL    HW218738   2.380   3.093  16.719 -0.4996  0.3299 -0.1384
 2427SOL     OW18739   4.513   4.532   5.764 -0.2625 -0.2031  0.3034
 2427SOL    HW118740   4.437   4.544   5.707  0.3729  0.0567 -0.4944
 2427SOL    HW218741   4.555   4.616   5.742 -1.1276 -0.6956 -3.1914
 2428SOL     OW18742   1.711   3.981  14.284  0.0242  0.0746 -0.0058
 2428SOL    HW118743   1.732   4.065  14.243  0.4374 -0.8193 -1.6338
 2428SOL    HW218744   1.790   3.931  14.261 -1.0228 -1.2728 -0.6364
 2429SOL     OW18745   0.714   3.729   2.439 -0.2956  0.8175 -0.1270
 2429SOL    HW118746   0.752   3.808   2.401  0.5208 -0.0982 -1.2078
 2429SOL    HW218747   0.688   3.678   2.362 -1.4886  0.1815  0.7053
 2430SOL     OW18748   2.338   4.024  14.844 -0.0555  0.2594  1.1919
 2430SOL    HW118749   2.250   4.060  14.835  0.5517  1.3923 -0.1651
 2430SOL    HW218750   2.324   3.971  14.923 -0.3974 -0.0007  0.9578
 2431SOL     OW18751   0.017   4.551   3.804 -0.3425  0.1882 -0.5045
 2431SOL    HW118752   4.681   4.624   3.827  0.0057 -0.9235  3.9052
 2431SOL    HW218753   4.681   4.499   3.748  3.2918 -1.3413 -2.8339
 2432SOL     OW18754   0.242   4.225   7.096  0.4480 -0.1551  0.0903
 2432SOL    HW118755   0.299   4.234   7.173 -1.3261 -1.4269  1.5296
 2432SOL    HW218756   0.310   4.198   7.034  0.1829 -0.5247 -0.0382
 2433SOL     OW18757   4.441   2.494   2.034 -0.7371  0.2498 -0.3120
 2433SOL    HW118758   4.444   2.536   1.948 -1.2553  1.9312  0.4732
 2433SOL    HW218759   4.462   2.404   2.010 -1.4187  0.2344 -0.8569
 2434SOL     OW18760   4.156   0.403   3.137  0.0612  0.4521 -1.0824
 2434SOL    HW118761   4.233   0.444   3.175  0.3231  0.0485 -1.1835
 2434SOL    HW218762   4.205   0.345   3.079  0.9366 -0.2345  0.3336
 2435SOL     OW18763   0.727   4.347   7.801 -0.1921  0.3470  0.0251
 2435SOL    HW118764   0.774   4.387   7.728 -1.3303 -1.3748 -1.6753
 2435SOL    HW218765   0.731   4.251   7.797 -3.1782  0.2576 -1.3546
 2436SOL     OW18766   0.799   4.198   2.278  0.6630 -0.2957 -0.5570
 2436SOL    HW118767   0.709   4.169   2.288  0.7239 -1.6446 -4.0951
 2436SOL    HW218768   0.816   4.229   2.367 -2.5886 -2.1168  0.6945
 2437SOL     OW18769   2.972   2.201   7.183  0.4617  0.0525 -0.1703
 2437SOL    HW118770   2.925   2.178   7.264 -0.4941 -0.2902 -0.8268
 2437SOL    HW218771   3.015   2.284   7.204  1.7153 -0.7770  0.5780
 2438SOL     OW18772   2.188   0.648   5.405 -0.3392 -1.0669 -0.2265
 2438SOL    HW118773   2.221   0.726   5.451 -2.4803 -1.2343  1.5637
 2438SOL    HW218774   2.268   0.596   5.416 -0.1264 -0.7913 -0.4608
 2439SOL     OW18775   3.666   3.149   4.417  0.1297  0.6469  0.2959
 2439SOL    HW118776   3.753   3.157   4.380  0.3625 -0.8396  0.4912
 2439SOL    HW218777   3.601   3.133   4.349 -0.0636 -1.1898  0.8806
 2440SOL     OW18778   4.018   2.749  16.249  0.0243 -0.3180 -0.4783
 2440SOL    HW118779   4.007   2.765  16.156 -0.0540 -0.9167 -0.5698
 2440SOL    HW218780   4.014   2.833  16.294 -0.8426 -1.4996  1.6591
 2441SOL     OW18781   2.114   3.778   0.188  0.2858 -0.1539 -0.3914
 2441SOL    HW118782   2.054   3.793   0.115  1.3983  1.8618 -0.8792
 2441SOL    HW218783   2.182   3.844   0.177  0.8322 -0.3961  1.4765
 2442SOL     OW18784   1.155   4.502   5.240 -0.3056 -0.0643 -0.0843
 2442SOL    HW118785   1.190   4.500   5.150 -1.4552 -1.4216 -0.4989
 2442SOL    HW218786   1.234   4.497   5.294  0.5127 -0.6398 -1.3399
 2443SOL     OW18787   1.417   0.640   5.881  0.0505  0.0905 -0.3946
 2443SOL    HW118788   1.391   0.715   5.934 -1.3946 -0.3770 -0.4364
 2443SOL    HW218789   1.512   0.640   5.886  0.0508 -1.6765 -0.3215
 2444SOL     OW18790   4.354   4.539   4.598  0.0496  0.4918  0.1368
 2444SOL    HW118791   4.400   4.456   4.589  0.6575  0.8792 -0.3353
 2444SOL    HW218792   4.363   4.574   4.509  2.5685 -2.3978 -0.7237
 2445SOL     OW18793   0.880   0.615   8.385 -0.1535 -0.4333 -0.1770
 2445SOL    HW118794   0.901   0.532   8.427 -2.6455 -0.8809  0.2073
 2445SOL    HW218795   0.840   0.591   8.301  1.3747 -0.6199 -0.8508
 2446SOL     OW18796   1.099   3.336   6.034 -0.9752 -0.3238 -0.1972
 2446SOL    HW118797   1.037   3.374   6.097 -0.1687 -0.8530  0.9304
 2446SOL    HW218798   1.071   3.373   5.951  2.0805 -1.4412 -1.7363
 2447SOL     OW18799   3.122   1.509   9.295 -0.1149  0.3352  0.4455
 2447SOL    HW118800   3.118   1.597   9.333  1.5736 -0.9381  3.5543
 2447SOL    HW218801   3.150   1.528   9.205 -0.9102  0.7631  0.2945
 2448SOL     OW18802   3.510   2.452   6.912 -0.1369  0.4747  0.4632
 2448SOL    HW118803   3.583   2.506   6.944 -1.5239  1.6967  1.5552
 2448SOL    HW218804   3.483   2.416   6.997 -3.2872  0.4361 -0.5744
 2449SOL     OW18805   2.711   4.341   5.156 -0.4267  0.4219  0.0959
 2449SOL    HW118806   2.754   4.376   5.078 -0.2751  0.2363  0.0949
 2449SOL    HW218807   2.620   4.367   5.143 -0.7694  0.2403  2.0268
 2450SOL     OW18808   3.822   3.542  15.323 -0.0767 -0.4617  0.3368
 2450SOL    HW118809   3.855   3.499  15.401  0.1665 -3.5176 -1.4649
 2450SOL    HW218810   3.838   3.632  15.353  0.0033 -0.3456 -0.0439
 2451SOL     OW18811   1.410   2.856   4.963  0.0249 -0.2002 -0.1698
 2451SOL    HW118812   1.488   2.847   4.909  0.5075  1.8559  0.2049
 2451SOL    HW218813   1.411   2.775   5.013  0.5644  0.6912  1.2628
 2452SOL     OW18814   4.334   2.401   5.614 -0.7515 -0.1900 -0.5771
 2452SOL    HW118815   4.371   2.421   5.700 -0.3981 -1.1828 -0.4877
 2452SOL    HW218816   4.277   2.475   5.593  0.4620  0.6324 -0.9695
 2453SOL     OW18817   0.320   4.471   8.094 -0.4858 -0.7953 -0.0357
 2453SOL    HW118818   0.235   4.444   8.060 -1.8532  0.1566  2.6609
 2453SOL    HW218819   0.377   4.462   8.017  1.0028  0.6660  0.9055
 2454SOL     OW18820   2.186   4.188  17.044 -0.5692  0.4518  0.3633
 2454SOL    HW118821   2.112   4.249  17.038 -0.7993  0.0415 -1.0495
 2454SOL    HW218822   2.259   4.249  17.052  0.9226 -1.5499  1.9339
 2455SOL     OW18823   2.548   1.224  12.436  0.7730  0.4037  0.4458
 2455SOL    HW118824   2.537   1.202  12.528  1.1275 -1.0375  0.1471
 2455SOL    HW218825   2.456   1.219  12.410  0.6399 -2.4019  1.4710
 2456SOL     OW18826   1.077   0.990   1.940  0.2586 -0.1962  0.2550
 2456SOL    HW118827   1.098   1.083   1.951 -1.7008  0.2252  0.5626
 2456SOL    HW218828   1.144   0.961   1.879  0.1891 -0.0677  0.1195
 2457SOL     OW18829   4.100   2.565   5.612 -0.5403  0.2798  1.1780
 2457SOL    HW118830   4.022   2.584   5.559  0.4542 -0.1203 -0.4335
 2457SOL    HW218831   4.120   2.652   5.648 -2.0258  0.5747  1.2836
 2458SOL     OW18832   0.235   4.217  12.755 -0.3940  0.4315 -0.0847
 2458SOL    HW118833   0.180   4.167  12.694  0.2028 -2.3818  1.6597
 2458SOL    HW218834   0.277   4.142  12.797  2.3716  2.2807  0.4035
 2459SOL     OW18835   1.443   1.115   3.094 -0.1487 -0.1044 -0.3297
 2459SOL    HW118836   1.485   1.048   3.148 -0.7996  0.4803  0.9102
 2459SOL    HW218837   1.385   1.144   3.164 -0.9918  0.9459 -1.4800
 2460SOL     OW18838   1.069   3.190   3.430 -0.0169 -0.1191  0.5975
 2460SOL    HW118839   1.104   3.116   3.381  0.6969  0.4540  0.2449
 2460SOL    HW218840   1.054   3.250   3.357  2.4241  1.1122  1.0901
 2461SOL     OW18841   4.145   4.695   7.567 -0.3699  0.3221  0.0065
 2461SOL    HW118842   4.178   4.674   7.654  0.1204  0.9237 -0.0328
 2461SOL    HW218843   4.142   4.609   7.526 -0.6304 -0.5036  1.7527
 2462SOL     OW18844   3.009   2.662   1.695 -0.0508  0.3758  0.1086
 2462SOL    HW118845   3.080   2.701   1.745 -0.5088  1.2334  0.0815
 2462SOL    HW218846   2.940   2.728   1.694  1.7808  2.2680 -0.5969
 2463SOL     OW18847   2.149   4.507   6.682  0.2910 -0.2305 -0.0500
 2463SOL    HW118848   2.220   4.480   6.624 -0.8144  0.8557 -1.8984
 2463SOL    HW218849   2.176   4.504   6.774 -1.2641 -0.2720  0.3989
 2464SOL     OW18850   4.499   4.405   8.390 -0.0003 -0.7078 -0.3991
 2464SOL    HW118851   4.424   4.356   8.424 -2.2475  0.9543 -2.8775
 2464SOL    HW218852   4.501   4.478   8.452 -2.3498 -1.1538  0.2077
 2465SOL     OW18853   3.659   2.780   5.770 -0.4672 -0.1559  0.4833
 2465SOL    HW118854   3.730   2.730   5.811 -0.2089  0.3232  0.6224
 2465SOL    HW218855   3.680   2.775   5.677  0.5202  0.4241  0.6681
 2466SOL     OW18856   4.205   3.824   5.345  0.5387 -0.2913 -0.2961
 2466SOL    HW118857   4.199   3.733   5.319  1.0754  0.0593 -1.6686
 2466SOL    HW218858   4.184   3.811   5.438  1.6219  1.3268  0.1861
 2467SOL     OW18859   4.476   1.737   7.620  0.6792  0.4520  0.2079
 2467SOL    HW118860   4.421   1.773   7.550  1.1196 -0.5328 -0.6544
 2467SOL    HW218861   4.506   1.663   7.568 -0.4375 -1.3803  2.1904
 2468SOL     OW18862   3.436   4.406  14.813  1.0562 -0.1697 -0.1249
 2468SOL    HW118863   3.360   4.355  14.842 -0.2126  1.8100  0.0495
 2468SOL    HW218864   3.516   4.368  14.849  0.8833 -3.0874 -2.8842
 2469SOL     OW18865   4.471   2.562   5.427 -0.2990 -0.0790 -0.8717
 2469SOL    HW118866   4.558   2.523   5.414  0.4214  1.7920 -1.6235
 2469SOL    HW218867   4.435   2.482   5.466 -1.3840  1.3043  0.9310
 2470SOL     OW18868   1.555   3.525  15.658 -0.7225 -0.3152 -0.0752
 2470SOL    HW118869   1.575   3.498  15.748 -1.6279  2.0040  0.8222
 2470SOL    HW218870   1.576   3.618  15.673  0.2640 -0.5200 -0.2084
 2471SOL     OW18871   3.411   4.260   7.357  0.4800  0.0565 -0.2291
 2471SOL    HW118872   3.497   4.220   7.369 -0.0810 -0.8716  0.6985
 2471SOL    HW218873   3.383   4.227   7.271 -0.4105  0.4256 -0.0864
 2472SOL     OW18874   0.180   0.639   3.390  0.0910 -0.9415 -0.0814
 2472SOL    HW118875   0.259   0.646   3.336  0.0333 -0.8540 -0.1543
 2472SOL    HW218876   0.177   0.723   3.436 -3.3378 -1.1582  0.0753
 2473SOL     OW18877   2.329   3.500   3.608  0.6811  0.2299  0.0029
 2473SOL    HW118878   2.254   3.451   3.642  0.3965  0.5200 -0.1982
 2473SOL    HW218879   2.330   3.465   3.518  1.0747  0.7508 -0.1914
 2474SOL     OW18880   2.955   0.641   2.317 -0.6371 -0.2216 -0.0045
 2474SOL    HW118881   2.872   0.687   2.333 -2.1717 -3.3106  0.8760
 2474SOL    HW218882   2.967   0.609   2.406 -4.4957 -2.4004 -0.2818
 2475SOL     OW18883   4.489   0.898  15.143 -0.2270  0.6072  0.4840
 2475SOL    HW118884   4.582   0.909  15.161 -0.0312  0.6750 -0.5729
 2475SOL    HW218885   4.456   0.911  15.232 -3.8579  0.1451 -0.7825
 2476SOL     OW18886   2.733   3.047   0.503 -0.6787  0.0076 -0.3514
 2476SOL    HW118887   2.760   3.051   0.595 -2.0298 -1.5153  0.1038
 2476SOL    HW218888   2.639   3.055   0.520 -0.3808  0.4240  1.1434
 2477SOL     OW18889   4.682   0.580   6.443 -0.0062 -0.3381  0.4709
 2477SOL    HW118890   4.654   0.658   6.492 -0.6648 -0.1413 -0.2135
 2477SOL    HW218891   0.056   0.590   6.451 -0.0328  1.3609 -1.1830
 2478SOL     OW18892   4.714   0.702   4.415 -0.1641 -0.0387  0.3764
 2478SOL    HW118893   4.621   0.709   4.391  0.2794  0.2943 -1.2389
 2478SOL    HW218894   0.017   0.789   4.445  0.4158  0.1328 -0.5940
 2479SOL     OW18895   2.921   1.928   0.890  0.2804  0.2175 -0.6506
 2479SOL    HW118896   3.003   1.947   0.844 -0.0197 -0.4522 -1.4529
 2479SOL    HW218897   2.856   1.926   0.820 -0.0197 -0.3164 -0.3485
 2480SOL     OW18898   2.228   1.376   4.683  0.0999 -0.0976  0.6107
 2480SOL    HW118899   2.194   1.355   4.771 -0.5182  0.2451  0.4569
 2480SOL    HW218900   2.322   1.377   4.698  0.4391 -0.3261 -1.5120
 2481SOL     OW18901   0.229   0.296   7.970 -0.1270 -0.3098 -0.4660
 2481SOL    HW118902   0.303   0.254   7.925 -0.5536 -2.3775  0.7531
 2481SOL    HW218903   0.271   0.364   8.022  0.0371  1.2486 -2.6359
 2482SOL     OW18904   1.897   2.109  15.563  0.2101  0.2076  0.0500
 2482SOL    HW118905   1.861   2.036  15.613 -0.0573  1.2784  1.4111
 2482SOL    HW218906   1.950   2.063  15.498  0.4781  1.3328 -0.5233
 2483SOL     OW18907   1.169   2.439   7.834 -0.3500  0.8219 -0.3681
 2483SOL    HW118908   1.112   2.365   7.814 -1.9064  1.9058  0.0695
 2483SOL    HW218909   1.148   2.510   7.774  0.6011  2.3889  1.1404
 2484SOL     OW18910   3.093   2.231   2.864  0.4995 -0.2002 -0.3269
 2484SOL    HW118911   3.079   2.271   2.779  1.1725  1.7215  0.4600
 2484SOL    HW218912   3.031   2.158   2.863 -0.6937  0.8116  0.6022
 2485SOL     OW18913   4.113   4.523  14.061  0.2792 -0.8156  0.1072
 2485SOL    HW118914   4.154   4.551  14.143  0.1787 -1.2652  0.3143
 2485SOL    HW218915   4.181   4.481  14.008  0.1336 -0.6750 -0.1931
 2486SOL     OW18916   4.445   2.529   3.899 -0.3261  0.6954  0.1887
 2486SOL    HW118917   4.470   2.438   3.883 -2.5124 -0.0375  0.9147
 2486SOL    HW218918   4.528   2.569   3.872 -0.3415  1.8941  1.9260
 2487SOL     OW18919   0.469   1.069   1.924 -0.0777 -0.3052 -0.7199
 2487SOL    HW118920   0.409   1.100   1.992 -0.7337 -1.7916 -0.6269
 2487SOL    HW218921   0.420   1.081   1.842  1.3804 -1.6308 -1.7782
 2488SOL     OW18922   0.309   1.143  16.482 -0.2570  0.0401 -0.5276
 2488SOL    HW118923   0.384   1.201  16.490  1.0503 -1.7541  0.0929
 2488SOL    HW218924   0.327   1.109  16.394  0.4420 -2.8903  0.7575
 2489SOL     OW18925   1.332   0.896   6.744 -0.0189 -0.2264 -0.2491
 2489SOL    HW118926   1.416   0.862   6.712 -0.1588  0.1951 -1.0577
 2489SOL    HW218927   1.269   0.840   6.699 -1.5163  0.1223  1.4287
 2490SOL     OW18928   1.042   3.461   6.481 -0.1770  0.1994 -0.4453
 2490SOL    HW118929   1.103   3.463   6.407 -0.1958  1.6104 -0.4386
 2490SOL    HW218930   0.979   3.526   6.450  0.0344  0.7035  0.1883
 2491SOL     OW18931   0.295   2.725   4.655  0.3097 -0.4029 -0.4839
 2491SOL    HW118932   0.286   2.787   4.582 -1.2066 -0.4912 -0.3808
 2491SOL    HW218933   0.357   2.662   4.619  0.8560 -0.4686  0.5734
 2492SOL     OW18934   4.325   0.022   3.226  0.1075  0.3346 -0.1006
 2492SOL    HW118935   4.286   4.658   3.247 -0.0722  0.7972  1.4690
 2492SOL    HW218936   4.295   0.033   3.136  2.3345 -0.8323 -1.0062
 2493SOL     OW18937   3.402   1.193   6.293 -0.1214  0.3805  0.4883
 2493SOL    HW118938   3.420   1.179   6.200  1.4045 -0.8262  0.9580
 2493SOL    HW218939   3.483   1.156   6.330 -0.1086 -0.9917 -0.8961
 2494SOL     OW18940   2.555   1.524   2.932  0.4308 -0.6231 -0.2601
 2494SOL    HW118941   2.641   1.485   2.916  0.3666 -0.0028 -2.1740
 2494SOL    HW218942   2.545   1.500   3.024 -0.7096  0.5546 -0.0651
 2495SOL     OW18943   2.406   0.757   7.722 -0.0058  0.2571 -0.7839
 2495SOL    HW118944   2.428   0.837   7.674  1.9880 -0.2194 -0.6642
 2495SOL    HW218945   2.485   0.737   7.772 -0.3339 -2.9457 -1.5288
 2496SOL     OW18946   4.166   3.152   0.034  0.2530 -0.2725  0.0535
 2496SOL    HW118947   4.237   3.088   0.041 -1.1289 -1.8678 -0.7021
 2496SOL    HW218948   4.119   3.112  17.648  2.5585 -3.4597  0.3488
 2497SOL     OW18949   1.928   1.246  12.434 -0.3772 -1.3302  0.2071
 2497SOL    HW118950   2.016   1.281  12.426 -1.0450  0.2955  0.0246
 2497SOL    HW218951   1.904   1.255  12.342 -0.2693 -0.6044  0.2483
 2498SOL     OW18952   4.101   3.008  10.773 -0.3113 -0.1893 -0.7224
 2498SOL    HW118953   4.099   3.103  10.786  0.7064 -0.5256  2.0244
 2498SOL    HW218954   4.138   2.981  10.858 -2.2889 -0.5203  0.0326
 2499SOL     OW18955   2.621   2.746   0.744 -0.3952  0.0158 -0.2047
 2499SOL    HW118956   2.702   2.695   0.750 -1.4250 -1.5520  0.2147
 2499SOL    HW218957   2.575   2.726   0.825 -0.1568 -0.3221 -0.1532
 2500SOL     OW18958   4.538   1.773  13.631 -0.1929  0.1889 -0.2953
 2500SOL    HW118959   4.467   1.756  13.694 -1.9184 -1.3171 -2.6161
 2500SOL    HW218960   4.560   1.691  13.586 -0.9089 -0.7140  0.9891
 2501SOL     OW18961   1.805   4.571   2.970  0.4250 -0.1833 -0.0723
 2501SOL    HW118962   1.725   4.612   2.937  0.1895  1.2025  2.1992
 2501SOL    HW218963   1.793   4.576   3.065  0.9809 -1.7598  0.0798
 2502SOL     OW18964   0.233   2.120   8.067 -0.0553 -0.8306 -0.1591
 2502SOL    HW118965   0.278   2.142   7.986 -0.3271  2.2197  0.5235
 2502SOL    HW218966   0.188   2.204   8.080  1.5990  0.2261 -1.3057
 2503SOL     OW18967   2.845   3.389   2.704 -0.3710 -0.1481  0.1211
 2503SOL    HW118968   2.824   3.297   2.722 -3.5686  0.4393 -0.5827
 2503SOL    HW218969   2.936   3.401   2.729 -0.0679 -2.8794  0.4055
 2504SOL     OW18970   2.552   2.195   0.812 -0.3891  0.4598  0.1323
 2504SOL    HW118971   2.533   2.109   0.775 -0.3221  1.2342 -1.7259
 2504SOL    HW218972   2.483   2.193   0.879 -1.7679  1.6265 -1.2295
 2505SOL     OW18973   2.875   0.828   3.771  0.1618 -0.2728 -0.3596
 2505SOL    HW118974   2.806   0.837   3.705  0.8228  0.0434 -1.0052
 2505SOL    HW218975   2.951   0.877   3.740 -0.0095  0.4840  0.3984
 2506SOL     OW18976   0.690   3.002   4.134 -0.2137  0.3614 -0.4276
 2506SOL    HW118977   0.685   2.964   4.046 -0.3157 -0.3712 -0.1084
 2506SOL    HW218978   0.737   2.936   4.186  0.4757 -0.9951 -2.7786
 2507SOL     OW18979   3.178   2.206  11.068  0.2025  0.1500  0.4502
 2507SOL    HW118980   3.225   2.254  11.137  1.1862 -1.6952  1.0547
 2507SOL    HW218981   3.174   2.276  11.003  0.5574 -0.7150 -0.4896
 2508SOL     OW18982   2.307   2.258   7.509 -0.0288 -0.2907  0.1904
 2508SOL    HW118983   2.327   2.277   7.418 -0.6970  1.1748  0.3411
 2508SOL    HW218984   2.369   2.190   7.536  0.3633 -0.1524 -0.3574
 2509SOL     OW18985   4.583   0.492   1.039  0.0789 -0.0004  0.5231
 2509SOL    HW118986   4.576   0.400   1.064  1.7004 -0.7091 -1.6565
 2509SOL    HW218987   4.579   0.484   0.944  0.0498 -1.9679  0.6764
 2510SOL     OW18988   4.306   0.058  16.740 -0.3445  0.6664 -0.2136
 2510SOL    HW118989   4.301   4.698  16.689  2.1357 -0.1169  0.7730
 2510SOL    HW218990   4.401   0.071  16.748 -0.3135 -0.3923  1.2040
 2511SOL     OW18991   3.100   3.375   2.348 -0.3291  0.8175 -0.4856
 2511SOL    HW118992   3.029   3.439   2.344 -1.1191  0.0152  0.5404
 2511SOL    HW218993   3.165   3.434   2.386  0.8330 -0.5460 -0.3576
 2512SOL     OW18994   4.388   2.701   9.908  0.1665 -0.6224  0.1061
 2512SOL    HW118995   4.372   2.652   9.828 -0.2889 -0.2894 -0.0063
 2512SOL    HW218996   4.439   2.775   9.876 -3.3184  1.4543 -0.6482
 2513SOL     OW18997   2.478   3.420   3.908 -0.2546 -0.5802  0.1222
 2513SOL    HW118998   2.411   3.406   3.842 -2.0755 -2.0377  2.2838
 2513SOL    HW218999   2.463   3.364   3.984 -2.5916 -0.8840 -0.5806
 2514SOL     OW19000   3.839   1.813  11.815  0.1218 -0.1194 -0.2176
 2514SOL    HW119001   3.763   1.765  11.783 -0.6124  0.3237  0.8772
 2514SOL    HW219002   3.809   1.810  11.906  0.6521  1.8044  0.0152
 2515SOL     OW19003   0.033   1.626   9.451  1.2335  0.2759 -0.5490
 2515SOL    HW119004   4.680   1.611   9.392  0.1070 -0.0394  0.9311
 2515SOL    HW219005   0.103   1.670   9.403 -1.1135  1.4261 -2.8857
 2516SOL     OW19006   0.963   0.327   7.606 -0.6760 -0.5014  0.0566
 2516SOL    HW119007   0.880   0.281   7.589 -1.0087 -0.6364  2.0196
 2516SOL    HW219008   1.001   0.275   7.677 -3.0472  1.7171  2.9511
 2517SOL     OW19009   4.686   1.992  13.655  0.8355 -0.0302  0.5373
 2517SOL    HW119010   4.629   1.916  13.664 -0.1767  0.4824 -1.6678
 2517SOL    HW219011   4.652   2.032  13.575  1.1909 -1.3240 -0.2520
 2518SOL     OW19012   0.579   0.185   8.237  0.4116  0.3872  0.6372
 2518SOL    HW119013   0.624   0.103   8.257 -0.1818 -0.7727 -2.9139
 2518SOL    HW219014   0.503   0.150   8.191 -0.1701  0.8657  1.2221
 2519SOL     OW19015   1.866   0.734   2.328 -0.4308  0.0824  0.1839
 2519SOL    HW119016   1.797   0.733   2.262 -0.1394  2.9361 -0.1673
 2519SOL    HW219017   1.835   0.655   2.372  0.0757  0.6782  1.6299
 2520SOL     OW19018   4.551   2.125  16.131  0.6412  0.1959  0.2229
 2520SOL    HW119019   4.484   2.058  16.126 -0.3924  1.1675  1.2045
 2520SOL    HW219020   4.511   2.209  16.153  0.8622 -0.1601  2.0234
 2521SOL     OW19021   1.644   2.689   4.923 -0.6405  1.0810 -0.0532
 2521SOL    HW119022   1.641   2.619   4.989 -1.6696  2.1752  1.0484
 2521SOL    HW219023   1.731   2.725   4.942 -1.0213  2.0535 -0.1697
 2522SOL     OW19024   2.315   2.768   0.841 -0.3424  0.8242 -0.0840
 2522SOL    HW119025   2.362   2.821   0.906 -0.7125 -0.4516  1.2228
 2522SOL    HW219026   2.311   2.686   0.891 -0.1170  1.1992  0.5540
 2523SOL     OW19027   1.362   1.297   9.240  0.1224  0.5465 -0.8692
 2523SOL    HW119028   1.314   1.224   9.279  0.6625  0.5126 -0.2575
 2523SOL    HW219029   1.420   1.245   9.185 -2.3538 -2.5425 -0.5444
 2524SOL     OW19030   3.112   1.990   3.896  0.0194 -0.1308 -0.4002
 2524SOL    HW119031   3.046   2.030   3.952  0.0619 -0.0943 -0.3758
 2524SOL    HW219032   3.129   2.047   3.821 -0.2766 -0.8318 -0.9990
 2525SOL     OW19033   4.313   1.003   1.388 -0.0366 -0.2447  0.0894
 2525SOL    HW119034   4.259   0.941   1.339 -2.5706  0.1324  2.4308
 2525SOL    HW219035   4.400   0.968   1.373  0.3456 -1.0302  4.2231
 2526SOL     OW19036   0.565   1.358   9.046  0.4703  0.0316 -0.6337
 2526SOL    HW119037   0.628   1.355   8.974  2.0831  0.9074  0.7659
 2526SOL    HW219038   0.513   1.430   9.011  0.4205  0.0220 -0.5791
 2527SOL     OW19039   0.623   4.454   4.628 -0.3389 -0.5707 -0.3178
 2527SOL    HW119040   0.627   4.534   4.680  0.4331 -1.4859  1.0289
 2527SOL    HW219041   0.551   4.412   4.675  2.6884 -1.7425  3.2529
 2528SOL     OW19042   0.016   2.445  12.584 -0.2473  0.3338 -0.1210
 2528SOL    HW119043   4.693   2.398  12.655  0.1209  1.4307  0.8336
 2528SOL    HW219044   0.027   2.378  12.516  0.9619  0.8966 -0.4811
 2529SOL     OW19045   2.378   0.711   6.662 -0.3724 -0.6824 -0.5587
 2529SOL    HW119046   2.330   0.709   6.745 -0.0513 -1.5469 -0.3966
 2529SOL    HW219047   2.311   0.715   6.594  1.2290  0.7206 -2.0385
 2530SOL     OW19048   0.800   0.727   5.854 -0.3880  0.1273 -0.0433
 2530SOL    HW119049   0.884   0.746   5.810  0.3712 -0.5730  1.1044
 2530SOL    HW219050   0.840   0.732   5.941 -0.4521 -1.6905  0.0720
 2531SOL     OW19051   0.523   3.081   6.584  0.0490  0.7185  0.6321
 2531SOL    HW119052   0.478   3.010   6.628  0.2370 -0.6627 -1.4021
 2531SOL    HW219053   0.534   3.046   6.495 -0.5093  1.0839  0.4181
 2532SOL     OW19054   3.614   2.433   0.721  0.3557 -0.0325  0.1482
 2532SOL    HW119055   3.640   2.342   0.707  0.1277 -0.0321 -0.2725
 2532SOL    HW219056   3.699   2.468   0.697  0.3818 -0.4320 -0.3457
 2533SOL     OW19057   0.727   1.213   7.302 -0.5678  0.5185  0.9846
 2533SOL    HW119058   0.736   1.235   7.395 -0.9736  1.3833  0.8151
 2533SOL    HW219059   0.813   1.179   7.276 -0.7817  0.1337  0.7780
 2534SOL     OW19060   1.722   0.396  13.720  0.4750 -0.3099 -0.5133
 2534SOL    HW119061   1.653   0.409  13.654  0.5231 -1.9478 -0.8947
 2534SOL    HW219062   1.765   0.481  13.722  1.2104 -0.6878 -0.2828
 2535SOL     OW19063   3.221   2.986   5.988 -0.5273  0.3968 -0.6061
 2535SOL    HW119064   3.179   3.018   6.068 -1.1190  0.7464 -1.0574
 2535SOL    HW219065   3.307   2.964   6.024  0.0351  1.8620 -1.0268
 2536SOL     OW19066   4.535   3.726   3.754  0.1305  0.1850  0.2403
 2536SOL    HW119067   4.611   3.748   3.701  0.9298 -0.9804  0.9175
 2536SOL    HW219068   4.558   3.772   3.835 -0.2650 -1.6851  1.4185
 2537SOL     OW19069   3.371   4.384   8.940 -0.6066 -0.1813 -0.3706
 2537SOL    HW119070   3.344   4.408   9.029 -1.1612  0.7935 -0.8030
 2537SOL    HW219071   3.325   4.301   8.928 -0.4620 -0.4865  1.2006
 2538SOL     OW19072   3.884   1.073  14.826  0.0484  0.2910 -0.3476
 2538SOL    HW119073   3.866   1.129  14.751 -2.8531  1.5740  1.3259
 2538SOL    HW219074   3.812   1.011  14.832  0.0100  0.4401  0.6423
 2539SOL     OW19075   1.339   4.398   2.973 -0.0241  0.1079  0.2950
 2539SOL    HW119076   1.298   4.316   3.000 -0.1727 -0.1415 -0.7120
 2539SOL    HW219077   1.432   4.375   2.982  0.0481  0.0829 -0.5533
 2540SOL     OW19078   3.818   0.062   7.975  0.1599  0.1067 -0.2531
 2540SOL    HW119079   3.815   0.150   7.937 -2.8611  0.3455  0.4777
 2540SOL    HW219080   3.727   0.033   7.969 -0.1021  0.6466  1.2762
 2541SOL     OW19081   4.318   2.292   3.634  0.6801 -0.0223  0.3506
 2541SOL    HW119082   4.332   2.327   3.547  0.6636 -0.0702  0.3289
 2541SOL    HW219083   4.393   2.234   3.620  1.6613  1.4332 -0.3706
 2542SOL     OW19084   0.976   0.241   2.196  0.8931 -0.1520  0.0196
 2542SOL    HW119085   0.958   0.163   2.143  0.1348  0.2273 -0.2738
 2542SOL    HW219086   0.945   0.306   2.133  0.4885 -0.5181 -0.1564
 2543SOL     OW19087   3.203   3.358   5.668  0.1538 -0.1244  0.1154
 2543SOL    HW119088   3.247   3.429   5.621  0.7100 -0.5989 -0.0753
 2543SOL    HW219089   3.113   3.390   5.675 -0.3841 -1.8723  0.9714
 2544SOL     OW19090   2.391   1.479   8.012  0.3169 -0.1783 -0.4265
 2544SOL    HW119091   2.411   1.558   8.062 -0.2832  0.0138 -0.4822
 2544SOL    HW219092   2.365   1.422   8.085 -1.3141  0.0314 -0.8496
 2545SOL     OW19093   2.657   2.846   8.789  0.4706  0.2649 -0.4701
 2545SOL    HW119094   2.630   2.907   8.720 -1.9606  0.6269  0.8017
 2545SOL    HW219095   2.639   2.763   8.744  0.8279 -0.4962  0.7816
 2546SOL     OW19096   1.855   1.933   1.393  0.8107  0.0026 -0.7818
 2546SOL    HW119097   1.817   1.869   1.333 -0.0349  0.2911 -0.5411
 2546SOL    HW219098   1.800   1.898   1.462 -3.8783  1.6175 -3.7205
 2547SOL     OW19099   2.820   0.733   4.972 -0.3981 -0.8206  0.2929
 2547SOL    HW119100   2.748   0.787   4.940  0.4453  0.2305  0.1256
 2547SOL    HW219101   2.887   0.743   4.904 -0.7738 -1.2329 -0.1312
 2548SOL     OW19102   2.550   0.307  13.926  0.0110  0.2087  0.7465
 2548SOL    HW119103   2.523   0.265  13.844 -1.7518 -1.0204  1.9625
 2548SOL    HW219104   2.528   0.399  13.911 -1.6211 -0.3802 -0.4495
 2549SOL     OW19105   0.525   0.835   5.886  0.0990  0.1762 -0.6460
 2549SOL    HW119106   0.618   0.821   5.867  0.0805 -1.0741  0.2309
 2549SOL    HW219107   0.507   0.808   5.976  2.1420 -0.1100 -0.3146
 2550SOL     OW19108   1.205   4.557   6.027 -0.4211 -0.0609 -0.5965
 2550SOL    HW119109   1.236   4.545   6.116 -1.0603 -0.4832 -0.4354
 2550SOL    HW219110   1.134   4.494   6.021 -1.2989  0.9201 -0.4487
 2551SOL     OW19111   0.138   1.031  13.881  0.5404  0.6292  0.1998
 2551SOL    HW119112   0.169   1.107  13.833  1.5789 -0.0481 -0.2189
 2551SOL    HW219113   0.174   1.048  13.968  1.1552 -1.3888  0.3540
 2552SOL     OW19114   2.322   2.175   3.339  0.0003  0.2977 -0.4337
 2552SOL    HW119115   2.238   2.199   3.378  0.0258  3.0891 -2.0928
 2552SOL    HW219116   2.379   2.245   3.371  1.4939 -1.0254 -0.2436
 2553SOL     OW19117   3.368   4.555   3.901  0.7761 -0.3240  0.2724
 2553SOL    HW119118   3.402   4.500   3.972  2.5841 -0.4672 -0.7151
 2553SOL    HW219119   3.407   4.642   3.911  1.8121 -0.6020 -1.3708
 2554SOL     OW19120   3.540   1.362   6.893  0.2911  0.2802 -0.3124
 2554SOL    HW119121   3.597   1.376   6.818  0.4152 -0.7292 -0.4089
 2554SOL    HW219122   3.472   1.428   6.878  0.4826  0.7355  0.8102
 2555SOL     OW19123   2.424   1.782   2.533 -0.2775 -0.0302 -0.3820
 2555SOL    HW119124   2.395   1.698   2.495 -1.1766  1.5428 -3.2021
 2555SOL    HW219125   2.517   1.765   2.543 -0.5871 -1.7534 -0.3978
 2556SOL     OW19126   3.615   4.130  14.165  0.2557 -0.1039 -0.3601
 2556SOL    HW119127   3.532   4.147  14.121  0.1473  0.9516  0.2453
 2556SOL    HW219128   3.645   4.053  14.117  0.1716  0.1682 -0.8526
 2557SOL     OW19129   3.362   4.139  13.368  0.3335  0.4001  0.5705
 2557SOL    HW119130   3.350   4.197  13.443  0.3266 -1.6656  2.1480
 2557SOL    HW219131   3.271   4.108  13.363  0.1013  1.2424 -0.4929
 2558SOL     OW19132   2.490   2.603   5.774 -0.1351  0.1307  0.6385
 2558SOL    HW119133   2.523   2.532   5.719 -0.7985  0.2709  0.0581
 2558SOL    HW219134   2.472   2.661   5.700 -1.2990  0.6201  1.3112
 2559SOL     OW19135   2.244   0.382   7.419 -0.3515  0.5414 -0.5193
 2559SOL    HW119136   2.270   0.306   7.367 -0.9803  1.0278 -1.5675
 2559SOL    HW219137   2.218   0.353   7.506  3.0482 -2.2001 -0.4190
 2560SOL     OW19138   3.574   1.287   7.807 -0.7408  0.2414 -0.3454
 2560SOL    HW119139   3.610   1.343   7.738 -1.2153 -0.3335 -1.0554
 2560SOL    HW219140   3.532   1.219   7.755 -2.6775  0.5178  0.8454
 2561SOL     OW19141   1.860   3.022   2.248 -0.1103  0.4886 -0.2049
 2561SOL    HW119142   1.898   2.982   2.326  0.8329 -0.0551 -0.9469
 2561SOL    HW219143   1.809   2.952   2.207 -1.2480  0.9655  0.3890
 2562SOL     OW19144   3.793   4.429   2.271 -0.3618  0.6815 -0.4563
 2562SOL    HW119145   3.832   4.418   2.184 -1.3461  1.5510 -1.0000
 2562SOL    HW219146   3.812   4.522   2.279 -1.2157  0.8073  0.0167
 2563SOL     OW19147   2.204   1.575   4.988  0.6298 -0.4044 -0.8140
 2563SOL    HW119148   2.121   1.551   4.945 -1.0037  3.6163  0.0833
 2563SOL    HW219149   2.215   1.507   5.054  0.6801 -0.4705 -0.8900
 2564SOL     OW19150   1.903   3.562   0.180 -0.5369  0.1260 -0.1736
 2564SOL    HW119151   1.968   3.620   0.219 -0.1630 -0.4752  0.0930
 2564SOL    HW219152   1.818   3.602   0.202 -0.5699 -0.5701  0.9256
 2565SOL     OW19153   1.434   0.097   3.971 -0.1939 -0.1764  0.2887
 2565SOL    HW119154   1.470   0.091   3.883  0.0989  0.4191  0.3721
 2565SOL    HW219155   1.341   0.121   3.962  0.0492  1.0120  0.9530
 2566SOL     OW19156   0.250   1.271   4.714  0.2037 -0.0659  0.3684
 2566SOL    HW119157   0.334   1.279   4.671  0.2304  0.4592  0.5224
 2566SOL    HW219158   0.190   1.257   4.640 -0.0929  2.7544  0.0957
 2567SOL     OW19159   1.630   0.693   9.493  0.0766  0.0737  0.2843
 2567SOL    HW119160   1.623   0.740   9.577 -0.2954 -2.5865  1.7519
 2567SOL    HW219161   1.705   0.728   9.446 -0.4474  2.0742  0.9310
 2568SOL     OW19162   1.233   2.667   3.892 -0.2140  0.2195  0.2735
 2568SOL    HW119163   1.258   2.645   3.803  0.9244 -1.1950  0.9481
 2568SOL    HW219164   1.263   2.757   3.907 -1.2125  0.5659  0.2225
 2569SOL     OW19165   3.312   1.236   7.944 -0.0940  0.2615 -0.0000
 2569SOL    HW119166   3.398   1.264   7.913 -1.2031  3.4553 -0.1561
 2569SOL    HW219167   3.328   1.167   8.008  1.8802  1.5887  0.9356
 2570SOL     OW19168   1.803   1.549   5.150 -0.2387 -0.8256  0.2851
 2570SOL    HW119169   1.718   1.513   5.176 -0.7319  1.3160  1.7521
 2570SOL    HW219170   1.827   1.584   5.236  0.1550 -2.8254  0.9833
 2571SOL     OW19171   2.335   1.135   8.908  0.2124  0.1326  0.1968
 2571SOL    HW119172   2.316   1.111   8.817 -2.0795 -2.3902  1.3137
 2571SOL    HW219173   2.303   1.225   8.912 -0.5843 -0.1019 -1.0301
 2572SOL     OW19174   0.906   3.075   6.010 -0.4779  0.0006 -0.4930
 2572SOL    HW119175   0.913   3.147   6.072  1.0945 -0.2509 -0.3807
 2572SOL    HW219176   0.830   3.102   5.958 -0.6092 -1.5120 -1.0895
 2573SOL     OW19177   0.643   2.312   3.400 -0.4588 -0.2931  0.4027
 2573SOL    HW119178   0.577   2.264   3.349 -0.9702  0.6095  0.2141
 2573SOL    HW219179   0.573   2.364   3.440  0.7310  1.1620  0.5737
 2574SOL     OW19180   3.958   1.066   4.307 -0.2034 -0.7375  0.5835
 2574SOL    HW119181   3.897   1.131   4.274 -0.1275 -1.1617 -0.3753
 2574SOL    HW219182   4.039   1.113   4.327 -0.5858  0.4000 -0.5126
 2575SOL     OW19183   2.071   1.446   6.452 -0.1388  0.0793  0.1775
 2575SOL    HW119184   2.018   1.525   6.449  1.3189  1.0065 -0.9379
 2575SOL    HW219185   2.033   1.399   6.378 -0.1277  2.7196 -1.4873
 2576SOL     OW19186   4.589   3.847   4.910 -0.1940  0.0595 -0.1017
 2576SOL    HW119187   4.573   3.842   5.005 -0.2851  0.8139 -0.0789
 2576SOL    HW219188   4.541   3.769   4.881 -0.1875  0.3994 -1.0080
 2577SOL     OW19189   2.963   4.666   2.270  0.1317  0.3703 -0.3758
 2577SOL    HW119190   2.949   4.579   2.234 -0.5907  0.0784  0.6122
 2577SOL    HW219191   2.951   4.718   2.191  3.3876 -0.5640 -1.4616
 2578SOL     OW19192   4.693   3.639   5.668  0.5375  0.4365 -0.3898
 2578SOL    HW119193   4.604   3.638   5.632  0.5315 -2.7993 -0.2770
 2578SOL    HW219194   4.712   3.547   5.687 -2.3439 -0.0908 -0.0959
 2579SOL     OW19195   1.048   1.853   8.763 -0.7268  0.5215 -0.5137
 2579SOL    HW119196   1.001   1.914   8.821  1.2355  2.3405 -0.8498
 2579SOL    HW219197   1.119   1.910   8.734  0.6703 -0.7751  0.4193
 2580SOL     OW19198   2.316   3.287   9.904  0.2049 -0.7619 -0.6902
 2580SOL    HW119199   2.287   3.314   9.817  2.2298  0.3252 -1.0357
 2580SOL    HW219200   2.356   3.204   9.877  2.0640 -0.3528  0.7848
 2581SOL     OW19201   1.898   4.322   2.875  0.0679 -0.5800  0.1983
 2581SOL    HW119202   1.884   4.357   2.787  1.3394 -2.6583 -0.8379
 2581SOL    HW219203   1.843   4.383   2.924 -0.6693 -1.6276  0.6685
 2582SOL     OW19204   3.984   1.569   9.922  0.0973  0.0310  0.9742
 2582SOL    HW119205   3.967   1.583  10.015 -1.4386 -0.5488  0.7886
 2582SOL    HW219206   3.938   1.485   9.917 -2.0450  1.0211  3.5379
 2583SOL     OW19207   1.190   3.236   2.125 -0.6597  0.3379 -0.1271
 2583SOL    HW119208   1.273   3.218   2.080 -0.2739 -1.1504  1.1582
 2583SOL    HW219209   1.219   3.320   2.159  0.2876  0.1134 -0.3630
 2584SOL     OW19210   3.029   1.221   3.957  0.2405  0.5146  0.4134
 2584SOL    HW119211   3.048   1.289   3.893 -0.3638  2.0268  1.8569
 2584SOL    HW219212   3.025   1.149   3.893 -2.0013  1.5460 -0.6239
 2585SOL     OW19213   2.279   4.224   4.701  0.3093  0.3036 -0.5010
 2585SOL    HW119214   2.358   4.225   4.648  0.6566  1.1506  0.0171
 2585SOL    HW219215   2.220   4.194   4.632 -0.9438  0.8221  0.3318
 2586SOL     OW19216   2.924   3.069  14.592  0.5378 -0.4019 -0.3732
 2586SOL    HW119217   2.861   3.047  14.660 -1.0282 -1.3316 -2.1396
 2586SOL    HW219218   2.919   3.004  14.522  0.5105 -0.9086  0.1019
 2587SOL     OW19219   2.466   3.410   7.973  0.2380 -0.1046  0.6628
 2587SOL    HW119220   2.482   3.323   7.936 -1.3163  0.0288 -0.3280
 2587SOL    HW219221   2.464   3.470   7.898  2.1684 -1.0597 -0.1453
 2588SOL     OW19222   1.595   2.176   8.459 -0.0698 -0.1412  0.0021
 2588SOL    HW119223   1.674   2.161   8.511  0.6513  1.9819 -0.4798
 2588SOL    HW219224   1.641   2.185   8.376  0.0653  0.8182  0.1826
 2589SOL     OW19225   3.961   4.057   4.248  0.5654 -0.0681 -0.0086
 2589SOL    HW119226   4.033   4.076   4.308  1.5450  0.0094 -1.2246
 2589SOL    HW219227   3.928   4.146   4.235 -1.2254 -0.4484  1.8290
 2590SOL     OW19228   0.264   1.334   7.307  0.1399 -0.3950 -0.3458
 2590SOL    HW119229   0.347   1.370   7.338 -0.1661 -0.9103  1.0690
 2590SOL    HW219230   0.219   1.415   7.285  0.3535  0.3919  2.0613
 2591SOL     OW19231   3.470   1.682   4.094 -0.1027  0.1178  0.7313
 2591SOL    HW119232   3.388   1.721   4.065 -0.4992 -0.9832  0.3464
 2591SOL    HW219233   3.524   1.688   4.015  1.4235 -2.7351  1.5546
 2592SOL     OW19234   2.343   4.223  13.068 -0.0918 -0.1227 -0.2577
 2592SOL    HW119235   2.250   4.213  13.088  0.2671  1.9189  2.4960
 2592SOL    HW219236   2.375   4.141  13.107 -0.1754 -0.1070 -0.1553
 2593SOL     OW19237   3.300   2.918  11.723 -0.2289 -0.4039 -0.1407
 2593SOL    HW119238   3.328   2.947  11.810  1.3668  0.5096 -0.9496
 2593SOL    HW219239   3.329   2.992  11.669 -0.9224 -0.4260 -0.5463
 2594SOL     OW19240   0.352   2.035   4.773 -0.2944  0.5873 -0.0674
 2594SOL    HW119241   0.286   2.074   4.830 -0.4454 -1.3031  1.0374
 2594SOL    HW219242   0.429   2.026   4.829 -0.3661  0.1515 -0.0387
 2595SOL     OW19243   3.275   3.451  13.650  0.1477  0.2167 -0.0462
 2595SOL    HW119244   3.337   3.473  13.580  2.2365  2.9598  2.6829
 2595SOL    HW219245   3.335   3.431  13.722 -0.1599  0.2940  0.2283
 2596SOL     OW19246   2.619   4.417   4.433  0.2412 -0.7281  0.7265
 2596SOL    HW119247   2.568   4.350   4.387 -0.3854  0.3191 -0.0949
 2596SOL    HW219248   2.677   4.445   4.362 -0.3109  2.1395  1.4073
 2597SOL     OW19249   1.243   2.646   2.322  0.9704 -0.3387  0.0852
 2597SOL    HW119250   1.269   2.701   2.248 -2.8508  2.8875  1.2166
 2597SOL    HW219251   1.150   2.664   2.325  1.1039  0.8064 -3.0728
 2598SOL     OW19252   0.854   1.366   6.580  0.9466 -0.1551  0.0920
 2598SOL    HW119253   0.801   1.413   6.515 -0.1614  0.1313  1.2027
 2598SOL    HW219254   0.924   1.428   6.604 -0.1246  1.2209 -0.3159
 2599SOL     OW19255   3.523   1.814   1.991  0.1257 -0.2523  0.9406
 2599SOL    HW119256   3.604   1.823   2.041  1.0263  0.3104 -0.6411
 2599SOL    HW219257   3.472   1.756   2.048 -1.5470  2.4079  2.1746
 2600SOL     OW19258   2.190   2.425   5.633  0.4379 -0.2733  0.2769
 2600SOL    HW119259   2.210   2.450   5.542 -1.1889 -1.0944 -0.2987
 2600SOL    HW219260   2.214   2.332   5.639  0.6421 -0.2299  0.1573
 2601SOL     OW19261   4.365   4.654  17.476 -0.2442  0.3193 -0.3391
 2601SOL    HW119262   4.287   4.623  17.523 -1.2261  0.7569 -1.7036
 2601SOL    HW219263   4.329   0.009  17.431 -0.4339  0.7599  0.5521
 2602SOL     OW19264   0.169   0.369   8.887 -0.0291  0.1454  0.2583
 2602SOL    HW119265   0.187   0.368   8.793 -0.7871 -0.0010  0.1160
 2602SOL    HW219266   0.113   0.293   8.903 -1.6094  0.7297 -2.6033
 2603SOL     OW19267   0.224   3.847   5.395 -0.2290 -0.2443  0.0882
 2603SOL    HW119268   0.146   3.798   5.372 -1.0439  1.8793 -1.6577
 2603SOL    HW219269   0.205   3.868   5.486  2.6172  0.5456  0.5200
 2604SOL     OW19270   1.864   2.036   6.432  0.5405  0.2344  0.0590
 2604SOL    HW119271   1.804   1.984   6.378  2.1623  0.3668 -1.8863
 2604SOL    HW219272   1.808   2.107   6.463  0.7325  0.5865 -0.3868
 2605SOL     OW19273   0.643   0.816   3.008 -0.2826  0.0672 -0.0618
 2605SOL    HW119274   0.710   0.828   2.942 -0.6438 -0.0914 -0.4586
 2605SOL    HW219275   0.626   0.722   3.009  1.3794 -0.2202  1.5272
 2606SOL     OW19276   3.086   3.528   1.771 -0.1348 -0.2514 -0.6842
 2606SOL    HW119277   3.022   3.546   1.703 -1.1589  2.1169  0.8866
 2606SOL    HW219278   3.090   3.607   1.826 -0.6092 -1.1619  0.6652
 2607SOL     OW19279   4.226   0.676  15.878  0.2650  0.0566 -0.4426
 2607SOL    HW119280   4.158   0.734  15.912  1.2844  1.4387 -0.7532
 2607SOL    HW219281   4.266   0.735  15.815 -2.6084  3.2934  0.7865
 2608SOL     OW19282   0.487   1.997   9.085 -0.5494  0.2469 -0.1077
 2608SOL    HW119283   0.396   2.009   9.058 -0.3747 -0.2206 -0.8911
 2608SOL    HW219284   0.511   2.080   9.125  1.0310  0.2186 -0.9863
 2609SOL     OW19285   2.331   1.708   5.718 -0.2798  0.3197  0.1320
 2609SOL    HW119286   2.359   1.618   5.706 -0.5646  0.3872 -1.1124
 2609SOL    HW219287   2.417   1.748   5.725  0.4155 -1.2040  0.1870
 2610SOL     OW19288   2.682   0.700  10.070 -0.6421  0.3385 -0.6414
 2610SOL    HW119289   2.654   0.701  10.162  0.2594  1.2692 -0.3763
 2610SOL    HW219290   2.694   0.606  10.061 -1.6250 -0.0302  1.9415
 2611SOL     OW19291   4.442   2.763   6.658 -0.2268 -0.2055 -0.3239
 2611SOL    HW119292   4.354   2.728   6.646  0.2679 -1.6734  0.3131
 2611SOL    HW219293   4.425   2.852   6.689  1.5192 -0.1842  0.5796
 2612SOL     OW19294   4.035   1.416  12.074  0.0976 -0.1257 -0.4661
 2612SOL    HW119295   3.949   1.374  12.065  1.0440 -1.0387 -5.5800
 2612SOL    HW219296   4.039   1.479  12.002  1.5353 -0.0342 -0.2896
 2613SOL     OW19297   3.913   2.691   0.906  0.0155 -0.7273  0.7243
 2613SOL    HW119298   3.941   2.600   0.921  1.1104 -0.2105  1.7930
 2613SOL    HW219299   3.966   2.714   0.830  2.0057  0.6745  2.5227
 2614SOL     OW19300   4.407   2.579   2.684  0.2526  0.2578  0.6375
 2614SOL    HW119301   4.354   2.517   2.734  3.8615 -1.0910  2.8486
 2614SOL    HW219302   4.375   2.567   2.595 -2.2902  0.0931  1.5789
 2615SOL     OW19303   1.395   1.804   4.653  0.1579 -0.4921 -0.0178
 2615SOL    HW119304   1.462   1.774   4.591  0.3593 -0.1749  0.0486
 2615SOL    HW219305   1.343   1.846   4.585 -0.9646 -0.5665  0.8077
 2616SOL     OW19306   4.705   1.334   2.065 -0.1199  0.1793  0.6168
 2616SOL    HW119307   4.655   1.278   2.124  0.3732 -1.4444 -0.5063
 2616SOL    HW219308   4.701   1.291   1.980 -0.5288  3.1974 -0.8666
 2617SOL     OW19309   3.708   1.611   4.813  0.2289 -0.4833 -0.0188
 2617SOL    HW119310   3.645   1.616   4.740  0.7112  3.0387 -0.2034
 2617SOL    HW219311   3.791   1.568   4.792 -0.1303 -1.4364  0.5591
 2618SOL     OW19312   2.761   2.635  12.186  0.1523 -0.3686  0.4278
 2618SOL    HW119313   2.821   2.608  12.117  0.0331  0.0825  0.1507
 2618SOL    HW219314   2.788   2.575  12.256  2.8724 -0.1327 -0.4293
 2619SOL     OW19315   0.081   4.304   4.181 -0.7332 -0.1844  0.2245
 2619SOL    HW119316   0.114   4.369   4.119 -3.0489 -0.0026 -0.8250
 2619SOL    HW219317   0.130   4.327   4.260  2.7896  0.0057 -2.0632
 2620SOL     OW19318   1.032   3.700   7.653 -0.1182  0.1962  0.1143
 2620SOL    HW119319   0.985   3.640   7.712  0.0425  0.4854  0.5334
 2620SOL    HW219320   1.112   3.651   7.638  0.6707  0.3481  3.6534
 2621SOL     OW19321   0.347   4.425   6.608  0.2401  0.3222  0.1575
 2621SOL    HW119322   0.308   4.342   6.582  0.9794  0.8475 -2.6670
 2621SOL    HW219323   0.341   4.427   6.703 -3.9477 -0.8538 -0.0993
 2622SOL     OW19324   3.399   3.084  12.254  0.8424 -0.1601 -0.4207
 2622SOL    HW119325   3.352   3.100  12.336  0.9673 -2.9094  0.2136
 2622SOL    HW219326   3.369   3.159  12.203 -0.0913 -0.8970 -0.9520
 2623SOL     OW19327   3.929   4.156  14.292  0.1983  0.1116 -0.0156
 2623SOL    HW119328   4.009   4.152  14.344  0.4461  2.2746 -0.2467
 2623SOL    HW219329   3.865   4.212  14.338  0.7338 -0.8805  1.9649
 2624SOL     OW19330   1.944   0.741   3.284 -0.4729  0.7371 -0.4589
 2624SOL    HW119331   2.025   0.694   3.268 -1.1041 -0.8638  1.1441
 2624SOL    HW219332   1.976   0.811   3.341 -2.0124  1.2426 -0.1983
 2625SOL     OW19333   1.183   1.828   6.880  0.1246 -0.0562  0.0624
 2625SOL    HW119334   1.160   1.910   6.835 -2.0180 -0.1019  1.0652
 2625SOL    HW219335   1.100   1.780   6.875 -0.1218  0.4174 -0.4810
 2626SOL     OW19336   1.149   0.973   7.780 -0.9820 -0.1569 -0.1666
 2626SOL    HW119337   1.089   0.923   7.836 -1.6737  1.9503  0.9696
 2626SOL    HW219338   1.083   0.994   7.713 -0.3378  0.9866 -0.4326
 2627SOL     OW19339   3.011   3.376  10.941 -0.0409 -0.4980 -0.1729
 2627SOL    HW119340   3.081   3.329  10.987  0.1485 -0.5661 -0.5294
 2627SOL    HW219341   2.978   3.312  10.877 -0.6348  1.1236 -1.4828
 2628SOL     OW19342   3.833   1.876   4.816 -0.0573  1.3276 -0.0309
 2628SOL    HW119343   3.760   1.937   4.824 -1.3510 -0.4975  2.1960
 2628SOL    HW219344   3.791   1.802   4.772  0.4771 -0.0580  1.7968
 2629SOL     OW19345   3.613   0.282   9.323 -0.1259 -0.1013 -0.2764
 2629SOL    HW119346   3.602   0.375   9.301  2.8972  0.4066  0.3435
 2629SOL    HW219347   3.614   0.242   9.237  0.2495  0.5103 -0.5569
 2630SOL     OW19348   0.671   3.993   2.789  0.0823 -0.5354 -0.3494
 2630SOL    HW119349   0.710   3.991   2.876 -1.0983  0.6799  0.1947
 2630SOL    HW219350   0.651   4.085   2.776  2.1382 -0.0711 -0.2620
 2631SOL     OW19351   1.561   2.321  16.281 -0.2068  0.5022 -0.0415
 2631SOL    HW119352   1.481   2.353  16.240 -0.8743 -0.6719  0.3615
 2631SOL    HW219353   1.629   2.351  16.221  0.8277 -0.5767  0.5776
 2632SOL     OW19354   2.031   0.509   2.139 -0.2947  0.1748 -0.3246
 2632SOL    HW119355   2.024   0.414   2.129 -1.1670  0.2605 -0.5142
 2632SOL    HW219356   2.053   0.515   2.232 -1.1159 -0.5270 -0.0859
 2633SOL     OW19357   3.640   1.933   5.777 -0.0624 -0.1425  0.0650
 2633SOL    HW119358   3.576   1.989   5.821  2.4819  1.7595  1.3528
 2633SOL    HW219359   3.620   1.847   5.812  1.9288 -0.6267 -0.0009
 2634SOL     OW19360   3.259   3.136   4.783 -0.0242  0.4186 -0.1274
 2634SOL    HW119361   3.270   3.108   4.692 -0.2791  2.3095 -0.7510
 2634SOL    HW219362   3.164   3.145   4.793  0.1542 -0.5527  2.2371
 2635SOL     OW19363   2.216   1.077   3.770 -0.2576  0.2172  0.3565
 2635SOL    HW119364   2.251   0.995   3.805 -1.3813 -0.1163  0.7117
 2635SOL    HW219365   2.246   1.134   3.840  0.0994 -0.4831  0.7686
 2636SOL     OW19366   4.335   2.755   4.227  0.3567 -0.3979  0.6261
 2636SOL    HW119367   4.327   2.662   4.206 -1.6130  0.2410 -1.4938
 2636SOL    HW219368   4.430   2.766   4.221  0.2819 -0.5527 -0.9057
 2637SOL     OW19369   2.753   3.306  10.520 -0.0072  0.7278 -0.4629
 2637SOL    HW119370   2.671   3.297  10.471  0.3357  1.4663 -1.1876
 2637SOL    HW219371   2.719   3.318  10.608 -0.6854  0.8795 -0.7407
 2638SOL     OW19372   2.951   3.157   7.287  0.3400 -0.3139  0.2245
 2638SOL    HW119373   2.950   3.235   7.232 -1.0255 -0.6959 -0.3017
 2638SOL    HW219374   2.927   3.194   7.372  2.7463 -2.0684  1.6588
 2639SOL     OW19375   1.792   4.168  10.120  0.6660 -0.0063  0.0279
 2639SOL    HW119376   1.805   4.263  10.128  0.3978 -0.0271  0.7051
 2639SOL    HW219377   1.863   4.136  10.176 -0.7716  1.2636  2.5973
 2640SOL     OW19378   3.561   4.458   3.182 -0.0567 -0.1568  0.5189
 2640SOL    HW119379   3.584   4.447   3.274  0.8238  0.0006  0.3094
 2640SOL    HW219380   3.466   4.473   3.191 -0.1514  0.4788 -1.5737
 2641SOL     OW19381   2.812   1.069   3.511  0.2746 -0.2437 -0.6650
 2641SOL    HW119382   2.856   0.988   3.486 -1.7638 -1.1451 -1.3670
 2641SOL    HW219383   2.843   1.126   3.441 -0.0289  0.3929 -0.2802
 2642SOL     OW19384   0.015   4.399   3.435  0.1582  0.1463 -0.3687
 2642SOL    HW119385   4.646   4.415   3.408  0.4905  1.8326 -0.5039
 2642SOL    HW219386   0.048   4.489   3.427  0.9938 -0.0664  0.6717
 2643SOL     OW19387   4.186   1.890   0.214  0.6390 -0.0759  0.1348
 2643SOL    HW119388   4.210   1.819   0.154 -0.3751  1.9508 -2.6294
 2643SOL    HW219389   4.240   1.963   0.183 -0.2021 -0.0081 -1.1610
 2644SOL     OW19390   2.563   3.593   6.741 -0.1946  0.0497 -0.5679
 2644SOL    HW119391   2.474   3.574   6.770 -0.0487 -0.4437 -0.4336
 2644SOL    HW219392   2.544   3.678   6.702  0.8405  0.2661 -0.5941
 2645SOL     OW19393   2.231   1.071   2.270 -0.2086  0.3419 -0.3159
 2645SOL    HW119394   2.136   1.076   2.279 -0.0965  1.9666 -0.0238
 2645SOL    HW219395   2.237   0.981   2.302  0.4161  0.5048  0.0135
 2646SOL     OW19396   2.775   1.914   0.340 -0.3503 -0.3376 -0.3866
 2646SOL    HW119397   2.728   1.996   0.325 -0.7062 -0.6528 -0.9670
 2646SOL    HW219398   2.863   1.940   0.313 -0.1746  1.3553  1.8284
 2647SOL     OW19399   3.539   0.599   2.212 -0.0338  0.0459 -0.5760
 2647SOL    HW119400   3.506   0.533   2.151  0.1906  1.0697 -1.8058
 2647SOL    HW219401   3.486   0.581   2.289 -0.0259  2.4164 -0.0127
 2648SOL     OW19402   0.771   2.849  14.000 -0.5058  0.7761 -0.4592
 2648SOL    HW119403   0.698   2.894  14.041  0.8074  3.5902 -1.2463
 2648SOL    HW219404   0.836   2.820  14.064  0.1944  1.9693 -0.6287
 2649SOL     OW19405   1.822   4.704   3.445 -0.2162 -0.1635 -0.0656
 2649SOL    HW119406   1.805   4.650   3.521  0.4819 -0.7052 -0.2983
 2649SOL    HW219407   1.912   0.014   3.453  0.6158 -2.1789 -1.7921
 2650SOL     OW19408   2.742   2.932   2.622 -0.9503 -0.0414  0.7363
 2650SOL    HW119409   2.795   2.852   2.629  0.4303  0.6877 -1.1475
 2650SOL    HW219410   2.755   2.965   2.533 -0.5473 -1.3249  0.3125
 2651SOL     OW19411   3.118   2.210   3.695  0.2049  0.0158  0.5394
 2651SOL    HW119412   3.149   2.169   3.614 -0.2251  0.2139  0.2740
 2651SOL    HW219413   3.147   2.302   3.695  0.7508 -0.1495 -1.1232
 2652SOL     OW19414   2.124   4.178   6.594  0.0463  0.2752 -0.1029
 2652SOL    HW119415   2.109   4.272   6.600  1.0157  0.3259  1.7804
 2652SOL    HW219416   2.050   4.155   6.539  0.9514 -0.0626 -1.1832
 2653SOL     OW19417   2.282   1.518   8.644 -0.8288 -0.0937 -0.0372
 2653SOL    HW119418   2.354   1.551   8.590 -0.9160  0.7229  0.3418
 2653SOL    HW219419   2.239   1.597   8.676  1.0741  0.4496  1.1630
 2654SOL     OW19420   3.983   3.271   1.213 -0.4323  0.0166  0.5295
 2654SOL    HW119421   3.949   3.273   1.124 -1.8807  1.4360  1.0978
 2654SOL    HW219422   4.008   3.181   1.234  0.2202  0.4304  1.5133
 2655SOL     OW19423   3.529   3.465   4.420 -0.0342 -0.5126 -0.2942
 2655SOL    HW119424   3.597   3.401   4.401  0.3295  0.7127 -3.0544
 2655SOL    HW219425   3.499   3.493   4.334  1.1437 -0.1383 -0.5826
 2656SOL     OW19426   0.771   1.241   6.800 -0.2418 -0.4280  0.1815
 2656SOL    HW119427   0.789   1.286   6.717  0.4689 -1.7294 -0.3696
 2656SOL    HW219428   0.723   1.315   6.838 -1.0869 -1.0396  0.3045
 2657SOL     OW19429   4.690   1.268   5.265  0.4583  0.1301 -0.0821
 2657SOL    HW119430   4.669   1.334   5.332  1.6619  0.3641  0.0649
 2657SOL    HW219431   4.661   1.191   5.312  0.4251 -1.6486 -2.9985
 2658SOL     OW19432   0.678   0.749   6.634 -0.0495 -0.1884 -0.3295
 2658SOL    HW119433   0.750   0.741   6.572 -0.1284  0.2732 -0.4785
 2658SOL    HW219434   0.726   0.804   6.696 -0.6038 -1.3888  1.1988
 2659SOL     OW19435   0.717   3.560   2.218  0.1996 -0.4856 -0.0364
 2659SOL    HW119436   0.734   3.466   2.228  1.1052 -0.1835  1.3850
 2659SOL    HW219437   0.800   3.580   2.174  1.1900 -2.2754  0.9776
 2660SOL     OW19438   3.119   4.155   5.144 -0.3916  0.2382 -0.1394
 2660SOL    HW119439   3.118   4.246   5.114  0.5150  0.0060 -0.8959
 2660SOL    HW219440   3.054   4.149   5.214 -1.5940  3.5017 -0.9703
 2661SOL     OW19441   0.458   4.037   3.045  0.0758  0.6568  0.2500
 2661SOL    HW119442   0.504   4.104   3.095 -1.2271 -0.0688  2.4113
 2661SOL    HW219443   0.526   4.019   2.980 -2.3616  1.7174 -2.5746
 2662SOL     OW19444   3.930   1.801   3.419  0.0047 -0.6604  0.5870
 2662SOL    HW119445   3.856   1.847   3.379 -0.3367 -0.3437  1.5862
 2662SOL    HW219446   3.907   1.799   3.511 -1.0839 -0.9153  0.3054
 2663SOL     OW19447   1.027   3.279   3.974 -0.4837 -0.5233 -0.3095
 2663SOL    HW119448   1.004   3.281   4.067 -1.3771  1.8228 -0.5816
 2663SOL    HW219449   0.942   3.297   3.933 -0.2691  2.8010  0.7346
 2664SOL     OW19450   2.447   4.360   8.256  0.2605  0.5634  0.2620
 2664SOL    HW119451   2.386   4.339   8.186 -0.7324  2.8089  0.4624
 2664SOL    HW219452   2.436   4.455   8.263 -1.0290  0.4120  0.3592
 2665SOL     OW19453   0.694   3.020   4.902 -0.7053 -0.4007 -0.0161
 2665SOL    HW119454   0.662   2.937   4.865  1.5575 -0.8675 -0.9146
 2665SOL    HW219455   0.696   2.993   4.994 -1.0377 -1.3726 -0.2873
 2666SOL     OW19456   2.652   4.695   2.900  0.1398 -0.4734  0.5609
 2666SOL    HW119457   2.737   4.707   2.942 -0.7130  5.0810  0.7823
 2666SOL    HW219458   2.585   0.032   2.937 -0.6745 -0.7427 -0.5022
 2667SOL     OW19459   1.496   0.490   3.566  0.1143 -0.3673 -0.3252
 2667SOL    HW119460   1.557   0.526   3.630 -0.3051  0.6229 -0.4972
 2667SOL    HW219461   1.415   0.532   3.595 -0.0003 -0.2390 -0.8456
 2668SOL     OW19462   4.537   1.121  16.665 -0.3224  0.2723 -0.3236
 2668SOL    HW119463   4.601   1.178  16.708  0.8225 -1.6016  0.4894
 2668SOL    HW219464   4.598   1.083  16.602 -0.1064  2.2417 -1.2849
 2669SOL     OW19465   2.286   0.482   8.076 -0.0243 -0.0724 -0.7578
 2669SOL    HW119466   2.210   0.501   8.131  1.3240 -0.0103  1.0689
 2669SOL    HW219467   2.249   0.476   7.988 -0.6558 -0.0203 -0.5024
 2670SOL     OW19468   1.130   3.436   2.896 -0.4022  0.7217  0.4444
 2670SOL    HW119469   1.213   3.391   2.909 -0.1222  1.5810  1.6662
 2670SOL    HW219470   1.157   3.526   2.916 -0.2700  0.7379  0.1833
 2671SOL     OW19471   0.472   0.345   7.651 -0.0897 -0.0516  0.5335
 2671SOL    HW119472   0.545   0.389   7.608 -1.4694 -0.2994 -2.0746
 2671SOL    HW219473   0.522   0.319   7.728 -2.4945  1.8224  2.7479
 2672SOL     OW19474   4.467   4.478  15.674 -0.0630  0.6821  0.4826
 2672SOL    HW119475   4.383   4.523  15.678  0.7190  2.1525  0.2001
 2672SOL    HW219476   4.502   4.496  15.587  1.2836 -1.6497  0.5335
 2673SOL     OW19477   2.584   2.906   4.979 -0.2498  0.1397 -0.2328
 2673SOL    HW119478   2.533   2.831   4.949  1.0893 -0.5649 -0.7056
 2673SOL    HW219479   2.525   2.949   5.041 -0.7698 -1.0068  0.0527
 2674SOL     OW19480   0.472   2.233   7.371 -0.1048  0.2554  0.4426
 2674SOL    HW119481   0.382   2.217   7.398  0.1666 -0.8096  0.7036
 2674SOL    HW219482   0.481   2.201   7.281 -0.2635 -0.7746  0.7875
 2675SOL     OW19483   0.211   0.630   6.179 -0.1029  0.1490  0.5955
 2675SOL    HW119484   0.270   0.559   6.152  1.2264  1.8362 -0.8663
 2675SOL    HW219485   0.217   0.616   6.274  0.0939 -2.0589  0.2761
 2676SOL     OW19486   0.382   2.419   5.497 -0.7442  0.7376 -0.8032
 2676SOL    HW119487   0.385   2.326   5.519  1.8685  0.5674 -1.8983
 2676SOL    HW219488   0.332   2.417   5.415  0.3238  0.0315 -1.4347
 2677SOL     OW19489   2.157   1.701  15.243  0.3902  0.4987 -0.3129
 2677SOL    HW119490   2.145   1.705  15.148  0.1353  5.2448 -0.0703
 2677SOL    HW219491   2.066   1.720  15.264  0.1814 -0.2282 -0.5669
 2678SOL     OW19492   4.090   2.195   5.172  0.2388 -0.2984  0.0905
 2678SOL    HW119493   4.078   2.227   5.261  1.5062  0.1327  0.0972
 2678SOL    HW219494   4.164   2.248   5.145  0.4780 -0.1490  1.0239
 2679SOL     OW19495   3.261   0.692  15.960 -0.2071 -0.0178  0.3737
 2679SOL    HW119496   3.300   0.680  16.046 -0.7671  2.0714  0.9060
 2679SOL    HW219497   3.217   0.773  15.983  0.0186  0.4355 -0.7933
 2680SOL     OW19498   1.616   1.194   7.284 -0.1952  0.2340  0.5163
 2680SOL    HW119499   1.545   1.147   7.239 -1.1305  1.7290  0.4182
 2680SOL    HW219500   1.575   1.187   7.370  0.2383  0.3412  0.7308
 2681SOL     OW19501   4.098   1.306   9.107  0.3511  0.0837  0.1027
 2681SOL    HW119502   4.035   1.281   9.039  0.7356  0.4468 -0.3861
 2681SOL    HW219503   4.124   1.392   9.076 -2.7283  1.0775  0.2777
 2682SOL     OW19504   3.790   2.963   8.017 -0.7902  0.3529 -0.0061
 2682SOL    HW119505   3.855   2.949   7.949  1.8104  1.1787  2.3068
 2682SOL    HW219506   3.760   2.872   8.020  1.8747 -0.5023  0.3373
 2683SOL     OW19507   0.138   2.676   4.167 -0.3789 -0.2478  0.4763
 2683SOL    HW119508   0.232   2.695   4.161 -0.3617 -0.1881  0.9568
 2683SOL    HW219509   0.142   2.585   4.194 -1.9826 -0.4042  0.2025
 2684SOL     OW19510   1.506   2.496   2.445  0.2623 -0.0779 -0.0624
 2684SOL    HW119511   1.423   2.457   2.470  0.4021 -0.8298 -0.7875
 2684SOL    HW219512   1.546   2.416   2.411 -0.0401 -0.0667 -0.4423
 2685SOL     OW19513   4.343   3.130  14.851  0.6039 -0.5434  0.0566
 2685SOL    HW119514   4.363   3.038  14.834  3.0633 -0.2924  1.7168
 2685SOL    HW219515   4.281   3.125  14.924 -0.2870  1.4344 -0.5486
 2686SOL     OW19516   4.145   1.776   4.755  0.2435  0.0355 -0.1787
 2686SOL    HW119517   4.199   1.714   4.707  2.0999  1.1820  0.4249
 2686SOL    HW219518   4.105   1.828   4.685 -1.7451 -1.3399 -0.0543
 2687SOL     OW19519   1.939   1.760   2.415  0.2865  0.0141 -0.5533
 2687SOL    HW119520   1.990   1.836   2.444 -0.7928 -0.3640  2.3422
 2687SOL    HW219521   1.990   1.728   2.341  0.5928 -0.6734 -0.0517
 2688SOL     OW19522   3.376   1.987   6.099 -0.2254  0.9987 -0.4228
 2688SOL    HW119523   3.387   2.074   6.136  0.0582 -0.3023  2.5859
 2688SOL    HW219524   3.326   1.947   6.170  1.1160  0.8940  0.4836
 2689SOL     OW19525   3.158   2.486  12.479  0.4001 -0.3129 -0.1460
 2689SOL    HW119526   3.233   2.430  12.498  0.4211  0.4466  2.0240
 2689SOL    HW219527   3.092   2.430  12.520 -1.2949  3.3592  2.1001
 2690SOL     OW19528   3.842   1.285   0.454 -0.2832  0.1249 -0.0065
 2690SOL    HW119529   3.766   1.254   0.503  0.9138  1.3874  2.6668
 2690SOL    HW219530   3.812   1.264   0.366 -0.2959 -0.7665  0.2166
 2691SOL     OW19531   0.651   0.217  11.073 -0.3680 -0.3651 -0.4343
 2691SOL    HW119532   0.733   0.263  11.092 -0.6430  0.4973 -1.3530
 2691SOL    HW219533   0.595   0.279  11.121  1.6714 -0.6103  2.2732
 2692SOL     OW19534   3.191   4.167   6.720 -0.4814 -0.3512 -0.5417
 2692SOL    HW119535   3.115   4.123   6.683 -0.0621 -1.4405 -0.1034
 2692SOL    HW219536   3.228   4.101   6.778  0.5063  1.4132  0.8699
 2693SOL     OW19537   4.112   3.171  14.064 -0.0791  0.2930  0.3281
 2693SOL    HW119538   4.200   3.157  14.099  0.0585  1.4344  0.4394
 2693SOL    HW219539   4.058   3.149  14.141  2.1006 -2.3148  1.0841
 2694SOL     OW19540   1.731   0.869  15.569 -0.5029 -0.0544 -0.1968
 2694SOL    HW119541   1.822   0.884  15.543 -1.9080  2.3454 -3.8202
 2694SOL    HW219542   1.697   0.831  15.488  0.6939 -0.6582 -0.4062
 2695SOL     OW19543   3.077   1.317   4.548  0.1694  1.1234 -0.0171
 2695SOL    HW119544   3.068   1.225   4.523 -1.0831  0.9092  1.1934
 2695SOL    HW219545   3.022   1.353   4.478  0.8496  1.2571 -0.4828
 2696SOL     OW19546   2.361   4.058   0.790  0.7128  0.3323  0.0542
 2696SOL    HW119547   2.298   4.128   0.803  2.3576  1.8313 -0.1351
 2696SOL    HW219548   2.306   3.980   0.802  0.1252  0.7008 -0.2780
 2697SOL     OW19549   1.274   0.282   8.516 -0.2010  0.2658 -0.3818
 2697SOL    HW119550   1.325   0.264   8.437 -1.7857 -2.2132 -0.8510
 2697SOL    HW219551   1.265   0.200   8.565 -1.4254  1.0000  0.6287
 2698SOL     OW19552   1.276   1.982   9.168 -0.0257  0.2962 -0.1876
 2698SOL    HW119553   1.304   1.911   9.227  0.2643  1.2787  0.8665
 2698SOL    HW219554   1.295   2.061   9.219 -1.1525  0.4060  0.0645
 2699SOL     OW19555   0.586   4.355   8.491  0.2206  0.6753 -0.0269
 2699SOL    HW119556   0.676   4.339   8.461 -0.4505  0.9202 -2.1508
 2699SOL    HW219557   0.582   4.449   8.476  3.2733  0.7409 -0.4497
 2700SOL     OW19558   4.011   2.492  11.122 -0.4356  0.0985 -0.4238
 2700SOL    HW119559   4.083   2.542  11.085  1.2608 -2.3554 -0.4737
 2700SOL    HW219560   4.009   2.523  11.213 -0.2838 -1.0770 -0.0144
 2701SOL     OW19561   2.115   0.932   9.511 -0.1915 -0.2499  0.2424
 2701SOL    HW119562   2.109   0.917   9.417  2.8077 -2.2146  0.3412
 2701SOL    HW219563   2.153   1.019   9.517 -0.4788 -0.0287 -1.2009
 2702SOL     OW19564   4.334   2.490   8.023  0.7736  0.2422 -0.2246
 2702SOL    HW119565   4.405   2.540   8.062  1.1614 -0.7724  0.3522
 2702SOL    HW219566   4.314   2.422   8.087  2.7065  1.1203  1.3101
 2703SOL     OW19567   4.264   1.651  17.205  0.4623  0.2153 -0.7162
 2703SOL    HW119568   4.258   1.569  17.156  0.4366  0.9475 -1.9310
 2703SOL    HW219569   4.278   1.619  17.294 -5.1600  0.1913  0.1540
 2704SOL     OW19570   3.309   3.293   6.706 -0.5631 -0.1161 -0.1704
 2704SOL    HW119571   3.376   3.349   6.745 -0.4220 -0.7056  0.4392
 2704SOL    HW219572   3.284   3.234   6.777 -2.7953  1.0413  0.0139
 2705SOL     OW19573   4.079   3.228   9.907  0.2838  0.0576 -0.4153
 2705SOL    HW119574   4.078   3.300   9.971  2.8956 -0.5723  0.3497
 2705SOL    HW219575   4.173   3.220   9.887  0.4965  0.0530  0.5345
 2706SOL     OW19576   4.451   1.913  16.629 -0.3054 -0.1776  0.1745
 2706SOL    HW119577   4.401   1.900  16.548 -1.4757 -1.0566  1.0408
 2706SOL    HW219578   4.539   1.897  16.596 -1.2204 -1.1786 -1.7763
 2707SOL     OW19579   4.079   2.727   6.892  0.3887  0.0219 -0.2259
 2707SOL    HW119580   4.128   2.781   6.830 -0.4559 -1.0495 -1.8119
 2707SOL    HW219581   3.998   2.713   6.843 -0.4104  0.9043  0.8418
 2708SOL     OW19582   0.920   4.237  17.652  0.3101  0.1619  0.6439
 2708SOL    HW119583   0.902   4.276  17.566  1.1861  2.1538  1.3626
 2708SOL    HW219584   0.967   4.309   0.007 -0.5255  0.4512  1.0942
 2709SOL     OW19585   1.437   3.192   2.026 -0.0239 -0.1753  0.3547
 2709SOL    HW119586   1.396   3.135   1.962  1.1292  0.2541 -0.7548
 2709SOL    HW219587   1.524   3.152   2.032 -0.2036 -0.5840  0.2709
 2710SOL     OW19588   0.282   1.374   7.765 -0.0710 -0.3125 -0.0148
 2710SOL    HW119589   0.213   1.340   7.821  0.8260 -0.0338  1.2718
 2710SOL    HW219590   0.254   1.334   7.683 -1.9802 -1.3496  1.1398
 2711SOL     OW19591   3.357   0.553   6.034  0.4863  0.3624  0.4366
 2711SOL    HW119592   3.271   0.515   6.019  0.8965 -1.0133  1.6200
 2711SOL    HW219593   3.339   0.645   6.056  1.2706  0.7634 -0.6074
 2712SOL     OW19594   3.818   4.201  17.019  0.2850  0.4182 -0.5853
 2712SOL    HW119595   3.843   4.157  16.937  0.9671 -2.3273  1.0829
 2712SOL    HW219596   3.886   4.264  17.040  0.1861 -0.2798  1.8767
 2713SOL     OW19597   1.222   2.130   6.952  0.0222 -0.2769  0.0199
 2713SOL    HW119598   1.180   2.159   6.871 -2.1899  1.3605  1.7692
 2713SOL    HW219599   1.225   2.207   7.009  1.9539 -0.0034 -0.4535
 2714SOL     OW19600   0.154   2.807   6.981  0.0166  0.1172  0.1726
 2714SOL    HW119601   0.103   2.864   7.038 -1.3702  0.2215 -1.1443
 2714SOL    HW219602   0.224   2.788   7.043 -0.2206 -0.0844  0.3823
 2715SOL     OW19603   0.234   2.874  13.457  0.2629 -0.3376  0.0867
 2715SOL    HW119604   0.228   2.779  13.449  0.6828 -0.4117  0.6736
 2715SOL    HW219605   0.141   2.893  13.446  0.7190  1.0264 -1.4994
 2716SOL     OW19606   1.972   4.562   8.510  0.0648  0.2887  0.2528
 2716SOL    HW119607   1.910   4.634   8.516 -0.3122 -0.3832  4.0528
 2716SOL    HW219608   1.916   4.499   8.465 -0.4260  0.2141  0.9684
 2717SOL     OW19609   2.519   1.356  11.678 -0.2379  0.2237  0.4158
 2717SOL    HW119610   2.562   1.326  11.758  0.8615 -0.5529 -0.4653
 2717SOL    HW219611   2.510   1.274  11.629  0.3737  0.6057 -0.3411
 2718SOL     OW19612   2.561   1.191   3.945 -0.4084 -0.2138 -0.4489
 2718SOL    HW119613   2.646   1.219   3.979 -2.0063  3.1476  0.8988
 2718SOL    HW219614   2.590   1.129   3.879 -1.2924  0.0037 -1.0459
 2719SOL     OW19615   3.455   2.454  12.500 -0.3796 -0.0557  0.2592
 2719SOL    HW119616   3.535   2.409  12.528  0.2041 -0.0285 -1.3429
 2719SOL    HW219617   3.455   2.434  12.406  0.3695 -0.3019  0.3139
 2720SOL     OW19618   3.983   4.013   2.650  0.3269 -0.7299  0.5387
 2720SOL    HW119619   3.924   3.991   2.577  1.6717  0.6595 -0.9493
 2720SOL    HW219620   4.068   3.985   2.617 -0.0707 -0.4261 -0.7480
 2721SOL     OW19621   4.384   1.804   3.176 -0.0172 -0.2994 -0.9620
 2721SOL    HW119622   4.437   1.729   3.148  2.0203  0.5296  0.7325
 2721SOL    HW219623   4.310   1.767   3.224 -1.0939  1.7479 -1.0769
 2722SOL     OW19624   3.187   4.183  15.643 -0.2008 -0.2748  0.0948
 2722SOL    HW119625   3.173   4.117  15.711 -1.5269 -0.9995 -0.8767
 2722SOL    HW219626   3.265   4.233  15.664 -0.3209  0.0832 -0.3120
 2723SOL     OW19627   3.043   0.935  16.503  0.2654  0.2978 -0.2530
 2723SOL    HW119628   3.005   0.955  16.588  0.4730  1.1250 -0.3534
 2723SOL    HW219629   2.964   0.915  16.453 -0.1680 -0.1249  0.6093
 2724SOL     OW19630   3.424   2.218   5.735 -0.0101 -0.2200  0.2045
 2724SOL    HW119631   3.330   2.203   5.747 -0.4204 -0.5519 -3.4517
 2724SOL    HW219632   3.434   2.299   5.785 -0.0564  0.1027 -0.3193
 2725SOL     OW19633   1.683   2.352   0.573 -0.3516 -0.0523  0.7284
 2725SOL    HW119634   1.600   2.372   0.530 -0.1446  0.9572  0.7917
 2725SOL    HW219635   1.716   2.437   0.601  0.6199 -0.2694  0.2451
 2726SOL     OW19636   3.358   0.543   3.102  0.2575  0.4374 -0.8419
 2726SOL    HW119637   3.454   0.548   3.109  0.2943 -0.9682 -0.3876
 2726SOL    HW219638   3.335   0.621   3.051 -0.4980  0.8847  0.1710
 2727SOL     OW19639   1.919   0.790   9.659 -0.0767 -0.1486  0.0848
 2727SOL    HW119640   1.827   0.814   9.674  0.2103  0.4957  0.7961
 2727SOL    HW219641   1.959   0.860   9.608 -3.2009 -1.1319 -3.7080
 2728SOL     OW19642   3.773   3.243   8.079  0.8346  0.1468 -0.4291
 2728SOL    HW119643   3.773   3.249   7.983  2.0810 -1.3699 -0.5186
 2728SOL    HW219644   3.788   3.149   8.084 -1.3602 -0.2435 -1.2823
 2729SOL     OW19645   1.003   2.395   7.485 -0.0006 -0.6215  0.2069
 2729SOL    HW119646   0.935   2.361   7.427  0.7707 -0.6084 -0.7042
 2729SOL    HW219647   1.031   2.312   7.523 -0.7481 -0.3642  1.3170
 2730SOL     OW19648   2.041   0.473   5.236  0.6213  0.9957 -0.4550
 2730SOL    HW119649   1.968   0.523   5.199 -0.3269 -0.1244 -0.1117
 2730SOL    HW219650   2.067   0.535   5.304  2.8255 -0.5331  0.1045
 2731SOL     OW19651   2.831   1.153   6.246  0.2436 -0.2308 -0.0876
 2731SOL    HW119652   2.891   1.186   6.179 -0.4741  0.7020 -0.2707
 2731SOL    HW219653   2.848   1.058   6.248 -1.1566 -0.5227 -1.5977
 2732SOL     OW19654   3.898   0.772  11.550 -0.8225  0.7539  0.2526
 2732SOL    HW119655   3.858   0.710  11.611  1.4978 -1.7727 -0.8261
 2732SOL    HW219656   3.932   0.714  11.483  0.1335 -0.5392  1.8561
 2733SOL     OW19657   2.746   1.977   5.404  0.1281 -0.2601 -0.1112
 2733SOL    HW119658   2.735   1.994   5.310  1.0785  0.9329 -0.0073
 2733SOL    HW219659   2.837   1.995   5.425 -0.2189  0.0824  1.1416
 2734SOL     OW19660   1.221   3.287   3.765 -0.4964 -0.3616  0.0243
 2734SOL    HW119661   1.209   3.369   3.716 -0.0755 -0.8635 -0.9265
 2734SOL    HW219662   1.151   3.286   3.830 -0.3241  1.3109  0.2288
 2735SOL     OW19663   3.267   0.841   7.951  0.2679 -0.0033 -0.0103
 2735SOL    HW119664   3.242   0.749   7.950 -0.3490  0.1355  1.9270
 2735SOL    HW219665   3.266   0.874   7.862 -1.0896 -2.0172 -0.7385
 2736SOL     OW19666   1.339   4.469   6.251 -0.0027  0.0134  0.2493
 2736SOL    HW119667   1.405   4.537   6.240  1.2572 -0.9067  2.0467
 2736SOL    HW219668   1.388   4.387   6.263  0.3021 -0.0566 -1.4307
 2737SOL     OW19669   0.389   3.465   8.209 -0.1921  0.2023 -0.2915
 2737SOL    HW119670   0.341   3.457   8.126  1.7144 -0.4159 -1.3350
 2737SOL    HW219671   0.360   3.551   8.239 -2.4646 -0.7280  0.2029
 2738SOL     OW19672   1.146   3.644  11.021 -0.1702 -0.0538  0.2982
 2738SOL    HW119673   1.163   3.586  11.095 -0.9147 -3.4396 -2.1856
 2738SOL    HW219674   1.189   3.596  10.950  0.7422  0.3621  0.5718
 2739SOL     OW19675   3.302   2.967   5.421  0.5746  0.8543 -0.3321
 2739SOL    HW119676   3.324   3.010   5.339  0.2787  1.3001 -0.1746
 2739SOL    HW219677   3.240   3.034   5.449 -1.0968 -1.0388  0.4764
 2740SOL     OW19678   4.636   0.190   4.907 -0.0487  0.5837 -0.1720
 2740SOL    HW119679   4.607   0.257   4.846 -0.9697  1.0546  0.7875
 2740SOL    HW219680   4.706   0.150   4.855 -1.3026 -1.9626  0.1017
 2741SOL     OW19681   3.693   3.703   8.635 -0.2058  0.3085  0.2255
 2741SOL    HW119682   3.680   3.621   8.586 -0.1058  0.5780 -0.2500
 2741SOL    HW219683   3.781   3.735   8.612 -0.0479 -1.0106 -1.0198
 2742SOL     OW19684   4.034   0.025  12.687  0.4735  0.1701  0.4030
 2742SOL    HW119685   4.014   0.018  12.593 -1.5411 -1.7546  0.9858
 2742SOL    HW219686   3.941   0.026  12.710 -0.2874 -0.9790 -2.5977
 2743SOL     OW19687   3.396   2.083   0.556 -0.2208 -0.4228 -0.9525
 2743SOL    HW119688   3.458   2.134   0.504  0.5317 -0.7614 -0.3708
 2743SOL    HW219689   3.444   2.063   0.636  0.3344 -1.0107 -1.4352
 2744SOL     OW19690   1.916   2.145   4.394 -0.4916 -0.1552  0.0831
 2744SOL    HW119691   1.957   2.193   4.322  1.7220 -3.5692 -0.9149
 2744SOL    HW219692   1.830   2.187   4.389  0.3802  1.1941 -3.5683
 2745SOL     OW19693   2.278   4.249   3.802 -0.5102  0.0978  0.4797
 2745SOL    HW119694   2.189   4.213   3.807  0.8976 -3.5954 -0.8155
 2745SOL    HW219695   2.329   4.169   3.816 -0.0303  0.3154 -0.0751
 2746SOL     OW19696   2.718   4.219   3.006 -0.3807  0.3056 -0.2654
 2746SOL    HW119697   2.664   4.255   3.076 -0.1008 -0.5758  0.3987
 2746SOL    HW219698   2.656   4.196   2.937  0.8938 -0.7158 -1.0547
 2747SOL     OW19699   0.084   3.151  13.948 -0.4449 -0.1972 -0.1717
 2747SOL    HW119700   0.050   3.142  13.859  0.8298 -4.4088 -0.2388
 2747SOL    HW219701   0.050   3.074  13.994 -0.8797 -2.4549 -4.1984
 2748SOL     OW19702   3.380   3.034  16.128  0.0161  0.4517 -0.6478
 2748SOL    HW119703   3.450   3.024  16.063 -1.1996  0.5753 -1.9695
 2748SOL    HW219704   3.367   2.944  16.157 -2.0310  1.1878  0.7346
 2749SOL     OW19705   3.185   1.429   7.156  0.5610 -0.4921 -0.2092
 2749SOL    HW119706   3.125   1.473   7.216  1.0253 -0.7147  0.4194
 2749SOL    HW219707   3.260   1.486   7.174  1.2238 -0.9069 -1.6139
 2750SOL     OW19708   3.911   3.057   6.705 -0.4793  0.5574 -0.1018
 2750SOL    HW119709   3.820   3.029   6.704 -0.2019 -0.3605  0.2505
 2750SOL    HW219710   3.921   3.100   6.619  1.3218  0.6233  0.1328
 2751SOL     OW19711   0.608   2.653   8.234  0.3024 -0.1339  0.2522
 2751SOL    HW119712   0.693   2.696   8.243 -0.4053  0.8040  2.3591
 2751SOL    HW219713   0.633   2.568   8.197  0.6694  0.3088 -0.5235
 2752SOL     OW19714   0.536   2.500  11.319  0.5176  0.1699  0.1986
 2752SOL    HW119715   0.471   2.567  11.300 -0.1505 -0.1237  1.4565
 2752SOL    HW219716   0.495   2.414  11.304 -0.2178  0.4467  0.6020
 2753SOL     OW19717   0.835   0.060  15.450  0.1125 -0.4095 -0.1254
 2753SOL    HW119718   0.771   0.047  15.380  1.0335 -0.6072 -0.9431
 2753SOL    HW219719   0.907   0.001  15.427  0.4176 -0.8985  2.1059
 2754SOL     OW19720   0.431   0.895   2.787 -0.4583 -0.2741 -0.2197
 2754SOL    HW119721   0.376   0.938   2.722 -2.0504  2.8403  3.1549
 2754SOL    HW219722   0.421   0.800   2.779 -2.5538  0.1388 -2.4782
 2755SOL     OW19723   2.522   2.936   3.178 -0.3135 -0.5281  0.0332
 2755SOL    HW119724   2.598   2.912   3.230  0.5470 -0.8069 -1.3537
 2755SOL    HW219725   2.466   2.994   3.230  1.6246 -0.2595  1.8246
 2756SOL     OW19726   1.103   3.630  16.437 -0.0851  0.4630  0.2339
 2756SOL    HW119727   1.015   3.597  16.457 -0.5244  0.0387 -2.4793
 2756SOL    HW219728   1.085   3.724  16.441  1.1993  0.7328 -0.5029
 2757SOL     OW19729   1.949   4.216   4.007 -0.5660 -0.3330  0.5306
 2757SOL    HW119730   2.003   4.175   4.075  2.3154  1.1119 -0.8947
 2757SOL    HW219731   1.887   4.268   4.058 -0.4829  1.4637 -1.2505
 2758SOL     OW19732   2.100   1.127   4.070 -0.2993 -0.1033 -0.1799
 2758SOL    HW119733   2.147   1.200   4.110 -0.7933 -0.8835  1.8115
 2758SOL    HW219734   2.116   1.055   4.130 -0.5069  0.4385  0.5308
 2759SOL     OW19735   1.117   3.675   4.275  0.0998 -0.2092  0.7305
 2759SOL    HW119736   1.087   3.669   4.185  0.0557 -1.9689  0.8560
 2759SOL    HW219737   1.107   3.584   4.303  1.8039 -0.7300 -0.3559
 2760SOL     OW19738   3.652   1.926   8.339 -0.3025  0.8463  0.4543
 2760SOL    HW119739   3.633   1.841   8.300  3.0007  0.4192 -0.2854
 2760SOL    HW219740   3.744   1.936   8.312  0.3373 -0.6077  2.0815
 2761SOL     OW19741   2.968   0.841   3.411 -0.4326 -0.7396  0.6673
 2761SOL    HW119742   2.967   0.748   3.389  0.1068 -0.4811 -0.4480
 2761SOL    HW219743   2.963   0.889   3.328  1.4602  2.5584  2.4336
 2762SOL     OW19744   2.957   0.700   7.587 -0.1492 -0.7534  0.0654
 2762SOL    HW119745   2.965   0.775   7.528  1.0173 -1.7158 -1.0055
 2762SOL    HW219746   2.881   0.651   7.556 -0.9243  0.5223 -0.0599
 2763SOL     OW19747   4.643   0.432   9.917  0.4916 -0.1092  0.4412
 2763SOL    HW119748   4.624   0.366   9.851  1.9513 -0.0495 -0.0375
 2763SOL    HW219749   0.009   0.460   9.888  0.2706 -0.3461 -0.4459
 2764SOL     OW19750   3.356   1.397   3.506 -0.8549  0.1228 -0.4714
 2764SOL    HW119751   3.392   1.479   3.472 -0.2926 -1.0577 -2.7295
 2764SOL    HW219752   3.325   1.349   3.429 -1.0301 -2.5102  1.2238
 2765SOL     OW19753   2.294   3.928  12.888  0.2456 -0.0191  0.2245
 2765SOL    HW119754   2.219   3.905  12.943  0.0407 -0.5415 -0.2757
 2765SOL    HW219755   2.306   4.022  12.903 -1.5687  0.4161 -1.0464
 2766SOL     OW19756   1.211   4.156   5.160  0.0042 -0.3376  0.3560
 2766SOL    HW119757   1.167   4.207   5.092 -0.2607  1.2906  1.7487
 2766SOL    HW219758   1.240   4.077   5.116  0.8277  0.6234 -0.8250
 2767SOL     OW19759   1.126   0.404  12.852 -0.2514  0.3811 -0.3883
 2767SOL    HW119760   1.220   0.406  12.833 -0.2149  4.5802  0.0852
 2767SOL    HW219761   1.093   0.328  12.806 -1.3163  1.1378 -0.8592
 2768SOL     OW19762   1.264   3.158   8.335  0.2821  0.3942  0.2627
 2768SOL    HW119763   1.316   3.170   8.414  0.2425 -0.6180  0.4339
 2768SOL    HW219764   1.236   3.250   8.335 -0.4051  0.1833  0.4159
 2769SOL     OW19765   2.983   0.535  11.276 -0.7564 -0.1117  0.0633
 2769SOL    HW119766   3.053   0.497  11.223 -0.0763 -2.1480  2.3670
 2769SOL    HW219767   2.996   0.629  11.270  0.8201 -0.3816 -0.7955
 2770SOL     OW19768   4.109   3.184  14.381 -0.0661  0.2046  0.3158
 2770SOL    HW119769   4.038   3.230  14.425  0.8186  1.3566  0.5294
 2770SOL    HW219770   4.178   3.197  14.446 -2.2166 -1.1927  2.8648
 2771SOL     OW19771   2.625   3.377   9.851  0.4126 -0.0577  0.0621
 2771SOL    HW119772   2.599   3.293   9.889  0.6996 -0.1587  0.0304
 2771SOL    HW219773   2.572   3.385   9.771  0.4159  1.9826  0.2624
 2772SOL     OW19774   4.700   2.336   6.804  0.1329  0.4248 -0.0679
 2772SOL    HW119775   4.605   2.340   6.814  0.2015  0.4347  0.6069
 2772SOL    HW219776   0.011   2.292   6.883 -2.9133 -2.5023 -0.4604
 2773SOL     OW19777   1.329   4.489   7.438 -0.2479 -0.0812  0.2454
 2773SOL    HW119778   1.385   4.457   7.508 -1.1673  1.4176  1.6569
 2773SOL    HW219779   1.279   4.410   7.417 -1.1895  1.1171 -2.0733
 2774SOL     OW19780   2.022   3.326  11.849  0.2031  0.2552  0.0110
 2774SOL    HW119781   2.088   3.265  11.814  0.3462  0.7925 -0.6496
 2774SOL    HW219782   1.944   3.288  11.809  0.6821  0.6618 -1.3090
 2775SOL     OW19783   0.977   2.654   2.333  0.1203  0.2191  0.0765
 2775SOL    HW119784   0.929   2.618   2.408  1.5036 -0.4723  0.6456
 2775SOL    HW219785   0.965   2.578   2.275 -1.8595 -0.1802  1.0126
 2776SOL     OW19786   1.481   3.471   5.605 -0.6368  0.1545  0.0291
 2776SOL    HW119787   1.453   3.473   5.697 -1.5393 -2.1721 -0.1925
 2776SOL    HW219788   1.408   3.425   5.563 -1.6450  1.6220  0.1803
 2777SOL     OW19789   1.615   0.053   7.480 -0.0481 -0.3115 -1.0252
 2777SOL    HW119790   1.621   0.047   7.575  4.2554 -3.5911 -1.5324
 2777SOL    HW219791   1.694   0.003   7.461  0.8693  0.8389 -0.2381
 2778SOL     OW19792   3.903   2.513   2.254  0.0537  0.0981  0.2988
 2778SOL    HW119793   3.808   2.498   2.255  0.1153 -0.3998 -0.5398
 2778SOL    HW219794   3.911   2.563   2.172 -2.4647  0.8503  0.5220
 2779SOL     OW19795   0.788   1.045   5.933 -0.2596  0.2868  0.0968
 2779SOL    HW119796   0.873   1.013   5.965  0.6959  3.2149  0.5146
 2779SOL    HW219797   0.735   1.047   6.013 -0.3912 -0.9023  0.0391
 2780SOL     OW19798   4.023   3.920   6.824 -0.3623 -0.0232  0.5635
 2780SOL    HW119799   3.937   3.945   6.858  0.8672  0.5384  3.2683
 2780SOL    HW219800   4.076   3.929   6.904 -0.0383 -0.5871  0.4157
 2781SOL     OW19801   1.960   2.616   9.948  0.0843 -0.1683  0.5253
 2781SOL    HW119802   1.986   2.708   9.951 -0.9417  0.1765 -0.7112
 2781SOL    HW219803   1.891   2.615   9.882 -2.1133 -0.6625  2.8325
 2782SOL     OW19804   4.015   0.916   3.829  0.0347  0.0302  0.6370
 2782SOL    HW119805   3.955   0.948   3.762  0.1637 -0.1175  0.4499
 2782SOL    HW219806   4.043   0.995   3.874 -2.8261  1.3346  0.1139
 2783SOL     OW19807   0.165   3.396   0.738  0.9174  0.2364  0.0105
 2783SOL    HW119808   0.156   3.491   0.735 -0.3662  0.1746  2.3982
 2783SOL    HW219809   0.076   3.362   0.747  0.3453  1.9260  0.6293
 2784SOL     OW19810   3.622   1.249   7.129  0.3667  0.1143 -0.2010
 2784SOL    HW119811   3.615   1.270   7.036 -2.4410  1.7979  0.3950
 2784SOL    HW219812   3.668   1.328   7.158 -0.0116  0.3952 -0.3714
 2785SOL     OW19813   2.267   0.385   4.218  0.0070 -0.0890 -0.3333
 2785SOL    HW119814   2.332   0.430   4.272  0.3632 -0.7683 -0.2068
 2785SOL    HW219815   2.258   0.448   4.146 -1.8663  1.0660  0.9033
 2786SOL     OW19816   4.300   4.503   3.932  0.5633  0.1781  0.2565
 2786SOL    HW119817   4.232   4.446   3.895  0.4948  0.2799  0.2228
 2786SOL    HW219818   4.370   4.490   3.868 -0.5060  0.6891 -1.0383
 2787SOL     OW19819   4.135   2.357  17.223  0.0533 -0.3538 -0.2158
 2787SOL    HW119820   4.155   2.267  17.247  3.7327  0.6133  0.2499
 2787SOL    HW219821   4.066   2.384  17.284  0.1770  1.1374 -0.7295
 2788SOL     OW19822   3.385   1.335   3.219 -0.0824 -0.3618  0.5133
 2788SOL    HW119823   3.314   1.318   3.157  1.0954 -1.2642 -0.5904
 2788SOL    HW219824   3.459   1.289   3.180  0.0840 -0.6278  1.1439
 2789SOL     OW19825   3.186   2.273  14.683  0.0730 -0.0221 -0.2694
 2789SOL    HW119826   3.169   2.179  14.678 -0.3540  0.0347  0.0135
 2789SOL    HW219827   3.109   2.300  14.735 -0.4763  1.6057 -1.9277
 2790SOL     OW19828   0.318   3.556   5.594 -0.1044  0.4034 -0.0711
 2790SOL    HW119829   0.227   3.556   5.565 -0.6237 -1.2430  1.5418
 2790SOL    HW219830   0.332   3.474   5.642  0.1044 -1.0254 -2.5751
 2791SOL     OW19831   2.147   1.920   2.482 -0.3372  0.0053  0.0430
 2791SOL    HW119832   2.136   2.003   2.435 -1.5230  0.2276  0.6823
 2791SOL    HW219833   2.241   1.904   2.473 -0.7125 -2.0973 -0.1940
 2792SOL     OW19834   0.053   3.804  13.491  0.5260 -0.3645 -0.0561
 2792SOL    HW119835   4.706   3.847  13.438  0.7968  2.1883  1.6741
 2792SOL    HW219836   0.062   3.856  13.571 -3.6630  1.1692 -0.5399
 2793SOL     OW19837   1.588   0.057   9.651 -0.4652  0.4485 -0.4658
 2793SOL    HW119838   1.534   4.699   9.642  0.2574 -0.2135  1.0193
 2793SOL    HW219839   1.536   0.123   9.696 -2.4643 -1.9007  0.6937
 2794SOL     OW19840   3.336   2.015   8.285  0.4080  0.0481  0.8700
 2794SOL    HW119841   3.352   1.950   8.217  1.7722  2.4434 -1.0937
 2794SOL    HW219842   3.347   2.094   8.232 -1.9830  0.2564  0.6843
 2795SOL     OW19843   4.393   3.229   6.954 -0.7687  0.0292 -0.3434
 2795SOL    HW119844   4.355   3.293   6.894  1.1926  0.3512 -1.2192
 2795SOL    HW219845   4.472   3.273   6.984 -0.8822 -0.1732  0.2534
 2796SOL     OW19846   2.680   3.220   8.399  0.2596  0.2333  0.2495
 2796SOL    HW119847   2.727   3.221   8.483 -0.1441  0.9829  0.4695
 2796SOL    HW219848   2.608   3.279   8.420  0.3939  0.7961 -0.9096
 2797SOL     OW19849   3.624   0.029   1.671  0.0301 -0.4553 -0.2083
 2797SOL    HW119850   3.532   0.017   1.694  0.5897  0.1632  2.3729
 2797SOL    HW219851   3.627   0.110   1.620  2.3111  0.2205  0.9659
 2798SOL     OW19852   0.603   0.814  16.927  0.8122 -0.9116  0.8845
 2798SOL    HW119853   0.676   0.849  16.979 -1.0088  2.5379  1.1001
 2798SOL    HW219854   0.645   0.823  16.841 -0.1319 -0.3358  0.4932
 2799SOL     OW19855   1.185   1.882   8.279 -0.3350 -0.0108  0.4888
 2799SOL    HW119856   1.148   1.969   8.291  0.5081  0.5701 -1.1077
 2799SOL    HW219857   1.132   1.834   8.343 -3.0397 -0.3095 -1.9945
 2800SOL     OW19858   3.733   2.461   4.463  0.0794 -0.5535 -0.2241
 2800SOL    HW119859   3.802   2.506   4.511  0.4155 -0.1776 -1.0686
 2800SOL    HW219860   3.765   2.473   4.374  2.9122 -0.9991  0.7465
 2801SOL     OW19861   3.864   2.817   4.430 -1.0127 -0.4247  0.8612
 2801SOL    HW119862   3.877   2.724   4.412 -0.1750 -0.5728  2.1794
 2801SOL    HW219863   3.950   2.839   4.394 -0.0310 -0.4619  3.1788
 2802SOL     OW19864   0.814   0.608  12.012 -0.0044 -0.4386  0.0793
 2802SOL    HW119865   0.875   0.577  11.946 -0.5522  2.6628 -1.9033
 2802SOL    HW219866   0.866   0.669  12.064 -0.8541 -0.3392  0.8222
 2803SOL     OW19867   3.526   0.860   2.560  0.7434 -0.2630 -0.1253
 2803SOL    HW119868   3.470   0.809   2.618  1.0035 -1.4401 -0.9285
 2803SOL    HW219869   3.485   0.860   2.474  0.9582  0.8308 -0.2340
 2804SOL     OW19870   4.150   4.425   4.230 -0.5291 -0.2315 -0.2709
 2804SOL    HW119871   4.140   4.336   4.262 -1.3675 -0.8189 -2.1301
 2804SOL    HW219872   4.242   4.422   4.205 -0.1484  0.2080  1.0856
 2805SOL     OW19873   4.181   0.442   4.032 -0.1383  0.2782  0.2747
 2805SOL    HW119874   4.111   0.381   4.008 -1.3280  1.4226  0.8329
 2805SOL    HW219875   4.133   0.522   4.012 -0.7952 -0.0186  0.6601
 2806SOL     OW19876   3.613   4.570   2.472  0.0783 -0.0760  0.0756
 2806SOL    HW119877   3.651   4.649   2.434  0.4126 -0.6016 -0.6814
 2806SOL    HW219878   3.642   4.509   2.404 -0.0560 -0.3725  0.2857
 2807SOL     OW19879   0.498   1.506   9.833 -0.3809  0.3699 -0.3761
 2807SOL    HW119880   0.540   1.480   9.915 -1.2356 -0.8834 -0.3379
 2807SOL    HW219881   0.521   1.599   9.837 -3.5525  1.1049  0.6908
 2808SOL     OW19882   1.989   0.977   3.094 -0.0158  0.3408  0.0413
 2808SOL    HW119883   1.954   0.907   3.150  1.7192  0.3283  1.0960
 2808SOL    HW219884   2.010   0.919   3.021 -1.2498  1.6188 -1.3305
 2809SOL     OW19885   4.667   1.755   6.897 -0.6627 -0.0523 -0.3834
 2809SOL    HW119886   4.652   1.794   6.984 -2.2475 -1.9035  0.1833
 2809SOL    HW219887   4.721   1.679   6.917  2.3745  1.8338 -1.4556
 2810SOL     OW19888   2.323   2.747  17.642 -0.1045 -0.1869 -0.4574
 2810SOL    HW119889   2.307   2.710   0.042 -2.1822 -1.0326 -1.2016
 2810SOL    HW219890   2.368   2.827  17.667 -0.6627  0.6093 -2.0198
 2811SOL     OW19891   0.165   2.692  15.281 -0.2832 -0.3121  0.0476
 2811SOL    HW119892   0.140   2.781  15.305  1.2880 -0.0795  0.8353
 2811SOL    HW219893   0.260   2.701  15.288 -0.5481  2.7892 -0.6655
 2812SOL     OW19894   1.549   1.011   6.141 -0.2689 -0.2660 -0.6559
 2812SOL    HW119895   1.578   1.101   6.130 -1.6334  0.3563  0.9049
 2812SOL    HW219896   1.621   0.956   6.111 -1.4329 -0.2778 -3.4344
 2813SOL     OW19897   3.045   2.907   2.406 -0.2702  0.0572  0.1046
 2813SOL    HW119898   3.056   2.906   2.311  0.1076 -1.5833  0.1667
 2813SOL    HW219899   3.133   2.885   2.436 -0.4199  0.5261  0.9009
 2814SOL     OW19900   0.737   0.266   6.336  0.4841  0.4712  0.3795
 2814SOL    HW119901   0.788   0.213   6.275  0.0537  0.3030  0.1662
 2814SOL    HW219902   0.770   0.229   6.418  2.7081  1.1026 -0.2405
 2815SOL     OW19903   2.093   4.546   2.803  0.2662 -0.3212 -0.2263
 2815SOL    HW119904   2.004   4.525   2.775 -0.1272  0.1234  0.7080
 2815SOL    HW219905   2.127   4.460   2.829 -1.6596 -1.0537 -0.1404
 2816SOL     OW19906   1.725   2.114   1.658 -0.4810 -0.2004  0.1860
 2816SOL    HW119907   1.762   2.186   1.607  0.9575 -0.3356  1.0308
 2816SOL    HW219908   1.654   2.077   1.605  0.9326 -2.6045 -0.0470
 2817SOL     OW19909   1.150   1.488   8.263  0.6882 -0.5214  0.4532
 2817SOL    HW119910   1.171   1.552   8.194 -0.6919 -0.7264 -0.1603
 2817SOL    HW219911   1.064   1.457   8.234  0.0053 -0.4910  2.5013
 2818SOL     OW19912   0.637   0.041   3.046 -0.0445 -0.3064  0.3545
 2818SOL    HW119913   0.551   0.021   3.083  0.3082  0.1033  1.4042
 2818SOL    HW219914   0.671   0.068   3.132 -0.1247 -0.2209  0.3585
 2819SOL     OW19915   3.035   4.598  10.460 -0.0785 -0.7605 -0.3025
 2819SOL    HW119916   3.104   4.663  10.453  1.2446 -2.0621  0.6995
 2819SOL    HW219917   2.967   4.663  10.442  0.4167 -0.0682  0.3590
 2820SOL     OW19918   1.922   0.583  12.473  0.3480  0.0353  0.2389
 2820SOL    HW119919   1.841   0.632  12.477 -0.2656 -0.9315 -0.4040
 2820SOL    HW219920   1.946   0.590  12.566  2.7244 -0.3345 -0.3372
 2821SOL     OW19921   1.553   2.024   1.462  0.0483  0.2051  0.3957
 2821SOL    HW119922   1.551   2.028   1.366  1.2281 -1.5689  0.2866
 2821SOL    HW219923   1.502   1.943   1.471  0.0724  0.0823 -0.5026
 2822SOL     OW19924   4.451   4.501   3.086  0.2871  0.2458 -0.3272
 2822SOL    HW119925   4.514   4.532   3.022 -1.1954 -1.6055 -2.6869
 2822SOL    HW219926   4.384   4.457   3.033  0.2446  0.5504 -0.5244
 2823SOL     OW19927   2.155   0.624   7.040 -0.0808 -0.4834 -0.2793
 2823SOL    HW119928   2.187   0.534   7.031  2.7032  0.2802  1.8458
 2823SOL    HW219929   2.113   0.631   6.954 -1.9632  0.5021  0.7431
 2824SOL     OW19930   2.938   1.146   5.005 -0.1804  0.5920 -0.3576
 2824SOL    HW119931   2.895   1.231   4.995 -1.5758  0.3424  3.7234
 2824SOL    HW219932   2.991   1.153   4.925  2.6188 -0.0977  1.4527
 2825SOL     OW19933   4.149   1.480   7.101  0.3340  0.7598 -0.4171
 2825SOL    HW119934   4.139   1.478   7.197 -0.7160  0.8986 -0.5229
 2825SOL    HW219935   4.200   1.560   7.096  0.3252  0.7441 -0.7361
 2826SOL     OW19936   4.076   3.002  17.509 -0.0550 -0.5263 -0.0526
 2826SOL    HW119937   4.010   3.032  17.446 -0.1329 -3.0508 -1.1712
 2826SOL    HW219938   4.156   2.988  17.458  0.9291 -0.0023  1.3577
 2827SOL     OW19939   0.237   1.506  13.096  0.6131 -0.4881 -0.1085
 2827SOL    HW119940   0.269   1.575  13.155  0.4459 -0.3736 -0.1499
 2827SOL    HW219941   0.317   1.454  13.087  0.8305  0.2675 -2.6249
 2828SOL     OW19942   2.608   2.994   9.100 -0.3465 -0.3571  0.5576
 2828SOL    HW119943   2.570   2.961   9.019 -1.5519  1.7789  0.2406
 2828SOL    HW219944   2.532   3.040   9.135 -1.5559 -2.0777  0.1795
 2829SOL     OW19945   0.867   1.095  12.969  0.8417 -0.2811 -0.8571
 2829SOL    HW119946   0.929   1.161  12.936  1.5961  0.2925  1.7543
 2829SOL    HW219947   0.928   1.026  12.997 -1.3797 -2.0183 -0.3432
 2830SOL     OW19948   2.282   0.149   9.680 -0.0901 -0.1136 -0.4518
 2830SOL    HW119949   2.289   0.055   9.664 -1.0776 -0.4023  0.8233
 2830SOL    HW219950   2.286   0.178   9.589 -2.2090  0.9406 -0.2077
 2831SOL     OW19951   0.731   1.211   4.376 -0.1054 -0.1062  0.2497
 2831SOL    HW119952   0.704   1.303   4.377 -0.2065 -0.1661  2.5794
 2831SOL    HW219953   0.786   1.200   4.298  0.3149  0.2935  0.4865
 2832SOL     OW19954   2.962   1.928   2.279  0.3286 -0.7242  0.1486
 2832SOL    HW119955   2.927   1.932   2.190  1.0840  0.0194 -0.1102
 2832SOL    HW219956   3.018   1.850   2.280  1.8428  0.3740  3.6278
 2833SOL     OW19957   2.538   0.218  12.940  0.1202  0.6075 -0.3064
 2833SOL    HW119958   2.521   0.248  12.851  0.3096  0.4948 -0.3800
 2833SOL    HW219959   2.545   0.122  12.935 -1.1102  0.4362  1.0904
 2834SOL     OW19960   3.322   4.223  13.078 -0.2424  0.0292  0.0963
 2834SOL    HW119961   3.322   4.145  13.022 -1.5599  0.7472 -0.8830
 2834SOL    HW219962   3.388   4.190  13.139  2.0966  2.1162 -1.3229
 2835SOL     OW19963   2.413   3.663   2.340 -0.1571 -0.7392 -0.0532
 2835SOL    HW119964   2.340   3.713   2.305  1.2352 -2.1092 -4.8927
 2835SOL    HW219965   2.472   3.737   2.358 -2.1761  1.0258 -0.6775
 2836SOL     OW19966   1.600   2.182   2.707 -0.3085  0.4676  0.3455
 2836SOL    HW119967   1.650   2.233   2.770 -1.0792  1.7717 -0.1110
 2836SOL    HW219968   1.518   2.229   2.717  0.7424  2.0553  1.3904
 2837SOL     OW19969   0.031   0.865  13.444  0.4170  0.4381  0.1794
 2837SOL    HW119970   0.124   0.842  13.445  0.1389 -0.6272  1.2379
 2837SOL    HW219971   0.012   0.868  13.351  3.1878  1.4696 -0.3506
 2838SOL     OW19972   0.831   1.019  11.277 -1.2123  0.4297  0.3988
 2838SOL    HW119973   0.913   1.026  11.325 -0.5758 -0.4362 -0.5655
 2838SOL    HW219974   0.779   1.088  11.318 -2.2103  0.8129 -1.5268
 2839SOL     OW19975   3.334   0.975   4.234 -0.2949 -0.1371 -0.5854
 2839SOL    HW119976   3.294   1.061   4.224 -1.5452 -0.9146 -2.3523
 2839SOL    HW219977   3.261   0.921   4.203 -0.1824 -0.2786 -0.6032
 2840SOL     OW19978   1.938   2.851   7.239 -0.4321  0.0046  0.2770
 2840SOL    HW119979   1.867   2.910   7.265 -0.4858  0.5013 -0.9932
 2840SOL    HW219980   1.922   2.834   7.146  1.5354 -3.1043  0.5227
 2841SOL     OW19981   1.074   1.531   7.245  0.3569 -0.1189  0.0220
 2841SOL    HW119982   1.165   1.563   7.249  0.5182 -0.7185  1.2266
 2841SOL    HW219983   1.032   1.586   7.311 -0.0568  0.3561 -0.6449
 2842SOL     OW19984   2.019   4.517   8.981 -0.3261  0.2807  0.4111
 2842SOL    HW119985   2.108   4.528   9.017 -1.0167  3.0160  1.2757
 2842SOL    HW219986   1.977   4.488   9.062  0.6183  0.6872  1.0492
 2843SOL     OW19987   4.449   0.694   3.682  0.1442  0.7925 -0.2649
 2843SOL    HW119988   4.471   0.777   3.722  0.9786  0.4166  0.0431
 2843SOL    HW219989   4.440   0.641   3.761  0.4014 -1.1341 -1.5265
 2844SOL     OW19990   2.088   0.476   2.410 -0.3723 -0.6398 -0.3131
 2844SOL    HW119991   2.111   0.395   2.456 -1.7579 -0.9917 -0.2467
 2844SOL    HW219992   2.159   0.530   2.447 -2.4093  2.0356 -0.3069
 2845SOL     OW19993   0.391   0.339   9.919 -0.2306 -0.0413  0.4584
 2845SOL    HW119994   0.464   0.285   9.889 -1.4422 -1.7569  0.6484
 2845SOL    HW219995   0.431   0.425   9.902 -2.3932  1.3564  2.5636
 2846SOL     OW19996   3.539   1.627   4.608  0.4610  0.3419 -0.3951
 2846SOL    HW119997   3.554   1.616   4.514 -0.7276  1.5741 -0.7332
 2846SOL    HW219998   3.455   1.673   4.607  0.5745  0.4794 -3.1964
 2847SOL     OW19999   2.933   1.145   3.728 -0.4747 -0.2871  0.1221
 2847SOL    HW120000   2.991   1.077   3.695 -0.3299 -0.3047  0.4173
 2847SOL    HW220001   2.865   1.130   3.662  1.4416  1.9300 -2.3596
 2848SOL     OW20002   4.487   3.598  12.336 -0.0419 -0.0941  0.0659
 2848SOL    HW120003   4.469   3.528  12.398  1.7742  0.3687  1.1007
 2848SOL    HW220004   4.404   3.643  12.316  0.7003  1.3900  0.3188
 2849SOL     OW20005   0.312   0.182   2.946  0.4084 -0.0744  0.1631
 2849SOL    HW120006   0.370   0.134   3.005 -0.9436 -0.8846  0.8456
 2849SOL    HW220007   0.296   0.106   2.889 -2.4961 -1.0419  2.2466
 2850SOL     OW20008   4.486   1.599   5.999 -0.2273 -0.4433 -0.1464
 2850SOL    HW120009   4.474   1.616   6.092  1.4342 -0.4422  0.0705
 2850SOL    HW220010   4.393   1.597   5.977 -0.4170 -1.6971  0.7382
 2851SOL     OW20011   4.454   3.604   4.871  0.1215 -0.0889  0.1495
 2851SOL    HW120012   4.451   3.554   4.952 -1.9705 -1.5750 -0.8367
 2851SOL    HW220013   4.443   3.534   4.807 -0.2670  1.0174 -1.0105
 2852SOL     OW20014   2.983   3.164  15.337  0.2082  0.5360  0.4303
 2852SOL    HW120015   2.991   3.115  15.419 -2.5231 -1.0337 -0.2578
 2852SOL    HW220016   2.931   3.240  15.364 -1.6141 -0.0523 -1.4030
 2853SOL     OW20017   0.823   0.442  13.926  0.4894  0.6543  0.3846
 2853SOL    HW120018   0.846   0.535  13.916 -0.9305  1.0404  0.7531
 2853SOL    HW220019   0.795   0.421  13.838  0.8294 -0.2960  0.5057
 2854SOL     OW20020   2.118   3.447   0.966  0.1044 -0.4139  0.2974
 2854SOL    HW120021   2.134   3.382   1.035  0.8117  2.0538  2.4654
 2854SOL    HW220022   2.039   3.405   0.934 -0.6606 -0.0844  1.7464
 2855SOL     OW20023   0.234   0.391  10.720  0.4677 -0.2302  0.4857
 2855SOL    HW120024   0.307   0.368  10.662  1.3901 -0.9231  1.8981
 2855SOL    HW220025   0.284   0.376  10.801  1.3131  2.0753  0.4138
 2856SOL     OW20026   2.206   1.898   0.839  0.1773  0.2621 -0.2846
 2856SOL    HW120027   2.188   1.810   0.871  1.7246 -0.1652 -0.5916
 2856SOL    HW220028   2.153   1.954   0.896  0.9351 -0.4314  1.1149
 2857SOL     OW20029   1.074   4.500   6.394  0.4511 -0.0527 -0.2653
 2857SOL    HW120030   1.144   4.476   6.333  0.6416  1.2328 -0.5559
 2857SOL    HW220031   1.004   4.537   6.340 -0.3247  0.3321  1.0035
 2858SOL     OW20032   0.239   0.281   1.414 -0.1856 -0.2234 -0.1422
 2858SOL    HW120033   0.219   0.248   1.501 -0.4201 -0.2829 -0.2199
 2858SOL    HW220034   0.307   0.221   1.382 -2.6178 -1.9573 -2.0997
 2859SOL     OW20035   1.331   4.277  16.690  0.2355  0.0310 -0.4136
 2859SOL    HW120036   1.255   4.253  16.743  2.2335  0.1673  2.5206
 2859SOL    HW220037   1.404   4.240  16.739  0.9105  0.3957 -1.1233
 2860SOL     OW20038   2.148   3.714   8.481 -0.2216  0.8506  0.1329
 2860SOL    HW120039   2.234   3.745   8.451  0.4656  0.0347  1.2677
 2860SOL    HW220040   2.166   3.696   8.573  2.8105  3.8264  0.1393
 2861SOL     OW20041   3.013   4.163   4.394 -0.3677 -0.3282  0.4215
 2861SOL    HW120042   3.048   4.187   4.308 -1.2015  0.8438  0.4117
 2861SOL    HW220043   3.097   4.152   4.438 -0.4054  1.9145  1.0469
 2862SOL     OW20044   4.164   2.178   8.836  0.1079  0.0957  0.7320
 2862SOL    HW120045   4.200   2.258   8.795  0.1665 -0.1103  0.3778
 2862SOL    HW220046   4.242   2.157   8.887  0.3427 -0.8475 -0.0110
 2863SOL     OW20047   3.770   2.348   3.610  0.1720  0.2153  0.4945
 2863SOL    HW120048   3.849   2.367   3.661  0.9787  1.4541 -1.2179
 2863SOL    HW220049   3.700   2.371   3.671 -0.2087 -0.5213  0.3435
 2864SOL     OW20050   0.923   2.548  13.654 -0.8860  0.3874  0.0292
 2864SOL    HW120051   0.920   2.595  13.570 -0.9955  2.1957  1.0589
 2864SOL    HW220052   0.877   2.615  13.705 -1.7583 -0.1780 -0.0175
 2865SOL     OW20053   3.075   2.602  10.651 -0.1915 -0.0227 -0.1824
 2865SOL    HW120054   3.149   2.574  10.706  0.5195  0.6545 -0.8016
 2865SOL    HW220055   3.029   2.653  10.717  1.2314  2.0149 -0.7690
 2866SOL     OW20056   0.091   3.692  10.376  0.0164 -0.0779  0.4654
 2866SOL    HW120057   0.066   3.621  10.317 -0.4148 -1.6966  2.5890
 2866SOL    HW220058   0.168   3.730  10.333 -0.9226  0.2369 -0.9006
 2867SOL     OW20059   1.227   3.043   7.627 -0.1159 -0.5173 -1.0412
 2867SOL    HW120060   1.213   3.122   7.680  1.7221  0.0293 -1.3637
 2867SOL    HW220061   1.137   3.023   7.604  0.4142 -3.1445 -0.7898
 2868SOL     OW20062   0.108   1.933  16.252  0.0057 -0.4824  0.0364
 2868SOL    HW120063   0.137   1.865  16.312 -1.4622 -0.7076  0.5070
 2868SOL    HW220064   0.125   1.880  16.175  0.0394  1.9254 -1.6192
 2869SOL     OW20065   3.429   4.309   6.799  0.0950 -0.4676  0.5075
 2869SOL    HW120066   3.348   4.274   6.763 -1.2375  1.8686  1.2147
 2869SOL    HW220067   3.405   4.357   6.878 -2.1671 -1.2730  0.3189
 2870SOL     OW20068   0.197   1.653   1.378 -0.5412 -0.4835  0.1350
 2870SOL    HW120069   0.157   1.570   1.404 -0.1277 -1.7386 -3.1243
 2870SOL    HW220070   0.143   1.673   1.301  1.0157 -0.6858 -1.0228
 2871SOL     OW20071   0.545   2.513   6.077 -0.6347 -0.6615  0.1099
 2871SOL    HW120072   0.533   2.498   5.983 -3.1157 -0.5078  0.3882
 2871SOL    HW220073   0.536   2.424   6.111 -2.2255 -0.8220 -0.7008
 2872SOL     OW20074   0.765   3.868   1.615 -1.0654  0.1318 -0.1108
 2872SOL    HW120075   0.842   3.819   1.587 -1.6947  0.0351 -1.6707
 2872SOL    HW220076   0.776   3.857   1.709 -1.4602  4.8863  0.4882
 2873SOL     OW20077   1.799   1.882   0.800  0.1827  0.1525 -0.4970
 2873SOL    HW120078   1.856   1.942   0.848 -1.8815  1.6724 -0.0061
 2873SOL    HW220079   1.719   1.913   0.842  0.4567  1.6105 -1.0596
 2874SOL     OW20080   2.688   1.125   5.867 -0.1205  0.0690 -0.3153
 2874SOL    HW120081   2.712   1.206   5.821  0.5338  1.1472  1.9585
 2874SOL    HW220082   2.727   1.062   5.807 -1.7149 -0.8399 -0.3914
 2875SOL     OW20083   4.054   1.527   1.779  0.3280  0.1352 -0.5251
 2875SOL    HW120084   4.091   1.447   1.741 -1.2000 -0.9510  0.2513
 2875SOL    HW220085   4.052   1.588   1.706  1.5520 -0.4014 -1.0028
 2876SOL     OW20086   3.467   0.645   4.774  0.1054  0.1835 -0.4143
 2876SOL    HW120087   3.485   0.553   4.754  0.6352 -0.1635  1.6427
 2876SOL    HW220088   3.408   0.669   4.702 -0.4660  1.9033  0.6319
 2877SOL     OW20089   1.972   3.101   7.510 -0.4697 -0.2622  0.2086
 2877SOL    HW120090   1.932   3.032   7.563  0.1153  0.6020  1.7976
 2877SOL    HW220091   1.900   3.136   7.458 -1.1819 -0.6909  0.9179
 2878SOL     OW20092   4.524   4.721   8.484  0.0900  0.1442  0.5742
 2878SOL    HW120093   4.541   0.092   8.463  1.3281 -0.4323 -1.0091
 2878SOL    HW220094   4.429   4.714   8.473  0.0903 -2.9235  2.7332
 2879SOL     OW20095   4.441   0.353  16.493  0.2262  0.1948  0.6415
 2879SOL    HW120096   4.361   0.398  16.466 -1.3170 -2.4063  0.8679
 2879SOL    HW220097   4.507   0.393  16.436  1.3987 -1.3310  0.9234
 2880SOL     OW20098   2.367   1.638  14.580 -0.5512  0.1280  0.7873
 2880SOL    HW120099   2.309   1.566  14.603 -2.6239  1.3586 -0.6157
 2880SOL    HW220100   2.351   1.697  14.653  0.8390  0.2899  0.9676
 2881SOL     OW20101   3.689   0.475   8.333  0.2257 -0.0907 -0.8884
 2881SOL    HW120102   3.664   0.543   8.395  1.3513 -0.5995  0.1028
 2881SOL    HW220103   3.660   0.392   8.372  0.6608 -0.3549 -1.1316
 2882SOL     OW20104   3.372   1.563  10.440  0.0549 -0.3196  0.2895
 2882SOL    HW120105   3.362   1.594  10.530  3.2736 -0.0360  0.5583
 2882SOL    HW220106   3.283   1.536  10.416 -0.9672  3.2773 -0.0627
 2883SOL     OW20107   1.023   3.121   1.944 -0.0429  0.1133 -0.2513
 2883SOL    HW120108   0.952   3.181   1.968  0.0347  0.1575 -0.1307
 2883SOL    HW220109   1.063   3.132   2.031  0.1463 -1.4445 -0.1391
 2884SOL     OW20110   2.223   2.152   5.595  0.8101 -1.1106 -0.1130
 2884SOL    HW120111   2.183   2.066   5.610 -0.4593 -0.2035  1.6443
 2884SOL    HW220112   2.307   2.117   5.565 -0.7891 -3.2004 -2.1693
 2885SOL     OW20113   3.477   3.856   2.909 -0.4412  0.7368 -0.2106
 2885SOL    HW120114   3.402   3.798   2.926  1.8364 -1.7539  1.3691
 2885SOL    HW220115   3.518   3.845   2.995  1.4675 -1.5270 -1.4009
 2886SOL     OW20116   0.648   1.183  12.865  0.0799  0.4141  0.4392
 2886SOL    HW120117   0.730   1.163  12.911  0.4989  1.3484  0.1000
 2886SOL    HW220118   0.577   1.151  12.919  1.2490 -1.3148  0.9476
 2887SOL     OW20119   1.337   2.602  12.103  0.0931 -0.0429  0.5314
 2887SOL    HW120120   1.366   2.569  12.018  1.0517  0.1740  0.7821
 2887SOL    HW220121   1.415   2.615  12.156 -0.0887  0.6256  0.6334
 2888SOL     OW20122   4.096   0.704   2.649  0.0052  0.7517 -0.4581
 2888SOL    HW120123   4.127   0.617   2.625  0.7986  0.2444  2.3301
 2888SOL    HW220124   4.174   0.724   2.701 -0.7275 -1.9693  1.6752
 2889SOL     OW20125   3.536   1.708   5.020  0.1807 -0.1456  0.2620
 2889SOL    HW120126   3.597   1.666   4.960 -0.5185 -0.8883  0.0737
 2889SOL    HW220127   3.560   1.646   5.089 -2.6046 -1.2685  0.2443
 2890SOL     OW20128   3.846   1.255   2.188  0.3020 -0.0562  0.1803
 2890SOL    HW120129   3.864   1.215   2.273 -0.0280  0.2742  0.4024
 2890SOL    HW220130   3.917   1.320   2.185  1.2956 -1.2241 -1.7057
 2891SOL     OW20131   2.695   1.103   2.829  0.3892  0.5437 -0.0099
 2891SOL    HW120132   2.736   1.189   2.837  0.0886  0.8026 -1.2291
 2891SOL    HW220133   2.605   1.117   2.858  0.0323  0.7569 -1.2108
 2892SOL     OW20134   3.588   1.072  11.309 -0.1875 -0.0680  0.0048
 2892SOL    HW120135   3.603   1.015  11.233  0.0115  1.1133 -0.8435
 2892SOL    HW220136   3.648   1.142  11.281 -3.4699  2.4333 -0.7169
 2893SOL     OW20137   0.632   1.895   2.041  0.0510 -0.2381 -0.3255
 2893SOL    HW120138   0.721   1.930   2.037 -0.6566  1.4219 -1.3378
 2893SOL    HW220139   0.622   1.845   1.960 -0.1582  0.3328 -0.6520
 2894SOL     OW20140   2.621   3.366  17.665  0.0107  0.4185  0.5024
 2894SOL    HW120141   2.617   3.459  17.645 -1.6101  0.0474 -0.9251
 2894SOL    HW220142   2.527   3.348  17.658  0.6876 -2.5403 -1.2677
 2895SOL     OW20143   3.833   1.738   1.793 -0.0543  0.2086 -0.1136
 2895SOL    HW120144   3.888   1.787   1.855  0.3704 -0.0332 -0.2980
 2895SOL    HW220145   3.899   1.671   1.776 -0.5207  0.2402 -1.9616
 2896SOL     OW20146   4.392   3.598   3.475 -0.1226 -0.0255  0.0876
 2896SOL    HW120147   4.345   3.662   3.529 -0.7860  0.8575 -1.5153
 2896SOL    HW220148   4.366   3.524   3.529 -0.9924  0.1513 -0.0863
 2897SOL     OW20149   4.244   2.396   7.775 -0.7254  0.2757 -0.4084
 2897SOL    HW120150   4.295   2.456   7.829  0.2140  0.2693 -1.2891
 2897SOL    HW220151   4.280   2.310   7.796  2.5009  1.5335 -0.8521
 2898SOL     OW20152   3.905   2.979   4.021 -0.0461 -0.4252 -0.2558
 2898SOL    HW120153   3.991   3.006   3.989  0.8005 -1.0365  1.4957
 2898SOL    HW220154   3.928   2.900   4.069 -0.8454 -0.8901 -0.6340
 2899SOL     OW20155   0.927   1.340  14.006 -0.2718 -0.0398  0.2317
 2899SOL    HW120156   0.876   1.367  13.930 -2.1929 -1.6974  0.9147
 2899SOL    HW220157   0.911   1.411  14.067  2.9242 -0.2117  1.2387
 2900SOL     OW20158   1.696   2.503   9.437 -0.3287 -0.1220 -0.2141
 2900SOL    HW120159   1.675   2.506   9.344  1.7200  1.2890 -0.6420
 2900SOL    HW220160   1.741   2.587   9.446  1.0863 -0.8815 -0.1085
 2901SOL     OW20161   3.000   4.184   4.790  0.8305 -0.0794 -0.2540
 2901SOL    HW120162   3.026   4.244   4.860  1.3302  1.7107 -1.9787
 2901SOL    HW220163   3.003   4.098   4.832  1.8938 -1.4478 -3.1131
 2902SOL     OW20164   0.579   0.245  14.459 -0.3979  0.1283  0.2922
 2902SOL    HW120165   0.551   0.189  14.531 -0.2144 -0.1912  0.1152
 2902SOL    HW220166   0.581   0.326  14.510  0.0432  0.0411  0.4099
 2903SOL     OW20167   1.738   0.251   1.593  0.1107  0.4012  0.4214
 2903SOL    HW120168   1.672   0.205   1.645  1.0585 -1.3972  0.0568
 2903SOL    HW220169   1.804   0.182   1.587  0.1839  0.5225 -0.2033
 2904SOL     OW20170   1.731   1.723   6.631 -0.0624  0.6012  0.2780
 2904SOL    HW120171   1.636   1.728   6.623 -0.0522  2.5734  1.4799
 2904SOL    HW220172   1.750   1.684   6.716 -1.2301  1.6396  1.0124
 2905SOL     OW20173   1.604   1.885  15.979 -0.7517 -0.0518 -0.2401
 2905SOL    HW120174   1.560   1.937  16.047  1.7771 -0.0371  1.3966
 2905SOL    HW220175   1.564   1.801  16.002 -0.3592 -0.0765  0.3536
 2906SOL     OW20176   2.214   3.716   4.636 -0.5547  0.0502  0.2488
 2906SOL    HW120177   2.301   3.731   4.673 -0.7291 -0.2803  0.7959
 2906SOL    HW220178   2.199   3.793   4.582 -2.0373 -1.0833 -0.9550
 2907SOL     OW20179   3.798   1.627   2.730  0.6477  0.3342 -0.5526
 2907SOL    HW120180   3.891   1.626   2.708  0.9359 -1.2693  0.7264
 2907SOL    HW220181   3.804   1.665   2.818  0.0118 -0.6144 -0.1024
 2908SOL     OW20182   2.714   0.699   7.001 -0.3510 -0.2002  0.2902
 2908SOL    HW120183   2.623   0.725   6.992  0.1548  1.3714 -0.1808
 2908SOL    HW220184   2.729   0.670   6.911 -1.1857 -0.2296  0.1651
 2909SOL     OW20185   1.815   3.066   5.882  0.2942 -0.7327 -0.5722
 2909SOL    HW120186   1.805   2.978   5.845  0.2206 -1.5608  1.4344
 2909SOL    HW220187   1.741   3.071   5.941  0.7620 -0.2573 -0.0271
 2910SOL     OW20188   2.228   3.619  13.147  0.5956  0.6346  0.0700
 2910SOL    HW120189   2.275   3.599  13.065  0.3377 -0.5095  0.2139
 2910SOL    HW220190   2.297   3.638  13.210 -1.4893 -0.3488  2.6019
 2911SOL     OW20191   4.536   2.103   3.606  0.0840 -0.5361 -0.1278
 2911SOL    HW120192   4.617   2.078   3.562  0.6221  1.2745 -0.1526
 2911SOL    HW220193   4.523   2.031   3.668  1.3167  1.4268  2.4120
 2912SOL     OW20194   0.827   2.382  12.388 -0.8931  0.4469  0.1055
 2912SOL    HW120195   0.783   2.309  12.345  1.7304 -0.5303 -0.9800
 2912SOL    HW220196   0.773   2.396  12.465  1.3662  0.8832  1.6235
 2913SOL     OW20197   4.708   1.934   9.517  0.3294  0.3111  0.2577
 2913SOL    HW120198   0.067   1.934   9.570  0.7739  1.3894 -0.4008
 2913SOL    HW220199   4.653   1.900   9.587 -0.2824 -1.2832 -1.0125
 2914SOL     OW20200   0.602   4.451   6.082 -0.3063  0.2019 -0.1901
 2914SOL    HW120201   0.536   4.520   6.082  0.0958  0.5788 -0.8540
 2914SOL    HW220202   0.561   4.393   6.019  0.3002 -2.1139  1.5399
 2915SOL     OW20203   4.396   1.155   8.323  0.0552  0.8534  0.2391
 2915SOL    HW120204   4.318   1.118   8.282  1.0231  2.9740 -3.5117
 2915SOL    HW220205   4.363   1.189   8.406 -1.7667 -0.1667 -0.0810
 2916SOL     OW20206   1.494   2.260   3.253  0.1690 -0.4907  0.0997
 2916SOL    HW120207   1.471   2.273   3.161 -0.2892  0.4639  0.3541
 2916SOL    HW220208   1.407   2.229   3.279 -0.0812 -0.3204 -0.5074
 2917SOL     OW20209   3.320   4.539   7.309  0.7375  0.4764  0.7152
 2917SOL    HW120210   3.339   4.454   7.347  2.2961  1.1536  1.4364
 2917SOL    HW220211   3.361   4.593   7.376  0.3080 -2.3812  3.2388
 2918SOL     OW20212   3.217   2.487   7.985 -0.2422 -0.3953 -0.3823
 2918SOL    HW120213   3.241   2.502   7.894 -0.5227 -0.1686 -0.4172
 2918SOL    HW220214   3.217   2.577   8.017  2.8990 -0.3292 -0.6040
 2919SOL     OW20215   3.796   0.812  17.577  0.2328  0.2838  0.5735
 2919SOL    HW120216   3.713   0.766  17.561 -0.6138  1.6636  0.9951
 2919SOL    HW220217   3.800   0.867  17.499  2.0796 -1.7999 -0.8003
 2920SOL     OW20218   2.654   0.718  15.850  0.3194  0.6967 -1.1024
 2920SOL    HW120219   2.675   0.808  15.823 -1.9795  1.0245 -1.7839
 2920SOL    HW220220   2.623   0.684  15.766 -0.9689 -3.2159  0.9737
 2921SOL     OW20221   1.676   4.172   9.612  0.4021  0.5785  0.4307
 2921SOL    HW120222   1.607   4.208   9.668 -0.8044  0.5164 -1.0343
 2921SOL    HW220223   1.713   4.114   9.679  0.7361  0.0801 -0.1987
 2922SOL     OW20224   2.978   1.956  16.417  0.7431 -0.4626 -0.0591
 2922SOL    HW120225   2.925   1.987  16.344  0.3606 -1.1663 -0.0775
 2922SOL    HW220226   2.972   1.862  16.403  2.8802 -0.3618 -1.6800
 2923SOL     OW20227   0.561   3.481   6.840  0.0101 -0.3042 -0.0994
 2923SOL    HW120228   0.591   3.400   6.883 -0.6889  0.3530  1.6241
 2923SOL    HW220229   0.589   3.449   6.754 -1.0605 -0.7529 -0.2845
 2924SOL     OW20230   2.018   0.930   8.554  0.7062  0.3978  0.5953
 2924SOL    HW120231   1.968   0.890   8.483  0.3756  2.7455 -0.5011
 2924SOL    HW220232   2.107   0.898   8.544  0.3893  0.2489 -1.6833
 2925SOL     OW20233   4.042   2.968   5.877  0.2501  0.0996 -0.0968
 2925SOL    HW120234   4.116   3.020   5.845  2.1060 -2.3537  0.1984
 2925SOL    HW220235   4.019   3.001   5.963 -1.8375 -0.1820 -0.5618
 2926SOL     OW20236   3.825   0.654   2.538  0.5302  0.4786  0.4829
 2926SOL    HW120237   3.915   0.685   2.550  0.2666  0.4626  2.4422
 2926SOL    HW220238   3.801   0.690   2.452 -0.3679 -1.9668 -0.2980
 2927SOL     OW20239   0.515   1.991  15.177 -0.2885  0.2328 -0.0020
 2927SOL    HW120240   0.456   1.938  15.231 -0.0761 -0.3797 -0.3827
 2927SOL    HW220241   0.535   2.048  15.251  1.9818  0.6950 -0.9866
 2928SOL     OW20242   3.334   0.273   3.071  0.6942  0.5740  0.3973
 2928SOL    HW120243   3.373   0.360   3.063  1.2909  0.2834  0.1321
 2928SOL    HW220244   3.407   0.229   3.116 -1.0994 -2.6416  0.1398
 2929SOL     OW20245   1.321   1.051   5.165  0.4816 -0.0790  0.1950
 2929SOL    HW120246   1.337   1.008   5.248  0.5591  0.9657  0.7244
 2929SOL    HW220247   1.291   0.974   5.116 -0.8976 -0.4464  1.6175
 2930SOL     OW20248   0.392   4.343   5.215  0.7864  0.2934  0.2500
 2930SOL    HW120249   0.357   4.262   5.250  0.7381  0.9375  1.6846
 2930SOL    HW220250   0.391   4.326   5.120  0.4334 -2.6912  0.7972
 2931SOL     OW20251   3.675   0.810   7.817 -0.1428 -0.2121 -0.0797
 2931SOL    HW120252   3.606   0.744   7.807 -0.7480  0.3284  0.5126
 2931SOL    HW220253   3.733   0.803   7.741  1.1460  0.5277  0.8474
 2932SOL     OW20254   1.231   3.792  11.861  0.3041  0.2991 -0.0216
 2932SOL    HW120255   1.239   3.763  11.771 -2.2901 -0.8637  0.1083
 2932SOL    HW220256   1.136   3.786  11.866  0.5298 -2.3553  1.1316
 2933SOL     OW20257   0.692   4.709  16.040 -0.1232 -0.1099 -0.5152
 2933SOL    HW120258   0.713   0.075  16.074 -0.3908  0.6618 -2.3417
 2933SOL    HW220259   0.781   4.679  16.025 -0.0710  0.3558 -1.1477
 2934SOL     OW20260   3.790   2.828   7.164  0.4116 -0.3771  0.2544
 2934SOL    HW120261   3.750   2.851   7.248 -1.6315 -0.1918 -0.7709
 2934SOL    HW220262   3.730   2.879   7.110 -2.6867 -2.7147  1.4795
 2935SOL     OW20263   2.450   0.918   4.088  0.2422  0.3630 -0.1985
 2935SOL    HW120264   2.466   0.938   4.180  0.9491 -0.8310 -0.0617
 2935SOL    HW220265   2.498   0.994   4.055 -0.2911  1.9953  2.7759
 2936SOL     OW20266   4.643   1.608  15.252 -0.0456  1.0287 -0.1012
 2936SOL    HW120267   4.682   1.566  15.175  0.9605  0.8614  0.5064
 2936SOL    HW220268   4.583   1.540  15.284 -1.0076  1.0685 -1.7907
 2937SOL     OW20269   1.189   1.454   3.361 -0.4995  0.6609  0.3391
 2937SOL    HW120270   1.178   1.473   3.267 -0.7745 -0.5829  0.1184
 2937SOL    HW220271   1.245   1.523   3.395  0.7176 -0.3066  0.3065
 2938SOL     OW20272   3.715   2.964  10.544  0.4433 -0.2018  0.5717
 2938SOL    HW120273   3.726   2.889  10.602 -0.1853 -1.6180 -1.1663
 2938SOL    HW220274   3.716   3.043  10.600  0.6530  0.9966 -1.1202
 2939SOL     OW20275   2.860   4.089   6.655  0.1718 -0.0591  0.2918
 2939SOL    HW120276   2.856   4.107   6.749 -0.1109 -2.5373  0.7421
 2939SOL    HW220277   2.783   4.032   6.652 -0.8305  1.2944  0.2088
 2940SOL     OW20278   3.003   0.919   8.525  0.9130  0.1156  0.6476
 2940SOL    HW120279   2.917   0.899   8.486  2.1695 -0.4524 -1.8300
 2940SOL    HW220280   3.045   0.969   8.456  2.6323 -0.4723  1.2822
 2941SOL     OW20281   2.728   3.275   9.098  0.1333 -0.2741 -0.1224
 2941SOL    HW120282   2.811   3.233   9.122 -0.1729 -1.5191 -1.2203
 2941SOL    HW220283   2.680   3.193   9.110  0.6376 -0.4291  0.8280
 2942SOL     OW20284   1.705   0.574   7.876  0.2222  0.7591  0.0377
 2942SOL    HW120285   1.764   0.645   7.851 -0.3441  1.1112 -0.3091
 2942SOL    HW220286   1.647   0.610   7.943  0.2317 -1.5825  1.2808
 2943SOL     OW20287   4.391   1.575   7.261 -0.1696  1.1581  0.5399
 2943SOL    HW120288   4.466   1.634   7.258 -0.7138  1.8200 -0.2417
 2943SOL    HW220289   4.433   1.492   7.241  0.7713  1.5986  0.6757
 2944SOL     OW20290   4.537   0.956   3.725  0.0268 -0.2893  0.2160
 2944SOL    HW120291   4.463   0.957   3.785  0.3920 -1.3143  0.6822
 2944SOL    HW220292   4.558   1.049   3.720  0.0076 -0.2674  0.5896
 2945SOL     OW20293   0.567   0.797   1.148 -0.8753 -0.3044  0.0500
 2945SOL    HW120294   0.496   0.759   1.096  1.1130 -2.8940 -0.7134
 2945SOL    HW220295   0.589   0.869   1.089  0.1446 -1.6016 -1.1303
 2946SOL     OW20296   1.892   1.068   3.686 -0.1474 -0.4220  0.6339
 2946SOL    HW120297   1.918   1.024   3.766 -0.0173  3.0222  2.4766
 2946SOL    HW220298   1.857   1.153   3.712  0.0732  0.3055 -1.3729
 2947SOL     OW20299   3.324   1.867   5.558 -0.3942 -0.1286 -0.2389
 2947SOL    HW120300   3.328   1.910   5.643  2.2655  0.7881 -0.8246
 2947SOL    HW220301   3.390   1.799   5.571 -0.3977  0.1558  1.1742
 2948SOL     OW20302   4.567   1.085   4.687  0.1393  0.0249 -0.1944
 2948SOL    HW120303   4.656   1.073   4.720  0.1399 -1.0016 -0.5535
 2948SOL    HW220304   4.567   1.180   4.676 -3.6189  0.4075  3.1806
 2949SOL     OW20305   2.362   4.597  10.298  0.1674  0.3428 -0.5896
 2949SOL    HW120306   2.383   4.682  10.259  1.8829  0.9585  1.6933
 2949SOL    HW220307   2.356   4.615  10.392 -0.0674  1.6702 -0.8550
 2950SOL     OW20308   1.013   1.585   3.710  0.1046  0.2077  0.1401
 2950SOL    HW120309   1.106   1.603   3.717 -0.1518  1.9754 -1.1822
 2950SOL    HW220310   1.008   1.511   3.649  1.0932  1.5837 -1.5747
 2951SOL     OW20311   0.493   1.139   5.880  0.8420 -0.0674 -0.6620
 2951SOL    HW120312   0.537   1.058   5.907 -1.2019 -1.5507 -1.8172
 2951SOL    HW220313   0.556   1.209   5.895  0.8295  0.2914 -2.3417
 2952SOL     OW20314   3.457   0.010   8.468  0.3953  0.1846 -0.6401
 2952SOL    HW120315   3.506   4.650   8.454 -1.4107 -0.8597 -0.9571
 2952SOL    HW220316   3.383   4.717   8.409 -2.1013  0.1223  2.4942
 2953SOL     OW20317   4.261   4.058   2.861  0.0269  0.6653  0.2651
 2953SOL    HW120318   4.167   4.076   2.866  0.1006  0.2707  2.6691
 2953SOL    HW220319   4.290   4.000   2.931  2.3114  0.6583 -0.6943
 2954SOL     OW20320   1.771   3.321  17.154 -0.6547 -0.1688 -0.1064
 2954SOL    HW120321   1.714   3.253  17.189  0.5578 -1.2123 -0.1536
 2954SOL    HW220322   1.791   3.285  17.067 -1.1759 -0.8894  0.0737
 2955SOL     OW20323   4.523   3.434   5.094 -0.2489  0.0337  0.3570
 2955SOL    HW120324   4.518   3.348   5.135 -2.5844 -1.0841 -2.2631
 2955SOL    HW220325   4.617   3.452   5.095 -0.2530  0.0465  0.6346
 2956SOL     OW20326   2.358   2.199   5.078 -0.0487  0.1058  0.3465
 2956SOL    HW120327   2.448   2.229   5.062  0.5111 -0.8228  1.6915
 2956SOL    HW220328   2.317   2.254   5.012 -1.8041 -1.6096  0.0149
 2957SOL     OW20329   1.319   0.920   0.957 -0.2172 -0.4062  0.2487
 2957SOL    HW120330   1.341   0.871   1.037 -3.1823 -0.6884  0.9113
 2957SOL    HW220331   1.225   0.902   0.957 -0.4866  1.0259  0.8812
 2958SOL     OW20332   0.530   1.329   0.979 -0.1890  0.0573  0.1073
 2958SOL    HW120333   0.577   1.412   0.981 -2.3549  1.2489  1.7374
 2958SOL    HW220334   0.505   1.308   1.069 -0.1195 -0.4535  0.0112
 2959SOL     OW20335   0.488   0.798   9.783 -0.4137  0.2517 -0.0419
 2959SOL    HW120336   0.573   0.840   9.797 -0.3809  0.7160 -1.5408
 2959SOL    HW220337   0.513   0.720   9.734 -0.9104  0.9449 -1.4278
 2960SOL     OW20338   4.614   1.692   3.592  0.0105 -0.1314  0.0941
 2960SOL    HW120339   4.531   1.653   3.565  0.1615 -0.9277  0.7772
 2960SOL    HW220340   4.671   1.690   3.516 -1.9590 -1.6713 -1.3363
 2961SOL     OW20341   2.909   3.265  13.160  0.4229 -0.7319  0.8658
 2961SOL    HW120342   2.938   3.326  13.092  0.0815 -2.5355 -0.8976
 2961SOL    HW220343   2.830   3.227  13.121  1.5430 -1.4050 -0.7138
 2962SOL     OW20344   2.582   0.871   4.933  0.6484 -0.4342  0.2962
 2962SOL    HW120345   2.542   0.784   4.931  1.0661 -0.6252  0.1374
 2962SOL    HW220346   2.499   0.914   4.954  0.4677  0.4271 -2.1879
 2963SOL     OW20347   2.212   3.498   8.306  0.7991  0.3541 -0.1552
 2963SOL    HW120348   2.176   3.579   8.341 -2.3984 -1.4140  0.7140
 2963SOL    HW220349   2.134   3.460   8.265  1.3108 -1.0081  0.1211
 2964SOL     OW20350   3.137   3.821   5.150 -0.1386 -0.0493 -0.8247
 2964SOL    HW120351   3.158   3.906   5.190 -0.9981 -0.0442 -0.3983
 2964SOL    HW220352   3.047   3.810   5.181 -1.0134  1.8391 -2.7265
 2965SOL     OW20353   2.094   0.794   8.024 -0.1260 -0.0827  0.4164
 2965SOL    HW120354   2.020   0.853   8.041 -0.5006 -0.0892 -1.1401
 2965SOL    HW220355   2.080   0.726   8.090 -2.7794  0.2946  0.2382
 2966SOL     OW20356   1.488   1.205   5.038  0.1444  0.2725 -0.0700
 2966SOL    HW120357   1.456   1.232   4.953 -0.9463 -0.3330  0.1463
 2966SOL    HW220358   1.410   1.167   5.078  0.1879  0.9979  0.7122
 2967SOL     OW20359   2.385   0.651   9.325  0.3496 -0.2069  0.1110
 2967SOL    HW120360   2.475   0.646   9.357 -0.1477 -0.3152  1.5245
 2967SOL    HW220361   2.402   0.603   9.245 -0.4301 -1.0157  0.4257
 2968SOL     OW20362   0.658   3.261   6.988  0.0754 -0.1011 -0.1717
 2968SOL    HW120363   0.664   3.186   7.048  2.7590 -0.6419 -1.1141
 2968SOL    HW220364   0.746   3.300   6.986  0.6075 -1.3777 -1.5663
 2969SOL     OW20365   3.433   1.086   3.887 -0.0672 -0.2085  0.1332
 2969SOL    HW120366   3.380   1.007   3.889 -1.7127  0.9591  2.8650
 2969SOL    HW220367   3.408   1.131   3.807 -1.0560 -1.6562 -0.3535
 2970SOL     OW20368   0.854   1.239   9.261  0.1059 -0.5349  0.3301
 2970SOL    HW120369   0.883   1.331   9.259  0.2848 -0.5950  0.1978
 2970SOL    HW220370   0.902   1.188   9.326  1.4138  0.2650  0.0039
 2971SOL     OW20371   4.216   0.501  13.520 -0.0050 -0.0156  0.1331
 2971SOL    HW120372   4.215   0.596  13.511 -1.2403 -0.0720 -0.4113
 2971SOL    HW220373   4.129   0.475  13.488 -0.7213  0.5897  1.5998
 2972SOL     OW20374   3.066   1.781   6.703  0.0294  0.2930 -0.3613
 2972SOL    HW120375   3.126   1.840   6.749 -0.1621 -0.8605  1.3726
 2972SOL    HW220376   2.979   1.814   6.721 -0.6964 -0.9329 -1.6387
 2973SOL     OW20377   2.647   2.589   8.711  0.3767  0.5171 -0.2961
 2973SOL    HW120378   2.590   2.517   8.683 -1.4281  2.1245 -0.7149
 2973SOL    HW220379   2.701   2.598   8.633  0.1665 -3.6619 -0.9589
 2974SOL     OW20380   1.064   0.192   7.857  0.0835  0.0774  0.2355
 2974SOL    HW120381   1.157   0.204   7.837 -0.1933  0.9503 -0.5290
 2974SOL    HW220382   1.059   0.191   7.952  0.3234  2.2762  0.2771
 2975SOL     OW20383   0.224   1.222   7.552 -0.0633  0.5845 -0.1565
 2975SOL    HW120384   0.236   1.246   7.460  0.5891 -2.3746 -0.8631
 2975SOL    HW220385   0.242   1.128   7.556 -1.2465  0.4163  1.0529
 2976SOL     OW20386   1.461   0.102  14.645 -0.2056 -0.3811 -0.0120
 2976SOL    HW120387   1.428   0.017  14.676 -1.6388  0.5263  0.9231
 2976SOL    HW220388   1.533   0.081  14.585 -0.6857  1.0656 -1.1006
 2977SOL     OW20389   0.829   1.768   4.084  0.2758  0.2156 -0.2320
 2977SOL    HW120390   0.811   1.836   4.149 -1.3573  0.5384 -1.0134
 2977SOL    HW220391   0.815   1.812   4.000 -1.0023  0.5174  0.1339
 2978SOL     OW20392   1.595   2.628  17.164 -0.4904 -0.5071  0.4483
 2978SOL    HW120393   1.629   2.654  17.250 -1.6472  0.3485  0.6522
 2978SOL    HW220394   1.524   2.692  17.154  1.9979  1.7899 -2.4752
 2979SOL     OW20395   2.742   2.388  16.765 -0.1643  0.3599 -0.0964
 2979SOL    HW120396   2.668   2.440  16.733 -0.0704 -0.0330 -0.9573
 2979SOL    HW220397   2.696   2.312  16.799  0.0684  0.5220  0.5753
 2980SOL     OW20398   0.129   3.241  16.114 -0.3726  0.7353  0.6379
 2980SOL    HW120399   0.190   3.301  16.157  0.5903  1.4917 -1.7922
 2980SOL    HW220400   0.044   3.284  16.131 -1.2074 -0.7872  0.2677
 2981SOL     OW20401   1.613   1.470  12.996  0.0269 -0.5279  0.5551
 2981SOL    HW120402   1.612   1.541  12.931  0.5511  0.2835  1.4498
 2981SOL    HW220403   1.625   1.520  13.076  0.0194  1.2117 -0.5143
 2982SOL     OW20404   1.196   1.688   1.685 -0.3412  0.1505  0.0349
 2982SOL    HW120405   1.289   1.710   1.698 -0.9114  1.7749  1.2795
 2982SOL    HW220406   1.157   1.753   1.742 -2.5547 -0.2395 -1.0538
 2983SOL     OW20407   3.251   3.085   8.768 -0.1951 -0.3589  0.3404
 2983SOL    HW120408   3.187   3.100   8.699  0.8446 -0.2769 -0.5937
 2983SOL    HW220409   3.202   3.136   8.833  0.3551  0.3980  0.1537
 2984SOL     OW20410   1.457   1.229  10.054  0.1681  0.1753 -0.4626
 2984SOL    HW120411   1.433   1.315  10.017  2.7985  1.0807 -0.0537
 2984SOL    HW220412   1.432   1.180   9.975 -1.6430  3.6766 -2.0850
 2985SOL     OW20413   4.038   2.806   6.457  0.2733 -0.1031  0.4697
 2985SOL    HW120414   3.960   2.751   6.446  1.3527 -1.7631  1.1580
 2985SOL    HW220415   4.067   2.827   6.368 -3.1339  0.1069 -0.5972
 2986SOL     OW20416   3.790   2.958   2.322 -0.1387  0.3732 -0.3022
 2986SOL    HW120417   3.695   2.950   2.322 -0.2431  1.5123 -2.3138
 2986SOL    HW220418   3.818   2.936   2.233 -2.1587  0.8830 -1.0460
 2987SOL     OW20419   3.252   0.305   5.476  0.2020  0.3109  0.0844
 2987SOL    HW120420   3.230   0.262   5.558  0.1182 -0.0020 -0.1006
 2987SOL    HW220421   3.165   0.329   5.443  0.8131  0.0506 -1.7345
 2988SOL     OW20422   0.103   1.569  11.980 -0.6631  0.1019  0.0170
 2988SOL    HW120423   0.028   1.530  11.936 -1.0332  2.2252 -1.2076
 2988SOL    HW220424   0.177   1.510  11.968 -1.5527 -0.7218 -1.3043
 2989SOL     OW20425   2.348   2.637   2.057  0.0762 -0.0491 -0.4348
 2989SOL    HW120426   2.301   2.701   2.004  0.3714  1.3506  0.9968
 2989SOL    HW220427   2.432   2.634   2.012 -0.2616  0.2154 -1.0789
 2990SOL     OW20428   0.273   2.657   7.558 -0.0474 -0.3457  0.2749
 2990SOL    HW120429   0.333   2.711   7.507 -0.3363  1.4893  1.8528
 2990SOL    HW220430   0.232   2.717   7.620  0.3571 -0.4833  0.6765
 2991SOL     OW20431   3.806   3.257   1.689 -0.3689 -0.6469 -0.0619
 2991SOL    HW120432   3.872   3.276   1.622  0.2248  0.1601  0.7561
 2991SOL    HW220433   3.726   3.293   1.651 -0.5206  0.1441  0.9989
 2992SOL     OW20434   4.343   1.450  11.391  0.0249  0.1639  0.1199
 2992SOL    HW120435   4.328   1.418  11.480 -1.0731 -0.7536 -0.3979
 2992SOL    HW220436   4.319   1.379  11.332 -0.8330  0.3871  0.2057
 2993SOL     OW20437   3.046   4.636   7.570  0.7021 -0.0203 -0.0685
 2993SOL    HW120438   3.116   4.571   7.580  0.6396  0.1097  1.1415
 2993SOL    HW220439   3.079   4.714   7.615 -0.0510 -0.6415  1.5299
 2994SOL     OW20440   1.207   4.489   7.160  0.3839  0.5044 -0.3063
 2994SOL    HW120441   1.191   4.396   7.141  0.0887  0.2952  0.9741
 2994SOL    HW220442   1.298   4.493   7.131  0.1918  0.2697 -0.9421
 2995SOL     OW20443   4.590   0.541   2.761 -0.4232 -0.4849 -0.7320
 2995SOL    HW120444   4.669   0.570   2.714  1.0800 -1.0182  1.5026
 2995SOL    HW220445   4.539   0.502   2.689 -0.2432  0.2140 -1.2356
 2996SOL     OW20446   3.167   4.439   2.373  0.1476  0.0522  0.3463
 2996SOL    HW120447   3.212   4.362   2.337  0.0745  0.6831 -1.1256
 2996SOL    HW220448   3.188   4.501   2.302  1.5686  0.0459  0.7563
 2997SOL     OW20449   2.346   1.656   5.991 -0.4509  0.1912 -0.1101
 2997SOL    HW120450   2.348   1.685   5.900 -1.0434 -0.4286 -0.3131
 2997SOL    HW220451   2.410   1.586   5.980 -1.0622 -0.3688 -0.1265
 2998SOL     OW20452   2.148   2.810   2.594  0.1826  0.3273 -0.3896
 2998SOL    HW120453   2.164   2.777   2.505  0.9486  1.7542 -0.7878
 2998SOL    HW220454   2.220   2.763   2.636  1.0054  2.2753  0.3377
 2999SOL     OW20455   0.669   2.789  17.562 -0.2045 -0.0989  0.0655
 2999SOL    HW120456   0.645   2.823  17.648 -0.2257 -3.7688  1.4937
 2999SOL    HW220457   0.611   2.843  17.509  0.0302 -1.4320 -1.5401
 3000SOL     OW20458   3.348   2.295   4.551  0.1545 -0.3898  0.0801
 3000SOL    HW120459   3.299   2.351   4.491 -2.5042  0.1955  2.8626
 3000SOL    HW220460   3.307   2.209   4.543  2.0094 -1.3709  1.1889
 3001SOL     OW20461   3.077   0.755   5.471 -0.1550  0.0665 -0.2641
 3001SOL    HW120462   3.074   0.691   5.400 -1.5471 -0.8869  0.6345
 3001SOL    HW220463   3.011   0.816   5.437 -0.3666  0.3965  0.7419
 3002SOL     OW20464   1.402   3.659   7.844 -0.2936  0.0702  0.0369
 3002SOL    HW120465   1.370   3.627   7.760  0.8267 -0.4893 -0.1778
 3002SOL    HW220466   1.323   3.693   7.886  1.3103  2.9650  0.7199
 3003SOL     OW20467   2.096   3.664   9.446  0.2453  0.0704  0.2356
 3003SOL    HW120468   2.157   3.713   9.501  2.0589 -1.0104 -0.8618
 3003SOL    HW220469   2.079   3.719   9.370 -1.7570 -2.5304 -1.1808
 3004SOL     OW20470   2.884   4.382   9.175  0.2737 -0.6741 -0.4714
 3004SOL    HW120471   2.819   4.411   9.239  1.4353 -0.6772  0.6940
 3004SOL    HW220472   2.923   4.305   9.215 -0.5039 -1.2441 -0.8242
 3005SOL     OW20473   1.171   0.092   7.423 -0.3271 -0.6904 -0.0126
 3005SOL    HW120474   1.256   0.093   7.378 -0.2040 -2.1558  0.1797
 3005SOL    HW220475   1.114   0.158   7.383 -0.0236 -1.4301 -1.6790
 3006SOL     OW20476   1.943   3.510   8.446  0.1003 -0.3468  0.6700
 3006SOL    HW120477   1.982   3.579   8.499  0.7514 -0.2963  0.1404
 3006SOL    HW220478   1.896   3.562   8.380 -0.4177  0.4830  1.6987
 3007SOL     OW20479   1.469   3.355   9.233  0.5028 -0.0282  0.3052
 3007SOL    HW120480   1.417   3.289   9.279  1.4393 -0.6087  0.5134
 3007SOL    HW220481   1.522   3.301   9.175 -0.9816  0.7766 -1.7994
 3008SOL     OW20482   2.377   2.427   3.726 -0.0767 -0.2284  0.3339
 3008SOL    HW120483   2.367   2.480   3.805 -2.0206 -0.2772  0.1001
 3008SOL    HW220484   2.316   2.357   3.748 -0.6320 -0.2442 -1.2414
 3009SOL     OW20485   2.980   1.641   3.502 -0.0166 -0.3235 -0.2687
 3009SOL    HW120486   2.975   1.601   3.589  1.3912 -2.0286 -0.9541
 3009SOL    HW220487   2.976   1.734   3.523  1.2014 -0.3849  0.3116
 3010SOL     OW20488   4.047   3.887   4.496  0.2076  0.0364  0.6736
 3010SOL    HW120489   4.056   3.875   4.590  1.8782  0.6866  0.5986
 3010SOL    HW220490   4.006   3.805   4.467 -0.9401  0.1952  1.8838
 3011SOL     OW20491   2.321   2.678   2.745 -0.5717  0.5757  0.0479
 3011SOL    HW120492   2.374   2.720   2.813  1.1161 -0.8300 -0.3974
 3011SOL    HW220493   2.396   2.668   2.685  0.5887  2.0161  1.2403
 3012SOL     OW20494   3.938   3.116  17.291  0.0237 -0.3124  0.4799
 3012SOL    HW120495   3.937   3.185  17.225 -0.9987  0.2323  1.0634
 3012SOL    HW220496   3.843   3.105  17.290 -0.0344  0.3706 -1.7717
 3013SOL     OW20497   4.003   4.351   6.005  0.3497  0.2211  0.0769
 3013SOL    HW120498   3.981   4.350   6.099 -0.6163  0.0555 -0.1563
 3013SOL    HW220499   3.986   4.443   5.988  0.5716  0.0729 -0.9049
 3014SOL     OW20500   2.133   3.494  10.767  0.0240 -0.3806  0.1042
 3014SOL    HW120501   2.203   3.446  10.722 -0.1778 -0.3879 -0.2049
 3014SOL    HW220502   2.063   3.449  10.720  0.4864  1.1534 -2.1015
 3015SOL     OW20503   3.001   3.774   2.484  0.0094 -0.3229  0.1260
 3015SOL    HW120504   3.012   3.853   2.432  0.2092 -0.0402  0.6000
 3015SOL    HW220505   2.926   3.790   2.542  0.5495 -1.0192  1.0259
 3016SOL     OW20506   1.603   0.826  17.533  0.0520  0.3006 -0.0133
 3016SOL    HW120507   1.544   0.828  17.609  0.3268 -1.1989  0.2377
 3016SOL    HW220508   1.608   0.919  17.510 -0.7095  0.3528  0.0328
 3017SOL     OW20509   1.053   1.715   0.458  0.0399  0.0950  0.2675
 3017SOL    HW120510   1.135   1.740   0.416 -0.4624  1.4531  0.0956
 3017SOL    HW220511   1.014   1.678   0.379 -1.2965  0.9250  0.5414
 3018SOL     OW20512   2.359   4.402   6.552 -0.5442  0.4148  0.0260
 3018SOL    HW120513   2.334   4.361   6.469  0.5791  0.2739 -0.2346
 3018SOL    HW220514   2.440   4.357   6.573 -0.8159  0.2338  0.6975
 3019SOL     OW20515   1.961   2.732  14.979  0.3968 -0.0328  0.6356
 3019SOL    HW120516   1.969   2.824  14.954 -1.0181 -0.3508 -0.9619
 3019SOL    HW220517   2.052   2.703  14.970  0.5855  0.5078  0.7750
 3020SOL     OW20518   1.208   0.371   2.259  0.2089  0.7591  0.4845
 3020SOL    HW120519   1.159   0.443   2.298 -1.1459 -0.0704  0.3184
 3020SOL    HW220520   1.136   0.314   2.231  0.2830  1.1479 -0.5009
 3021SOL     OW20521   3.524   2.886   7.860 -0.0375  0.4856 -0.2749
 3021SOL    HW120522   3.540   2.963   7.914 -1.4670  1.5878 -1.4088
 3021SOL    HW220523   3.522   2.924   7.772  1.4772  2.2984  0.4780
 3022SOL     OW20524   2.281   2.576   1.759  0.3763 -0.4481 -0.1643
 3022SOL    HW120525   2.222   2.570   1.683 -1.4366 -1.0113  1.3050
 3022SOL    HW220526   2.250   2.656   1.800 -2.3286 -1.0040 -1.0916
 3023SOL     OW20527   2.446   2.291   1.230  0.2761  0.2449 -0.0692
 3023SOL    HW120528   2.522   2.321   1.279 -1.5224  0.7686  2.4100
 3023SOL    HW220529   2.374   2.349   1.254  0.2129  0.1367  0.0028
 3024SOL     OW20530   0.379   0.689  15.915  0.4596 -0.0906 -0.1910
 3024SOL    HW120531   0.420   0.616  15.868  1.1769 -0.1062  0.4647
 3024SOL    HW220532   0.286   0.668  15.905  0.1980  0.7466  0.5273
 3025SOL     OW20533   4.560   2.287   3.830 -0.0865 -0.0874  0.5396
 3025SOL    HW120534   4.561   2.228   3.754  0.3208  1.3585 -0.5846
 3025SOL    HW220535   4.510   2.235   3.893  0.3018 -1.8964 -0.6468
 3026SOL     OW20536   1.509   2.988   4.715  0.7972  0.5261 -0.5268
 3026SOL    HW120537   1.472   2.967   4.801  4.0478 -0.5393  0.6518
 3026SOL    HW220538   1.469   3.074   4.706  1.6377  1.2318  2.1734
 3027SOL     OW20539   4.653   4.417   8.004  0.2341  0.6723 -0.5193
 3027SOL    HW120540   4.714   4.389   7.935  0.1545  0.6549 -0.5819
 3027SOL    HW220541   4.650   4.512   7.990  2.2854  1.0410  1.5648
 3028SOL     OW20542   1.549   4.375   8.750 -0.0732  0.2425  0.3492
 3028SOL    HW120543   1.626   4.430   8.761  2.3711 -2.9086 -0.9051
 3028SOL    HW220544   1.554   4.342   8.840 -1.8222  0.0039  0.3627
 3029SOL     OW20545   2.659   4.212  11.129  0.4260  0.1064 -0.1732
 3029SOL    HW120546   2.750   4.187  11.112  0.6746 -0.5811  2.2448
 3029SOL    HW220547   2.621   4.124  11.130  1.4305 -0.3145  1.2049
 3030SOL     OW20548   3.646   2.568   6.316 -0.2117  0.1548  0.5335
 3030SOL    HW120549   3.602   2.635   6.263 -0.7860  0.6968  1.6903
 3030SOL    HW220550   3.580   2.544   6.381  0.3067 -1.3261  0.5043
 3031SOL     OW20551   1.637   1.846  10.538  0.2495  0.0187  0.0360
 3031SOL    HW120552   1.680   1.917  10.585 -0.0022  1.3493 -1.7405
 3031SOL    HW220553   1.669   1.876  10.453  1.3936  0.6189  0.6935
 3032SOL     OW20554   1.179   0.980  16.624 -0.1826 -0.0234  0.0137
 3032SOL    HW120555   1.101   0.938  16.662  0.2805 -0.1541  0.8168
 3032SOL    HW220556   1.244   0.947  16.686  1.3193  0.5373 -1.2718
 3033SOL     OW20557   1.291   2.423   2.144 -0.3304  0.2481  0.0046
 3033SOL    HW120558   1.279   2.467   2.228 -0.8666  0.5685 -0.2438
 3033SOL    HW220559   1.254   2.484   2.080  0.1211  0.2668 -0.2391
 3034SOL     OW20560   0.288   1.762   7.458 -0.4216 -0.1064  0.1193
 3034SOL    HW120561   0.209   1.795   7.416  0.1505 -0.9499 -1.5864
 3034SOL    HW220562   0.254   1.750   7.547 -1.6091  0.4198 -0.2671
 3035SOL     OW20563   3.129   4.309   8.529  0.0810  0.5453  0.2965
 3035SOL    HW120564   3.104   4.262   8.449  0.5582 -0.4216  0.7194
 3035SOL    HW220565   3.114   4.237   8.590  1.5944  0.6307  0.7631
 3036SOL     OW20566   1.581   1.888  12.697 -0.4812  0.0354  0.0527
 3036SOL    HW120567   1.612   1.933  12.618 -1.2622  0.7020  0.1255
 3036SOL    HW220568   1.489   1.875  12.676 -1.0257  2.0012  1.3170
 3037SOL     OW20569   1.568   2.555   0.980 -0.6390 -0.2181 -0.1031
 3037SOL    HW120570   1.566   2.562   1.076  0.2151 -0.7034 -0.0510
 3037SOL    HW220571   1.622   2.477   0.980  0.9663  0.8928 -0.4301
 3038SOL     OW20572   3.842   2.008  10.567 -0.0769  0.2937  0.0141
 3038SOL    HW120573   3.891   2.087  10.590  1.3566 -1.0553  1.6917
 3038SOL    HW220574   3.816   2.042  10.482  1.0178 -1.2376 -0.9423
 3039SOL     OW20575   3.669   2.212   5.076 -0.1259  0.3782 -0.3737
 3039SOL    HW120576   3.744   2.158   5.052 -0.1031  1.1333 -2.0039
 3039SOL    HW220577   3.594   2.156   5.056 -0.4834  0.8042 -0.2286
 3040SOL     OW20578   1.569   0.037   2.636 -0.8947  0.0270  0.4871
 3040SOL    HW120579   1.593   0.027   2.728 -1.1205  2.6489  0.8322
 3040SOL    HW220580   1.533   0.125   2.631 -0.8500  0.0422  0.4339
 3041SOL     OW20581   0.698   1.837   8.421  0.2792  0.1758 -0.4637
 3041SOL    HW120582   0.713   1.907   8.484  0.1636  1.5786 -2.0010
 3041SOL    HW220583   0.603   1.840   8.411  0.1537  1.1530  0.9777
 3042SOL     OW20584   0.030   1.852   8.749  0.6145  0.3338 -0.6623
 3042SOL    HW120585   0.044   1.845   8.655 -0.8262 -0.1345 -0.8470
 3042SOL    HW220586   0.006   1.944   8.762 -1.4018 -0.2969  0.0865
 3043SOL     OW20587   3.625   1.113  17.445 -0.3573 -0.1449 -0.8247
 3043SOL    HW120588   3.688   1.064  17.393  1.9323 -0.6897  2.4624
 3043SOL    HW220589   3.565   1.042  17.469  1.3399 -0.8768  1.2174
 3044SOL     OW20590   0.873   2.817   2.130  0.0165  0.0526 -0.1608
 3044SOL    HW120591   0.942   2.791   2.069  1.5678 -0.1174  1.6662
 3044SOL    HW220592   0.906   2.759   2.199 -0.5340 -0.8844 -0.6887
 3045SOL     OW20593   2.373   0.703   0.070  0.6280  0.3862  0.1727
 3045SOL    HW120594   2.369   0.799   0.065 -0.7570  0.3469  0.5796
 3045SOL    HW220595   2.280   0.686   0.086  0.4433  0.4936 -0.7718
 3046SOL     OW20596   1.518   3.298   3.956  0.4743  0.3653  0.1345
 3046SOL    HW120597   1.434   3.277   3.997  1.4056 -0.3393  1.6942
 3046SOL    HW220598   1.504   3.385   3.919 -1.1586 -0.6599 -1.6550
 3047SOL     OW20599   2.038   2.605  12.527 -0.3178  0.3256 -0.0374
 3047SOL    HW120600   2.047   2.546  12.452  0.2992  0.6488 -0.2191
 3047SOL    HW220601   2.025   2.693  12.492 -1.0682  0.6918  1.1756
 3048SOL     OW20602   2.292   0.956  14.120 -0.2147  0.4895  0.0729
 3048SOL    HW120603   2.208   0.992  14.094 -1.1607  0.4931  3.1282
 3048SOL    HW220604   2.267   0.932  14.210  0.6187  1.3331  0.5202
 3049SOL     OW20605   4.393   1.704   8.391 -0.3120  0.4645  0.0935
 3049SOL    HW120606   4.357   1.692   8.479 -0.9176  1.3271 -0.0342
 3049SOL    HW220607   4.323   1.759   8.356 -0.7695  0.5450  1.1245
 3050SOL     OW20608   1.310   0.258   4.632 -0.5983 -1.6259  0.2944
 3050SOL    HW120609   1.388   0.277   4.684 -2.2562  1.7726  1.5579
 3050SOL    HW220610   1.336   0.263   4.541  0.3809  1.5428  0.7550
 3051SOL     OW20611   2.252   3.493  12.650 -0.2606 -0.1231 -0.3336
 3051SOL    HW120612   2.336   3.508  12.607  0.3499  1.5256  1.3877
 3051SOL    HW220613   2.236   3.400  12.635 -1.3248 -0.1557  0.9759
 3052SOL     OW20614   1.000   4.288   5.316  0.0955 -0.1359 -0.0916
 3052SOL    HW120615   1.058   4.228   5.270  1.5573  1.2850 -0.0928
 3052SOL    HW220616   1.025   4.364   5.263  0.2980 -0.2567 -0.1673
 3053SOL     OW20617   2.378   1.014  15.259 -0.1441  0.0568 -0.7163
 3053SOL    HW120618   2.438   1.027  15.185  2.1617 -2.3170  0.7187
 3053SOL    HW220619   2.353   1.103  15.283 -0.2786 -0.5337  1.3251
 3054SOL     OW20620   0.368   0.945   8.944 -0.2687  0.3573 -0.0814
 3054SOL    HW120621   0.293   0.974   8.893 -0.4687  0.3132  0.1865
 3054SOL    HW220622   0.346   0.861   8.983  2.1443 -0.8692 -1.3794
 3055SOL     OW20623   1.758   2.648   6.748  0.2110 -0.4184  0.1393
 3055SOL    HW120624   1.846   2.679   6.769  0.7258 -1.1078 -0.9883
 3055SOL    HW220625   1.753   2.565   6.795 -1.0842  0.1469  1.0191
 3056SOL     OW20626   0.428   1.365   6.403  0.1529 -0.4519 -0.2435
 3056SOL    HW120627   0.387   1.354   6.317 -2.1348 -1.8917  1.0260
 3056SOL    HW220628   0.514   1.391   6.368  0.0783 -0.6016 -0.5378
 3057SOL     OW20629   1.685   3.863   7.668 -0.1579 -0.1444 -0.1767
 3057SOL    HW120630   1.745   3.803   7.712 -1.7898 -1.7215 -0.0820
 3057SOL    HW220631   1.689   3.835   7.577 -0.3499 -0.4276 -0.1020
 3058SOL     OW20632   2.948   4.294   6.464  0.1704 -0.0305 -0.4165
 3058SOL    HW120633   2.911   4.238   6.533  1.3658 -0.4915 -0.1273
 3058SOL    HW220634   3.014   4.344   6.513 -0.9071  0.5552  0.4211
 3059SOL     OW20635   4.548   2.196   3.277  0.0300  0.6604 -0.5125
 3059SOL    HW120636   4.501   2.267   3.322  1.4711  0.4986  1.2338
 3059SOL    HW220637   4.633   2.217   3.316 -0.3396  1.4819 -0.1323
 3060SOL     OW20638   1.223   2.042   8.699 -0.2556  0.2573  0.4408
 3060SOL    HW120639   1.290   2.062   8.765 -1.1277  1.4577  0.9508
 3060SOL    HW220640   1.245   2.108   8.633 -1.8700 -1.0580 -1.4171
 3061SOL     OW20641   0.747   0.761   8.603 -1.0306 -0.4688 -0.3616
 3061SOL    HW120642   0.684   0.813   8.552 -0.1528  0.4286 -0.5191
 3061SOL    HW220643   0.779   0.704   8.533  0.8574 -0.6078  0.6411
 3062SOL     OW20644   1.379   3.115  16.113  0.1364 -0.1395  0.1367
 3062SOL    HW120645   1.391   3.107  16.018 -2.9768  0.9774 -0.3522
 3062SOL    HW220646   1.461   3.084  16.149 -0.6851  0.8550  2.8640
 3063SOL     OW20647   1.633   1.358  16.618 -0.0790  0.0635 -0.4601
 3063SOL    HW120648   1.722   1.391  16.630 -0.5520 -0.2001  3.8206
 3063SOL    HW220649   1.644   1.318  16.531 -2.2000  0.8912 -1.1180
 3064SOL     OW20650   4.083   1.303   3.593  0.7282  0.0258 -0.5879
 3064SOL    HW120651   4.177   1.310   3.611  0.6524  0.6371 -0.4378
 3064SOL    HW220652   4.055   1.384   3.636  0.7319 -0.9987  1.3631
 3065SOL     OW20653   1.206   1.882   4.104  0.4573 -0.0970 -0.1924
 3065SOL    HW120654   1.228   1.808   4.049  0.0571  0.6806 -1.3924
 3065SOL    HW220655   1.221   1.954   4.042 -2.1166  0.1182 -0.5672
 3066SOL     OW20656   0.674   3.119   3.063 -0.0914 -0.0753 -0.2337
 3066SOL    HW120657   0.665   3.141   2.970  1.5989  0.7013 -0.2102
 3066SOL    HW220658   0.766   3.092   3.068 -0.5533 -1.9912 -2.3589
 3067SOL     OW20659   0.493   1.769   9.865  0.3478  0.5490 -0.5055
 3067SOL    HW120660   0.451   1.767   9.951 -1.1819  0.9394 -1.2384
 3067SOL    HW220661   0.542   1.850   9.880 -0.0611  0.5450  0.8599
 3068SOL     OW20662   2.410   3.038  16.028 -0.6802 -0.0691  0.3785
 3068SOL    HW120663   2.467   3.031  15.952 -0.6536 -1.3713  0.5074
 3068SOL    HW220664   2.467   3.085  16.090 -1.8850  0.1469  1.3283
 3069SOL     OW20665   3.382   0.381  14.634  0.2561  0.0536  0.0017
 3069SOL    HW120666   3.329   0.326  14.576 -0.8873  0.7017  0.4214
 3069SOL    HW220667   3.354   0.350  14.720 -0.1578  0.2954 -0.0480
 3070SOL     OW20668   3.458   0.383   4.704  0.0221 -0.6757 -0.5978
 3070SOL    HW120669   3.376   0.383   4.656 -0.9327 -2.2282  1.0289
 3070SOL    HW220670   3.515   0.344   4.638  1.4691 -1.2371  0.9572
 3071SOL     OW20671   3.834   1.184  11.768  0.0387  0.9859 -0.2522
 3071SOL    HW120672   3.777   1.127  11.819  1.0530  0.0067 -0.2087
 3071SOL    HW220673   3.808   1.270  11.801  0.3140  1.0247 -0.1414
 3072SOL     OW20674   2.452   0.833  12.797 -0.8706  0.3038 -0.1945
 3072SOL    HW120675   2.523   0.886  12.833 -0.3784  0.3532 -1.2429
 3072SOL    HW220676   2.429   0.779  12.872  0.4655 -3.1322 -2.3056
 3073SOL     OW20677   2.108   4.469  14.166  0.2537  0.1453 -0.1815
 3073SOL    HW120678   2.080   4.556  14.194  1.4220 -0.1613  1.9599
 3073SOL    HW220679   2.169   4.457  14.239 -0.0060  0.9472  0.1640
 3074SOL     OW20680   1.940   2.999  14.954  0.4957 -0.2507  0.1954
 3074SOL    HW120681   1.879   3.072  14.958  1.0770  0.4102 -3.4573
 3074SOL    HW220682   2.018   3.054  14.965 -0.2181  1.1317 -1.6813
 3075SOL     OW20683   0.251   3.618   7.263 -0.1993 -0.9452  0.2388
 3075SOL    HW120684   0.228   3.553   7.196  1.6399 -0.3225 -1.0193
 3075SOL    HW220685   0.202   3.695   7.233  0.0260 -0.3718  1.3378
 3076SOL     OW20686   3.675   4.466   2.718 -0.5071  0.4089 -0.0719
 3076SOL    HW120687   3.636   4.490   2.634 -1.4663  1.4377  0.6873
 3076SOL    HW220688   3.676   4.554   2.755  0.2373  0.1401  0.5536
 3077SOL     OW20689   0.850   4.515   3.703  0.2269 -0.5015  0.3276
 3077SOL    HW120690   0.758   4.522   3.729  0.2826 -1.4805  0.8145
 3077SOL    HW220691   0.862   4.602   3.666 -2.2030 -0.2979  0.0258
 3078SOL     OW20692   2.066   3.179   2.748  0.2227  0.2202  0.2757
 3078SOL    HW120693   2.051   3.169   2.654  0.2377 -3.4244  0.6624
 3078SOL    HW220694   2.046   3.090   2.778 -2.0291  0.8006  0.5010
 3079SOL     OW20695   3.630   3.343   6.624  0.5219  0.3783  0.0506
 3079SOL    HW120696   3.585   3.397   6.560  0.9217  0.3092 -0.2875
 3079SOL    HW220697   3.718   3.378   6.640  0.6054  0.4948 -0.7033
 3080SOL     OW20698   0.414   2.820   1.921 -0.3393 -0.0209  0.1080
 3080SOL    HW120699   0.475   2.849   1.852  2.0502 -0.5034  2.0107
 3080SOL    HW220700   0.475   2.776   1.980  1.6339  1.2412 -0.9978
 3081SOL     OW20701   0.899   1.612   6.057 -0.3289  0.2431  0.2139
 3081SOL    HW120702   0.987   1.642   6.078 -0.5060  1.2241 -0.4624
 3081SOL    HW220703   0.881   1.550   6.128 -1.7903  1.1860  0.6680
 3082SOL     OW20704   0.474   1.903   5.649 -0.2048 -0.3901  0.2163
 3082SOL    HW120705   0.433   1.918   5.734  1.1580 -1.7162  1.0911
 3082SOL    HW220706   0.423   1.824   5.630 -0.6296 -0.5911  2.1494
 3083SOL     OW20707   0.963   2.595  12.320 -0.8265  0.0156  0.6042
 3083SOL    HW120708   0.905   2.519  12.326 -0.9514 -0.0239 -1.2265
 3083SOL    HW220709   1.014   2.588  12.401 -1.1662  0.5914  0.8687
 3084SOL     OW20710   3.462   4.539  13.425  0.0678 -0.2308 -0.2230
 3084SOL    HW120711   3.419   4.523  13.341  0.5979 -1.8001 -0.1823
 3084SOL    HW220712   3.422   4.480  13.488 -0.5381  2.1259  1.5951
 3085SOL     OW20713   4.075   3.726  16.380  0.2930 -0.2219 -0.2307
 3085SOL    HW120714   3.988   3.706  16.347  0.1472  1.0597 -0.6529
 3085SOL    HW220715   4.077   3.821  16.366 -0.6045 -0.5877 -2.7506
 3086SOL     OW20716   0.006   1.864  10.682 -0.1759  0.1490  0.1838
 3086SOL    HW120717   4.693   1.808  10.612  0.2581 -0.7618  0.6920
 3086SOL    HW220718   0.100   1.870  10.666 -0.2510 -1.0804 -0.6929
 3087SOL     OW20719   3.854   3.644  16.227  0.2174  0.2564  0.4610
 3087SOL    HW120720   3.854   3.560  16.181 -0.8281 -0.2386  1.3768
 3087SOL    HW220721   3.759   3.652  16.229  0.3001  1.1691  0.9048
 3088SOL     OW20722   3.341   0.049   2.428  0.0310  0.0949 -0.4280
 3088SOL    HW120723   3.323   4.682   2.394 -1.0333 -0.6259  1.9986
 3088SOL    HW220724   3.253   0.086   2.425 -0.4096 -0.8590  0.6021
 3089SOL     OW20725   1.912   4.011  13.116 -0.0214  0.0535 -0.5009
 3089SOL    HW120726   1.964   3.937  13.086 -0.6544 -0.7003  0.2537
 3089SOL    HW220727   1.836   4.011  13.058 -1.1799  1.7142  0.9957
 3090SOL     OW20728   2.472   2.941  14.256  0.7001  0.1085  0.1936
 3090SOL    HW120729   2.462   2.911  14.346  2.4916  0.1637  0.4080
 3090SOL    HW220730   2.385   2.928  14.219  1.0823 -0.2882 -0.5718
 3091SOL     OW20731   3.287   0.865   3.843 -0.1634  0.1913  0.1428
 3091SOL    HW120732   3.233   0.796   3.881  0.3642 -1.1425 -1.5156
 3091SOL    HW220733   3.293   0.824   3.757  0.5903  0.6298 -0.0125
 3092SOL     OW20734   2.251   2.965  15.259 -0.3480 -0.7539 -0.6168
 3092SOL    HW120735   2.294   3.024  15.321 -1.2218 -0.1204 -0.6149
 3092SOL    HW220736   2.163   2.982  15.294 -1.0378 -0.4044 -2.4847
 3093SOL     OW20737   0.867   2.036   2.044  0.1107 -0.1098  0.6616
 3093SOL    HW120738   0.957   2.006   2.040 -0.4759 -2.0231  1.7020
 3093SOL    HW220739   0.863   2.117   2.095 -1.4364 -0.0125  0.3891
 3094SOL     OW20740   2.940   3.890   9.467  0.3238 -0.0201  0.0110
 3094SOL    HW120741   2.899   3.947   9.531 -0.4352  0.8907 -1.2833
 3094SOL    HW220742   2.874   3.821   9.478  2.6810 -2.3555 -0.4991
 3095SOL     OW20743   4.255   1.736  11.612  0.0086  0.2732 -0.0466
 3095SOL    HW120744   4.250   1.641  11.603  0.2881  0.4344 -2.0274
 3095SOL    HW220745   4.284   1.770  11.527  1.0429 -1.6966 -0.4861
 3096SOL     OW20746   4.513   2.444   7.613  0.1707  0.1831  0.2019
 3096SOL    HW120747   4.569   2.501   7.560  0.4701  0.4543  0.8087
 3096SOL    HW220748   4.457   2.515   7.644 -1.2286 -0.6186 -0.5344
 3097SOL     OW20749   2.021   3.751   7.439  0.0104 -0.2753  0.4245
 3097SOL    HW120750   2.077   3.690   7.390 -0.4429  2.4432 -3.4574
 3097SOL    HW220751   1.943   3.702   7.465 -1.5272  1.6584 -0.5389
 3098SOL     OW20752   1.797   3.435   0.696 -0.4021  0.1850 -0.2419
 3098SOL    HW120753   1.704   3.451   0.714  0.0805  1.5194  1.0305
 3098SOL    HW220754   1.812   3.362   0.757 -2.3854 -0.3510 -0.3943
 3099SOL     OW20755   2.560   4.170  10.838 -0.9360 -0.0798  0.4127
 3099SOL    HW120756   2.570   4.157  10.933  2.2432 -2.5749 -0.2634
 3099SOL    HW220757   2.628   4.233  10.817  0.0778 -1.1162  0.5865
 3100SOL     OW20758   1.147   3.192  15.215 -0.1134 -0.5134 -0.3751
 3100SOL    HW120759   1.208   3.120  15.234 -0.7932 -1.2261 -0.8830
 3100SOL    HW220760   1.209   3.265  15.214 -1.1317  0.3791  2.3736
 3101SOL     OW20761   1.152   1.848   2.953  0.7132  0.2458 -0.3927
 3101SOL    HW120762   1.172   1.828   2.862  0.0932  2.9779 -1.1135
 3101SOL    HW220763   1.230   1.897   2.981 -0.1230  1.7035 -0.6268
 3102SOL     OW20764   0.533   3.339   4.253  0.3697  0.0641  0.8567
 3102SOL    HW120765   0.593   3.341   4.328  0.1143  0.3543  1.0550
 3102SOL    HW220766   0.566   3.414   4.203 -0.3301  0.3398  0.8073
 3103SOL     OW20767   2.238   0.449  13.797 -0.1645 -0.5023  0.3029
 3103SOL    HW120768   2.200   0.479  13.879  0.1451  1.7024 -0.3534
 3103SOL    HW220769   2.321   0.495  13.813 -0.6195 -0.7490  3.3020
 3104SOL     OW20770   2.510   4.347   6.129 -0.1518 -0.4555  1.1237
 3104SOL    HW120771   2.595   4.332   6.169  1.3797  2.0121 -1.2442
 3104SOL    HW220772   2.506   4.439   6.154 -1.5888  0.4165 -2.3428
 3105SOL     OW20773   3.154   1.486   1.967  0.0894  0.5010 -0.1819
 3105SOL    HW120774   3.147   1.562   1.910 -1.4750  1.7543  1.6620
 3105SOL    HW220775   3.102   1.521   2.040 -1.1377  2.6917 -2.1123
 3106SOL     OW20776   1.419   1.307  12.887  0.2774 -0.6539  0.2072
 3106SOL    HW120777   1.484   1.346  12.945 -0.2959  1.7338 -0.7479
 3106SOL    HW220778   1.371   1.252  12.949 -1.6593 -0.0890 -0.7983
 3107SOL     OW20779   1.377   3.463  16.595  0.1924 -0.0111 -0.2297
 3107SOL    HW120780   1.428   3.390  16.560 -0.1368 -0.6031  0.5317
 3107SOL    HW220781   1.315   3.487  16.526  0.8748  1.0767 -0.4717
 3108SOL     OW20782   1.521   1.905   2.650 -0.3363  0.1330 -0.2188
 3108SOL    HW120783   1.558   1.892   2.563  2.1323  0.3680  0.7741
 3108SOL    HW220784   1.582   1.969   2.686  0.2054 -0.1868 -0.5551
 3109SOL     OW20785   1.412   3.035  15.083  0.0020  0.0625 -0.5486
 3109SOL    HW120786   1.434   2.942  15.095 -1.8176 -0.6810 -2.8423
 3109SOL    HW220787   1.401   3.058  15.175 -0.3908 -1.4538 -0.2198
 3110SOL     OW20788   4.523   2.634   8.761  0.1705 -0.1820  0.6380
 3110SOL    HW120789   4.563   2.707   8.714 -0.3137 -1.0186 -1.0598
 3110SOL    HW220790   4.436   2.633   8.721  1.5534 -3.1411 -2.3264
 3111SOL     OW20791   3.806   2.767  14.547  0.3781  0.3365  0.4645
 3111SOL    HW120792   3.879   2.796  14.602  1.7653 -2.2902 -0.0009
 3111SOL    HW220793   3.850   2.730  14.470  1.4106  2.5201 -0.0029
 3112SOL     OW20794   1.412   2.574  13.629 -0.0510 -0.3858  0.4743
 3112SOL    HW120795   1.446   2.649  13.677 -0.1009 -0.3078  0.3887
 3112SOL    HW220796   1.342   2.535  13.682 -1.3701 -3.1823 -3.3630
 3113SOL     OW20797   0.675   2.874   3.293  0.1162 -0.4477  0.1529
 3113SOL    HW120798   0.641   2.913   3.374 -1.1568 -0.0401 -0.5715
 3113SOL    HW220799   0.608   2.909   3.234  0.5513  1.9392  1.0492
 3114SOL     OW20800   3.387   3.032   4.980  0.0776 -0.2625 -0.1211
 3114SOL    HW120801   3.340   2.950   4.993  0.6108 -0.2648  1.8818
 3114SOL    HW220802   3.335   3.067   4.908  2.2095  1.0535 -1.0328
 3115SOL     OW20803   0.512   1.651   3.284  0.1218 -0.4715  0.3460
 3115SOL    HW120804   0.586   1.647   3.223  2.6426  2.1129  3.2261
 3115SOL    HW220805   0.438   1.670   3.227  1.1206  1.3136 -0.3526
 3116SOL     OW20806   2.514   2.439  15.518  0.0324 -0.1008  0.4389
 3116SOL    HW120807   2.452   2.437  15.590 -0.4766 -1.8956 -0.0503
 3116SOL    HW220808   2.465   2.384  15.457  1.6417 -1.0788  0.0042
 3117SOL     OW20809   3.685   2.682   0.468 -0.1079  0.4135 -0.1949
 3117SOL    HW120810   3.722   2.608   0.516 -1.3855  1.1981  1.9867
 3117SOL    HW220811   3.594   2.653   0.478  0.0546 -0.9491 -2.6163
 3118SOL     OW20812   3.988   1.512  14.737  0.0851  0.5481  0.0434
 3118SOL    HW120813   3.985   1.487  14.829  0.6847 -1.5860 -0.5032
 3118SOL    HW220814   3.901   1.481  14.712 -0.0356  0.6190  0.3826
 3119SOL     OW20815   4.434   1.970  10.510  0.1882 -0.2833 -0.0461
 3119SOL    HW120816   4.495   2.023  10.458 -0.4498  1.5466  1.0873
 3119SOL    HW220817   4.373   1.928  10.449 -0.1012  1.3073 -0.8562
 3120SOL     OW20818   3.987   2.864   6.176 -0.2042  0.4007 -0.0725
 3120SOL    HW120819   3.917   2.929   6.183 -0.4415  0.2084 -0.6634
 3120SOL    HW220820   3.934   2.788   6.201  0.1182  0.1805 -0.0580
 3121SOL     OW20821   2.108   1.203   9.458 -0.3325 -0.1762 -0.0026
 3121SOL    HW120822   2.031   1.214   9.402  0.3452 -0.1185 -0.9320
 3121SOL    HW220823   2.182   1.188   9.398  1.9520 -0.3483  2.8746
 3122SOL     OW20824   2.953   4.045  12.579  0.0533  0.0734  0.2230
 3122SOL    HW120825   2.962   4.122  12.635 -1.2626 -0.0359  0.5698
 3122SOL    HW220826   2.972   3.984  12.650  1.6684 -0.6702 -0.8251
 3123SOL     OW20827   3.753   2.589   7.483  0.1156  1.1727  0.0399
 3123SOL    HW120828   3.683   2.525   7.494  0.2552  0.4470 -3.1598
 3123SOL    HW220829   3.802   2.547   7.412 -2.6474 -2.5988  0.3541
 3124SOL     OW20830   0.345   2.802   3.437  0.2814  0.7621  0.7960
 3124SOL    HW120831   0.371   2.806   3.345 -0.5434  0.8054  0.5561
 3124SOL    HW220832   0.293   2.883   3.442  0.1860  0.6576  1.5796
 3125SOL     OW20833   3.268   0.955   7.699 -0.1132 -0.6048  0.0969
 3125SOL    HW120834   3.346   1.010   7.705  1.1578 -2.3776 -0.1852
 3125SOL    HW220835   3.254   0.955   7.604 -2.0325  1.3968  0.3767
 3126SOL     OW20836   2.883   3.515   2.037  0.2820 -0.0590 -0.3095
 3126SOL    HW120837   2.812   3.573   2.063 -1.3934 -1.9464 -0.7475
 3126SOL    HW220838   2.955   3.571   2.005 -0.5006  1.2326  0.1923
 3127SOL     OW20839   4.526   0.765   5.252  0.4698  0.6934  0.3298
 3127SOL    HW120840   4.532   0.784   5.345 -0.9260  2.5744  0.0360
 3127SOL    HW220841   4.495   0.674   5.248  1.9985  0.1106  1.8742
 3128SOL     OW20842   0.072   3.703   3.641 -0.4836 -0.0614 -0.3117
 3128SOL    HW120843   0.068   3.632   3.577  0.5002 -0.4905  0.0957
 3128SOL    HW220844   0.135   3.662   3.701  0.1047  3.6574  1.6301
 3129SOL     OW20845   1.115   1.242   5.707  0.0197 -0.1985  0.3472
 3129SOL    HW120846   1.044   1.179   5.721  1.5217 -1.3067  2.8836
 3129SOL    HW220847   1.087   1.301   5.776 -0.2095 -0.7612  0.7345
 3130SOL     OW20848   4.074   0.802  14.500 -0.3275 -0.0033 -0.3334
 3130SOL    HW120849   4.107   0.880  14.546  1.1753 -1.0918  0.4127
 3130SOL    HW220850   3.982   0.811  14.523 -0.0296 -0.4154  1.0113
 3131SOL     OW20851   0.198   2.466   5.277  0.2306  0.6885  0.0084
 3131SOL    HW120852   0.188   2.540   5.337 -0.5065 -0.9174  1.8780
 3131SOL    HW220853   0.108   2.439   5.257  0.1047  0.0929  1.3695
 3132SOL     OW20854   1.358   2.195   6.300  0.3462 -0.0949  0.0164
 3132SOL    HW120855   1.354   2.222   6.392 -0.8051  0.3411 -0.1615
 3132SOL    HW220856   1.345   2.102   6.315 -0.6134 -0.4636 -3.1227
 3133SOL     OW20857   3.769   4.235  15.501  0.1141 -0.6268  0.7488
 3133SOL    HW120858   3.852   4.279  15.519 -0.6652  1.3608 -0.5050
 3133SOL    HW220859   3.713   4.299  15.547  1.2135  1.5540 -0.9696
 3134SOL     OW20860   4.296   1.739   2.648  0.4741 -0.6978  0.0444
 3134SOL    HW120861   4.339   1.786   2.577  2.0409 -1.3234  0.5800
 3134SOL    HW220862   4.333   1.781   2.726 -1.0388  0.4820  0.1417
 3135SOL     OW20863   0.241   2.194   7.783 -0.0245  0.4032  0.1522
 3135SOL    HW120864   0.151   2.163   7.792  0.1835 -1.1399 -3.0275
 3135SOL    HW220865   0.227   2.273   7.731 -0.7466 -0.1682 -0.5174
 3136SOL     OW20866   1.131   0.059   3.891  0.7007  0.1772  0.0224
 3136SOL    HW120867   1.122   0.021   3.978 -1.8611  1.6803  0.4221
 3136SOL    HW220868   1.129   4.697   3.845  0.3583 -0.8772  1.9427
 3137SOL     OW20869   3.063   1.465   3.305 -0.0612  0.5228  0.3985
 3137SOL    HW120870   3.005   1.495   3.375 -1.8396 -0.7226 -0.5501
 3137SOL    HW220871   3.137   1.519   3.333 -2.1614  2.4953  2.2167
 3138SOL     OW20872   0.084   3.114  12.497  0.3719 -0.0621 -0.1630
 3138SOL    HW120873   0.104   3.042  12.557  0.9510  1.2184  1.1827
 3138SOL    HW220874   0.068   3.064  12.417 -1.7209 -0.9627  0.8024
 3139SOL     OW20875   2.300   2.624   0.201 -0.3345  0.3627 -0.3160
 3139SOL    HW120876   2.389   2.592   0.217 -0.9340 -0.2913  1.6907
 3139SOL    HW220877   2.263   2.614   0.289 -1.5128 -0.5439 -0.9189
 3140SOL     OW20878   1.769   2.037   6.968 -0.2747  0.6851  0.3917
 3140SOL    HW120879   1.678   2.054   6.943  0.3037  2.3658 -0.5860
 3140SOL    HW220880   1.751   1.998   7.054  0.3376 -0.6730 -0.1067
 3141SOL     OW20881   1.130   0.038   2.732 -0.1417 -0.2906  0.0538
 3141SOL    HW120882   1.208   0.017   2.682 -0.2219 -0.7389  0.1143
 3141SOL    HW220883   1.139   4.690   2.798  2.3213  0.5880  0.6345
 3142SOL     OW20884   2.290   4.629   7.253 -0.5341 -0.0348  0.5800
 3142SOL    HW120885   2.310   4.610   7.345 -1.1557 -1.7445  0.3624
 3142SOL    HW220886   2.364   4.600   7.200 -1.2770 -0.6048 -0.1528
 3143SOL     OW20887   4.716   1.907   1.949 -0.4450  0.4456 -0.2038
 3143SOL    HW120888   0.021   1.826   1.905 -2.0107 -0.5007  0.5915
 3143SOL    HW220889   4.685   1.950   1.869  0.8038  2.0176  0.1650
 3144SOL     OW20890   4.691   1.385  15.096  0.6462  0.2929 -0.1076
 3144SOL    HW120891   4.681   1.300  15.052 -2.5827  0.8756 -0.5627
 3144SOL    HW220892   4.601   1.389  15.129  0.3706 -2.4419 -0.5254
 3145SOL     OW20893   1.673   0.211  15.634 -0.9084  0.5856 -0.2540
 3145SOL    HW120894   1.609   0.196  15.703 -0.4018  4.5844  1.1048
 3145SOL    HW220895   1.753   0.187  15.681 -0.6174  1.7895 -0.1317
 3146SOL     OW20896   0.909   2.787   3.985  0.0847 -0.2711 -0.1215
 3146SOL    HW120897   0.964   2.813   3.911 -1.7060  1.6787 -0.7628
 3146SOL    HW220898   0.837   2.753   3.932 -0.2386 -3.4837  2.3583
 3147SOL     OW20899   2.853   3.796  13.844  0.7186 -0.1134 -0.3034
 3147SOL    HW120900   2.927   3.741  13.818  0.7150 -0.5214  0.5400
 3147SOL    HW220901   2.792   3.723  13.843  2.0827 -1.2667  1.7564
 3148SOL     OW20902   3.245   0.973   7.430 -0.1805 -0.1912  0.3008
 3148SOL    HW120903   3.166   0.962   7.377 -0.3095 -0.7427  0.6135
 3148SOL    HW220904   3.311   1.008   7.369  1.6375  0.3442  2.5824
 3149SOL     OW20905   4.498   1.804   6.684  0.4997  0.0614  0.1834
 3149SOL    HW120906   4.538   1.790   6.770 -2.3140 -0.0705  1.4829
 3149SOL    HW220907   4.542   1.883   6.655 -0.7554  0.7398  0.1398
 3150SOL     OW20908   2.510   1.468   5.433 -0.1557  0.3142  0.1192
 3150SOL    HW120909   2.465   1.481   5.517 -0.1516 -1.4093  0.3829
 3150SOL    HW220910   2.599   1.492   5.459  0.1912 -2.1831  1.1909
 3151SOL     OW20911   2.738   0.353   4.475  0.8026  0.5880 -0.0115
 3151SOL    HW120912   2.719   0.415   4.405 -0.4281  0.6928  0.4156
 3151SOL    HW220913   2.656   0.303   4.482 -0.0640  2.1047  0.6903
 3152SOL     OW20914   2.701   2.230  12.776  0.0290  0.0349 -0.0393
 3152SOL    HW120915   2.757   2.164  12.816 -0.1931 -0.7293 -0.9958
 3152SOL    HW220916   2.638   2.246  12.846 -0.8813  1.1419 -1.1015
 3153SOL     OW20917   1.220   2.776  13.555  0.1970 -1.0252  0.0663
 3153SOL    HW120918   1.299   2.722  13.553  1.5976  1.0517 -0.6452
 3153SOL    HW220919   1.151   2.710  13.555 -1.0447  0.2738  1.3158
 3154SOL     OW20920   3.770   1.960   1.581 -0.5448  0.3225 -0.2895
 3154SOL    HW120921   3.821   1.949   1.661 -0.4114 -3.7763 -0.9695
 3154SOL    HW220922   3.694   1.908   1.607 -0.1953  0.6491  1.3919
 3155SOL     OW20923   3.450   4.511   4.180 -0.1963 -0.5325 -0.1828
 3155SOL    HW120924   3.435   4.497   4.274  2.7440 -0.3687  0.3167
 3155SOL    HW220925   3.530   4.563   4.192 -1.6030  1.7508 -0.7990
 3156SOL     OW20926   0.248   4.460   4.381 -0.4029  0.6648  0.0247
 3156SOL    HW120927   0.313   4.512   4.334  1.7838 -0.2984  2.0133
 3156SOL    HW220928   0.205   4.516   4.446  0.6246  0.5640  0.7903
 3157SOL     OW20929   3.553   0.291   7.180 -0.0488  0.0710  0.5102
 3157SOL    HW120930   3.472   0.339   7.196  0.3474  1.2452 -1.0189
 3157SOL    HW220931   3.619   0.306   7.247 -1.0726 -1.1541  1.8099
 3158SOL     OW20932   4.347   4.197  15.536 -0.4975  0.1606  0.4229
 3158SOL    HW120933   4.318   4.136  15.467 -2.3294  0.5478  0.8417
 3158SOL    HW220934   4.373   4.277  15.492  1.0942 -0.8161 -0.4252
 3159SOL     OW20935   2.783   1.282   5.498  0.4712 -0.5907 -0.0760
 3159SOL    HW120936   2.727   1.210   5.470 -1.6123  0.7738  0.5301
 3159SOL    HW220937   2.857   1.275   5.438  0.7867 -2.8455  0.6027
 3160SOL     OW20938   1.845   3.836   9.433 -0.6693  0.0631 -0.0213
 3160SOL    HW120939   1.932   3.830   9.474 -0.8046  1.1380  0.4385
 3160SOL    HW220940   1.840   3.926   9.401  0.0339  0.1611  0.1339
 3161SOL     OW20941   2.325   0.237  10.620  0.3257  0.1755 -0.0945
 3161SOL    HW120942   2.231   0.222  10.620  0.2267  0.7556 -1.2871
 3161SOL    HW220943   2.335   0.263  10.711 -0.2216 -2.4383  0.6885
 3162SOL     OW20944   2.304   0.202   5.369  0.1920 -0.5688 -0.1584
 3162SOL    HW120945   2.326   0.292   5.392 -2.3696  0.3141 -1.1839
 3162SOL    HW220946   2.379   0.168   5.320 -1.6183 -1.8959 -2.0011
 3163SOL     OW20947   0.283   0.828  16.936 -0.8311 -0.5906 -0.0802
 3163SOL    HW120948   0.372   0.823  16.900 -1.3015 -1.9221 -1.0490
 3163SOL    HW220949   0.285   0.912  16.981  0.3087  0.1785 -1.5242
 3164SOL     OW20950   3.774   1.681  14.487 -0.3940  0.4995 -0.2312
 3164SOL    HW120951   3.719   1.697  14.410  0.8968  1.0948 -1.0333
 3164SOL    HW220952   3.849   1.739  14.473 -0.4293  0.4768 -0.5248
 3165SOL     OW20953   2.708   0.691   0.781 -0.2917  0.8407  0.0782
 3165SOL    HW120954   2.694   0.785   0.790  2.5112  1.4149 -1.5755
 3165SOL    HW220955   2.617   0.663   0.779  0.5674 -1.9709  0.6040
 3166SOL     OW20956   0.855   4.159   3.654  0.0417  0.6262  0.0766
 3166SOL    HW120957   0.818   4.188   3.570  0.4142 -0.2101 -0.3750
 3166SOL    HW220958   0.808   4.078   3.673  0.7842  0.9631  3.3638
 3167SOL     OW20959   2.372   4.647   5.960  0.1478  0.5417 -0.8174
 3167SOL    HW120960   2.357   4.553   5.960 -3.8110  1.1745  0.2305
 3167SOL    HW220961   2.360   4.657   6.055  1.6201  1.5663 -0.7325
 3168SOL     OW20962   1.410   3.897   2.627 -0.0148  0.2123 -0.6273
 3168SOL    HW120963   1.485   3.930   2.678  0.7770 -1.5511 -0.6739
 3168SOL    HW220964   1.424   3.804   2.641  1.9025  0.6754  0.5935
 3169SOL     OW20965   3.338   4.085   0.970 -0.3348  0.2963 -0.2520
 3169SOL    HW120966   3.368   4.086   1.061  1.0148 -0.8847 -0.6816
 3169SOL    HW220967   3.333   4.178   0.947 -1.2075  0.5822  1.0894
 3170SOL     OW20968   2.276   2.318   0.827 -0.5406 -0.2864  0.2046
 3170SOL    HW120969   2.214   2.289   0.761  0.7575 -1.7603 -0.3694
 3170SOL    HW220970   2.285   2.238   0.879 -1.9288 -0.4859  0.1349
 3171SOL     OW20971   3.997   0.937   5.377  0.8275 -0.4801  0.3094
 3171SOL    HW120972   4.043   1.005   5.424  0.1054  0.7210 -0.7225
 3171SOL    HW220973   4.062   0.924   5.308 -0.5835  2.0480 -1.5196
 3172SOL     OW20974   3.425   0.609   3.356 -0.0065 -0.7242  0.0070
 3172SOL    HW120975   3.373   0.597   3.277  0.8427  0.2447 -0.6994
 3172SOL    HW220976   3.500   0.551   3.342  1.5400  1.1265  0.6290
 3173SOL     OW20977   2.518   3.825   4.971  0.2425 -0.0131  0.2897
 3173SOL    HW120978   2.602   3.870   4.963  1.7156 -2.6732  0.8415
 3173SOL    HW220979   2.491   3.875   5.048  2.0878  0.5303  0.5783
 3174SOL     OW20980   4.692   0.283  14.019  0.2493  0.0137 -0.4783
 3174SOL    HW120981   4.691   0.334  13.939  0.1704 -0.7142 -0.9434
 3174SOL    HW220982   4.618   0.224  14.003  1.3821 -1.7897  0.8330
 3175SOL     OW20983   2.611   0.213   6.131 -0.6108  0.1551 -0.4154
 3175SOL    HW120984   2.536   0.265   6.157  1.8876  3.3030  0.5273
 3175SOL    HW220985   2.644   0.170   6.211  1.7452 -0.4024 -1.6718
 3176SOL     OW20986   0.203   3.485  13.673 -0.5425 -0.0175 -0.3619
 3176SOL    HW120987   0.220   3.401  13.629  1.0870 -0.8047  1.8061
 3176SOL    HW220988   0.275   3.488  13.735 -0.3244 -0.7046 -0.5731
 3177SOL     OW20989   3.000   0.680   5.190 -0.4701  0.0420 -0.4175
 3177SOL    HW120990   3.089   0.700   5.160 -0.8853  0.4031 -1.4099
 3177SOL    HW220991   2.952   0.676   5.107 -1.5226 -0.7995  0.2483
 3178SOL     OW20992   3.665   2.856   7.442 -0.6052  0.1480  0.0905
 3178SOL    HW120993   3.758   2.872   7.457 -0.4792  0.1557 -0.6813
 3178SOL    HW220994   3.660   2.764   7.468  1.5462  0.1653  0.4944
 3179SOL     OW20995   2.711   3.101  15.050  0.2392  0.3640 -0.0056
 3179SOL    HW120996   2.751   3.161  14.987  0.9632 -0.5762 -0.4436
 3179SOL    HW220997   2.722   3.012  15.017  3.4970  0.5507  0.6352
 3180SOL     OW20998   2.056   0.338   6.240 -0.2246  0.7436  0.8253
 3180SOL    HW120999   2.069   0.370   6.329 -2.1058 -0.1402  1.4179
 3180SOL    HW221000   2.005   0.261   6.266  1.1005 -0.0701  0.9870
 3181SOL     OW21001   3.610   2.296   3.419  0.5440 -0.5286  0.5004
 3181SOL    HW121002   3.659   2.322   3.341  1.3038 -2.1149  0.4467
 3181SOL    HW221003   3.678   2.304   3.486 -0.3891  1.1468  1.2473
 3182SOL     OW21004   4.031   2.555   1.318 -0.1525 -0.0340  0.4332
 3182SOL    HW121005   3.965   2.618   1.289 -0.9966 -1.1681 -0.1335
 3182SOL    HW221006   4.102   2.575   1.257  0.4523  0.0004  1.1473
 3183SOL     OW21007   2.336   4.342   8.004  0.5571  0.1333  0.1582
 3183SOL    HW121008   2.304   4.306   7.921  0.8932  0.2877 -0.0411
 3183SOL    HW221009   2.260   4.396   8.025 -0.3545 -1.4275  0.8745
 3184SOL     OW21010   2.363   1.064   5.653 -0.9030 -0.3499  0.0172
 3184SOL    HW121011   2.444   1.087   5.607 -0.5365 -1.6497  0.0085
 3184SOL    HW221012   2.374   1.124   5.726  0.2856  0.9004 -1.1858
 3185SOL     OW21013   2.774   1.702  14.877 -0.1677  0.3714 -0.1989
 3185SOL    HW121014   2.810   1.657  14.800  1.0766  0.2491  0.4557
 3185SOL    HW221015   2.719   1.768  14.834 -0.6766  0.3181  0.3834
 3186SOL     OW21016   3.803   2.858   3.628 -0.3403  0.3613 -0.7098
 3186SOL    HW121017   3.866   2.825   3.692 -2.9401 -2.4531  0.3675
 3186SOL    HW221018   3.829   2.950   3.626 -2.2173  0.9356  0.3193
 3187SOL     OW21019   3.644   3.648   6.762  0.1611 -0.4602  0.0847
 3187SOL    HW121020   3.720   3.610   6.719 -0.8019 -1.6722 -0.5377
 3187SOL    HW221021   3.655   3.741   6.740  1.2017 -0.5241  0.3592
 3188SOL     OW21022   3.591   0.189   4.055  0.4377 -0.1877  0.4172
 3188SOL    HW121023   3.652   0.255   4.087  2.5143 -1.4113 -1.0214
 3188SOL    HW221024   3.633   0.115   4.097  0.1155  0.0491  1.1575
 3189SOL     OW21025   2.118   1.583   5.350  0.0320 -0.3187  0.3434
 3189SOL    HW121026   2.042   1.545   5.307  1.2171 -0.9471 -1.2085
 3189SOL    HW221027   2.094   1.593   5.442  2.2073  0.2062  0.8792
 3190SOL     OW21028   2.191   2.705   5.704 -0.1555 -0.4685  0.4066
 3190SOL    HW121029   2.216   2.701   5.796 -0.4587 -2.8091  0.3884
 3190SOL    HW221030   2.182   2.613   5.678  0.0855 -0.0627 -1.1555
 3191SOL     OW21031   4.179   1.097   8.172  0.2954  0.7414  0.4736
 3191SOL    HW121032   4.130   1.073   8.094 -0.8440  0.5812  1.2317
 3191SOL    HW221033   4.104   1.096   8.231  0.1298 -4.0155  0.1901
 3192SOL     OW21034   2.093   4.589  11.138  0.0186 -0.6251 -0.4704
 3192SOL    HW121035   2.071   4.525  11.070  1.3497 -0.8216 -0.7312
 3192SOL    HW221036   2.183   4.613  11.114  0.0369  0.5905  0.8162
 3193SOL     OW21037   1.206   3.198   2.471  0.1389 -0.4161  0.1581
 3193SOL    HW121038   1.161   3.141   2.534 -0.0395 -2.9914 -2.3121
 3193SOL    HW221039   1.270   3.129   2.452  0.3019 -0.3444  0.4479
 3194SOL     OW21040   1.052   1.020   7.332  0.7033 -0.2088 -0.2896
 3194SOL    HW121041   1.137   0.976   7.326  0.4519 -0.4894 -1.7813
 3194SOL    HW221042   1.071   1.093   7.273 -1.6151  0.8231  0.2638
 3195SOL     OW21043   0.559   1.215   2.193  0.4892 -0.4441  0.0297
 3195SOL    HW121044   0.492   1.284   2.190 -1.8145 -2.6588  0.8309
 3195SOL    HW221045   0.638   1.269   2.195  0.2215 -0.0867  1.5027
 3196SOL     OW21046   2.540   0.889   8.487  0.1075  0.6750 -0.6895
 3196SOL    HW121047   2.584   0.963   8.529 -0.1934  1.1600 -1.2188
 3196SOL    HW221048   2.604   0.899   8.415 -1.3005  1.6717 -1.8024
 3197SOL     OW21049   1.794   4.012   7.976 -0.1676  0.4815 -0.1677
 3197SOL    HW121050   1.786   3.985   7.885  1.0255 -1.5969  0.3487
 3197SOL    HW221051   1.775   3.933   8.027 -2.3185  0.6510 -0.7067
 3198SOL     OW21052   1.067   0.757  14.888 -0.1940  0.1871 -0.1513
 3198SOL    HW121053   1.094   0.826  14.948  1.9234  0.0170 -0.8831
 3198SOL    HW221054   1.143   0.698  14.886  1.6318  2.6032 -2.1038
 3199SOL     OW21055   3.167   2.008   7.901  0.1314 -0.0350 -0.1765
 3199SOL    HW121056   3.236   2.074   7.909 -1.0321  0.8843  2.4956
 3199SOL    HW221057   3.203   1.940   7.958 -0.5643  2.1529  2.9194
 3200SOL     OW21058   0.397   0.513   9.637 -0.2450  0.1288  0.0595
 3200SOL    HW121059   0.489   0.487   9.639 -0.6403 -1.3599 -0.7178
 3200SOL    HW221060   0.378   0.536   9.546 -0.0876 -0.6446 -0.1677
 3201SOL     OW21061   4.091   1.820  10.559 -0.4591 -0.6024 -0.2040
 3201SOL    HW121062   4.018   1.874  10.591  0.1146  1.2114 -1.9522
 3201SOL    HW221063   4.135   1.789  10.638  0.4563 -1.2127 -0.9566
 3202SOL     OW21064   1.067   2.330  15.089 -0.1587  0.4806 -0.0229
 3202SOL    HW121065   0.974   2.318  15.072  0.3908 -3.8518 -0.0826
 3202SOL    HW221066   1.062   2.376  15.172 -1.4489 -2.1055  1.3303
 3203SOL     OW21067   3.906   4.322   6.802 -0.5237 -0.1620 -0.1187
 3203SOL    HW121068   3.963   4.252   6.771  1.4911  0.7502  1.5356
 3203SOL    HW221069   3.935   4.381   6.732 -0.8254  1.3739  1.0416
 3204SOL     OW21070   1.673   1.763   4.047  0.1749 -0.4373  0.3986
 3204SOL    HW121071   1.645   1.852   4.067  0.8576  0.0597 -0.8629
 3204SOL    HW221072   1.760   1.778   4.011  0.4127 -1.0202  0.7344
 3205SOL     OW21073   2.071   1.209   5.246 -0.5007 -0.3755 -0.1576
 3205SOL    HW121074   2.139   1.275   5.228 -1.6137  0.4079 -1.4962
 3205SOL    HW221075   2.107   1.156   5.317 -2.7160 -0.5683  0.7965
 3206SOL     OW21076   0.703   2.110   8.832  0.5990  0.5073  0.1150
 3206SOL    HW121077   0.746   2.121   8.917  0.3071  0.4510  0.2682
 3206SOL    HW221078   0.634   2.055   8.868  0.5953 -0.3373 -1.2198
 3207SOL     OW21079   3.930   2.042   6.928  0.0966 -0.4638 -0.5707
 3207SOL    HW121080   4.001   1.982   6.949  0.0877 -0.7675 -1.3956
 3207SOL    HW221081   3.918   2.023   6.835 -0.6154  1.4599 -0.8654
 3208SOL     OW21082   1.792   0.552   7.466  0.2181  0.0524  0.0673
 3208SOL    HW121083   1.737   0.579   7.393  0.3811  0.4872  0.1024
 3208SOL    HW221084   1.752   0.466   7.482  1.7294 -0.4798  0.9920
 3209SOL     OW21085   0.340   2.393   2.021 -0.2261  0.3184  0.2727
 3209SOL    HW121086   0.423   2.361   2.056 -0.6170  0.0614  0.9543
 3209SOL    HW221087   0.341   2.486   2.043 -1.0456  0.3490  0.1525
 3210SOL     OW21088   2.919   4.367   2.212  0.6133 -0.1405 -0.1283
 3210SOL    HW121089   2.919   4.305   2.286 -1.1262 -0.1527 -0.1491
 3210SOL    HW221090   3.009   4.362   2.179 -0.0411 -0.7328 -1.7763
 3211SOL     OW21091   2.077   1.367   8.742  0.2018  0.2838 -0.2150
 3211SOL    HW121092   2.142   1.436   8.730 -1.1099  1.6456  0.4705
 3211SOL    HW221093   2.077   1.320   8.659 -2.8127  0.9795 -0.6309
 3212SOL     OW21094   3.323   3.623   4.529 -0.3580 -0.4253 -0.2994
 3212SOL    HW121095   3.242   3.586   4.495  0.6293 -1.9817 -0.9503
 3212SOL    HW221096   3.397   3.570   4.500  1.3795  1.5657  0.4680
 3213SOL     OW21097   3.625   0.206   9.014  0.2618 -0.4523 -0.4345
 3213SOL    HW121098   3.532   0.226   9.004  0.0373 -1.2662  0.0012
 3213SOL    HW221099   3.647   0.197   8.921 -1.6869 -2.9331 -0.6528
 3214SOL     OW21100   1.270   3.028   1.888  0.4278  0.3716 -0.6649
 3214SOL    HW121101   1.186   3.075   1.885 -1.6946 -3.2960  1.6517
 3214SOL    HW221102   1.271   2.976   1.808 -1.7425 -0.8478  0.1217
 3215SOL     OW21103   0.875   3.804   7.894 -0.2526  0.1578  0.2094
 3215SOL    HW121104   0.859   3.712   7.874  2.0418 -0.3996  0.9940
 3215SOL    HW221105   0.820   3.847   7.828  0.8136  2.9148  1.1012
 3216SOL     OW21106   0.948   1.366   0.457  0.0196  0.4025  1.1078
 3216SOL    HW121107   0.944   1.389   0.365  0.3173 -1.2401  0.6827
 3216SOL    HW221108   1.042   1.376   0.476  0.2658  0.7467 -0.2966
 3217SOL     OW21109   2.611   4.030   9.038  0.6515 -0.2423 -0.5339
 3217SOL    HW121110   2.574   4.113   9.009 -1.6588 -2.1440 -2.9407
 3217SOL    HW221111   2.549   4.001   9.104  0.2533  2.8386  0.4341
 3218SOL     OW21112   4.336   2.694   4.766 -0.3918  0.0386 -0.1499
 3218SOL    HW121113   4.260   2.745   4.793  0.8389  2.0469 -0.4389
 3218SOL    HW221114   4.305   2.637   4.696  0.8162  0.2821 -0.8748
 3219SOL     OW21115   0.968   0.651   7.059  0.1138  0.3407  0.3896
 3219SOL    HW121116   1.032   0.609   7.002 -1.8165  2.7149 -3.5623
 3219SOL    HW221117   0.930   0.715   6.999 -0.8616  0.3755  1.0290
 3220SOL     OW21118   1.681   2.672   4.058 -0.0865 -0.2155  0.1160
 3220SOL    HW121119   1.658   2.764   4.073 -0.5599 -0.0257 -1.7774
 3220SOL    HW221120   1.673   2.656   3.964  0.8218 -0.5627  0.0978
 3221SOL     OW21121   4.481   1.864   8.134 -0.1147  0.1177  0.0238
 3221SOL    HW121122   4.534   1.928   8.085 -0.8205  0.1353 -0.7198
 3221SOL    HW221123   4.447   1.908   8.212  2.1797 -2.8048  2.6638
 3222SOL     OW21124   4.201   2.932   8.533 -0.1094  0.0087  0.2810
 3222SOL    HW121125   4.284   2.914   8.488 -1.1663  1.4697 -2.2987
 3222SOL    HW221126   4.135   2.910   8.468  0.4489 -0.3715 -0.1578
 3223SOL     OW21127   2.935   2.319  12.623  0.3153 -0.0203  0.4125
 3223SOL    HW121128   2.865   2.286  12.680 -0.0887 -0.1130 -0.1383
 3223SOL    HW221129   2.983   2.238  12.605 -0.6221 -0.5671  0.3993
 3224SOL     OW21130   1.304   0.405   5.775 -0.4687 -0.4129  0.0661
 3224SOL    HW121131   1.326   0.495   5.799  0.1875 -1.0280  1.8212
 3224SOL    HW221132   1.378   0.379   5.721  0.0418 -0.3065  0.7178
 3225SOL     OW21133   2.142   2.254   0.611  0.0022 -0.8838 -0.4431
 3225SOL    HW121134   2.191   2.303   0.546  1.4996 -3.9216 -1.6043
 3225SOL    HW221135   2.068   2.243   0.552  0.3477 -0.7665 -0.8955
 3226SOL     OW21136   0.096   3.778  14.756 -0.0259 -0.5153  0.3749
 3226SOL    HW121137   0.162   3.816  14.814 -0.4474  0.8276 -0.0193
 3226SOL    HW221138   0.035   3.738  14.818  0.9801  0.0090  1.7100
 3227SOL     OW21139   2.329   4.484   1.955 -0.1764 -0.1759 -0.0877
 3227SOL    HW121140   2.263   4.456   1.890  1.5054  0.1975 -1.9540
 3227SOL    HW221141   2.268   4.515   2.022 -3.5438  1.4389 -3.8500
 3228SOL     OW21142   1.754   4.144   3.681  0.4529  0.1569 -0.0944
 3228SOL    HW121143   1.702   4.217   3.716  2.0369  0.1356  2.2744
 3228SOL    HW221144   1.702   4.076   3.723 -0.7593  0.4100 -1.1511
 3229SOL     OW21145   0.598   0.144  12.564 -0.2704 -0.1341 -0.6602
 3229SOL    HW121146   0.528   0.087  12.597 -2.1778  3.1609  0.9918
 3229SOL    HW221147   0.609   0.198  12.642 -0.7320  1.2057 -1.5367
 3230SOL     OW21148   2.262   0.412   4.544  0.1951  0.0545 -0.9391
 3230SOL    HW121149   2.292   0.498   4.514  1.2760 -0.4211 -1.2315
 3230SOL    HW221150   2.254   0.426   4.638  1.8705  0.7139 -0.8949
 3231SOL     OW21151   2.031   0.548   7.336  0.3820 -0.8793 -0.3466
 3231SOL    HW121152   2.086   0.476   7.366  0.6328  0.0272  1.4314
 3231SOL    HW221153   1.943   0.529   7.369  0.3395 -1.5763 -0.8736
 3232SOL     OW21154   3.287   4.242  12.253  0.1290 -0.1914  0.2277
 3232SOL    HW121155   3.280   4.245  12.158 -1.7453 -1.8223  0.3108
 3232SOL    HW221156   3.266   4.333  12.277 -0.7419 -0.2742 -0.2147
 3233SOL     OW21157   0.653   1.926   3.285  0.5377 -0.1404 -0.3178
 3233SOL    HW121158   0.613   2.000   3.239  1.2487 -0.1669 -0.9782
 3233SOL    HW221159   0.600   1.855   3.248 -1.3606  0.6945  0.7874
 3234SOL     OW21160   3.938   3.754   8.559  0.4100 -0.1486  0.0876
 3234SOL    HW121161   3.989   3.684   8.518 -0.7036 -1.5867  1.1771
 3234SOL    HW221162   3.962   3.830   8.504 -0.5881 -0.9647 -1.4870
 3235SOL     OW21163   1.210   0.947  12.259  0.4219  0.0711  0.0614
 3235SOL    HW121164   1.174   1.021  12.210 -3.4505 -1.1729  1.0432
 3235SOL    HW221165   1.249   0.995  12.331 -0.0532 -0.0808  0.4216
 3236SOL     OW21166   3.977   3.834  10.555  0.2048 -0.1420 -0.0207
 3236SOL    HW121167   3.966   3.851  10.649  1.1323 -0.0801  0.0809
 3236SOL    HW221168   3.890   3.841  10.517 -0.3736 -0.7528  1.1547
 3237SOL     OW21169   1.736   1.213   6.467 -0.2359 -0.7409  0.4566
 3237SOL    HW121170   1.764   1.267   6.541 -1.4629  1.9340 -1.0328
 3237SOL    HW221171   1.798   1.238   6.398 -0.5588 -0.2796  0.3313
 3238SOL     OW21172   1.663   1.250  11.294 -0.5531  0.2425  0.5034
 3238SOL    HW121173   1.648   1.328  11.348 -0.9271  0.3104  0.2986
 3238SOL    HW221174   1.695   1.288  11.213  1.2997 -0.1940  1.0190
 3239SOL     OW21175   1.431   2.564  11.823 -0.2289 -0.3899 -0.6495
 3239SOL    HW121176   1.363   2.500  11.800  0.8723 -2.3506  1.5107
 3239SOL    HW221177   1.511   2.512  11.828  0.6000  1.0144  0.7530
 3240SOL     OW21178   2.821   2.105   4.323 -0.3384 -0.3315  0.2684
 3240SOL    HW121179   2.784   2.021   4.349  0.7101  0.2681  3.7204
 3240SOL    HW221180   2.749   2.161   4.294 -0.2704 -0.7975 -0.8137
 3241SOL     OW21181   1.119   0.523  17.065  0.1059  0.1839  0.2711
 3241SOL    HW121182   1.027   0.536  17.039  0.6218  1.0183 -1.1847
 3241SOL    HW221183   1.155   0.573  16.992  2.8247  0.6236  1.9273
 3242SOL     OW21184   3.049   1.450   1.236  0.7123 -0.2306 -0.1397
 3242SOL    HW121185   3.065   1.398   1.157  2.0197  2.0152 -1.3453
 3242SOL    HW221186   3.024   1.533   1.197  1.3699 -0.6490 -1.4606
 3243SOL     OW21187   0.122   0.092  10.799 -0.2248  0.4676 -0.1964
 3243SOL    HW121188   0.130   0.180  10.835 -1.3097  1.2915 -1.9623
 3243SOL    HW221189   0.066   0.107  10.723  1.5307  0.4714 -1.4897
 3244SOL     OW21190   3.532   0.819   6.147 -0.2645 -0.3117 -0.2864
 3244SOL    HW121191   3.607   0.876   6.129 -0.9111  0.5901 -0.1578
 3244SOL    HW221192   3.543   0.783   6.234  2.5838  0.2750 -0.3989
 3245SOL     OW21193   2.124   2.131   8.452 -0.1365 -0.2536  0.8801
 3245SOL    HW121194   2.098   2.107   8.363 -1.0004  0.3741  0.9619
 3245SOL    HW221195   2.179   2.055   8.473  0.1340 -0.2096  0.3037
 3246SOL     OW21196   1.174   0.690  16.861  0.7852  0.0097 -0.1322
 3246SOL    HW121197   1.217   0.630  16.799 -1.0998 -1.4355 -0.0353
 3246SOL    HW221198   1.226   0.769  16.847  0.7303 -0.1729 -1.3576
 3247SOL     OW21199   3.802   2.087  14.295 -0.0174 -0.2118 -0.2647
 3247SOL    HW121200   3.761   2.121  14.375 -0.3517  1.6240 -1.2092
 3247SOL    HW221201   3.751   2.008  14.276 -1.9870  0.8777  0.3953
 3248SOL     OW21202   2.344   3.415   3.348 -0.2400  0.2119 -0.3637
 3248SOL    HW121203   2.377   3.472   3.278 -0.1701  0.5448 -0.0575
 3248SOL    HW221204   2.307   3.341   3.299 -0.3228 -0.4883  0.7514
 3249SOL     OW21205   1.688   1.075  16.832  0.3775  0.0369  0.0098
 3249SOL    HW121206   1.696   1.005  16.897 -2.4153  1.1989  1.6108
 3249SOL    HW221207   1.761   1.053  16.774 -1.4392 -2.3787 -1.3471
 3250SOL     OW21208   4.076   0.521   7.987 -0.8624 -0.5436  0.1048
 3250SOL    HW121209   4.063   0.550   8.078 -0.3944  0.8932 -0.2769
 3250SOL    HW221210   4.161   0.479   7.996 -0.1905  0.6598 -0.6070
 3251SOL     OW21211   2.503   2.064   2.051 -0.7718  1.1031 -0.1504
 3251SOL    HW121212   2.545   2.008   2.116  0.8157  1.1554 -1.1358
 3251SOL    HW221213   2.557   2.053   1.973 -0.3441 -0.3706  0.3468
 3252SOL     OW21214   2.331   1.720   6.413 -0.0466 -0.1689 -0.0111
 3252SOL    HW121215   2.239   1.738   6.396 -0.2349  0.4884  1.7524
 3252SOL    HW221216   2.328   1.625   6.427 -4.0370  0.1857  1.6421
 3253SOL     OW21217   0.860   1.018   2.715  0.5093 -0.0912 -0.3087
 3253SOL    HW121218   0.917   1.095   2.715  1.7205 -1.0010  0.2696
 3253SOL    HW221219   0.903   0.946   2.761  1.3698  0.3708 -0.3947
 3254SOL     OW21220   1.695   0.849   5.801  0.4326  0.6321 -0.5478
 3254SOL    HW121221   1.686   0.758   5.772 -3.6692  1.0414 -0.5760
 3254SOL    HW221222   1.726   0.839   5.891 -0.9571  1.4623  0.0174
 3255SOL     OW21223   4.048   2.009   9.995  0.1504  0.3354  0.1332
 3255SOL    HW121224   4.049   2.082  10.057  1.3631  0.8108 -0.4450
 3255SOL    HW221225   4.102   1.942  10.037  1.4114  1.6296  0.5411
 3256SOL     OW21226   2.486   0.830   6.963  0.0311 -0.2790 -0.1587
 3256SOL    HW121227   2.424   0.860   6.896 -0.9171 -0.8815  0.4441
 3256SOL    HW221228   2.445   0.863   7.043  0.7751 -1.2651  0.6335
 3257SOL     OW21229   2.942   4.614   6.019  0.5145 -0.1988  0.2510
 3257SOL    HW121230   2.868   4.670   5.998 -0.9647 -2.2509 -0.0620
 3257SOL    HW221231   2.897   4.530   6.027  0.0001  0.1477  1.0051
 3258SOL     OW21232   1.741   4.404  12.557 -0.3320  0.1457 -0.0668
 3258SOL    HW121233   1.805   4.395  12.485 -1.0195  1.0059 -0.7827
 3258SOL    HW221234   1.716   4.496  12.551 -1.8014 -0.4060 -2.2674
 3259SOL     OW21235   0.247   1.215   9.040 -0.1733 -0.1465 -0.2286
 3259SOL    HW121236   0.286   1.282   8.984 -0.3274  0.2712  0.1702
 3259SOL    HW221237   0.167   1.261   9.064 -0.0439  0.4248 -0.8901
 3260SOL     OW21238   2.977   3.086   4.048  0.1485  0.0119  0.5548
 3260SOL    HW121239   2.997   3.119   4.135  2.9671  1.1021 -0.5229
 3260SOL    HW221240   2.934   3.161   4.007  2.9110  0.5945 -1.2118
 3261SOL     OW21241   0.568   3.764   2.687  0.0703 -0.0765  0.2486
 3261SOL    HW121242   0.603   3.765   2.598  0.1189 -0.4233  0.2621
 3261SOL    HW221243   0.601   3.846   2.723 -0.7459 -0.1530  1.1610
 3262SOL     OW21244   1.167   0.585   6.823 -0.3260 -0.0007  0.7547
 3262SOL    HW121245   1.166   0.662   6.765  0.3179 -0.4155  0.1932
 3262SOL    HW221246   1.248   0.540   6.798 -0.9458 -1.7628  1.9606
 3263SOL     OW21247   0.884   0.067   2.008  0.2615  0.1019  0.2571
 3263SOL    HW121248   0.858   0.107   1.925  2.2173  0.4762 -0.1623
 3263SOL    HW221249   0.913   4.702   1.978 -0.9866 -1.2899  3.0969
 3264SOL     OW21250   2.450   4.009  16.958 -0.2336 -0.5822 -0.2269
 3264SOL    HW121251   2.524   4.059  16.993 -1.8562  1.4519  0.2505
 3264SOL    HW221252   2.441   4.062  16.879 -1.0324 -2.2342 -1.2306
 3265SOL     OW21253   1.790   0.684   3.517  0.2307 -0.1415  0.1342
 3265SOL    HW121254   1.863   0.701   3.457  0.8750 -0.8852  0.7014
 3265SOL    HW221255   1.762   0.597   3.489  0.7222  0.1103 -1.1303
 3266SOL     OW21256   0.092   0.096   4.050 -0.4226  0.4015 -0.0766
 3266SOL    HW121257   4.721   0.084   4.073  0.2180 -3.0420  0.6928
 3266SOL    HW221258   0.096   0.050   3.967 -0.2547 -0.1495  0.2417
 3267SOL     OW21259   1.181   3.032  13.455 -0.5490 -0.3268  0.6199
 3267SOL    HW121260   1.169   2.937  13.460 -0.4973 -0.4784 -1.9578
 3267SOL    HW221261   1.225   3.051  13.537  0.1346  1.4897 -0.1584
 3268SOL     OW21262   4.111   3.110  11.716 -0.0476 -0.4032 -0.7540
 3268SOL    HW121263   4.205   3.107  11.696 -0.0301  0.3243 -0.7952
 3268SOL    HW221264   4.078   3.024  11.689  0.8214 -0.1881 -2.5079
 3269SOL     OW21265   2.340   2.632  16.479 -0.0522  0.1401 -0.0557
 3269SOL    HW121266   2.331   2.698  16.548 -0.2282  1.1265 -1.0217
 3269SOL    HW221267   2.370   2.674  16.399 -3.2786  2.6206  0.0198
 3270SOL     OW21268   1.711   2.279   2.946 -0.2002 -0.0657  0.0636
 3270SOL    HW121269   1.769   2.350   2.921  0.4508 -0.2409  1.0630
 3270SOL    HW221270   1.776   2.209   2.955 -1.7375 -1.5955 -0.8686
 3271SOL     OW21271   3.260   3.286   9.589 -0.4009 -0.3304  0.7720
 3271SOL    HW121272   3.303   3.341   9.654 -2.2975  1.3241  0.6205
 3271SOL    HW221273   3.235   3.349   9.521 -1.3553  0.3269  1.7411
 3272SOL     OW21274   2.804   3.269   2.109 -0.0798 -0.0545 -0.3204
 3272SOL    HW121275   2.830   3.224   2.028 -0.4593  1.4475 -1.2871
 3272SOL    HW221276   2.842   3.354   2.088 -0.4771 -0.0138 -0.8939
 3273SOL     OW21277   0.042   1.190   3.864  0.2062  0.0822  0.3702
 3273SOL    HW121278   0.045   1.252   3.791 -0.9896  1.8247  1.8088
 3273SOL    HW221279   0.028   1.110   3.814 -2.2676 -0.2230  1.5955
 3274SOL     OW21280   3.697   2.690   8.494  0.5556  1.1828 -0.5072
 3274SOL    HW121281   3.620   2.653   8.537  0.2918  2.0723 -0.2147
 3274SOL    HW221282   3.683   2.783   8.478  1.4366  1.4350  0.1720
 3275SOL     OW21283   1.563   4.043  13.087 -0.5788 -0.2433 -0.3297
 3275SOL    HW121284   1.582   3.991  13.009  2.1144 -0.5945  0.5622
 3275SOL    HW221285   1.533   3.982  13.154 -0.4098 -0.7048 -0.6715
 3276SOL     OW21286   2.502   4.393  10.156 -0.5194 -0.0123  0.6054
 3276SOL    HW121287   2.441   4.456  10.195 -0.4978  0.2420  0.2251
 3276SOL    HW221288   2.585   4.411  10.200 -0.9236  1.1646  0.8769
 3277SOL     OW21289   3.301   2.908   2.470  0.1559  0.6855  0.1815
 3277SOL    HW121290   3.255   2.957   2.539  1.4461  1.0582  0.7643
 3277SOL    HW221291   3.360   2.980   2.450 -1.0120  1.0897 -1.8441
 3278SOL     OW21292   0.766   0.117  14.972  0.2171 -0.9362 -0.5835
 3278SOL    HW121293   0.803   0.195  14.931 -0.7745  0.6309  1.5228
 3278SOL    HW221294   0.674   0.136  14.953  0.2865  0.7133  0.7245
 3279SOL     OW21295   2.223   3.497   9.719  0.2681  0.6245 -0.4791
 3279SOL    HW121296   2.145   3.543   9.750  0.0311 -0.7735  0.9359
 3279SOL    HW221297   2.291   3.526   9.779 -0.7383  1.2622  0.3443
 3280SOL     OW21298   2.435   3.506   7.717  0.3761  0.1024 -0.4397
 3280SOL    HW121299   2.517   3.545   7.683 -0.0278  0.0545 -1.4676
 3280SOL    HW221300   2.367   3.565   7.685  2.5547  4.0260  2.0909
 3281SOL     OW21301   4.168   1.187  11.427 -0.3548 -0.7356  0.0064
 3281SOL    HW121302   4.110   1.136  11.483  0.8706 -1.4236  0.6572
 3281SOL    HW221303   4.118   1.267  11.410  2.0114  0.8667  0.4410
 3282SOL     OW21304   4.165   3.854  15.546  0.0244 -0.0326 -0.3285
 3282SOL    HW121305   4.179   3.918  15.476  0.6803  1.5034  1.2219
 3282SOL    HW221306   4.247   3.859  15.595 -1.3435  1.4266  1.8043
 3283SOL     OW21307   0.634   2.618  13.316  0.5791 -0.3595  0.5717
 3283SOL    HW121308   0.552   2.589  13.357  0.1709 -0.3963 -0.2707
 3283SOL    HW221309   0.607   2.704  13.285  2.0701  0.1354  0.6674
 3284SOL     OW21310   1.731   4.647   5.262 -0.1688  0.0533  0.2947
 3284SOL    HW121311   1.771   4.632   5.348  0.8676  0.7419 -0.0753
 3284SOL    HW221312   1.768   0.008   5.231  0.6964 -0.6924 -0.6080
 3285SOL     OW21313   0.803   3.048   6.831 -0.2195  0.1625 -0.4431
 3285SOL    HW121314   0.889   3.079   6.859  1.2881 -2.7631 -1.7744
 3285SOL    HW221315   0.780   3.122   6.776  0.4404  1.0257  0.4477
 3286SOL     OW21316   0.732   0.073   2.254 -0.4199  0.1187 -0.0895
 3286SOL    HW121317   0.640   0.083   2.230 -0.4870 -1.5160 -0.4915
 3286SOL    HW221318   0.772   0.080   2.167  0.2463 -3.5735 -0.0740
 3287SOL     OW21319   1.892   0.501   6.830  0.7928  0.0747  0.2995
 3287SOL    HW121320   1.822   0.503   6.895 -0.2300 -0.1288 -0.8009
 3287SOL    HW221321   1.916   0.593   6.815  0.7800  0.3309  1.8656
 3288SOL     OW21322   0.447   1.547   0.725 -0.1773 -0.3764 -0.0176
 3288SOL    HW121323   0.490   1.471   0.685 -0.7012 -0.4409 -0.4429
 3288SOL    HW221324   0.391   1.570   0.652 -2.7275  0.3486  2.1797
 3289SOL     OW21325   4.557   0.330   2.350 -0.6618  0.4284  0.5732
 3289SOL    HW121326   4.644   0.297   2.326 -0.7843 -0.1558  0.9471
 3289SOL    HW221327   4.503   0.280   2.288 -1.2894 -1.0607  2.3182
 3290SOL     OW21328   1.950   0.537  15.156  0.3139  0.2875 -0.3014
 3290SOL    HW121329   1.888   0.546  15.229  1.1960 -0.6571  0.5786
 3290SOL    HW221330   1.993   0.623  15.155  1.0481 -0.0478  1.9519
 3291SOL     OW21331   3.205   3.962   3.106  0.1259  0.7877  0.6120
 3291SOL    HW121332   3.136   3.896   3.099  0.7990  0.2795 -1.1548
 3291SOL    HW221333   3.275   3.926   3.051 -0.2458 -0.1588  0.7550
 3292SOL     OW21334   0.735   0.944   6.381  0.0309  0.4435  0.4495
 3292SOL    HW121335   0.779   1.009   6.436 -1.6711  0.5953  1.6180
 3292SOL    HW221336   0.792   0.873   6.410  2.1151  0.7529 -2.9855
 3293SOL     OW21337   4.500   0.422   6.980  0.2348 -0.0428  0.0787
 3293SOL    HW121338   4.548   0.474   6.916  1.4078 -2.1389 -0.7207
 3293SOL    HW221339   4.408   0.448   6.976  0.1705  0.0535  1.8356
 3294SOL     OW21340   0.136   0.891   4.532 -0.0123  0.2296  0.2973
 3294SOL    HW121341   0.137   0.875   4.626  0.7926  2.6836  0.6930
 3294SOL    HW221342   0.230   0.884   4.516  0.1101 -0.7574  1.4877
 3295SOL     OW21343   0.813   2.287   3.615 -0.3575  0.9822  0.2999
 3295SOL    HW121344   0.853   2.374   3.607  0.0810  0.6758 -0.7912
 3295SOL    HW221345   0.773   2.285   3.528  1.3065  1.1039 -0.4677
 3296SOL     OW21346   0.294   0.755   5.781 -0.1154  0.1332 -0.0186
 3296SOL    HW121347   0.346   0.720   5.709  0.4985 -2.7425  1.8384
 3296SOL    HW221348   0.361   0.791   5.840 -0.1630 -0.1368  0.1985
 3297SOL     OW21349   0.852   2.434   7.149 -0.2081 -0.5186  0.4358
 3297SOL    HW121350   0.861   2.524   7.117  1.4574 -0.7322  0.2953
 3297SOL    HW221351   0.927   2.387   7.112  1.9306  0.7641  3.2476
 3298SOL     OW21352   2.549   2.981  13.672  0.7339 -0.1883  0.3535
 3298SOL    HW121353   2.505   2.910  13.720 -0.8583  0.4849 -0.1078
 3298SOL    HW221354   2.518   2.975  13.582  0.8247  1.6437  0.1947
 3299SOL     OW21355   2.941   3.028  17.542 -0.0419  0.2365 -0.0734
 3299SOL    HW121356   3.007   3.049  17.476 -0.4658  0.8446 -0.2996
 3299SOL    HW221357   2.907   3.116  17.557  0.8383  0.4421  0.7777
 3300SOL     OW21358   3.366   2.723   2.181  0.4215 -0.9275  0.0136
 3300SOL    HW121359   3.301   2.738   2.113  0.3276  1.1067  0.5438
 3300SOL    HW221360   3.339   2.633   2.197 -0.0111 -0.5852  1.2578
 3301SOL     OW21361   1.496   2.218  10.053 -0.0163  0.1116  0.1640
 3301SOL    HW121362   1.545   2.136  10.036  0.2161  0.8403 -2.7682
 3301SOL    HW221363   1.536   2.274   9.987 -2.0658  1.9817  0.5406
 3302SOL     OW21364   3.848   1.083   2.419 -0.4459 -0.4185  0.5077
 3302SOL    HW121365   3.792   1.101   2.495  0.0276 -0.6493  0.9112
 3302SOL    HW221366   3.928   1.056   2.465 -0.3496  0.1640  0.6792
 3303SOL     OW21367   2.104   3.621  11.909 -0.2583  0.1940  0.3956
 3303SOL    HW121368   2.097   3.574  11.826  0.8781  0.3050  0.2469
 3303SOL    HW221369   2.197   3.632  11.925 -0.5637  2.7318  0.4260
 3304SOL     OW21370   3.301   4.702   6.544 -0.1138 -0.5564 -0.5100
 3304SOL    HW121371   3.255   4.627   6.583 -0.9282 -0.0597 -0.5226
 3304SOL    HW221372   3.392   4.675   6.540  0.4697  1.6137 -1.6690
 3305SOL     OW21373   4.513   2.752   1.059  0.2292 -0.0975 -0.5278
 3305SOL    HW121374   4.418   2.743   1.055  0.4058 -2.0761 -0.0510
 3305SOL    HW221375   4.527   2.663   1.089 -1.1637 -0.7219 -1.7455
 3306SOL     OW21376   1.238   3.538   0.358  0.2331 -0.1899 -0.4274
 3306SOL    HW121377   1.250   3.487   0.277  1.5300 -0.0100 -0.3558
 3306SOL    HW221378   1.146   3.517   0.374 -0.0094  0.7012 -0.6510
 3307SOL     OW21379   3.102   4.703   3.979  0.0589 -0.4747  0.4458
 3307SOL    HW121380   3.167   0.026   4.034 -0.7970 -0.0407  1.1205
 3307SOL    HW221381   3.083   4.632   4.039 -0.9828 -0.5593  0.0054
 3308SOL     OW21382   4.527   3.109   7.197 -0.2729 -0.1540  0.0453
 3308SOL    HW121383   4.468   3.101   7.122  0.0416 -1.7692 -0.0278
 3308SOL    HW221384   4.493   3.185   7.244 -0.4733  1.6426 -3.0282
 3309SOL     OW21385   3.387   4.149   6.258 -0.3116 -0.1545  0.0669
 3309SOL    HW121386   3.471   4.127   6.218 -0.5881 -0.0985 -0.5475
 3309SOL    HW221387   3.423   4.175   6.342  0.1054  0.3041 -0.2569
 3310SOL     OW21388   4.347   2.003   3.434  0.1374 -0.2943  0.1628
 3310SOL    HW121389   4.389   1.943   3.373  0.6941  0.3240 -0.0571
 3310SOL    HW221390   4.417   2.046   3.482 -0.2303 -0.1144  0.5388
 3311SOL     OW21391   4.669   1.631  16.736  0.4335 -0.5051 -0.5318
 3311SOL    HW121392   4.586   1.638  16.783 -0.0772  0.6481 -1.5898
 3311SOL    HW221393   4.653   1.692  16.664 -1.0782  0.4982  0.6726
 3312SOL     OW21394   0.027   4.665   9.887  0.1364  0.0966 -0.5683
 3312SOL    HW121395   0.024   4.571   9.900  0.8446  0.0007 -1.1566
 3312SOL    HW221396   0.024   4.696   9.978  0.5680 -0.2041 -0.4541
 3313SOL     OW21397   0.822   1.299   7.544  0.0079  0.0872  0.1318
 3313SOL    HW121398   0.752   1.310   7.608  0.3776 -0.3983  0.6177
 3313SOL    HW221399   0.831   1.390   7.513  0.0412  0.3723  0.9684
 3314SOL     OW21400   0.961   3.950   6.555  0.0344  0.1119 -0.1086
 3314SOL    HW121401   0.886   3.947   6.615 -0.9846  2.2148 -1.2633
 3314SOL    HW221402   0.912   3.953   6.473 -0.8840 -0.2859  0.4162
 3315SOL     OW21403   1.190   0.957   3.974 -0.3605 -0.9289  0.2895
 3315SOL    HW121404   1.244   1.018   4.024 -0.3521 -0.5362 -0.1877
 3315SOL    HW221405   1.218   0.871   4.002 -0.8766 -0.6507  1.6383
 3316SOL     OW21406   3.874   1.171  15.099 -0.0631 -0.3598 -0.2018
 3316SOL    HW121407   3.802   1.233  15.088  0.3430 -0.2256 -2.0104
 3316SOL    HW221408   3.893   1.144  15.009  0.6797 -1.3313  0.2393
 3317SOL     OW21409   2.994   1.672   4.258 -0.0911  0.0729 -0.2292
 3317SOL    HW121410   2.994   1.591   4.310 -1.1178  0.4573  0.3787
 3317SOL    HW221411   2.985   1.740   4.324 -0.0789 -0.2135  0.0686
 3318SOL     OW21412   1.689   3.010   2.771  0.5172  0.1953 -0.2572
 3318SOL    HW121413   1.665   2.949   2.841 -0.6882  2.4725  1.3195
 3318SOL    HW221414   1.716   3.089   2.818 -0.2113  0.9446 -1.1053
 3319SOL     OW21415   3.396   2.000  10.423 -0.5360 -0.0565  0.2383
 3319SOL    HW121416   3.424   1.961  10.506  0.0223  0.9754  0.5248
 3319SOL    HW221417   3.426   2.089  10.440  2.3815 -0.7273 -1.4517
 3320SOL     OW21418   2.683   2.289   1.493 -0.1256  0.9545  0.0367
 3320SOL    HW121419   2.743   2.280   1.418  1.0937  0.4959  1.0665
 3320SOL    HW221420   2.709   2.210   1.540 -0.8276  1.2292  0.8774
 3321SOL     OW21421   3.240   3.280   3.047 -0.0550  0.2740 -0.1948
 3321SOL    HW121422   3.198   3.280   3.133  1.0262  0.5477  0.3329
 3321SOL    HW221423   3.311   3.340   3.070 -0.0469 -0.1935  0.9938
 3322SOL     OW21424   0.371   3.247  11.673 -0.0958 -0.2165  0.3716
 3322SOL    HW121425   0.344   3.245  11.581 -0.7699  0.2542  0.5536
 3322SOL    HW221426   0.456   3.206  11.660  0.4770  0.9967  0.3325
 3323SOL     OW21427   0.980   0.172  15.905  0.0672  0.1717 -0.1947
 3323SOL    HW121428   0.926   0.218  15.969 -0.0267 -2.8689  1.8919
 3323SOL    HW221429   0.924   0.157  15.828 -0.7275 -2.3999  0.8713
 3324SOL     OW21430   3.688   4.615   3.019 -0.6621  0.1359  0.0947
 3324SOL    HW121431   3.649   4.534   3.051 -1.1350  0.4437  0.2926
 3324SOL    HW221432   3.707   4.668   3.096  0.2132  1.2032 -0.8565
 3325SOL     OW21433   1.976   1.785  14.874  0.1159 -0.0715  0.5140
 3325SOL    HW121434   1.954   1.699  14.908 -1.4707  1.0911  2.4134
 3325SOL    HW221435   2.011   1.820  14.956 -0.3436 -1.3170  1.2360
 3326SOL     OW21436   2.164   4.528   8.294  0.1165 -0.2864 -0.0944
 3326SOL    HW121437   2.126   4.538   8.381 -1.2668  1.8687 -0.9632
 3326SOL    HW221438   2.243   4.579   8.308 -1.6861  2.3447  0.3937
 3327SOL     OW21439   1.697   1.431   4.440  0.2843  0.1350 -0.5661
 3327SOL    HW121440   1.773   1.376   4.421 -0.7483 -1.6733  0.5243
 3327SOL    HW221441   1.697   1.472   4.353 -0.7551 -2.5263 -1.8099
 3328SOL     OW21442   1.023   0.706   9.120  0.2015  0.3433  0.5286
 3328SOL    HW121443   0.969   0.739   9.047 -0.3645 -3.1275 -0.6052
 3328SOL    HW221444   0.959   0.658   9.172 -1.5967  2.5326  0.4010
 3329SOL     OW21445   1.727   3.686   8.399 -0.1101 -0.0852 -0.4485
 3329SOL    HW121446   1.672   3.652   8.470  2.8561 -3.2396  0.3095
 3329SOL    HW221447   1.785   3.740   8.452 -0.7252 -0.8722  1.0527
 3330SOL     OW21448   1.864   3.839   2.248 -0.1344  0.1354  0.2236
 3330SOL    HW121449   1.924   3.896   2.295  0.0163  0.1441  0.0226
 3330SOL    HW221450   1.805   3.809   2.318 -0.0087 -1.4497 -0.3444
 3331SOL     OW21451   3.369   1.619   6.818 -0.9274  0.2240 -0.1817
 3331SOL    HW121452   3.456   1.660   6.811 -0.6094 -0.2887  0.7587
 3331SOL    HW221453   3.334   1.656   6.899  1.2704  1.9886 -0.0105
 3332SOL     OW21454   4.403   0.990   5.055 -0.3830  0.6346 -0.5690
 3332SOL    HW121455   4.426   1.079   5.027  1.4542  0.6361  0.9871
 3332SOL    HW221456   4.448   0.934   4.992  0.7481 -1.6705  2.3278
 3333SOL     OW21457   1.878   3.812   6.190 -0.2919  0.2270 -0.2242
 3333SOL    HW121458   1.947   3.746   6.197  1.3410  1.8793 -0.6838
 3333SOL    HW221459   1.810   3.765   6.237 -0.8586  1.5265  0.2387
 3334SOL     OW21460   2.279   4.123   6.038 -0.2015 -0.0710  0.5177
 3334SOL    HW121461   2.357   4.074   6.062 -0.3169  0.2468  1.5425
 3334SOL    HW221462   2.206   4.070   6.070  0.6908 -0.4576  1.8771
 3335SOL     OW21463   3.830   0.261  12.621 -0.2372 -0.4223 -0.0271
 3335SOL    HW121464   3.835   0.312  12.540 -0.5708 -0.9062 -0.3509
 3335SOL    HW221465   3.774   0.192  12.585 -1.6963  1.0547 -0.5484
 3336SOL     OW21466   1.397   0.132  13.034 -0.0482 -0.1303  0.4659
 3336SOL    HW121467   1.454   0.158  13.106  0.1315 -0.4275  0.4294
 3336SOL    HW221468   1.463   0.125  12.966  0.2966 -1.1889  0.9078
 3337SOL     OW21469   2.446   2.590  13.458  0.1826 -0.5171 -0.3188
 3337SOL    HW121470   2.522   2.595  13.401  0.7372 -1.0037  0.3699
 3337SOL    HW221471   2.392   2.653  13.412  1.6997  1.4938  0.6572
 3338SOL     OW21472   0.586   0.218   1.117 -0.4398  1.1380 -0.2205
 3338SOL    HW121473   0.634   0.278   1.059 -0.0844  1.3247  0.2690
 3338SOL    HW221474   0.626   0.248   1.198  3.2805 -2.2707 -0.8315
 3339SOL     OW21475   2.551   0.244  17.113  0.8260  0.6277 -0.2346
 3339SOL    HW121476   2.542   0.207  17.025 -2.5645 -1.0040  0.7749
 3339SOL    HW221477   2.466   0.287  17.122  1.2978  1.3506  0.7211
 3340SOL     OW21478   2.776   2.786   7.572 -0.2810 -0.7778 -0.2194
 3340SOL    HW121479   2.805   2.725   7.640 -0.9149 -0.4821  0.3156
 3340SOL    HW221480   2.801   2.867   7.615 -1.5879 -0.1973 -0.5602
 3341SOL     OW21481   2.396   4.349   0.553 -0.2743 -0.1683 -0.0793
 3341SOL    HW121482   2.374   4.326   0.643 -0.9774 -0.3826 -0.3109
 3341SOL    HW221483   2.487   4.368   0.577 -0.8017  0.8374  1.0929
 3342SOL     OW21484   2.452   0.545   7.267 -0.3948 -0.3489  0.6985
 3342SOL    HW121485   2.395   0.608   7.312  1.0970  0.2126  1.7910
 3342SOL    HW221486   2.392   0.472   7.260 -0.1357 -0.7037  2.1733
 3343SOL     OW21487   3.067   2.348  17.346  0.1003 -0.0113 -0.2834
 3343SOL    HW121488   3.055   2.370  17.254 -1.2284  3.1971  0.6827
 3343SOL    HW221489   3.009   2.412  17.388 -1.7733 -1.4639 -0.6609
 3344SOL     OW21490   3.305   2.867   0.866  0.1812  0.3143  0.0219
 3344SOL    HW121491   3.241   2.931   0.833 -0.0470 -1.3079 -2.6235
 3344SOL    HW221492   3.384   2.898   0.823  1.0355 -2.1590 -0.1655
 3345SOL     OW21493   1.247   3.151  14.611 -0.6067 -0.4314 -0.1677
 3345SOL    HW121494   1.195   3.196  14.678 -0.0905  0.6620 -0.4964
 3345SOL    HW221495   1.174   3.107  14.568  0.5475 -1.1570 -1.3634
 3346SOL     OW21496   2.160   3.475  12.315  0.1183  0.1023  0.4684
 3346SOL    HW121497   2.251   3.502  12.302 -0.8037  2.5204 -0.8377
 3346SOL    HW221498   2.139   3.450  12.224  0.1895  0.6634  0.2988
 3347SOL     OW21499   1.878   0.742   7.686  0.4954 -0.2956 -0.7206
 3347SOL    HW121500   1.853   0.661   7.640 -0.1339 -0.5956  0.1491
 3347SOL    HW221501   1.964   0.758   7.647  0.4250  0.9685 -0.3496
 3348SOL     OW21502   3.791   1.653   9.240 -0.1970 -0.0787 -0.0093
 3348SOL    HW121503   3.881   1.623   9.254 -1.0650 -2.1503  1.1048
 3348SOL    HW221504   3.791   1.747   9.220  0.9055  0.7010  3.7737
 3349SOL     OW21505   0.236   4.578   1.146  0.3155  0.0731 -0.3547
 3349SOL    HW121506   0.258   4.671   1.151  1.0793 -0.0560 -1.3016
 3349SOL    HW221507   0.221   4.569   1.052  0.4620  2.7034 -0.6175
 3350SOL     OW21508   4.345   0.953  15.417  0.5803 -0.4320 -0.1551
 3350SOL    HW121509   4.368   1.046  15.419 -0.9978 -0.0362 -1.0962
 3350SOL    HW221510   4.250   0.960  15.427  1.0224  3.4629  1.3217
 3351SOL     OW21511   3.770   4.008   4.526  0.2453  0.0381 -0.6239
 3351SOL    HW121512   3.800   4.083   4.578  3.5443 -0.8439 -1.2420
 3351SOL    HW221513   3.857   3.986   4.491  0.8195  0.7386  0.3702
 3352SOL     OW21514   3.048   2.707   7.341 -0.4257  0.1935  0.4654
 3352SOL    HW121515   3.086   2.795   7.331  0.6052 -0.2280  0.6299
 3352SOL    HW221516   2.956   2.721   7.318 -0.6097 -0.7162  0.6452
 3353SOL     OW21517   3.384   4.463   4.782 -0.2833  0.1489  0.1277
 3353SOL    HW121518   3.440   4.406   4.835  0.3445  1.0353  0.4053
 3353SOL    HW221519   3.310   4.405   4.764 -0.0722 -0.5845  1.6081
 3354SOL     OW21520   1.047   0.801   0.904 -0.2793 -0.4595  0.3835
 3354SOL    HW121521   0.953   0.801   0.921 -0.2056 -1.6907  0.8078
 3354SOL    HW221522   1.049   0.735   0.835 -0.0197 -0.0591  0.0053
 3355SOL     OW21523   4.079   3.517  14.680 -0.1891 -0.0131  0.1577
 3355SOL    HW121524   4.141   3.527  14.752 -1.7913 -2.1718  1.8470
 3355SOL    HW221525   4.044   3.428  14.687 -0.4434  0.2274  1.9792
 3356SOL     OW21526   0.622   4.311  16.099  0.0108  0.2496 -0.3123
 3356SOL    HW121527   0.534   4.309  16.136  0.8275  2.2310  1.7682
 3356SOL    HW221528   0.675   4.316  16.179  0.6707  0.8077 -0.7772
 3357SOL     OW21529   2.012   3.408  17.258  0.4099 -0.0764 -0.0892
 3357SOL    HW121530   2.027   3.470  17.186 -0.0461 -1.0535 -1.0122
 3357SOL    HW221531   1.922   3.381  17.238  1.0781  0.0448 -3.2182
 3358SOL     OW21532   3.105   4.017  11.691 -0.2002  0.1095  0.4288
 3358SOL    HW121533   3.026   3.972  11.723 -0.4649  0.3838  0.1560
 3358SOL    HW221534   3.079   4.108  11.704  3.9747  1.3561  0.0270
 3359SOL     OW21535   0.212   3.618   8.522  0.2943 -0.3903 -0.0700
 3359SOL    HW121536   0.294   3.621   8.472  0.0709 -1.2992 -0.4811
 3359SOL    HW221537   0.226   3.530   8.556  1.0577 -1.7361 -3.8341
 3360SOL     OW21538   2.150   2.272   6.678 -0.1448 -0.0148 -0.6981
 3360SOL    HW121539   2.207   2.213   6.728 -2.6765 -1.3213  0.6537
 3360SOL    HW221540   2.077   2.278   6.739  0.6489 -1.2836  0.3972
 3361SOL     OW21541   1.927   0.796  15.071  0.0463 -0.2953  0.1965
 3361SOL    HW121542   1.860   0.792  15.003  1.4802 -1.7432 -1.0894
 3361SOL    HW221543   1.896   0.872  15.121 -0.1066  0.2137 -0.6736
 3362SOL     OW21544   3.190   1.320   5.087  1.0934 -0.1700 -0.9727
 3362SOL    HW121545   3.149   1.325   5.001  0.5059 -0.7449 -0.7185
 3362SOL    HW221546   3.193   1.410   5.119 -1.6735  0.0144 -1.2601
 3363SOL     OW21547   0.777   1.119   8.037 -0.0503 -0.4971 -0.0213
 3363SOL    HW121548   0.829   1.180   8.089  0.3408 -0.4584 -0.4569
 3363SOL    HW221549   0.691   1.155   8.058 -0.2394 -0.9452 -0.0197
 3364SOL     OW21550   1.453   2.983   2.962  0.1656 -0.6520  0.2306
 3364SOL    HW121551   1.382   3.003   2.900  1.2846 -0.7830 -1.1049
 3364SOL    HW221552   1.491   3.068   2.980  2.5698 -1.4714 -0.9190
 3365SOL     OW21553   4.211   2.863   7.441 -0.7864 -0.0083  0.4163
 3365SOL    HW121554   4.179   2.819   7.362 -0.3270  1.0835 -0.3902
 3365SOL    HW221555   4.244   2.793   7.497 -3.0731 -0.2274  1.4849
 3366SOL     OW21556   0.049   1.608   7.928 -0.3033 -0.2351  0.1005
 3366SOL    HW121557   4.697   1.546   7.934 -1.4163  0.7734 -3.1018
 3366SOL    HW221558   0.079   1.599   8.018 -0.7406 -0.1692  0.2567
 3367SOL     OW21559   3.923   3.708  15.540  0.2396 -0.1436 -0.0129
 3367SOL    HW121560   3.975   3.788  15.540 -0.3750  0.2474  0.5149
 3367SOL    HW221561   3.985   3.644  15.576  1.2165  0.2846 -0.9302
 3368SOL     OW21562   4.543   3.857   7.356 -0.0279  0.1960 -0.5309
 3368SOL    HW121563   4.572   3.812   7.435 -1.3302 -1.0615 -0.7771
 3368SOL    HW221564   4.600   3.934   7.346  0.8270  0.2213  4.4715
 3369SOL     OW21565   4.343   1.575   3.549 -0.0915 -0.0046  0.1418
 3369SOL    HW121566   4.280   1.618   3.492  1.5526  1.4681 -0.5722
 3369SOL    HW221567   4.350   1.493   3.500  2.6434  0.3207 -0.0442
 3370SOL     OW21568   3.617   0.930   5.616  0.4313  0.5415  0.1259
 3370SOL    HW121569   3.643   0.858   5.674 -0.2042 -0.5064 -0.8894
 3370SOL    HW221570   3.541   0.956   5.668 -1.0404 -2.3546 -0.5508
 3371SOL     OW21571   1.246   1.815  15.043 -0.1002 -0.2197 -0.0168
 3371SOL    HW121572   1.337   1.838  15.024  0.8681 -2.3741  2.0669
 3371SOL    HW221573   1.213   1.904  15.056  1.6491  0.2632  1.0765
 3372SOL     OW21574   1.037   2.743   7.748  0.0478 -0.1676 -0.8511
 3372SOL    HW121575   1.042   2.730   7.843  0.5359  1.8477 -0.5983
 3372SOL    HW221576   1.129   2.762   7.733  0.8755 -1.4330  2.6489
 3373SOL     OW21577   2.253   0.411   6.044  0.7405 -0.2573 -0.2860
 3373SOL    HW121578   2.197   0.396   6.121  0.2935  1.5931 -0.2562
 3373SOL    HW221579   2.260   0.324   6.005 -0.3758 -2.1353  3.6783
 3374SOL     OW21580   1.115   3.661   5.599 -0.0340  0.5279  0.1657
 3374SOL    HW121581   1.132   3.755   5.590  0.6426  0.2545 -1.4677
 3374SOL    HW221582   1.185   3.618   5.549 -0.6426  1.2131 -1.2867
 3375SOL     OW21583   0.516   3.574   5.383 -0.0780  0.0542 -0.2614
 3375SOL    HW121584   0.461   3.559   5.306 -2.4599  0.6894  1.3202
 3375SOL    HW221585   0.461   3.598   5.457 -0.4027  2.0990 -1.1738
 3376SOL     OW21586   2.723   1.101   7.031 -0.1759  0.4799 -0.2178
 3376SOL    HW121587   2.650   1.142   7.079  0.6351  1.1786  0.4071
 3376SOL    HW221588   2.704   1.131   6.942  0.4710 -1.3387 -0.9595
 3377SOL     OW21589   4.290   3.307   4.583  0.3267 -0.2143  0.3095
 3377SOL    HW121590   4.358   3.342   4.640  0.8884 -2.5173  1.0620
 3377SOL    HW221591   4.335   3.230   4.548  0.7195 -0.2927  0.9931
 3378SOL     OW21592   1.416   4.293   9.356 -0.2720  0.4825  0.5360
 3378SOL    HW121593   1.443   4.347   9.282 -1.3842 -1.7676 -1.5148
 3378SOL    HW221594   1.323   4.314   9.353 -0.4661 -0.0628  2.4129
 3379SOL     OW21595   3.399   1.948   4.466  0.3267  0.1554  0.0976
 3379SOL    HW121596   3.494   1.964   4.461  0.1688  1.7702  2.2853
 3379SOL    HW221597   3.374   1.876   4.409  0.9107  1.3046 -1.5959
 3380SOL     OW21598   1.912   2.321   0.859  0.2718  0.2843  0.2208
 3380SOL    HW121599   1.878   2.409   0.846  0.4068  0.4470  0.9552
 3380SOL    HW221600   1.922   2.289   0.770 -1.8623  2.8336 -0.9429
 3381SOL     OW21601   1.710   3.972  15.468  0.5749 -0.1759  0.0004
 3381SOL    HW121602   1.628   4.013  15.441  0.5192 -0.0269  0.4025
 3381SOL    HW221603   1.675   3.934  15.548  1.3963 -1.7828 -0.3956
 3382SOL     OW21604   3.486   3.101   5.660 -0.0520 -0.4819  0.8742
 3382SOL    HW121605   3.506   3.139   5.574 -1.0917 -0.7970  0.4939
 3382SOL    HW221606   3.433   3.028   5.628  0.0400  0.0507 -0.5125
 3383SOL     OW21607   4.334   4.551   2.477  0.0051 -0.1142 -0.4695
 3383SOL    HW121608   4.354   4.640   2.505 -0.5935 -0.2121  0.2557
 3383SOL    HW221609   4.257   4.568   2.424 -0.8265 -1.5438  0.2713
 3384SOL     OW21610   1.682   0.796   8.219 -0.0306 -0.2616  0.2113
 3384SOL    HW121611   1.594   0.767   8.194  0.5727 -2.7482  0.9140
 3384SOL    HW221612   1.669   0.840   8.303 -0.2372 -1.0667  0.6012
 3385SOL     OW21613   0.152   4.439  17.108  0.4052 -0.1123  0.1514
 3385SOL    HW121614   0.209   4.516  17.105  0.5846 -0.2275  0.6511
 3385SOL    HW221615   0.205   4.377  17.058  1.1164  0.6749 -0.0813
 3386SOL     OW21616   3.052   0.536   9.419 -0.0772  0.0055 -0.0046
 3386SOL    HW121617   3.130   0.510   9.467  0.3724 -3.0907 -2.4094
 3386SOL    HW221618   3.004   0.453   9.421 -0.6671  0.3090 -1.1500
 3387SOL     OW21619   0.623   1.713  13.470 -0.3679 -0.0339  0.6543
 3387SOL    HW121620   0.582   1.649  13.529  1.0479 -0.1972  1.4610
 3387SOL    HW221621   0.633   1.660  13.391  0.4332 -0.2594  0.9052
 3388SOL     OW21622   0.900   2.233   3.314 -0.5100 -0.5947 -0.1870
 3388SOL    HW121623   0.809   2.243   3.341 -0.9078 -0.2035 -1.6706
 3388SOL    HW221624   0.932   2.150   3.351  1.6290  1.1151  1.7986
 3389SOL     OW21625   0.154   1.419  16.666  0.2982 -0.5286  0.8532
 3389SOL    HW121626   0.079   1.478  16.669  0.1388 -0.6896 -0.0241
 3389SOL    HW221627   0.205   1.471  16.604  0.7006 -2.0681 -0.1219
 3390SOL     OW21628   1.484   3.903   4.556  0.1487 -0.1111  0.3048
 3390SOL    HW121629   1.401   3.856   4.556 -0.8301  1.5932 -1.6528
 3390SOL    HW221630   1.468   3.958   4.479 -1.1428 -1.2462 -0.2317
 3391SOL     OW21631   2.938   4.705   6.959 -0.4953 -0.3089 -0.5326
 3391SOL    HW121632   2.934   0.057   6.897 -0.5357 -0.5626 -0.8315
 3391SOL    HW221633   2.941   0.031   7.042  1.2038 -0.4093 -0.5461
 3392SOL     OW21634   1.390   1.266   6.052 -0.1735 -0.4007  0.6137
 3392SOL    HW121635   1.396   1.196   5.987 -0.0435  1.3588 -1.2752
 3392SOL    HW221636   1.476   1.305   6.040 -0.9187  0.2906 -2.5792
 3393SOL     OW21637   2.256   2.092   8.754 -0.5271  0.0869  0.5649
 3393SOL    HW121638   2.217   2.178   8.773 -1.6421  0.0678 -1.6759
 3393SOL    HW221639   2.219   2.036   8.822  0.1121 -0.0352  0.8119
 3394SOL     OW21640   3.973   4.268  13.857  0.2249  0.1720 -0.3719
 3394SOL    HW121641   3.947   4.360  13.866  0.6311  0.2915 -0.4015
 3394SOL    HW221642   3.910   4.222  13.802 -0.4224  0.9148 -0.2442
 3395SOL     OW21643   3.756   2.854  14.157  0.0047 -0.2805  0.2497
 3395SOL    HW121644   3.699   2.801  14.101  0.0236 -0.2316  0.1843
 3395SOL    HW221645   3.722   2.938  14.126  2.6029  0.1584 -1.4369
 3396SOL     OW21646   2.007   4.398   7.444 -0.0588 -0.3184  0.0011
 3396SOL    HW121647   2.043   4.412   7.356  0.2696 -2.1657 -0.1504
 3396SOL    HW221648   1.963   4.483   7.448  1.5192  0.4803  0.4959
 3397SOL     OW21649   2.138   2.641   9.652  0.5362 -0.5316  0.2173
 3397SOL    HW121650   2.218   2.630   9.704  0.7945 -0.7173 -0.2193
 3397SOL    HW221651   2.174   2.579   9.589  4.8005  1.4355  0.6857
 3398SOL     OW21652   3.580   0.271  17.649  0.0479  0.5120  0.1046
 3398SOL    HW121653   3.531   0.238   0.038 -0.6588 -0.8044 -0.9145
 3398SOL    HW221654   3.657   0.310   0.004  0.5520  0.2004 -0.5239
 3399SOL     OW21655   0.111   0.370   6.799 -0.2224 -0.1023  0.4951
 3399SOL    HW121656   0.120   0.276   6.786 -1.4617 -0.1218 -0.1436
 3399SOL    HW221657   0.195   0.400   6.763  0.2596 -1.7572  0.2578
 3400SOL     OW21658   1.742   2.857  13.655 -0.2186  0.1480 -0.2384
 3400SOL    HW121659   1.786   2.809  13.585  0.5866 -1.1225  1.1475
 3400SOL    HW221660   1.815   2.907  13.692  0.9140  1.4763 -4.2086
 3401SOL     OW21661   4.289   2.689  10.177  0.2313 -0.0028 -0.4407
 3401SOL    HW121662   4.330   2.750  10.238 -2.7789  1.2904  0.3281
 3401SOL    HW221663   4.337   2.707  10.097 -1.4756 -0.3378 -1.5498
 3402SOL     OW21664   1.123   1.682   5.534 -0.6308  0.1724 -0.4191
 3402SOL    HW121665   1.035   1.685   5.494 -0.9981  2.2720  0.5216
 3402SOL    HW221666   1.165   1.646   5.456 -0.2878 -2.4397  1.0052
 3403SOL     OW21667   1.686   2.985  11.152 -0.7131  0.3044  0.4205
 3403SOL    HW121668   1.741   3.055  11.117 -0.0662 -1.4239 -1.9859
 3403SOL    HW221669   1.655   2.946  11.070  0.0967  0.2673  0.1309
 3404SOL     OW21670   2.031   3.428   9.327 -0.2421 -0.6180  0.3910
 3404SOL    HW121671   2.023   3.375   9.406  0.9839 -0.5823  0.5262
 3404SOL    HW221672   2.061   3.511   9.363 -1.3344  0.5205 -1.2617
 3405SOL     OW21673   2.589   3.044  10.537  0.0075 -0.5630 -0.3497
 3405SOL    HW121674   2.658   3.054  10.603 -1.5530 -0.2489  1.2149
 3405SOL    HW221675   2.527   2.988  10.585  2.0550 -0.7266  2.1117
 3406SOL     OW21676   2.793   4.493   7.607  0.3650  0.0819 -0.0938
 3406SOL    HW121677   2.870   4.532   7.648  0.1241 -0.6284  1.0270
 3406SOL    HW221678   2.719   4.499   7.667 -1.6238 -1.2481 -2.4266
 3407SOL     OW21679   2.612   2.797  16.730  0.5035 -0.4947  0.5775
 3407SOL    HW121680   2.616   2.892  16.717  1.2093 -0.5223  0.5518
 3407SOL    HW221681   2.706   2.781  16.740  0.5994 -0.2317  0.1101
 3408SOL     OW21682   2.098   1.252   5.933 -0.7104 -0.0345 -0.1128
 3408SOL    HW121683   2.085   1.322   5.869  3.3454 -0.2272 -1.2043
 3408SOL    HW221684   2.010   1.243   5.968 -1.4426  1.0908 -1.6651
 3409SOL     OW21685   0.889   0.345   7.111  0.3375 -0.6839  0.0250
 3409SOL    HW121686   0.808   0.301   7.137  0.8884 -0.2239  2.4635
 3409SOL    HW221687   0.881   0.435   7.144  0.0645 -0.5518 -0.4066
 3410SOL     OW21688   0.902   3.868   3.449  0.5964  0.0337  0.6327
 3410SOL    HW121689   0.951   3.861   3.367  1.7599 -1.6798  1.4591
 3410SOL    HW221690   0.813   3.883   3.418  0.5840  0.8547  1.0653
 3411SOL     OW21691   2.871   4.063  13.256 -0.9255 -0.0723 -0.2164
 3411SOL    HW121692   2.788   4.103  13.281 -0.8280 -0.5414  0.8337
 3411SOL    HW221693   2.845   3.971  13.269  1.5724 -0.8076 -0.3327
 3412SOL     OW21694   2.228   3.074   9.690 -0.1406  0.0368  0.3801
 3412SOL    HW121695   2.304   3.060   9.633 -2.0508 -2.3465 -1.6057
 3412SOL    HW221696   2.179   2.993   9.669 -0.8298 -0.1043  2.5806
 3413SOL     OW21697   4.701   1.043   9.598 -0.4476 -0.5849 -0.5456
 3413SOL    HW121698   0.071   1.053   9.625 -0.5204  1.8651 -1.1575
 3413SOL    HW221699   4.647   1.038   9.677  1.2198 -2.3312  0.4939
 3414SOL     OW21700   0.855   3.641   6.391  0.2313 -0.2465 -0.2037
 3414SOL    HW121701   0.906   3.711   6.350 -0.7041  0.7750  0.3874
 3414SOL    HW221702   0.769   3.682   6.401  0.4039 -0.5324  2.3806
 3415SOL     OW21703   4.417   4.048  13.994 -0.2813 -0.2782  0.1104
 3415SOL    HW121704   4.491   3.991  13.975 -1.4954 -1.7426 -0.2543
 3415SOL    HW221705   4.465   4.124  14.025 -0.9147  1.0768 -2.2188
 3416SOL     OW21706   0.477   1.935   6.690  0.6045  0.0182  0.4036
 3416SOL    HW121707   0.548   1.891   6.644 -1.4208 -0.2594 -2.4536
 3416SOL    HW221708   0.449   1.999   6.625  0.0613  1.0157  1.6097
 3417SOL     OW21709   3.800   4.543   5.128  0.2417  0.2909 -0.0982
 3417SOL    HW121710   3.770   4.509   5.212 -0.5777 -0.8795 -0.8513
 3417SOL    HW221711   3.763   4.630   5.143 -1.6931 -0.2948 -1.3925
 3418SOL     OW21712   3.310   1.764   5.274  0.0952 -0.4668  0.1932
 3418SOL    HW121713   3.400   1.779   5.243  0.0050  0.3608  0.3585
 3418SOL    HW221714   3.308   1.821   5.350  0.5821 -0.9114  0.5463
 3419SOL     OW21715   2.601   2.002   2.962  0.4941  0.8842  0.3520
 3419SOL    HW121716   2.552   1.920   2.956  2.0272  0.1597 -2.0182
 3419SOL    HW221717   2.686   1.977   2.927 -0.0717  1.2926 -1.3124
 3420SOL     OW21718   1.441   4.205   6.303  0.0759  0.0339 -0.2937
 3420SOL    HW121719   1.440   4.133   6.366 -1.7141 -0.2448 -0.6374
 3420SOL    HW221720   1.525   4.186   6.261  0.3345  2.9428 -1.0685
 3421SOL     OW21721   3.097   3.291   8.980 -0.0486  0.4660  0.0465
 3421SOL    HW121722   3.130   3.364   9.031  0.8352  0.3921 -0.4068
 3421SOL    HW221723   3.107   3.321   8.890  1.0502 -1.9381 -0.6391
 3422SOL     OW21724   3.427   0.241   1.913  0.7585 -0.6915 -0.3296
 3422SOL    HW121725   3.474   0.290   1.845  1.8061  0.2909  1.0968
 3422SOL    HW221726   3.428   0.155   1.871  1.8908 -0.9600  0.2520
 3423SOL     OW21727   3.090   1.945  11.107  0.3675  0.4792  0.3484
 3423SOL    HW121728   3.173   1.917  11.144  0.2507 -1.3225 -0.7673
 3423SOL    HW221729   3.102   2.040  11.103 -0.2790  0.5459  0.0142
 3424SOL     OW21730   2.953   4.444   6.783 -0.0293  0.0162  0.3589
 3424SOL    HW121731   3.004   4.488   6.851  0.5886  0.1128 -0.1556
 3424SOL    HW221732   2.920   4.373   6.838 -0.5408  0.3809  0.5266
 3425SOL     OW21733   0.100   1.386  12.280 -0.0267 -0.0324 -0.4777
 3425SOL    HW121734   0.075   1.474  12.252 -1.6513 -0.7506 -1.2917
 3425SOL    HW221735   0.175   1.419  12.329  2.0181 -0.9047 -3.0355
 3426SOL     OW21736   3.160   4.204   6.013  0.4833  0.0070 -0.0922
 3426SOL    HW121737   3.151   4.192   6.107 -0.3012 -1.4153 -0.3483
 3426SOL    HW221738   3.070   4.223   5.987  1.4633  3.4383 -0.9917
 3427SOL     OW21739   3.632   3.410   4.136  0.0156  0.3271  0.5855
 3427SOL    HW121740   3.565   3.478   4.138  0.2386  0.5487  0.4916
 3427SOL    HW221741   3.650   3.393   4.043 -1.0700  0.9762  0.2624
 3428SOL     OW21742   0.565   1.452   6.056  0.5123  0.4083 -0.3119
 3428SOL    HW121743   0.574   1.542   6.026 -0.2710  0.1882 -1.2346
 3428SOL    HW221744   0.635   1.410   6.005  1.0490  0.7044  0.1766
 3429SOL     OW21745   0.636   4.022   5.902  0.3610  0.2433  0.2922
 3429SOL    HW121746   0.657   3.945   5.955  1.8469  0.5121  0.0837
 3429SOL    HW221747   0.676   3.997   5.819  0.7702  1.2349  0.1834
 3430SOL     OW21748   1.065   3.294   3.168 -0.0860  0.1289  0.2461
 3430SOL    HW121749   1.006   3.368   3.158  0.2390  0.5319  1.3021
 3430SOL    HW221750   1.125   3.324   3.100 -1.2141 -0.1547 -0.8724
 3431SOL     OW21751   0.889   3.344  15.918  0.1876 -0.8504  0.1313
 3431SOL    HW121752   0.923   3.423  15.875 -5.3303  2.0068  1.0291
 3431SOL    HW221753   0.878   3.302  15.832 -0.3866  0.0286 -0.2297
 3432SOL     OW21754   2.089   0.879   4.261  0.8327 -0.1206  0.5413
 3432SOL    HW121755   2.137   0.889   4.343  2.4228 -0.0252 -0.4012
 3432SOL    HW221756   2.000   0.865   4.292  0.8739 -1.0112  0.2551
 3433SOL     OW21757   3.082   1.043   4.505  0.2322 -0.0965 -0.2987
 3433SOL    HW121758   3.036   0.987   4.442  0.3087 -0.2271 -0.2377
 3433SOL    HW221759   3.022   1.023   4.576 -1.2120  0.4117 -1.3730
 3434SOL     OW21760   4.144   4.384   5.292 -0.0834 -0.2472 -0.6648
 3434SOL    HW121761   4.123   4.477   5.297  0.4841 -0.1618  0.1065
 3434SOL    HW221762   4.204   4.378   5.366 -0.6614 -0.2309 -0.1964
 3435SOL     OW21763   3.196   2.463   3.605 -0.8290  0.7880 -0.0136
 3435SOL    HW121764   3.131   2.518   3.562 -1.8078 -0.7365 -0.4890
 3435SOL    HW221765   3.259   2.473   3.534 -0.7477  1.0503  0.0937
 3436SOL     OW21766   4.004   1.689  17.374  0.3224  0.5692  0.4458
 3436SOL    HW121767   4.082   1.635  17.389  0.4350  0.7183  0.3907
 3436SOL    HW221768   3.961   1.630  17.312 -1.2136  1.7397  0.4181
 3437SOL     OW21769   0.741   4.118   5.622 -0.2605  0.2660 -0.3130
 3437SOL    HW121770   0.772   4.038   5.579 -1.0549 -1.2855  2.0420
 3437SOL    HW221771   0.647   4.112   5.605 -0.3701  1.6221 -0.2451
 3438SOL     OW21772   2.075   3.755   6.545 -0.1123  0.2678  0.2504
 3438SOL    HW121773   2.102   3.797   6.627  2.6248  1.4674 -1.2700
 3438SOL    HW221774   2.080   3.664   6.576 -1.1428 -0.3436 -1.4008
 3439SOL     OW21775   3.324   0.799   9.837 -0.0062 -0.2483  0.4783
 3439SOL    HW121776   3.301   0.804   9.930 -0.2053 -0.5646  0.4454
 3439SOL    HW221777   3.404   0.749   9.850  0.4174  0.1496 -0.6308
 3440SOL     OW21778   0.142   1.795  13.854 -0.2584  0.9649  0.0098
 3440SOL    HW121779   0.062   1.839  13.883 -1.4138 -1.4020  0.4412
 3440SOL    HW221780   0.171   1.868  13.800 -1.0722  1.8381  0.7494
 3441SOL     OW21781   4.310   3.265  14.560 -0.1575 -0.4483 -0.2403
 3441SOL    HW121782   4.382   3.328  14.561 -0.8301  0.3163  0.1488
 3441SOL    HW221783   4.326   3.198  14.626 -2.7934  1.4035  2.3245
 3442SOL     OW21784   3.415   2.517   6.469  0.1146  0.6836 -0.5270
 3442SOL    HW121785   3.350   2.509   6.539 -2.0892 -1.8661 -2.8607
 3442SOL    HW221786   3.486   2.549   6.524 -0.7938 -1.5171  1.9136
 3443SOL     OW21787   0.313   0.675   8.304  0.7239  0.2228 -0.8072
 3443SOL    HW121788   0.334   0.765   8.278  1.3066  0.5520  0.8033
 3443SOL    HW221789   0.396   0.633   8.282 -0.0827 -1.1822 -1.1538
 3444SOL     OW21790   4.529   2.403  15.883 -0.4606  0.7495  0.3236
 3444SOL    HW121791   4.454   2.449  15.846  0.7426  0.7784 -2.1097
 3444SOL    HW221792   4.582   2.369  15.810 -3.6311 -0.6592 -1.3417
 3445SOL     OW21793   1.037   4.438  14.982  0.4182 -0.2600 -0.2682
 3445SOL    HW121794   1.063   4.492  14.908  1.2508  1.0364  0.9529
 3445SOL    HW221795   0.995   4.500  15.042  0.0201 -1.2877  0.5199
 3446SOL     OW21796   0.518   4.282   5.837  0.0625 -0.0989 -0.4728
 3446SOL    HW121797   0.431   4.289   5.876  0.3175 -1.3842  0.3363
 3446SOL    HW221798   0.539   4.189   5.843  0.3487  0.1347  2.3858
 3447SOL     OW21799   3.928   3.426  10.547 -0.0792 -0.5012  0.3332
 3447SOL    HW121800   4.009   3.475  10.565 -0.7695  1.4049 -1.7131
 3447SOL    HW221801   3.898   3.414  10.637 -3.3058 -1.1298 -0.8454
 3448SOL     OW21802   3.571   1.406  10.476 -0.2673 -0.0683  0.0513
 3448SOL    HW121803   3.514   1.480  10.458 -0.7032 -0.5972 -0.7463
 3448SOL    HW221804   3.508   1.350  10.521 -0.0230 -0.9725 -0.7233
 3449SOL     OW21805   3.864   1.041   8.822  0.3065 -0.4048  0.3941
 3449SOL    HW121806   3.901   1.129   8.820 -2.6971  0.7549 -2.2524
 3449SOL    HW221807   3.901   1.012   8.906  1.7855  1.3496  0.3425
 3450SOL     OW21808   1.861   2.604   7.389 -0.7518 -0.6531  0.3163
 3450SOL    HW121809   1.826   2.583   7.302  1.3891  1.2857 -0.9808
 3450SOL    HW221810   1.938   2.655   7.365 -0.6555 -0.4084  1.1437
 3451SOL     OW21811   2.038   3.767   9.206  0.5651  0.3483 -0.3195
 3451SOL    HW121812   2.072   3.696   9.152 -2.1150 -0.6685 -0.6224
 3451SOL    HW221813   2.001   3.818   9.134  0.8447  1.6369  0.4370
 3452SOL     OW21814   3.795   2.171  14.044 -0.2139 -0.1856  0.4781
 3452SOL    HW121815   3.866   2.109  14.025 -1.0441 -1.3993  1.3625
 3452SOL    HW221816   3.773   2.131  14.128  0.8989 -1.1473  0.3260
 3453SOL     OW21817   1.396   1.641   3.266  0.5972  0.0762  0.1604
 3453SOL    HW121818   1.378   1.629   3.173 -0.6495  0.2645  0.3832
 3453SOL    HW221819   1.437   1.555   3.279  0.1532  0.1003  1.7738
 3454SOL     OW21820   1.046   3.310  13.029  0.9653  0.3155 -0.9454
 3454SOL    HW121821   1.012   3.322  12.941  3.0041  1.4791 -1.5800
 3454SOL    HW221822   1.139   3.332  13.019  1.0472  0.4494  0.0952
 3455SOL     OW21823   0.074   2.282   4.644  0.2836  0.1284  0.1373
 3455SOL    HW121824   0.132   2.276   4.721  1.9370  0.7343 -1.0639
 3455SOL    HW221825   0.109   2.215   4.586 -0.3591 -0.2499  0.1802
 3456SOL     OW21826   3.141   2.727  11.893 -0.1907  0.1789  0.4748
 3456SOL    HW121827   3.192   2.788  11.841 -1.2637 -1.2859 -2.2720
 3456SOL    HW221828   3.190   2.734  11.975  2.4044 -2.6268 -0.8512
 3457SOL     OW21829   3.804   2.290  17.305  0.0642 -0.0447  0.2110
 3457SOL    HW121830   3.807   2.379  17.271 -1.1650 -0.1429 -0.1536
 3457SOL    HW221831   3.810   2.239  17.224 -0.9263 -1.0088  0.7482
 3458SOL     OW21832   4.153   0.425  14.965  0.6009 -0.1365 -0.6348
 3458SOL    HW121833   4.151   0.440  14.871  2.5915  1.0457 -0.4826
 3458SOL    HW221834   4.125   0.510  15.000  2.7147  0.0559  0.6044
 3459SOL     OW21835   1.630   3.732   6.876  0.0440  0.7733  0.0946
 3459SOL    HW121836   1.695   3.689   6.932  0.1233 -0.0139 -0.6004
 3459SOL    HW221837   1.551   3.737   6.931  0.5487 -0.3589  0.9307
 3460SOL     OW21838   0.368   2.299   3.084  0.3628  0.2025  0.0081
 3460SOL    HW121839   0.289   2.333   3.125  0.1292 -2.4349  1.7718
 3460SOL    HW221840   0.377   2.347   3.002 -1.4324  0.0186 -0.3077
 3461SOL     OW21841   1.007   0.312   3.539 -0.0906 -0.5757 -0.0526
 3461SOL    HW121842   0.996   0.393   3.589  0.7598 -1.7750  2.1224
 3461SOL    HW221843   0.972   0.333   3.453 -1.9130  1.1246  1.0892
 3462SOL     OW21844   0.965   0.365   9.597  0.1002  0.0405 -0.1050
 3462SOL    HW121845   0.965   0.430   9.667 -2.7294  0.6356 -0.6618
 3462SOL    HW221846   0.889   0.313   9.624  0.1134  0.4825  0.7710
 3463SOL     OW21847   1.356   0.339   2.959  0.6142  0.3658 -0.3069
 3463SOL    HW121848   1.367   0.318   2.866  1.1237 -2.7189  0.4412
 3463SOL    HW221849   1.422   0.286   3.003  1.4202 -0.1210 -2.0985
 3464SOL     OW21850   3.859   0.540   4.503 -0.7071  0.3143  0.2535
 3464SOL    HW121851   3.842   0.541   4.598  1.4260  0.3370  0.6377
 3464SOL    HW221852   3.811   0.616   4.471 -1.0277 -0.0954 -0.2473
 3465SOL     OW21853   2.717   3.694   8.948  0.1677  0.4278  0.2571
 3465SOL    HW121854   2.661   3.624   8.915  1.3437 -0.1698 -0.4822
 3465SOL    HW221855   2.736   3.671   9.039 -0.3554  0.0879  0.2761
 3466SOL     OW21856   3.934   3.708   5.670  0.2388  0.2083 -0.5111
 3466SOL    HW121857   4.015   3.693   5.620  1.5623  0.2131  1.6160
 3466SOL    HW221858   3.889   3.628   5.644  0.6986 -0.2063 -0.0360
 3467SOL     OW21859   3.872   3.500   7.587 -0.0106  0.3641  0.0871
 3467SOL    HW121860   3.946   3.442   7.603 -0.4355 -0.7491 -1.9718
 3467SOL    HW221861   3.887   3.522   7.495  0.2499 -3.0222 -0.6935
 3468SOL     OW21862   1.930   1.819   6.941 -0.6187  0.5183 -0.1032
 3468SOL    HW121863   1.965   1.852   7.023 -2.4713 -1.0061  1.3183
 3468SOL    HW221864   1.872   1.893   6.919 -0.0371  1.4896  1.7062
 3469SOL     OW21865   2.080   1.839   1.215  0.0132  0.1568  0.3720
 3469SOL    HW121866   2.118   1.917   1.255 -0.3462  1.8632 -2.5786
 3469SOL    HW221867   2.004   1.837   1.273  1.2885  0.6980  2.0543
 3470SOL     OW21868   4.495   0.710   7.971  0.6327 -0.4139  0.4111
 3470SOL    HW121869   4.440   0.646   7.927  0.3489  0.6039 -0.7281
 3470SOL    HW221870   4.512   0.672   8.057 -1.0201  0.9714  1.3458
 3471SOL     OW21871   2.467   0.525   9.868 -0.2069 -0.3279  0.3704
 3471SOL    HW121872   2.445   0.536   9.776 -0.4717 -0.7932  0.3755
 3471SOL    HW221873   2.513   0.442   9.856  1.2615  1.0537 -3.3642
 3472SOL     OW21874   2.008   1.014  10.047  0.1095 -0.0983 -0.0672
 3472SOL    HW121875   1.995   0.920  10.031 -1.2403  0.3227 -1.3733
 3472SOL    HW221876   1.969   1.015  10.134  0.3644  1.6804  0.0242
 3473SOL     OW21877   1.544   2.419  12.532  0.2851  0.0713 -0.2482
 3473SOL    HW121878   1.497   2.395  12.453  1.6201  2.6903 -1.8348
 3473SOL    HW221879   1.631   2.419  12.493  0.3000  2.2431 -0.2270
 3474SOL     OW21880   2.156   4.393  12.233 -0.2774 -0.7300 -0.3457
 3474SOL    HW121881   2.135   4.380  12.141  0.6872 -0.5949 -0.5861
 3474SOL    HW221882   2.227   4.457  12.228  1.0375 -2.3041 -1.6535
 3475SOL     OW21883   1.161   0.051   4.456  0.0750 -0.3451  0.6280
 3475SOL    HW121884   1.076   0.084   4.486 -1.5823 -2.6539 -1.4622
 3475SOL    HW221885   1.220   0.126   4.463 -2.3478  1.5755  0.4733
 3476SOL     OW21886   4.674   3.216  13.519  0.2073  0.3678  0.1077
 3476SOL    HW121887   4.661   3.149  13.453 -4.6364  0.0240  1.4223
 3476SOL    HW221888   0.047   3.219  13.536 -0.0370 -0.0818  1.5568
 3477SOL     OW21889   0.141   0.152   1.626 -0.6144 -0.0680 -0.1547
 3477SOL    HW121890   0.116   0.060   1.629  0.3659 -0.2884  1.0198
 3477SOL    HW221891   0.154   0.178   1.717 -4.2525  1.3644 -0.0315
 3478SOL     OW21892   0.147   0.347  17.677 -0.3461 -0.0253 -0.3618
 3478SOL    HW121893   0.118   0.428  17.636 -0.4304  0.0954 -0.0569
 3478SOL    HW221894   0.091   0.286  17.628  0.8670 -2.1298  0.8426
 3479SOL     OW21895   4.360   0.739   6.601  0.4427  0.1182  0.5188
 3479SOL    HW121896   4.447   0.760   6.635 -0.8524  1.1094  3.1508
 3479SOL    HW221897   4.353   0.796   6.524  0.1568 -2.6527 -1.5363
 3480SOL     OW21898   2.851   2.242   9.810  0.3951 -0.5584 -0.8489
 3480SOL    HW121899   2.911   2.289   9.868  0.2808 -0.2582 -0.9757
 3480SOL    HW221900   2.908   2.216   9.737  0.7578  1.9161 -1.4495
 3481SOL     OW21901   3.334   3.155   9.879  0.2796 -0.5538  0.0742
 3481SOL    HW121902   3.298   3.241   9.860 -0.2947 -0.7870  0.0769
 3481SOL    HW221903   3.364   3.171   9.968 -0.6868  0.2916  0.2511
 3482SOL     OW21904   1.856   0.195   9.905 -0.1314  0.0562  0.0620
 3482SOL    HW121905   1.849   0.159   9.993 -2.1241 -0.6272 -0.3652
 3482SOL    HW221906   1.945   0.227   9.917 -0.0455  0.3368 -1.2705
 3483SOL     OW21907   3.268   2.281   0.144  0.1181 -0.2794  0.1125
 3483SOL    HW121908   3.290   2.357   0.090  0.1590 -0.7465 -0.5258
 3483SOL    HW221909   3.312   2.207   0.104  2.6426  1.5039 -0.3897
 3484SOL     OW21910   4.012   4.029   7.270 -0.5318  0.2955 -0.4524
 3484SOL    HW121911   4.092   4.069   7.304 -1.0318 -0.1214  1.2294
 3484SOL    HW221912   3.997   4.085   7.193 -1.4231 -0.1204 -0.5793
 3485SOL     OW21913   1.691   3.939  12.864 -0.0676  0.3468  0.0208
 3485SOL    HW121914   1.693   3.851  12.903 -0.5472  0.7204  0.8969
 3485SOL    HW221915   1.603   3.946  12.827  0.7125  0.5989 -1.7592
 3486SOL     OW21916   0.261   4.284   5.961  0.0992  0.0415 -0.2469
 3486SOL    HW121917   0.213   4.318   6.036 -0.5153  1.4754 -1.2758
 3486SOL    HW221918   0.244   4.190   5.967  0.0072  0.0611 -0.1958
 3487SOL     OW21919   1.334   1.105  13.961  0.2584  0.4975  0.5293
 3487SOL    HW121920   1.380   1.151  14.031  0.1697 -0.1348  0.9973
 3487SOL    HW221921   1.395   1.040  13.927  0.9769  1.4336  0.0376
 3488SOL     OW21922   0.891   3.632   5.991 -0.0568  0.4969  0.0274
 3488SOL    HW121923   0.846   3.712   6.018 -1.3987  0.1467 -1.1720
 3488SOL    HW221924   0.861   3.576   6.063 -2.6683  1.6937 -0.1506
 3489SOL     OW21925   2.519   2.736   6.765 -0.0357  0.2444  0.4430
 3489SOL    HW121926   2.580   2.669   6.796  0.2576  0.5411  0.5114
 3489SOL    HW221927   2.549   2.806   6.822 -2.8357  0.4951  1.5674
 3490SOL     OW21928   4.587   0.176   5.191  0.0371  0.2920  0.2618
 3490SOL    HW121929   4.677   0.209   5.198  1.2795 -2.5529 -2.0673
 3490SOL    HW221930   4.596   0.142   5.102 -2.1049 -0.0943  0.1964
 3491SOL     OW21931   3.434   0.704   8.134 -0.1463  0.1829 -0.0989
 3491SOL    HW121932   3.380   0.742   8.065  0.0769 -0.5690 -0.6802
 3491SOL    HW221933   3.457   0.621   8.092  1.0832 -0.1959  1.3266
 3492SOL     OW21934   0.950   1.713  11.730  0.0641  0.1647  0.8244
 3492SOL    HW121935   1.031   1.754  11.700  0.1139 -0.7303 -0.2394
 3492SOL    HW221936   0.915   1.674  11.649 -1.2822 -0.3098  1.6395
 3493SOL     OW21937   2.679   1.959   5.145 -0.4676  0.3325  0.6745
 3493SOL    HW121938   2.725   2.042   5.133  1.6567 -0.2585  4.5181
 3493SOL    HW221939   2.638   1.942   5.060  2.1561  1.5263 -0.8103
 3494SOL     OW21940   1.008   4.353   6.001 -0.5588  0.2032  0.2782
 3494SOL    HW121941   0.927   4.342   6.052  1.3829  1.7781  3.7214
 3494SOL    HW221942   0.992   4.306   5.920  0.5003 -1.1047  0.8244
 3495SOL     OW21943   0.919   4.042   6.901 -0.1571  0.0431  0.0848
 3495SOL    HW121944   1.014   4.043   6.888 -0.1356  1.0171  0.3169
 3495SOL    HW221945   0.905   3.949   6.885 -0.8128  0.2260 -0.3782
 3496SOL     OW21946   3.377   0.033   3.602  0.5303 -0.1944 -0.3431
 3496SOL    HW121947   3.337   0.114   3.567  1.3140 -0.3219 -1.5584
 3496SOL    HW221948   3.435   0.069   3.669  0.4281  1.8226 -1.3293
 3497SOL     OW21949   2.327   1.638  10.639 -0.2963 -0.1351  0.0187
 3497SOL    HW121950   2.402   1.592  10.676  0.8951  2.4830  0.8193
 3497SOL    HW221951   2.322   1.702  10.710  1.0194  1.6320 -1.4699
 3498SOL     OW21952   0.044   1.452   3.703  0.4051 -0.2576 -0.3680
 3498SOL    HW121953   0.044   1.547   3.688 -0.8969  0.0833  1.7733
 3498SOL    HW221954   4.711   1.434   3.626 -1.3056  0.1905  0.7480
 3499SOL     OW21955   4.383   1.850  15.361  0.2310  0.2503  0.5569
 3499SOL    HW121956   4.465   1.835  15.314 -0.0509 -0.0693  0.1678
 3499SOL    HW221957   4.320   1.848  15.289  1.1085  0.2649 -0.2093
 3500SOL     OW21958   3.802   1.145  14.476 -0.1662  0.0109 -0.4733
 3500SOL    HW121959   3.850   1.197  14.412 -0.3093  0.3861 -0.2789
 3500SOL    HW221960   3.725   1.201  14.487  0.8634  1.6905 -1.8706
 3501SOL     OW21961   2.077   4.637  11.406  0.6839  0.1516 -0.2946
 3501SOL    HW121962   2.138   4.709  11.419 -0.1786  1.1004 -1.5120
 3501SOL    HW221963   2.095   4.626  11.313 -0.0560 -1.8026 -0.2134
 3502SOL     OW21964   1.510   3.251   7.380 -0.2953 -0.3859 -0.7152
 3502SOL    HW121965   1.527   3.341   7.410 -1.0277 -0.4484 -0.1094
 3502SOL    HW221966   1.414   3.254   7.380 -0.2671  0.5119 -0.8199
 3503SOL     OW21967   1.868   4.449   2.646  0.3001  0.2055  0.1779
 3503SOL    HW121968   1.826   4.494   2.573  0.0524 -0.1173  0.1254
 3503SOL    HW221969   1.937   4.396   2.607  0.4078  1.3266 -1.1724
 3504SOL     OW21970   1.734   3.408   3.390  0.2706 -0.2934 -0.5112
 3504SOL    HW121971   1.819   3.377   3.359  0.2345 -1.4464  0.5341
 3504SOL    HW221972   1.687   3.382   3.310 -1.5250  4.0220 -0.8598
 3505SOL     OW21973   3.712   2.481   5.040 -0.2703 -0.0209 -0.1919
 3505SOL    HW121974   3.708   2.392   5.077 -0.8310  0.2584  0.4172
 3505SOL    HW221975   3.754   2.454   4.959  2.3214 -1.9934  1.7895
 3506SOL     OW21976   2.725   2.263   3.019  0.0160 -0.6606 -0.6502
 3506SOL    HW121977   2.698   2.174   2.994  1.0217 -1.5482  1.3259
 3506SOL    HW221978   2.722   2.310   2.936  0.9494 -2.9602 -1.9913
 3507SOL     OW21979   0.393   3.020  13.621 -0.0489  0.0272  0.1474
 3507SOL    HW121980   0.323   2.972  13.576 -1.2450  1.3452  0.6064
 3507SOL    HW221981   0.435   2.952  13.674 -3.6463 -1.2709  1.3137
 3508SOL     OW21982   1.201   3.791  11.286  0.1181 -0.3536  0.0418
 3508SOL    HW121983   1.198   3.742  11.204  0.2239  1.2474 -0.9217
 3508SOL    HW221984   1.257   3.734  11.338 -0.7897 -1.8525 -0.6163
 3509SOL     OW21985   1.937   2.593   3.041 -0.1414 -0.4133  0.4159
 3509SOL    HW121986   1.864   2.611   2.982 -1.3043  1.0134  2.2955
 3509SOL    HW221987   1.999   2.662   3.017 -0.3898 -0.3023  0.0916
 3510SOL     OW21988   3.361   3.961  16.671  0.1610  0.4725 -0.0107
 3510SOL    HW121989   3.266   3.957  16.662 -0.0152  0.8579  1.8622
 3510SOL    HW221990   3.377   3.941  16.763  0.7842  1.4160  0.0940
 3511SOL     OW21991   3.139   0.427   5.932  0.4773  0.0772 -0.3652
 3511SOL    HW121992   3.066   0.370   5.957 -1.5462  1.7985 -2.3043
 3511SOL    HW221993   3.122   0.454   5.842 -2.8606 -3.4228 -0.7988
 3512SOL     OW21994   1.334   2.887   4.441 -0.0172  0.3146  1.1868
 3512SOL    HW121995   1.271   2.959   4.440  0.8924  1.1087 -0.0277
 3512SOL    HW221996   1.329   2.857   4.532 -0.3521 -0.7198  0.8288
 3513SOL     OW21997   1.940   0.157   0.644 -0.0648  0.7477  0.1136
 3513SOL    HW121998   2.003   0.228   0.652  0.3970  0.3287  0.1434
 3513SOL    HW221999   1.932   0.153   0.549 -0.8949 -1.9539  0.3055
 3514SOL     OW22000   0.212   0.574   7.509  0.6245 -0.1114 -0.3617
 3514SOL    HW122001   0.233   0.540   7.596 -0.3020  1.9912  0.7140
 3514SOL    HW222002   0.223   0.505   7.444  0.5252  0.3642 -0.8827
 3515SOL     OW22003   0.886   0.373   2.455  1.2789 -0.5342  0.7035
 3515SOL    HW122004   0.937   0.452   2.435 -0.9810  0.7121 -0.0774
 3515SOL    HW222005   0.919   0.322   2.382 -3.7961  1.4848 -2.9866
 3516SOL     OW22006   0.046   0.960  15.199  0.3792 -0.2411 -0.3416
 3516SOL    HW122007   0.028   1.025  15.267  3.2451 -0.6567  0.7992
 3516SOL    HW222008   0.123   1.001  15.159 -1.6569  2.5957 -1.3692
 3517SOL     OW22009   0.713   2.998  16.110 -0.8384  0.1338 -0.7852
 3517SOL    HW122010   0.627   3.040  16.116 -0.9853 -0.3127  0.3151
 3517SOL    HW222011   0.711   2.954  16.025  0.3758  0.4823 -0.9958
 3518SOL     OW22012   0.373   1.732   0.926  0.2770 -0.5137  0.1202
 3518SOL    HW122013   0.462   1.741   0.961 -0.6145  2.3819  1.6589
 3518SOL    HW222014   0.387   1.662   0.862  0.5107 -1.5216  1.2813
 3519SOL     OW22015   0.745   2.414   9.106  0.4265 -0.0821  0.1334
 3519SOL    HW122016   0.799   2.335   9.102  0.5920  0.0061  0.5385
 3519SOL    HW222017   0.662   2.377   9.076  0.6522  0.0716 -0.6739
 3520SOL     OW22018   4.397   4.111   4.828 -0.0886 -0.2479 -0.3112
 3520SOL    HW122019   4.459   4.063   4.883 -0.7778  0.9662  1.5467
 3520SOL    HW222020   4.309   4.099   4.863 -0.8690  1.1160 -1.8124
 3521SOL     OW22021   0.078   1.046   7.861 -0.0342  0.0393  0.0175
 3521SOL    HW122022   0.106   1.012   7.776 -0.6405 -2.7201  0.9456
 3521SOL    HW222023   0.001   0.992   7.878 -1.0041  1.4784  0.2041
 3522SOL     OW22024   4.472   0.992   9.789  0.0739  0.5921  0.2777
 3522SOL    HW122025   4.397   1.050   9.802 -1.7695 -2.0468  1.5271
 3522SOL    HW222026   4.495   0.966   9.878 -2.4925  0.1343  0.8335
 3523SOL     OW22027   3.672   3.697  10.706  0.8370 -0.3873 -0.4840
 3523SOL    HW122028   3.660   3.627  10.641 -1.6706 -1.6793  1.3949
 3523SOL    HW222029   3.626   3.659  10.780 -3.8183  0.5438 -2.8895
 3524SOL     OW22030   1.693   0.101   6.037 -0.4889  0.0086 -0.3628
 3524SOL    HW122031   1.640   0.022   6.052 -0.3029 -0.3680 -1.6767
 3524SOL    HW222032   1.639   0.158   6.091 -1.3446  0.1038 -1.3099
 3525SOL     OW22033   3.260   2.117   1.487  0.3387  0.2256 -0.2353
 3525SOL    HW122034   3.321   2.090   1.556 -1.0639 -1.2490  0.4307
 3525SOL    HW222035   3.268   2.052   1.418  1.1661 -0.7154  0.7475
 3526SOL     OW22036   1.970   1.390   3.915  0.6211 -0.0586  0.2303
 3526SOL    HW122037   1.898   1.330   3.933 -0.8262  1.4762 -0.3922
 3526SOL    HW222038   2.029   1.352   3.980 -1.5657 -0.7893  1.7812
 3527SOL     OW22039   3.705   4.015  11.800 -0.4575  0.1584 -0.0335
 3527SOL    HW122040   3.703   4.048  11.890  2.5001  2.7512 -0.9125
 3527SOL    HW222041   3.647   3.940  11.813  0.2167 -0.4257 -0.3422
 3528SOL     OW22042   0.500   1.927   6.155  0.8973 -0.4628  0.4306
 3528SOL    HW122043   0.532   2.016   6.141 -0.2706 -0.0815  0.1860
 3528SOL    HW222044   0.411   1.943   6.187 -0.0232 -2.9958 -0.8423
 3529SOL     OW22045   3.930   3.169   6.446 -0.0447  0.3644  0.2003
 3529SOL    HW122046   3.892   3.097   6.396 -0.1220  2.0129 -2.0880
 3529SOL    HW222047   3.885   3.244   6.409 -1.0812 -1.0790 -1.4821
 3530SOL     OW22048   4.437   4.681   4.391 -0.5499  0.5439 -0.3918
 3530SOL    HW122049   4.384   0.034   4.361 -0.0601  1.0696  0.0434
 3530SOL    HW222050   4.447   4.621   4.317 -1.9645 -0.5532  0.2977
 3531SOL     OW22051   1.980   2.793   1.661  0.0091  0.1674  0.6492
 3531SOL    HW122052   2.045   2.807   1.592 -0.7482 -1.6993 -0.4319
 3531SOL    HW222053   1.912   2.854   1.631 -0.2329 -1.8517 -2.9684
 3532SOL     OW22054   4.287   1.230   6.295  0.4019 -0.8966 -0.8437
 3532SOL    HW122055   4.233   1.199   6.222 -2.2642  0.6645  0.5028
 3532SOL    HW222056   4.376   1.226   6.260  0.2052 -0.4448 -1.3904
 3533SOL     OW22057   1.162   1.910  15.529 -0.0770  0.2574 -0.1012
 3533SOL    HW122058   1.136   1.840  15.471 -2.1592  1.0227 -0.0977
 3533SOL    HW222059   1.215   1.865  15.595 -0.1676  0.5142  0.1507
 3534SOL     OW22060   0.048   1.442   1.419  0.1460  0.0176  0.4105
 3534SOL    HW122061   0.043   1.402   1.333  2.4291 -0.9026  0.7109
 3534SOL    HW222062   4.678   1.433   1.448 -0.0132  2.2013  0.6331
 3535SOL     OW22063   0.593   0.055   0.355  0.2549 -0.0011  0.4888
 3535SOL    HW122064   0.554   0.095   0.433 -2.3282 -0.9356 -0.3198
 3535SOL    HW222065   0.660   4.720   0.395  0.1220 -0.4256  0.1207
 3536SOL     OW22066   3.033   2.652  10.378 -0.0843 -1.4903 -0.2945
 3536SOL    HW122067   3.049   2.608  10.462  1.3328 -3.0381 -1.3879
 3536SOL    HW222068   3.116   2.634  10.334 -1.4003  0.8979 -3.7295
 3537SOL     OW22069   1.442   4.328   5.211 -0.0839  0.2540  0.0162
 3537SOL    HW122070   1.358   4.285   5.229  0.8630 -1.3323  0.7334
 3537SOL    HW222071   1.505   4.256   5.198  0.0331  0.2144  0.7709
 3538SOL     OW22072   1.051   2.436   3.779 -0.2668 -0.2971  0.4975
 3538SOL    HW122073   1.074   2.493   3.853  0.5997  0.8494 -0.6630
 3538SOL    HW222074   1.046   2.490   3.701  0.8509 -0.2099  0.4828
 3539SOL     OW22075   3.382   1.026   5.838 -0.3234  0.2181  0.3582
 3539SOL    HW122076   3.352   0.959   5.777  0.2840  2.6532 -2.6449
 3539SOL    HW222077   3.342   0.985   5.914 -0.9488  0.1396 -0.0179
 3540SOL     OW22078   1.949   3.170   4.933 -0.2507 -0.5692 -0.0190
 3540SOL    HW122079   1.864   3.126   4.938 -1.0840  0.7875 -2.0710
 3540SOL    HW222080   1.957   3.180   4.838 -0.4314  0.1308  0.0399
 3541SOL     OW22081   3.035   1.091   5.667 -0.0607 -0.0340  0.3573
 3541SOL    HW122082   3.121   1.056   5.647  0.0589  0.1737  0.5135
 3541SOL    HW222083   2.975   1.052   5.603  0.0081 -0.1648  0.3737
 3542SOL     OW22084   0.808   3.307   7.687 -0.4502 -0.0715 -0.2330
 3542SOL    HW122085   0.743   3.275   7.624 -0.9692  1.1894 -0.3606
 3542SOL    HW222086   0.823   3.229   7.739 -1.1894 -0.3472 -0.4241
 3543SOL     OW22087   4.044   4.019  16.498  0.3378 -0.0920 -0.2470
 3543SOL    HW122088   4.131   4.057  16.513 -0.1762 -0.1950  2.9299
 3543SOL    HW222089   3.985   4.089  16.527  2.1095  0.9916  0.7249
 3544SOL     OW22090   0.377   1.677   6.772 -0.1106  0.1477  0.2432
 3544SOL    HW122091   0.453   1.734   6.760  0.2041 -0.2063  0.5582
 3544SOL    HW222092   0.311   1.722   6.720  1.7510  1.0083 -1.3694
 3545SOL     OW22093   4.619   1.147   4.283 -0.2772 -0.3584 -0.1526
 3545SOL    HW122094   4.602   1.054   4.271 -2.3682  0.3788 -2.8435
 3545SOL    HW222095   4.614   1.179   4.193 -0.9113  0.1474  0.0690
 3546SOL     OW22096   3.638   3.889   7.734 -0.2631 -0.1861 -0.4845
 3546SOL    HW122097   3.621   3.795   7.724 -2.3350  0.3310 -1.7378
 3546SOL    HW222098   3.702   3.900   7.664 -0.1101  1.4674 -0.0865
 3547SOL     OW22099   3.767   3.054   6.208  0.1768  0.5967  0.2189
 3547SOL    HW122100   3.687   3.028   6.253 -0.0312  0.4174 -0.2491
 3547SOL    HW222101   3.729   3.126   6.156 -0.5165 -0.0732 -0.2148
 3548SOL     OW22102   2.281   0.172   5.880  0.3886  0.3630 -0.4496
 3548SOL    HW122103   2.187   0.162   5.889  0.4108 -0.1617 -0.7808
 3548SOL    HW222104   2.311   0.081   5.889  2.5874  1.3644  2.6933
 3549SOL     OW22105   3.895   1.967   5.705  0.4607  0.4504 -0.2459
 3549SOL    HW122106   3.802   1.958   5.723  0.5315  0.1743 -0.0207
 3549SOL    HW222107   3.885   1.938   5.614 -0.0557  1.7124 -0.5896
 3550SOL     OW22108   2.264   0.007   2.682  0.1043 -0.6977 -0.2864
 3550SOL    HW122109   2.301   4.692   2.601 -1.0207 -0.8888 -0.7265
 3550SOL    HW222110   2.208   4.664   2.726  1.1625  0.7885  3.1447
 3551SOL     OW22111   0.640   2.828   5.411 -0.1255  0.3913  0.1885
 3551SOL    HW122112   0.610   2.740   5.432 -2.0001  0.6094 -1.5417
 3551SOL    HW222113   0.687   2.853   5.491  0.1849  2.3436 -0.5956
 3552SOL     OW22114   0.878   0.953   6.670 -0.0980 -0.0993 -0.0868
 3552SOL    HW122115   0.815   0.984   6.736 -0.6384 -0.6033 -0.3640
 3552SOL    HW222116   0.951   1.015   6.673 -2.0147  2.1619  0.1722
 3553SOL     OW22117   2.712   1.387   5.760 -0.1902  0.0070 -0.2018
 3553SOL    HW122118   2.730   1.338   5.680 -1.3758  0.3593 -0.6944
 3553SOL    HW222119   2.789   1.443   5.757 -0.4521  0.3503 -0.5827
 3554SOL     OW22120   2.574   1.273   6.188 -0.1928  0.7947  0.3995
 3554SOL    HW122121   2.665   1.244   6.199 -0.5864 -1.0288 -1.3015
 3554SOL    HW222122   2.537   1.198   6.142 -1.5350  2.4815 -1.2518
 3555SOL     OW22123   1.595   0.821   2.563  0.3430 -0.2641  0.6074
 3555SOL    HW122124   1.649   0.749   2.533 -1.4357 -1.5193  0.4242
 3555SOL    HW222125   1.522   0.771   2.600  0.6829  0.3988  2.1813
 3556SOL     OW22126   1.037   0.180  17.354  0.1109  0.3506  0.0075
 3556SOL    HW122127   1.056   0.211  17.443 -0.7562 -0.8228  0.5922
 3556SOL    HW222128   1.000   0.259  17.315  0.3815  0.6223  0.3084
 3557SOL     OW22129   1.003   0.274   2.756 -0.3497  0.2505 -0.2270
 3557SOL    HW122130   1.060   0.198   2.745 -0.7808  0.1072 -1.4343
 3557SOL    HW222131   0.938   0.254   2.689  0.6577 -0.6448 -0.9431
 3558SOL     OW22132   2.130   3.439   5.411  0.3561  0.0549  0.5030
 3558SOL    HW122133   2.188   3.412   5.340 -0.6859 -2.1638  0.4884
 3558SOL    HW222134   2.054   3.467   5.360  1.4402  2.2981  0.1281
 3559SOL     OW22135   4.006   2.529   4.492  0.7680 -0.1138  0.1320
 3559SOL    HW122136   4.079   2.572   4.448  1.4087 -0.1848  1.1328
 3559SOL    HW222137   4.059   2.489   4.560  2.2016  0.5544 -0.5995
 3560SOL     OW22138   3.455   2.686   0.059 -0.2780 -0.0624 -0.0141
 3560SOL    HW122139   3.516   2.759   0.071  0.3419 -0.4619 -0.7700
 3560SOL    HW222140   3.392   2.721   0.123 -1.0883 -0.0804 -0.8006
 3561SOL     OW22141   2.022   2.134   7.522 -0.1497 -0.2328 -0.1474
 3561SOL    HW122142   2.105   2.182   7.518 -0.7306  0.8726  1.5408
 3561SOL    HW222143   2.039   2.087   7.603 -1.2100 -1.0815 -0.4197
 3562SOL     OW22144   1.361   2.859  17.540 -0.6023 -0.0016 -0.5145
 3562SOL    HW122145   1.389   2.927  17.478  2.2235 -2.5798 -2.0734
 3562SOL    HW222146   1.296   2.801  17.501 -2.2112  2.0003 -0.8211
 3563SOL     OW22147   2.698   0.948   8.866  0.6479 -0.1638  0.4013
 3563SOL    HW122148   2.701   1.044   8.863  0.8448 -0.1845 -0.0515
 3563SOL    HW222149   2.632   0.937   8.935  1.1450 -0.9104  0.7492
 3564SOL     OW22150   1.432   0.809  16.421  0.6050 -0.0489  0.2770
 3564SOL    HW122151   1.387   0.725  16.430  1.6178 -0.5497  0.6087
 3564SOL    HW222152   1.361   0.871  16.437 -0.4945 -1.3035  0.2873
 3565SOL     OW22153   0.416   0.327  15.895 -0.7007 -0.4874  0.2278
 3565SOL    HW122154   0.374   0.412  15.884  1.6824  0.6766  0.0870
 3565SOL    HW222155   0.375   0.302  15.978 -0.8345  0.4286  0.4364
 3566SOL     OW22156   4.704   2.911   6.193 -0.1392  0.2840 -0.2190
 3566SOL    HW122157   0.029   2.994   6.205  0.6236  0.0015 -1.2881
 3566SOL    HW222158   4.623   2.933   6.241  0.2274  1.7261 -0.2494
 3567SOL     OW22159   2.364   2.129  13.996  0.7868 -0.2542  0.7212
 3567SOL    HW122160   2.283   2.173  13.973  0.1164 -2.2794 -0.8722
 3567SOL    HW222161   2.339   2.090  14.080 -0.6053  1.1137  0.9319
 3568SOL     OW22162   2.599   2.290   5.037  0.2555  0.1548  0.5594
 3568SOL    HW122163   2.664   2.299   5.107  0.7481 -0.9063  0.2310
 3568SOL    HW222164   2.642   2.334   4.964  0.6694 -1.2219 -0.0318
 3569SOL     OW22165   2.874   3.942  15.801  0.1363  0.3820 -0.2642
 3569SOL    HW122166   2.850   3.894  15.721 -0.6868 -1.5778  1.1763
 3569SOL    HW222167   2.969   3.931  15.793  0.2162  1.5888 -0.9824
 3570SOL     OW22168   4.621   2.274   5.990 -0.3631 -0.4951  0.3948
 3570SOL    HW122169   4.685   2.330   6.035 -2.0415  2.7440 -1.2060
 3570SOL    HW222170   4.571   2.238   6.063 -0.9710  1.9642  1.1828
 3571SOL     OW22171   1.981   0.870  10.275 -0.1224  0.3190 -0.5459
 3571SOL    HW122172   2.067   0.829  10.280  0.1044  1.0630  1.7777
 3571SOL    HW222173   1.922   0.798  10.295  1.6004 -0.5504  1.4489
 3572SOL     OW22174   2.954   0.220  17.642 -0.1984  0.5234  0.0507
 3572SOL    HW122175   2.985   0.148  17.588  2.2539  1.3166  0.4178
 3572SOL    HW222176   2.920   0.286  17.581 -3.3117 -1.1123 -0.0210
 3573SOL     OW22177   2.652   1.519  14.438 -0.5251 -0.0638  0.2816
 3573SOL    HW122178   2.726   1.463  14.460 -0.7832 -0.7668 -0.6415
 3573SOL    HW222179   2.605   1.533  14.520  0.7812 -0.1940  1.0417
 3574SOL     OW22180   2.128   2.644  10.864  0.0089 -0.6272  0.5213
 3574SOL    HW122181   2.181   2.717  10.897 -1.6233  0.4247  0.8407
 3574SOL    HW222182   2.192   2.591  10.817 -1.5724 -2.2126  0.1682
 3575SOL     OW22183   0.974   2.971   8.097 -0.2933  0.0009  0.4920
 3575SOL    HW122184   1.038   2.971   8.168 -0.2363  0.4184  0.4415
 3575SOL    HW222185   0.998   2.885   8.063  3.1434  1.3522 -0.4844
 3576SOL     OW22186   4.401   1.118   2.697 -0.0596  0.8562 -0.2282
 3576SOL    HW122187   4.371   1.070   2.619  1.3329  1.3297 -1.0452
 3576SOL    HW222188   4.336   1.089   2.761 -0.4209  2.2329  0.0254
 3577SOL     OW22189   3.497   1.084   7.576  0.7031 -0.2931 -0.4516
 3577SOL    HW122190   3.454   1.129   7.503 -0.0741  1.2210  0.9153
 3577SOL    HW222191   3.577   1.056   7.533  1.5825  2.1146 -0.4068
 3578SOL     OW22192   1.569   3.987   3.807  0.0590  0.3324  0.1882
 3578SOL    HW122193   1.500   4.013   3.868  1.1505  1.2806  1.0096
 3578SOL    HW222194   1.545   3.896   3.790 -1.9300  1.1096 -1.2685
 3579SOL     OW22195   1.498   2.631   6.604  0.1834 -0.2065 -0.1056
 3579SOL    HW122196   1.435   2.569   6.642  1.2207 -1.0143  0.3047
 3579SOL    HW222197   1.566   2.632   6.671 -1.4494 -0.6500  1.5558
 3580SOL     OW22198   1.730   3.990   2.638  0.6439 -0.4477  0.5785
 3580SOL    HW122199   1.770   3.904   2.641  0.8627 -0.3783 -0.2724
 3580SOL    HW222200   1.771   4.028   2.715 -0.6483  0.5357  0.7896
 3581SOL     OW22201   0.305   4.518   1.508 -0.0387 -0.1947 -0.9536
 3581SOL    HW122202   0.399   4.527   1.526  0.2196 -1.4829 -1.6736
 3581SOL    HW222203   0.322   4.432   1.471  1.4987 -0.4411  0.3111
 3582SOL     OW22204   1.970   0.357  12.302 -0.7148 -0.6766 -0.2734
 3582SOL    HW122205   1.902   0.383  12.240  0.1542  2.1219 -0.0162
 3582SOL    HW222206   1.993   0.436  12.350 -2.3219 -1.3526  1.5808
 3583SOL     OW22207   2.017   0.315   4.965  0.1896 -0.0724 -0.2742
 3583SOL    HW122208   2.041   0.379   5.032 -0.1516 -1.1641  0.8870
 3583SOL    HW222209   1.983   0.245   5.020 -0.1571  0.3975  0.1201
 3584SOL     OW22210   2.092   1.434   3.626  0.7503  0.1729  0.2158
 3584SOL    HW122211   2.185   1.454   3.637  1.2993 -1.2351 -1.7576
 3584SOL    HW222212   2.074   1.438   3.720  2.2506 -0.2456  0.5231
 3585SOL     OW22213   3.155   1.880  11.815  0.3631  0.2331  0.3740
 3585SOL    HW122214   3.140   1.811  11.751 -0.7448  1.0972 -0.3014
 3585SOL    HW222215   3.087   1.869  11.881  0.5406 -0.4579  0.4435
 3586SOL     OW22216   4.641   0.544   9.258 -0.2120  0.0680  0.1950
 3586SOL    HW122217   4.697   0.621   9.267  1.3944 -0.9326 -1.3059
 3586SOL    HW222218   4.614   0.536   9.350 -0.1134 -0.0213  0.2159
 3587SOL     OW22219   3.856   2.331   1.300  0.1735 -0.0595  0.2727
 3587SOL    HW122220   3.917   2.275   1.252 -0.2833  2.2278 -2.9656
 3587SOL    HW222221   3.911   2.406   1.322  1.7022 -1.1977  0.3163
 3588SOL     OW22222   1.648   1.998   7.905  0.2369 -0.6455  0.2818
 3588SOL    HW122223   1.714   2.036   7.962  1.6515  0.5137 -2.1406
 3588SOL    HW222224   1.692   2.001   7.820 -2.3316  0.7587 -0.9890
 3589SOL     OW22225   4.512   4.259   6.128 -0.5212  0.1051 -0.1939
 3589SOL    HW122226   4.547   4.208   6.201 -1.2825  0.7134  0.6081
 3589SOL    HW222227   4.439   4.207   6.094 -0.8044  0.2137  0.2464
 3590SOL     OW22228   4.229   4.197  15.798 -0.2544  0.3668 -0.2643
 3590SOL    HW122229   4.286   4.215  15.723  0.2977  0.4844  0.1855
 3590SOL    HW222230   4.158   4.152  15.752 -0.1838  0.1313 -0.1428
 3591SOL     OW22231   3.486   3.379   5.118 -0.4258 -0.3595  0.1771
 3591SOL    HW122232   3.416   3.389   5.054  0.6465 -2.4407 -1.3187
 3591SOL    HW222233   3.566   3.398   5.069 -0.4405  0.2243  0.3860
 3592SOL     OW22234   0.920   0.107  14.247 -0.2370  0.6981  0.0674
 3592SOL    HW122235   0.994   0.093  14.306  0.3153 -0.9115 -1.0214
 3592SOL    HW222236   0.848   0.076  14.303 -2.7648  2.4362 -2.2194
 3593SOL     OW22237   2.842   1.407   4.987  0.8326 -0.2905  0.1555
 3593SOL    HW122238   2.847   1.502   4.978  0.2137 -0.2915 -0.2011
 3593SOL    HW222239   2.780   1.399   5.060  2.1669 -2.8489  1.0056
 3594SOL     OW22240   0.589   0.080   5.930 -0.3080  0.0422 -0.0177
 3594SOL    HW122241   0.529   0.019   5.974 -2.7327  2.3353 -0.1298
 3594SOL    HW222242   0.643   0.011   5.892  0.0444  0.4690 -0.2941
 3595SOL     OW22243   1.760   1.939  15.747  0.0264 -0.0578 -0.6072
 3595SOL    HW122244   1.688   1.909  15.803 -0.2118  0.4223 -0.6601
 3595SOL    HW222245   1.828   1.965  15.808  0.9280  0.6997 -1.9221
 3596SOL     OW22246   3.781   1.021   8.320  0.1257 -0.0509 -0.7707
 3596SOL    HW122247   3.861   1.072   8.334 -0.2611  0.4760 -0.4518
 3596SOL    HW222248   3.815   0.957   8.258  1.6164  1.1578 -1.2024
 3597SOL     OW22249   1.617   0.822   6.662 -0.5312 -0.0005 -0.3288
 3597SOL    HW122250   1.631   0.842   6.754 -0.4448  0.5060 -0.4548
 3597SOL    HW222251   1.697   0.858   6.624  0.2241 -1.6532 -0.3300
 3598SOL     OW22252   0.659   0.433   7.442  0.0804 -0.4010  1.3658
 3598SOL    HW122253   0.731   0.496   7.436 -0.3352 -0.1090 -0.6454
 3598SOL    HW222254   0.653   0.397   7.353 -1.9016 -0.7465  1.6580
 3599SOL     OW22255   0.946   3.033   5.553 -0.7197  0.6802  0.3600
 3599SOL    HW122256   0.998   3.073   5.623  0.3103 -1.0624  0.6183
 3599SOL    HW222257   0.888   2.966   5.589 -1.3176  0.2634 -1.4060
 3600SOL     OW22258   3.604   2.803   0.939 -0.0483 -0.2635  0.5944
 3600SOL    HW122259   3.698   2.791   0.933  0.2493  1.5820  1.5087
 3600SOL    HW222260   3.596   2.858   0.862 -0.5330 -0.1085  0.7523
 3601SOL     OW22261   3.870   0.837   8.160 -0.0007  0.1895 -0.1644
 3601SOL    HW122262   3.897   0.836   8.069  1.6814 -2.0388  0.3533
 3601SOL    HW222263   3.916   0.760   8.194 -2.6406 -1.5924 -0.6153
 3602SOL     OW22264   1.587   3.380   2.669 -0.0477 -0.0256  0.3217
 3602SOL    HW122265   1.670   3.368   2.622 -1.0715  2.2479 -2.0850
 3602SOL    HW222266   1.545   3.392   2.584  1.7780 -2.3455 -0.9087
 3603SOL     OW22267   0.798   0.291  12.088 -0.3278  0.2211  0.0353
 3603SOL    HW122268   0.878   0.311  12.137 -1.0016  3.0665 -0.0685
 3603SOL    HW222269   0.747   0.227  12.138 -1.4775 -1.1105 -2.7859
 3604SOL     OW22270   4.672   2.961  13.767  0.2746 -0.3236 -0.0715
 3604SOL    HW122271   4.579   2.953  13.748 -0.1793  2.8631  0.8755
 3604SOL    HW222272   4.691   2.923  13.682 -0.0745 -0.0514 -0.2700
 3605SOL     OW22273   2.245   2.155   9.600 -0.2951  0.2117 -0.0054
 3605SOL    HW122274   2.158   2.165   9.640 -0.8272 -0.7760 -0.9402
 3605SOL    HW222275   2.293   2.097   9.658 -2.5180 -0.8210  0.8232
 3606SOL     OW22276   4.286   0.554   9.039 -0.2277 -0.2053 -0.0819
 3606SOL    HW122277   4.204   0.536   9.085  0.1103 -0.9034  0.2537
 3606SOL    HW222278   4.333   0.605   9.106 -1.9982  0.7471  0.4361
 3607SOL     OW22279   1.215   3.318   7.836 -0.2762  0.1026 -0.4742
 3607SOL    HW122280   1.229   3.264   7.914 -1.5156  1.4421  0.6673
 3607SOL    HW222281   1.149   3.382   7.861 -0.2625 -0.1777  0.2696
 3608SOL     OW22282   0.986   2.619   8.466  0.2515 -0.5068 -0.4277
 3608SOL    HW122283   0.934   2.693   8.435  0.4594 -0.1843 -0.0014
 3608SOL    HW222284   0.930   2.545   8.444 -1.3452  0.5233  0.1728
 3609SOL     OW22285   2.554   2.613   4.967  0.3614 -0.2746  0.2913
 3609SOL    HW122286   2.637   2.573   4.992  0.5540 -0.9206 -1.3277
 3609SOL    HW222287   2.578   2.645   4.880 -0.9816 -0.0669  0.0068
 3610SOL     OW22288   3.226   0.950   6.360 -0.0101 -0.6279 -1.1250
 3610SOL    HW122289   3.294   0.960   6.426  0.3566 -0.6441 -1.5018
 3610SOL    HW222290   3.154   0.945   6.423  1.6000 -0.1397  0.7657
 3611SOL     OW22291   4.115   0.420  12.338  0.1859 -0.2074 -0.1006
 3611SOL    HW122292   4.209   0.439  12.335  0.1144  0.6083  3.1104
 3611SOL    HW222293   4.095   0.466  12.419 -1.6716  0.4076 -0.9083
 3612SOL     OW22294   2.374   2.468  10.754  0.1969 -0.0177 -0.2769
 3612SOL    HW122295   2.370   2.397  10.691 -2.9202 -0.4779  0.4658
 3612SOL    HW222296   2.356   2.428  10.839  1.7872 -1.2489 -0.5389
 3613SOL     OW22297   3.768   2.330   8.358  0.8020 -0.3836 -0.3874
 3613SOL    HW122298   3.807   2.291   8.280  1.6223  0.1687 -0.2493
 3613SOL    HW222299   3.802   2.419   8.362  2.0998 -0.8570 -0.9445
 3614SOL     OW22300   2.710   3.069  17.236  0.2891  0.4783  0.1707
 3614SOL    HW122301   2.690   3.055  17.328 -2.0272  0.4625 -0.3474
 3614SOL    HW222302   2.761   2.990  17.217 -2.7755 -0.8238 -2.7917
 3615SOL     OW22303   3.036   4.048  12.080 -0.0801 -0.5118 -0.3259
 3615SOL    HW122304   3.029   4.075  12.172  0.8082 -2.1951  0.2232
 3615SOL    HW222305   2.943   4.049  12.061  0.0496  2.7261 -0.8162
 3616SOL     OW22306   2.154   1.893  15.543  0.0763 -0.1588 -0.5235
 3616SOL    HW122307   2.183   1.818  15.491  1.4126 -1.0295  1.5069
 3616SOL    HW222308   2.141   1.964  15.481 -0.8275  0.0340 -0.1223
 3617SOL     OW22309   3.039   4.012  11.060  0.0002 -0.4738  0.2436
 3617SOL    HW122310   3.023   4.098  11.099  1.8198 -0.5959  1.2780
 3617SOL    HW222311   3.123   4.021  11.014  0.3630 -3.2664  0.3625
 3618SOL     OW22312   0.397   4.593  15.142 -0.4504 -0.5170 -0.0558
 3618SOL    HW122313   0.416   4.677  15.184  0.8873 -0.8503  0.0142
 3618SOL    HW222314   0.409   4.536  15.218  3.7156  2.5769  1.5928
 3619SOL     OW22315   1.544   2.898   4.095  0.3531  0.2695  0.2606
 3619SOL    HW122316   1.573   2.973   4.148  2.8194  0.2436 -1.0164
 3619SOL    HW222317   1.492   2.946   4.030  0.0492 -0.1727  0.1796
 3620SOL     OW22318   0.211   2.865  16.678 -0.0921 -0.2606  0.1338
 3620SOL    HW122319   0.303   2.843  16.686 -0.0537 -0.1475  0.0013
 3620SOL    HW222320   0.163   2.799  16.729 -1.7430 -1.6978 -3.2901
 3621SOL     OW22321   1.700   0.330   9.729  0.4179  0.4779 -0.4173
 3621SOL    HW122322   1.627   0.389   9.751  2.3702  1.3226  3.8766
 3621SOL    HW222323   1.767   0.357   9.792  0.2704 -0.5093  0.1584
 3622SOL     OW22324   0.786   0.963   5.093  0.0487  0.2543  0.0613
 3622SOL    HW122325   0.692   0.953   5.076  0.3583 -0.1700 -1.3490
 3622SOL    HW222326   0.798   0.874   5.124  2.3024  0.4476 -0.2439
 3623SOL     OW22327   1.465   4.104   5.861  0.6241 -0.2749 -0.2423
 3623SOL    HW122328   1.463   4.195   5.832 -0.7222 -0.4607 -0.7067
 3623SOL    HW222329   1.529   4.112   5.932 -2.4162  0.2616  2.3858
 3624SOL     OW22330   1.054   3.035  14.448 -0.1835  0.3189 -0.1221
 3624SOL    HW122331   0.974   3.087  14.460 -0.4951 -0.0842 -0.4038
 3624SOL    HW222332   1.013   2.948  14.450 -0.7206  0.5773  0.1393
 3625SOL     OW22333   1.831   0.785  14.711 -0.0038 -0.4963 -0.0094
 3625SOL    HW122334   1.796   0.850  14.650 -3.2809 -0.6767  1.6746
 3625SOL    HW222335   1.778   0.798  14.790 -0.9984 -2.9684 -0.2697
 3626SOL     OW22336   4.205   2.291   7.498 -0.3673 -0.1204  0.2605
 3626SOL    HW122337   4.125   2.264   7.453  0.3768 -1.3469 -0.3509
 3626SOL    HW222338   4.159   2.294   7.581 -0.7526 -1.8763  0.1113
 3627SOL     OW22339   1.961   2.759   6.496 -0.1172  0.4310 -0.4559
 3627SOL    HW122340   1.973   2.851   6.473 -0.8712  0.7087  0.2574
 3627SOL    HW222341   1.875   2.735   6.463 -0.2057  0.8524 -0.5309
 3628SOL     OW22342   1.465   2.761   8.261 -0.2901 -0.2271 -0.4666
 3628SOL    HW122343   1.553   2.728   8.278 -1.1727 -0.1593  4.1834
 3628SOL    HW222344   1.478   2.827   8.193 -2.5951  0.9285  0.2081
 3629SOL     OW22345   1.619   1.550   8.464 -0.0240  0.3417  0.6183
 3629SOL    HW122346   1.597   1.621   8.524 -3.5471 -1.4202  1.4069
 3629SOL    HW222347   1.687   1.502   8.513  1.2083 -1.4013 -2.7518
 3630SOL     OW22348   0.462   0.474   6.026 -0.7280  0.2955  0.0012
 3630SOL    HW122349   0.495   0.412   6.091 -0.7782 -1.0461 -1.2546
 3630SOL    HW222350   0.541   0.509   5.986  0.3494 -0.4036  1.5564
 3631SOL     OW22351   3.788   0.329   4.123  0.1374  0.3480 -0.2348
 3631SOL    HW122352   3.873   0.297   4.092 -0.5807 -0.3916 -1.3932
 3631SOL    HW222353   3.776   0.408   4.071  0.8243  1.0080  0.5977
 3632SOL     OW22354   3.377   1.017   6.602 -0.4685 -0.1325 -0.0038
 3632SOL    HW122355   3.382   1.082   6.672 -0.7177  0.4324 -0.5008
 3632SOL    HW222356   3.378   0.938   6.655 -1.5167 -0.0472  0.1307
 3633SOL     OW22357   1.406   3.143   1.223  0.0790  0.2185  0.4647
 3633SOL    HW122358   1.443   3.055   1.215  0.0982  0.2408  0.3123
 3633SOL    HW222359   1.356   3.138   1.305 -1.1657 -1.3565 -0.3809
 3634SOL     OW22360   4.659   1.643   8.276 -0.2081 -0.5391 -0.3353
 3634SOL    HW122361   4.624   1.690   8.200 -0.1285  3.0733  1.8441
 3634SOL    HW222362   4.583   1.653   8.334  1.1996  0.1836  1.3778
 3635SOL     OW22363   0.038   2.364  16.031 -0.7325 -0.4671  0.2236
 3635SOL    HW122364   0.035   2.444  16.084 -1.5900 -1.4848  1.7266
 3635SOL    HW222365   4.680   2.375  15.978  0.7752  2.3939 -1.3990
 3636SOL     OW22366   3.625   4.245   2.955 -0.2971  0.6894  0.3204
 3636SOL    HW122367   3.579   4.222   3.036  1.0893  1.9259  1.4450
 3636SOL    HW222368   3.632   4.340   2.961  0.2300  0.7100 -0.6994
 3637SOL     OW22369   0.104   3.882   5.641 -0.1146 -0.2849  0.0458
 3637SOL    HW122370   0.072   3.793   5.657  0.7798 -0.4344  1.0154
 3637SOL    HW222371   0.019   3.920   5.622 -0.7487 -1.0256  1.3524
 3638SOL     OW22372   3.280   2.846   3.554  0.6723 -0.0428  0.7112
 3638SOL    HW122373   3.348   2.863   3.490  0.1287  0.2882  0.2183
 3638SOL    HW222374   3.313   2.765   3.594 -0.0633 -0.3572  0.6813
 3639SOL     OW22375   0.992   3.367   2.413 -0.0201  0.1540  0.3645
 3639SOL    HW122376   0.944   3.304   2.360  1.1865 -1.2729  0.9857
 3639SOL    HW222377   1.067   3.316   2.441 -1.0249 -2.2320 -1.3144
 3640SOL     OW22378   0.961   3.089  16.227 -0.0403  0.6456 -0.2501
 3640SOL    HW122379   0.873   3.089  16.191  0.2601  1.6260 -1.0097
 3640SOL    HW222380   0.994   3.002  16.205 -0.5733  1.3141 -3.8044
 3641SOL     OW22381   2.412   3.663   5.566 -0.1905  0.2606  0.3837
 3641SOL    HW122382   2.351   3.737   5.572 -0.9471 -0.3282 -0.1357
 3641SOL    HW222383   2.397   3.627   5.654  1.0277  1.0686  0.9274
 3642SOL     OW22384   3.268   1.003   4.864  0.0985 -0.4903 -0.4515
 3642SOL    HW122385   3.279   1.046   4.779  0.0668 -3.1006 -1.7662
 3642SOL    HW222386   3.356   0.966   4.866  1.0625  1.6954 -1.7084
 3643SOL     OW22387   1.058   0.731  12.089  0.5023 -0.0524  0.4377
 3643SOL    HW122388   1.039   0.819  12.123  0.1021  1.0196 -2.5282
 3643SOL    HW222389   1.111   0.750  12.012  0.6316 -1.2928  0.2227
 3644SOL     OW22390   0.878   3.785   4.351  0.7377 -0.0448  0.5704
 3644SOL    HW122391   0.923   3.850   4.404 -0.0840 -0.1293  1.3672
 3644SOL    HW222392   0.943   3.717   4.365  1.6897  0.9994  1.2005
 3645SOL     OW22393   3.746   3.095   7.595  0.0423 -0.1295 -0.5032
 3645SOL    HW122394   3.654   3.068   7.607 -0.3325  1.3056 -0.1769
 3645SOL    HW222395   3.794   3.012   7.598  1.8312  0.9611  0.8520
 3646SOL     OW22396   3.049   4.054   6.981 -0.1048  0.1625  0.1934
 3646SOL    HW122397   3.080   4.000   7.053 -0.1553 -0.4103 -0.2155
 3646SOL    HW222398   3.103   4.019   6.910  2.5236  0.1198  2.2351
 3647SOL     OW22399   2.855   2.013  15.433  0.3589 -0.1555 -0.1751
 3647SOL    HW122400   2.920   1.942  15.428 -0.9399 -1.3006 -0.8220
 3647SOL    HW222401   2.775   1.963  15.448  0.5390  0.1040  1.6656
 3648SOL     OW22402   2.639   0.640   9.036 -0.8427 -0.2246  0.3453
 3648SOL    HW122403   2.733   0.656   9.026 -0.9265  0.4581  0.6702
 3648SOL    HW222404   2.614   0.730   9.057  0.1595  0.3275 -0.7625
 3649SOL     OW22405   3.713   2.111  11.700 -0.6114  0.4715 -0.0872
 3649SOL    HW122406   3.666   2.163  11.634  0.7960 -0.1320 -1.5685
 3649SOL    HW222407   3.738   2.180  11.762  1.6861 -1.8171  1.5246
 3650SOL     OW22408   3.787   1.304   3.871  0.2727 -0.0369 -0.1735
 3650SOL    HW122409   3.695   1.280   3.886  0.1896 -0.2164 -0.9504
 3650SOL    HW222410   3.818   1.345   3.952 -1.2896 -0.5210  0.6671
 3651SOL     OW22411   4.429   1.573   0.904  0.1392  0.4794  0.0387
 3651SOL    HW122412   4.350   1.626   0.896 -0.0711  0.1754  0.0874
 3651SOL    HW222413   4.425   1.579   1.000 -2.8651 -1.7077  0.0665
 3652SOL     OW22414   4.181   2.918   4.870 -0.1398  0.1767  0.0458
 3652SOL    HW122415   4.162   2.958   4.785 -0.9339 -2.2564 -0.9228
 3652SOL    HW222416   4.124   2.970   4.927  0.6364 -1.3709  2.2231
 3653SOL     OW22417   2.218   0.726   7.289 -0.2232  0.1113  0.0058
 3653SOL    HW122418   2.212   0.706   7.196  1.4030 -0.9290  0.1155
 3653SOL    HW222419   2.156   0.661   7.322 -0.3606  0.0474 -0.3867
 3654SOL     OW22420   2.009   1.754   9.546  0.2670 -0.3565  0.3471
 3654SOL    HW122421   2.103   1.749   9.528  0.5061 -0.7031  1.6818
 3654SOL    HW222422   1.977   1.789   9.463 -0.0514 -1.0646  0.1656
 3655SOL     OW22423   1.373   1.111  11.316 -0.4606  0.6170 -0.1072
 3655SOL    HW122424   1.456   1.136  11.276  0.7520 -2.2981  0.6078
 3655SOL    HW222425   1.359   1.181  11.381  1.1585  2.8523 -2.1486
 3656SOL     OW22426   2.473   0.142   8.352 -0.5904 -0.5088  0.2379
 3656SOL    HW122427   2.563   0.156   8.325 -1.1823  2.2607 -0.2636
 3656SOL    HW222428   2.425   0.160   8.271  1.3399  1.0615 -0.5423
 3657SOL     OW22429   4.212   1.195   9.533  0.7119 -0.0794 -0.2756
 3657SOL    HW122430   4.145   1.127   9.543  1.1952 -0.4243  0.6369
 3657SOL    HW222431   4.235   1.207   9.625 -0.9171  0.4185  0.0589
 3658SOL     OW22432   3.066   4.372   9.491 -0.7322 -0.6957 -0.0898
 3658SOL    HW122433   3.025   4.304   9.437 -0.0360 -1.3919  0.2616
 3658SOL    HW222434   3.025   4.340   9.571  0.7079 -0.1273  0.8831
 3659SOL     OW22435   1.314   1.846   3.428  0.3110  0.2147  0.0077
 3659SOL    HW122436   1.359   1.784   3.370 -1.5956 -0.0967 -1.1528
 3659SOL    HW222437   1.237   1.862   3.373 -1.0964  0.1642  1.9930
 3660SOL     OW22438   1.519   1.372  12.344 -0.2462  0.2219 -0.4007
 3660SOL    HW122439   1.485   1.398  12.430 -0.6910 -0.1084 -0.4796
 3660SOL    HW222440   1.580   1.444  12.327 -0.0304 -0.0894 -0.9356
 3661SOL     OW22441   3.292   3.198   4.394 -0.0908  0.7929 -0.6717
 3661SOL    HW122442   3.220   3.205   4.332  0.8887  0.3169 -1.8680
 3661SOL    HW222443   3.366   3.204   4.334  1.0052 -1.5966  0.4286
 3662SOL     OW22444   2.948   4.147   9.341 -0.0007 -0.1446  0.2058
 3662SOL    HW122445   3.039   4.119   9.326 -0.3337 -1.3428  0.4066
 3662SOL    HW222446   2.926   4.075   9.400 -1.4789  1.3486  1.4326
 3663SOL     OW22447   4.101   2.066   5.558 -0.0832 -0.4285  0.0271
 3663SOL    HW122448   4.014   2.040   5.587 -0.0386 -2.3038 -1.5600
 3663SOL    HW222449   4.085   2.114   5.476  0.9390 -2.7830 -1.5542
 3664SOL     OW22450   1.816   1.972   9.631 -0.0941 -0.3506 -0.2895
 3664SOL    HW122451   1.771   2.043   9.677  0.3088  0.5582 -1.3140
 3664SOL    HW222452   1.759   1.937   9.562 -2.7852  0.6849  1.4113
 3665SOL     OW22453   3.814   4.195   7.961  0.1220  0.3586  0.1218
 3665SOL    HW122454   3.856   4.280   7.972 -0.9400  0.7364  1.2895
 3665SOL    HW222455   3.870   4.153   7.895  1.0620 -1.0544  1.7841
 3666SOL     OW22456   2.486   4.360  16.215  0.2544  0.0126 -0.7875
 3666SOL    HW122457   2.455   4.288  16.160 -0.5065  0.6086 -1.1521
 3666SOL    HW222458   2.544   4.402  16.152  0.6407 -0.2478 -0.5992
 3667SOL     OW22459   4.197   3.441  14.003  0.0838 -0.0160  0.3762
 3667SOL    HW122460   4.125   3.423  14.062 -0.1556 -1.4213 -0.3401
 3667SOL    HW222461   4.245   3.359  14.013 -1.4292 -0.6880  1.8624
 3668SOL     OW22462   1.112   3.941   4.177  0.0829  0.7293  0.1924
 3668SOL    HW122463   1.075   3.876   4.237  1.0357  0.5896  0.6252
 3668SOL    HW222464   1.034   3.996   4.172  0.4242  1.1161 -0.8117
 3669SOL     OW22465   0.263   1.694   1.953  0.4253  0.0995  0.5138
 3669SOL    HW122466   0.334   1.636   1.928  0.3961 -0.1684  1.0606
 3669SOL    HW222467   0.203   1.682   1.879  3.2528  2.0076 -2.0781
 3670SOL     OW22468   3.568   1.175   3.077 -0.7362 -0.1203  0.5360
 3670SOL    HW122469   3.567   1.216   2.991  1.7537 -0.2647  0.4347
 3670SOL    HW222470   3.641   1.115   3.062 -0.5298  0.0438  0.8799
 3671SOL     OW22471   0.443   1.661   4.868 -0.7177 -0.3605  0.2044
 3671SOL    HW122472   0.481   1.711   4.795 -0.5588  0.5582  0.9194
 3671SOL    HW222473   0.441   1.738   4.924  0.2273  0.7433 -1.2498
 3672SOL     OW22474   2.525   4.196   4.289  0.2047 -0.2657 -0.2725
 3672SOL    HW122475   2.593   4.141   4.250 -0.0454 -0.3242 -0.6288
 3672SOL    HW222476   2.466   4.127   4.320 -0.8034  0.5784 -0.3157
 3673SOL     OW22477   0.537   0.441   8.313 -0.6172  0.1879  0.0743
 3673SOL    HW122478   0.588   0.475   8.239 -0.3231 -0.4211 -0.0068
 3673SOL    HW222479   0.540   0.352   8.278 -1.2535  0.5188 -0.8432
 3674SOL     OW22480   1.734   2.627   3.508  0.3937 -0.0734 -0.2943
 3674SOL    HW122481   1.668   2.611   3.440  0.7767  3.0225 -1.4226
 3674SOL    HW222482   1.783   2.545   3.509 -0.6792 -0.6864  1.6403
 3675SOL     OW22483   2.182   1.949   8.967  0.0461 -0.0361 -0.2022
 3675SOL    HW122484   2.147   2.003   9.038 -1.6722 -0.2459 -0.8865
 3675SOL    HW222485   2.233   1.886   9.018  1.3951  0.3008 -1.1434
 3676SOL     OW22486   0.838   1.566  17.590 -0.0420  0.2181  0.4889
 3676SOL    HW122487   0.812   1.534  17.676 -0.0715  1.7173  1.0447
 3676SOL    HW222488   0.897   1.496  17.563  0.0754 -0.2064  1.9059
 3677SOL     OW22489   3.363   1.264   1.100  0.0818  0.2959 -0.1149
 3677SOL    HW122490   3.383   1.200   1.032 -0.3989 -0.9663  0.9100
 3677SOL    HW222491   3.280   1.230   1.134  0.1653  1.5233  1.3295
 3678SOL     OW22492   3.474   0.308  12.709 -0.5965 -0.2897 -0.2039
 3678SOL    HW122493   3.536   0.362  12.661 -0.3286 -0.5431 -0.1464
 3678SOL    HW222494   3.539   0.244  12.738 -1.2640 -1.3412 -1.0261
 3679SOL     OW22495   4.186   2.412   6.218 -0.4530 -0.1708  0.0045
 3679SOL    HW122496   4.132   2.349   6.267  0.2192  0.0610  1.0363
 3679SOL    HW222497   4.240   2.358   6.160 -2.2792 -1.2370 -0.7282
 3680SOL     OW22498   1.702   0.936   8.659  0.1718 -0.2767  0.2006
 3680SOL    HW122499   1.655   1.018   8.645  0.3533  0.0266  1.3355
 3680SOL    HW222500   1.631   0.874   8.678  0.9099 -0.4539  2.3597
 3681SOL     OW22501   4.160   1.884   9.340  0.3637 -0.0241  0.4087
 3681SOL    HW122502   4.148   1.792   9.363  1.6691 -0.4241 -0.5299
 3681SOL    HW222503   4.250   1.875   9.309 -0.2077  2.7148 -1.9969
 3682SOL     OW22504   3.523   1.573   2.768  0.2096  0.2078  0.0994
 3682SOL    HW122505   3.613   1.606   2.763  0.8828 -1.3836  1.4576
 3682SOL    HW222506   3.496   1.590   2.678 -0.4340 -2.0739 -0.1412
 3683SOL     OW22507   0.838   3.681   4.978  0.5028 -0.3532  0.0718
 3683SOL    HW122508   0.827   3.740   5.052 -1.8202 -0.8544  0.1278
 3683SOL    HW222509   0.834   3.598   5.025  0.9794 -0.0536  0.6424
 3684SOL     OW22510   0.493   2.778   2.682  0.4430 -0.4511  0.2257
 3684SOL    HW122511   0.497   2.716   2.609  1.0454  0.3438 -0.4127
 3684SOL    HW222512   0.587   2.791   2.673 -0.0007  1.8882 -1.1478
 3685SOL     OW22513   3.472   0.593   5.328 -0.3651 -0.4289 -0.0722
 3685SOL    HW122514   3.532   0.574   5.256  0.3418 -0.3127  0.4960
 3685SOL    HW222515   3.504   0.682   5.344 -0.3117 -0.3487 -0.6223
 3686SOL     OW22516   0.440   2.229   5.219 -0.5199 -0.3046 -0.4540
 3686SOL    HW122517   0.352   2.223   5.257  0.1536 -0.2280  1.1181
 3686SOL    HW222518   0.473   2.141   5.239 -0.3482 -0.3415 -0.9206
 3687SOL     OW22519   1.815   4.314  15.486  0.4464  0.0625 -0.1482
 3687SOL    HW122520   1.784   4.264  15.562  0.1794  2.3969  1.2854
 3687SOL    HW222521   1.741   4.366  15.458  1.0156 -0.5557 -2.7422
 3688SOL     OW22522   2.683   0.421  10.184  0.6205  0.4521  0.5588
 3688SOL    HW122523   2.740   0.355  10.225  1.8449  0.7759 -0.6049
 3688SOL    HW222524   2.637   0.368  10.119 -0.3630  2.3497 -0.2620
 3689SOL     OW22525   1.167   3.185   4.965  0.0353  0.3744  0.5161
 3689SOL    HW122526   1.073   3.169   4.954 -0.1844  2.2652 -0.3959
 3689SOL    HW222527   1.195   3.097   4.992 -0.2055 -0.0892 -0.7275
 3690SOL     OW22528   0.263   4.511   5.749  0.3451  0.1733  0.1801
 3690SOL    HW122529   0.219   4.428   5.769  1.4846 -0.2587  0.8847
 3690SOL    HW222530   0.306   4.480   5.669 -0.1012  1.5380 -0.5957
 3691SOL     OW22531   1.683   1.730  17.303  0.3442 -0.3160 -0.4018
 3691SOL    HW122532   1.772   1.716  17.272 -0.1698  0.1852 -2.1181
 3691SOL    HW222533   1.634   1.675  17.242 -0.9021 -1.3828  1.5475
 3692SOL     OW22534   2.561   3.897   9.761 -0.1488 -0.0634  0.5994
 3692SOL    HW122535   2.552   3.911   9.855 -2.5357  3.1687 -0.1099
 3692SOL    HW222536   2.471   3.873   9.741 -0.4211 -0.0248  1.7768
 3693SOL     OW22537   2.511   3.593  12.599  0.4612  0.2211  0.5981
 3693SOL    HW122538   2.478   3.644  12.525  0.7838  1.3118  1.2037
 3693SOL    HW222539   2.577   3.541  12.554  1.1090  1.8198 -0.2924
 3694SOL     OW22540   4.540   0.083   6.255 -0.5173 -0.2528 -0.5178
 3694SOL    HW122541   4.493   0.010   6.214  0.5156 -0.8893 -0.5984
 3694SOL    HW222542   4.605   0.117   6.193  0.5377  1.1149  1.3397
 3695SOL     OW22543   2.894   4.045   9.029  0.3756 -0.0687 -0.2349
 3695SOL    HW122544   2.809   4.051   9.072 -0.4043 -2.1443 -1.5231
 3695SOL    HW222545   2.940   3.976   9.076  3.6325  1.2822 -1.3916
 3696SOL     OW22546   2.706   1.322   3.058 -0.7305  0.0931 -0.5511
 3696SOL    HW122547   2.707   1.232   3.088 -0.4050  0.3955  0.3632
 3696SOL    HW222548   2.648   1.357   3.126 -0.4242 -0.3139 -0.0830
 3697SOL     OW22549   4.408   0.872  14.037  0.1798 -0.1079  0.0631
 3697SOL    HW122550   4.485   0.815  14.044 -0.1649 -0.4832  0.8107
 3697SOL    HW222551   4.442   0.949  13.991  1.2531 -0.6968 -0.1410
 3698SOL     OW22552   1.478   1.670  15.564 -0.2539  0.5423  0.1693
 3698SOL    HW122553   1.461   1.578  15.542  1.7707  0.3123 -0.4863
 3698SOL    HW222554   1.404   1.690  15.621 -1.6053  1.4372 -1.9547
 3699SOL     OW22555   1.700   0.551   5.926  0.3687  0.2832  0.4322
 3699SOL    HW122556   1.747   0.474   5.957 -0.0266  0.4448  1.4443
 3699SOL    HW222557   1.710   0.541   5.831 -0.4940  2.4727  0.1126
 3700SOL     OW22558   3.859   1.819  15.215  0.5379 -0.6478  0.3555
 3700SOL    HW122559   3.863   1.743  15.272 -0.8883 -0.1789  1.0868
 3700SOL    HW222560   3.944   1.835  15.173  1.1388 -0.2814  1.7181
 3701SOL     OW22561   4.658   3.247   0.813 -0.2179 -0.1862  0.1846
 3701SOL    HW122562   4.621   3.180   0.870 -1.3975  1.9295  1.8966
 3701SOL    HW222563   4.655   3.208   0.725 -0.4134  0.3291 -0.0380
 3702SOL     OW22564   2.490   0.822   5.518 -0.4178 -0.0496 -0.2329
 3702SOL    HW122565   2.569   0.773   5.541 -1.2257 -0.1073  2.4675
 3702SOL    HW222566   2.430   0.785   5.582  1.0447 -1.3584  0.3870
 3703SOL     OW22567   2.138   0.844   7.579  0.1493 -0.1177  0.3629
 3703SOL    HW122568   2.178   0.842   7.492 -2.1386 -0.5225 -0.6975
 3703SOL    HW222569   2.197   0.807   7.645  0.9498 -1.0826 -0.8941
 3704SOL     OW22570   3.359   1.600   7.289  0.0234  0.1709 -0.1781
 3704SOL    HW122571   3.453   1.595   7.272 -0.0734  2.5286 -1.4307
 3704SOL    HW222572   3.348   1.679   7.342 -1.7902 -0.3350  0.1808
 3705SOL     OW22573   3.151   1.713   0.183  0.1278 -0.9307 -0.8104
 3705SOL    HW122574   3.080   1.762   0.141  0.5757  1.0442  0.6968
 3705SOL    HW222575   3.120   1.694   0.272 -0.1321 -0.9620 -0.9056
 3706SOL     OW22576   2.858   3.094   5.172  0.2748 -0.2665 -0.2987
 3706SOL    HW122577   2.786   3.105   5.234 -0.1292 -4.2176 -0.0060
 3706SOL    HW222578   2.903   3.177   5.164  0.4226 -0.1437  1.8143
 3707SOL     OW22579   0.490   0.287   2.200 -0.0148 -0.3613  0.0283
 3707SOL    HW122580   0.440   0.276   2.119  1.8616 -0.1375 -1.1614
 3707SOL    HW222581   0.533   0.370   2.178 -2.7243  1.0171 -0.0956
 3708SOL     OW22582   4.567   3.367   7.313 -0.0878  0.1700 -0.4814
 3708SOL    HW122583   4.631   3.426   7.352  0.9666 -0.8859 -0.6148
 3708SOL    HW222584   4.494   3.422   7.341  0.9408  0.3454  1.8030
 3709SOL     OW22585   4.635   2.692   5.210  0.0176  0.1103 -0.5764
 3709SOL    HW122586   4.566   2.632   5.183 -1.1255  0.5584  1.3026
 3709SOL    HW222587   4.673   2.703   5.123 -1.1272 -0.4709 -1.1552
 3710SOL     OW22588   1.211   0.761   9.287 -0.3857 -0.0712 -0.6698
 3710SOL    HW122589   1.146   0.740   9.220  0.2527 -2.4412 -0.5681
 3710SOL    HW222590   1.199   0.680   9.337  2.6092 -0.6624 -0.8972
 3711SOL     OW22591   4.371   1.075   8.938 -0.6297 -0.1828 -0.4300
 3711SOL    HW122592   4.343   1.132   8.867  1.9226  3.6368  1.6060
 3711SOL    HW222593   4.417   1.133   8.999 -0.5553 -0.6840 -0.0067
 3712SOL     OW22594   4.586   3.079   6.459  0.0917  0.6115  0.0990
 3712SOL    HW122595   4.595   3.022   6.536  2.0196  1.7807  0.7184
 3712SOL    HW222596   4.512   3.030   6.421 -0.6558 -0.3416  2.8042
 3713SOL     OW22597   0.127   0.451  17.207  0.1812 -0.2254 -0.2796
 3713SOL    HW122598   0.187   0.513  17.248 -0.3156  0.2183 -0.2132
 3713SOL    HW222599   0.187   0.428  17.135  2.3537  1.9383  0.8339
 3714SOL     OW22600   3.022   0.018   3.539 -0.4587 -0.4993  0.1218
 3714SOL    HW122601   3.046   0.078   3.609 -1.7189  0.0998  0.0344
 3714SOL    HW222602   3.050   4.657   3.581 -0.2044 -0.4363  0.0791
 3715SOL     OW22603   1.042   3.888   2.196  0.4233  0.1027  0.4458
 3715SOL    HW122604   1.070   3.798   2.210  1.1267  0.3719  0.7719
 3715SOL    HW222605   0.960   3.870   2.149 -0.2993  3.5959  0.3268
 3716SOL     OW22606   1.073   2.278   2.672 -0.6469  0.2819  0.0808
 3716SOL    HW122607   1.139   2.335   2.711 -1.3789  1.2478 -0.1260
 3716SOL    HW222608   0.996   2.326   2.702  0.5336  2.2791 -0.1126
 3717SOL     OW22609   1.534   4.618  14.966  0.2263 -0.1274  0.0114
 3717SOL    HW122610   1.486   4.583  14.891 -1.8364 -0.6196  1.5584
 3717SOL    HW222611   1.613   4.638  14.916 -0.5855  0.0536 -1.2127
 3718SOL     OW22612   3.317   4.329   1.823  0.0221  0.5384 -0.1499
 3718SOL    HW122613   3.403   4.288   1.815  0.3262  1.1506 -0.0215
 3718SOL    HW222614   3.343   4.419   1.842  1.0211  0.7027 -2.2909
 3719SOL     OW22615   2.896   4.608   4.483 -0.3483 -0.0963  0.1278
 3719SOL    HW122616   2.889   4.702   4.499 -4.5753 -0.5455  0.8817
 3719SOL    HW222617   2.836   4.570   4.547  0.3049 -1.2249  0.0735
 3720SOL     OW22618   1.898   3.409   6.430 -1.0288  0.2047  0.4151
 3720SOL    HW122619   1.969   3.425   6.493 -1.0157  2.2328 -0.0955
 3720SOL    HW222620   1.914   3.317   6.408  2.6263  1.1591 -0.9554
 3721SOL     OW22621   2.144   1.449   3.026 -0.1047 -0.6640 -0.2287
 3721SOL    HW122622   2.153   1.463   3.120  2.4150  1.3016 -0.7602
 3721SOL    HW222623   2.086   1.374   3.014  0.4596 -1.0604 -0.4451
 3722SOL     OW22624   2.306   1.941  10.561 -0.8536 -0.3387  0.4767
 3722SOL    HW122625   2.358   1.861  10.554 -0.8944 -0.4291  1.1901
 3722SOL    HW222626   2.292   1.946  10.656  0.6173  1.1894  0.6024
 3723SOL     OW22627   3.234   0.471   6.744 -0.5651 -0.0159  0.1486
 3723SOL    HW122628   3.304   0.496   6.804 -1.8453 -2.0477  2.4796
 3723SOL    HW222629   3.258   0.383   6.715  1.2928  1.2136 -2.0431
 3724SOL     OW22630   2.423   3.656   4.396 -0.9222 -0.9596 -0.0124
 3724SOL    HW122631   2.431   3.579   4.340 -0.8886 -2.0758  1.5353
 3724SOL    HW222632   2.439   3.623   4.484  2.3993 -0.7087 -0.5178
 3725SOL     OW22633   4.551   1.421   7.975  0.1916 -0.2968  0.2851
 3725SOL    HW122634   4.557   1.360   8.048  3.0843  0.5670  0.7946
 3725SOL    HW222635   4.568   1.359   7.904 -1.2073  0.0376 -0.3301
 3726SOL     OW22636   3.588   0.693   9.908  0.0542  0.3324 -0.0781
 3726SOL    HW122637   3.671   0.646   9.920  0.8437  1.9211  0.6695
 3726SOL    HW222638   3.522   0.641   9.954  0.8208  1.5454  2.4422
 3727SOL     OW22639   1.252   0.218   6.540  0.1221 -0.0660 -0.3140
 3727SOL    HW122640   1.194   0.142   6.542 -0.8718  0.7416  1.7277
 3727SOL    HW222641   1.322   0.192   6.600  0.8692  1.5523 -0.5058
 3728SOL     OW22642   2.660   3.173   6.243  0.2557  0.6615  0.4210
 3728SOL    HW122643   2.734   3.116   6.223  0.7908  1.5115 -0.0087
 3728SOL    HW222644   2.656   3.223   6.161  2.0294 -0.0456 -0.0883
 3729SOL     OW22645   4.530   1.084  13.473  0.3334  0.0720 -0.3478
 3729SOL    HW122646   4.605   1.034  13.441  0.4595 -0.0903  0.2061
 3729SOL    HW222647   4.575   1.153  13.522  1.8091 -1.3248  0.2512
 3730SOL     OW22648   4.380   0.789   1.107  0.4828  0.3382 -0.3177
 3730SOL    HW122649   4.366   0.859   1.044  1.0455  0.1481 -0.6505
 3730SOL    HW222650   4.310   0.804   1.171 -1.0356 -1.6550 -1.5137
 3731SOL     OW22651   3.697   2.535  16.977 -0.3262 -0.4050  0.3900
 3731SOL    HW122652   3.769   2.580  16.934 -0.5682 -0.3903  0.0028
 3731SOL    HW222653   3.727   2.513  17.065  2.0342  1.0117 -0.0869
 3732SOL     OW22654   3.831   0.703   5.309 -0.1950 -0.3340 -0.1654
 3732SOL    HW122655   3.888   0.773   5.341  0.7400 -1.5348  0.8100
 3732SOL    HW222656   3.821   0.716   5.214 -1.3454 -1.1398 -0.1580
 3733SOL     OW22657   4.128   1.084  13.748 -0.4418 -0.1274 -0.6493
 3733SOL    HW122658   4.165   1.017  13.806  1.5003  1.5650  0.0860
 3733SOL    HW222659   4.145   1.054  13.659 -0.8155 -0.1994 -0.6965
 3734SOL     OW22660   1.603   2.225   7.679 -0.0645 -0.6271 -0.2250
 3734SOL    HW122661   1.695   2.241   7.700  0.0816  0.8462 -2.0043
 3734SOL    HW222662   1.579   2.307   7.637  1.9293 -1.0710 -2.2596
 3735SOL     OW22663   0.494   1.025  13.835 -0.2109 -0.3786 -0.8182
 3735SOL    HW122664   0.552   1.058  13.903  0.2143 -0.8320 -0.9661
 3735SOL    HW222665   0.423   0.984  13.886 -1.7619  2.1954 -0.9184
 3736SOL     OW22666   0.140   1.921   9.722 -0.2290  0.1690 -0.2588
 3736SOL    HW122667   0.214   1.979   9.706  0.9133 -1.1231  0.3199
 3736SOL    HW222668   0.186   1.837   9.724 -0.9475 -0.2595 -1.6749
 3737SOL     OW22669   2.361   0.644  10.462 -0.0984  0.0122 -0.4965
 3737SOL    HW122670   2.269   0.619  10.470  0.1616 -0.7618  0.0070
 3737SOL    HW222671   2.349   0.736  10.438 -2.2522  0.1452  0.9960
 3738SOL     OW22672   1.326   1.337   7.085  0.5573  0.0874 -0.0925
 3738SOL    HW122673   1.327   1.430   7.061 -2.4293 -0.6498 -3.0634
 3738SOL    HW222674   1.349   1.296   7.001 -0.5923 -1.5640  0.3892
 3739SOL     OW22675   3.099   2.468   6.533  0.8455 -0.3805  0.3561
 3739SOL    HW122676   3.017   2.460   6.582  0.1362 -1.2663 -0.9886
 3739SOL    HW222677   3.108   2.396   6.471 -0.9204 -1.2291  1.0795
 3740SOL     OW22678   0.835   1.789   2.970 -0.0115 -0.6194 -0.4525
 3740SOL    HW122679   0.915   1.829   3.004  0.5288 -0.8920 -1.4041
 3740SOL    HW222680   0.797   1.740   3.043 -0.9031  2.6662  1.2983
 3741SOL     OW22681   1.027   1.570   0.667  0.0159  0.1871  0.2188
 3741SOL    HW122682   1.044   1.611   0.582  0.0128 -2.4024 -1.0338
 3741SOL    HW222683   0.931   1.565   0.664 -0.0872  1.2659  1.5542
 3742SOL     OW22684   2.423   3.295   1.916 -0.0848  0.0618  0.3174
 3742SOL    HW122685   2.465   3.348   1.984 -1.7782 -1.0233  2.2237
 3742SOL    HW222686   2.423   3.363   1.849  1.5645  0.1318  0.4040
 3743SOL     OW22687   0.015   1.352   9.050 -0.0833 -0.0652  0.1827
 3743SOL    HW122688   4.711   1.420   8.988 -2.9696 -1.0134  0.2960
 3743SOL    HW222689   4.661   1.298   9.073  0.1462 -0.6808 -0.5134
 3744SOL     OW22690   2.799   2.541   5.117  0.1027  0.3201 -0.5519
 3744SOL    HW122691   2.752   2.494   5.186  0.0018  0.7578 -0.3212
 3744SOL    HW222692   2.857   2.597   5.169 -0.3409  0.1493  0.1262
 3745SOL     OW22693   2.169   3.154  14.998 -0.2100 -0.2617  0.2352
 3745SOL    HW122694   2.160   3.208  14.920 -0.4276 -0.8328 -0.1288
 3745SOL    HW222695   2.156   3.215  15.072 -0.3529  0.5997 -0.4957
 3746SOL     OW22696   3.826   0.472  15.094  0.7543 -0.1692  0.3759
 3746SOL    HW122697   3.831   0.436  15.006  0.5768  1.4449 -0.3027
 3746SOL    HW222698   3.896   0.537  15.086  0.5421  0.2304  1.7427
 3747SOL     OW22699   2.352   0.784   4.477 -0.2314 -0.5332 -0.2027
 3747SOL    HW122700   2.402   0.860   4.447  0.5399 -1.5811 -1.5891
 3747SOL    HW222701   2.278   0.831   4.514  0.4820 -0.8157  1.6199
 3748SOL     OW22702   2.669   1.900   7.591 -0.0910 -0.1164 -0.2686
 3748SOL    HW122703   2.765   1.905   7.591  0.0137 -2.1771 -0.1815
 3748SOL    HW222704   2.670   1.835   7.662  2.4615  0.6549  0.3971
 3749SOL     OW22705   1.543   0.429   9.376  0.3639  0.3506  0.0699
 3749SOL    HW122706   1.612   0.368   9.401  1.5092  0.6091 -2.3737
 3749SOL    HW222707   1.585   0.507   9.411  0.4844  0.6211 -0.6748
 3750SOL     OW22708   3.456   2.567   4.178 -0.8014 -0.0942 -0.2865
 3750SOL    HW122709   3.542   2.549   4.140 -1.5025  0.3429 -2.0543
 3750SOL    HW222710   3.447   2.662   4.171  2.2527  0.3865  2.2006
 3751SOL     OW22711   0.880   1.590  11.494  0.1462  0.3991  0.4189
 3751SOL    HW122712   0.789   1.607  11.470  0.2344  0.2080 -0.0554
 3751SOL    HW222713   0.900   1.510  11.445  1.0523  0.8508  0.0371
 3752SOL     OW22714   1.710   3.861   6.637  0.4352 -0.3278  0.6475
 3752SOL    HW122715   1.776   3.918   6.677  0.8134 -0.7150  0.5725
 3752SOL    HW222716   1.673   3.806   6.707 -1.8816  2.0817  1.3341
 3753SOL     OW22717   2.192   0.591   7.835  0.4119  0.7229  0.0120
 3753SOL    HW122718   2.149   0.656   7.890 -0.5892 -0.1087  0.2172
 3753SOL    HW222719   2.256   0.640   7.783  2.0088 -1.2709  0.1211
 3754SOL     OW22720   3.971   3.267   2.808 -0.4783 -0.2498 -0.7395
 3754SOL    HW122721   4.044   3.263   2.870 -0.3052 -0.1815 -0.9411
 3754SOL    HW222722   4.004   3.236   2.723  0.7767  2.8630 -1.3632
 3755SOL     OW22723   1.159   0.282   7.150  0.0419 -0.1239 -0.7817
 3755SOL    HW122724   1.064   0.283   7.135  0.1937 -2.1704 -1.8579
 3755SOL    HW222725   1.159   0.350   7.218 -0.3015 -1.5756  0.6956
 3756SOL     OW22726   3.331   1.582  10.139 -0.4613 -0.1624 -0.2448
 3756SOL    HW122727   3.376   1.502  10.111  1.0068  0.6371 -0.1703
 3756SOL    HW222728   3.365   1.599  10.228 -2.6885 -1.3990  0.8397
 3757SOL     OW22729   0.462   2.651  17.191  0.0212  0.2361 -0.1163
 3757SOL    HW122730   0.546   2.606  17.204 -0.7658 -1.0201  0.6137
 3757SOL    HW222731   0.404   2.578  17.170  1.1313  0.1467 -2.8174
 3758SOL     OW22732   3.759   0.571  11.073  0.3401 -0.1072 -0.0326
 3758SOL    HW122733   3.715   0.497  11.116 -1.3578  0.1526 -1.2985
 3758SOL    HW222734   3.817   0.518  11.019  0.6662 -0.2334  0.4393
 3759SOL     OW22735   1.236   2.130  10.090  0.4002 -0.0817 -0.1008
 3759SOL    HW122736   1.325   2.164  10.082  0.0615  0.5571 -1.2070
 3759SOL    HW222737   1.255   2.040  10.118 -1.2418 -0.1066  0.9167
 3760SOL     OW22738   4.196   0.988   7.020 -0.8711  0.4218  0.0353
 3760SOL    HW122739   4.102   1.004   7.025 -0.9346 -0.8088  2.9476
 3760SOL    HW222740   4.219   1.008   6.929  0.1730  0.7842  0.3820
 3761SOL     OW22741   1.398   3.441  16.003 -0.4208 -0.2177 -0.0929
 3761SOL    HW122742   1.374   3.526  15.966  0.4873  0.5692  1.1167
 3761SOL    HW222743   1.488   3.438  15.971 -0.7337  1.3280 -1.1294
 3762SOL     OW22744   2.239   3.387   6.220  0.0127 -0.3084  0.2065
 3762SOL    HW122745   2.228   3.321   6.288 -2.2916  0.5615  0.6703
 3762SOL    HW222746   2.273   3.332   6.149  4.3486  2.8163 -0.1410
 3763SOL     OW22747   0.418   1.406  17.295  0.3460  0.2541  0.2776
 3763SOL    HW122748   0.351   1.417  17.362 -0.5646  0.0391 -0.6109
 3763SOL    HW222749   0.495   1.455  17.325  0.9189  0.3184 -1.2968
 3764SOL     OW22750   2.554   3.425   2.227 -0.2904  0.2852 -0.1052
 3764SOL    HW122751   2.471   3.439   2.272  1.1322  0.1786  2.5485
 3764SOL    HW222752   2.555   3.501   2.168 -0.5828 -0.0999 -0.6043
 3765SOL     OW22753   2.365   1.381   4.016  0.4263 -0.1555  0.6391
 3765SOL    HW122754   2.333   1.321   4.083 -2.9150  0.5275 -0.3489
 3765SOL    HW222755   2.445   1.335   3.990 -0.2971 -1.5990  0.9925
 3766SOL     OW22756   4.160   3.675  12.298 -0.3936  0.1326  0.5212
 3766SOL    HW122757   4.174   3.607  12.231  1.5834  1.1164 -0.0644
 3766SOL    HW222758   4.178   3.628  12.379  1.5502 -1.4333 -0.8096
 3767SOL     OW22759   1.698   3.827   7.398 -0.0333 -0.2806  0.2770
 3767SOL    HW122760   1.725   3.906   7.352  1.7669 -0.2218  1.4107
 3767SOL    HW222761   1.620   3.800   7.350  2.3683 -1.9548 -2.6793
 3768SOL     OW22762   3.756   3.403   5.383 -0.4804  0.5157 -0.0111
 3768SOL    HW122763   3.671   3.384   5.423  0.3861 -0.4589  1.3348
 3768SOL    HW222764   3.765   3.352   5.302 -0.3084  0.8101 -0.1776
 3769SOL     OW22765   2.084   3.809  12.991  0.1280 -0.2097  0.3269
 3769SOL    HW122766   2.104   3.743  13.058  0.1293 -1.0055 -0.4664
 3769SOL    HW222767   2.058   3.751  12.920 -1.6329  1.0798 -0.0761
 3770SOL     OW22768   1.440   1.901   2.182  0.2064  1.4592  0.2650
 3770SOL    HW122769   1.475   1.878   2.096 -1.8141  1.7303 -0.6217
 3770SOL    HW222770   1.524   1.917   2.225 -0.4350  0.6051  1.8666
 3771SOL     OW22771   0.445   1.001   7.792 -0.3562 -0.4446 -0.0760
 3771SOL    HW122772   0.533   1.018   7.824 -0.9217  0.0639  1.2495
 3771SOL    HW222773   0.455   0.954   7.709 -2.6145  2.4274 -1.9871
 3772SOL     OW22774   3.831   2.960  10.869 -0.2441  0.3042 -0.0370
 3772SOL    HW122775   3.917   2.978  10.831 -0.4710 -2.2385 -1.6662
 3772SOL    HW222776   3.779   3.029  10.828 -2.7081 -0.4368  1.8429
 3773SOL     OW22777   1.864   2.292   9.185 -0.0471  0.1131  0.8284
 3773SOL    HW122778   1.796   2.227   9.169 -0.1012  0.2191  0.6260
 3773SOL    HW222779   1.898   2.262   9.269  2.7607  2.2147  0.4343
 3774SOL     OW22780   2.126   2.193   2.401 -0.8976  0.0131  0.2436
 3774SOL    HW122781   2.063   2.246   2.353 -0.2587  1.2055  0.7285
 3774SOL    HW222782   2.203   2.202   2.345 -1.1122  1.0382  0.1250
 3775SOL     OW22783   4.532   2.048  15.766 -0.2495 -0.6611  0.1796
 3775SOL    HW122784   4.559   2.123  15.715  3.6745  0.9514  4.6250
 3775SOL    HW222785   4.610   2.041  15.821  0.3434 -1.9365 -0.8317
 3776SOL     OW22786   0.041   3.264   7.615 -0.2384  0.3438 -0.3087
 3776SOL    HW122787   0.126   3.220   7.617 -0.3565  0.1373  0.2422
 3776SOL    HW222788   0.017   3.264   7.708 -1.8621 -0.6097 -0.7209
 3777SOL     OW22789   2.611   3.074   7.455  0.6428 -0.0955  0.1218
 3777SOL    HW122790   2.576   2.994   7.495 -2.4125  1.5893  0.8245
 3777SOL    HW222791   2.546   3.135   7.489  0.7714 -0.0121  0.2187
 3778SOL     OW22792   0.000   4.063   5.951  0.1432  0.3960 -0.0896
 3778SOL    HW122793   4.712   4.103   6.038 -0.4929 -0.3860  0.2031
 3778SOL    HW222794   4.649   4.111   5.911 -1.2972 -1.5415  0.2069
 3779SOL     OW22795   4.172   2.881   6.713 -0.2504  0.0435 -0.2630
 3779SOL    HW122796   4.094   2.931   6.737 -0.5147  0.8350 -2.7764
 3779SOL    HW222797   4.148   2.863   6.622  0.5587 -0.7911 -0.3151
 3780SOL     OW22798   4.323   0.704  10.983 -0.3282  0.4952  0.3016
 3780SOL    HW122799   4.410   0.669  11.004  0.5600  2.2703 -0.4397
 3780SOL    HW222800   4.348   0.766  10.915 -0.2031 -0.1594 -0.2531
 3781SOL     OW22801   2.016   1.012  12.249 -0.5037  0.1752 -0.2124
 3781SOL    HW122802   2.027   1.082  12.185  1.2836  0.0844 -0.0048
 3781SOL    HW222803   1.961   1.045  12.320 -0.1786  1.2078 -0.4412
 3782SOL     OW22804   2.036   3.569   4.739  0.7152 -0.6135  0.5416
 3782SOL    HW122805   2.111   3.626   4.722 -1.0681  1.7126  0.5861
 3782SOL    HW222806   1.992   3.579   4.655  1.5118  0.6605  0.2836
 3783SOL     OW22807   4.576   2.174   4.491 -0.4635  0.0343 -0.4918
 3783SOL    HW122808   4.641   2.234   4.527 -1.5530  0.3272  1.0020
 3783SOL    HW222809   4.582   2.097   4.547  1.6737  0.6210  0.0872
 3784SOL     OW22810   2.388   0.999   0.039 -0.2231  0.4871 -0.3913
 3784SOL    HW122811   2.364   1.085   0.073  0.7350  0.3469  0.6250
 3784SOL    HW222812   2.438   1.011  17.645 -2.7113  1.4021 -1.7901
 3785SOL     OW22813   3.254   0.744  15.075  0.1869  0.0697  0.2353
 3785SOL    HW122814   3.275   0.742  14.982  1.0283  1.5524  0.4057
 3785SOL    HW222815   3.344   0.748  15.107  0.4609  1.7877 -0.7672
 3786SOL     OW22816   2.697   2.862   4.497 -0.4791  0.0186  0.1602
 3786SOL    HW122817   2.727   2.892   4.583 -2.4059  0.5012  0.6762
 3786SOL    HW222818   2.640   2.936   4.477  1.9149  1.8386  0.1593
 3787SOL     OW22819   1.232   1.316   4.487 -1.0432 -0.3687 -0.0079
 3787SOL    HW122820   1.158   1.353   4.535 -0.7279  0.4199 -0.1174
 3787SOL    HW222821   1.253   1.384   4.423 -0.6824 -1.1831 -0.7494
 3788SOL     OW22822   4.691   0.539   7.286 -0.0133  0.3006  0.4439
 3788SOL    HW122823   0.018   0.551   7.368 -0.8686 -0.9585  1.1296
 3788SOL    HW222824   0.018   0.610   7.242  0.6499 -1.3229 -1.4369
 3789SOL     OW22825   4.103   3.168   5.689  0.3114  0.1108  0.1852
 3789SOL    HW122826   4.145   3.223   5.623  1.0022  0.1424  0.6482
 3789SOL    HW222827   4.024   3.146   5.639 -0.7268  2.1295  0.9588
 3790SOL     OW22828   4.564   4.496  11.448 -0.1420  0.2963 -0.1878
 3790SOL    HW122829   4.608   4.573  11.484 -1.9169  1.0049  0.4142
 3790SOL    HW222830   4.639   4.436  11.438 -0.1175  0.2415  0.3202
 3791SOL     OW22831   4.219   3.312  15.242  0.3883 -0.2906 -0.0451
 3791SOL    HW122832   4.179   3.292  15.326 -2.0356  1.5809 -0.7615
 3791SOL    HW222833   4.310   3.321  15.268  0.3247  1.6385 -0.5288
 3792SOL     OW22834   3.628   2.950  14.418 -0.6338  0.4150  0.4571
 3792SOL    HW122835   3.665   2.879  14.470  2.3120  1.0542 -0.7861
 3792SOL    HW222836   3.621   2.903  14.335  0.2576  0.4394  0.3731
 3793SOL     OW22837   4.416   4.702  17.095  0.3153 -0.6312 -0.5917
 3793SOL    HW122838   4.435   0.015  17.182 -0.9509 -0.0786 -0.5309
 3793SOL    HW222839   4.330   4.665  17.115 -0.3529  2.0069  1.4586
 3794SOL     OW22840   0.853   0.914  13.735 -0.6370  0.4334  0.1395
 3794SOL    HW122841   0.945   0.916  13.763 -0.2731  2.7214 -1.2634
 3794SOL    HW222842   0.827   0.990  13.786 -2.1964  0.1432 -0.2206
 3795SOL     OW22843   4.567   2.669   8.355  0.4874 -0.0907 -0.0289
 3795SOL    HW122844   4.583   2.639   8.266  2.4303  2.4838 -0.5296
 3795SOL    HW222845   4.626   2.617   8.410  1.4652  1.3395  0.2641
 3796SOL     OW22846   4.015   4.472   0.509  0.3973 -0.0957  0.6443
 3796SOL    HW122847   4.037   4.385   0.543 -0.7025 -0.4233  0.5269
 3796SOL    HW222848   4.065   4.539   0.556 -1.3003  0.3226  1.8469
 3797SOL     OW22849   0.394   0.657   0.989 -0.1928 -0.0285 -0.0555
 3797SOL    HW122850   0.387   0.645   0.894  2.7807  0.3465 -0.3291
 3797SOL    HW222851   0.349   0.579   1.021  3.4935 -2.5085 -0.8575
 3798SOL     OW22852   2.909   0.064   6.282 -0.1198  0.0515 -0.0720
 3798SOL    HW122853   2.982   0.012   6.317  1.9732  1.0727 -2.8814
 3798SOL    HW222854   2.914   0.030   6.192  2.4122 -1.0198  0.4638
 3799SOL     OW22855   3.971   4.649   8.200 -0.1916  0.5291  0.5819
 3799SOL    HW122856   4.064   4.668   8.195 -0.0344 -0.2420  0.4871
 3799SOL    HW222857   3.946   4.694   8.119  1.2820 -0.1613 -0.2561
 3800SOL     OW22858   1.300   1.612   3.605  0.9271 -0.3610 -0.2243
 3800SOL    HW122859   1.348   1.613   3.688  1.6379  0.8539 -0.6451
 3800SOL    HW222860   1.364   1.661   3.553  0.2160  0.1531 -0.6170
 3801SOL     OW22861   3.805   2.555  17.236  0.4245  0.1499  0.2621
 3801SOL    HW122862   3.840   2.634  17.196  3.6033 -0.4528  1.9230
 3801SOL    HW222863   3.736   2.598  17.286 -0.1890  0.3081 -0.7093
 3802SOL     OW22864   2.746   3.013   0.774 -0.2078  0.0251 -0.4236
 3802SOL    HW122865   2.813   3.011   0.843 -0.1066  0.6941 -0.5038
 3802SOL    HW222866   2.706   2.926   0.766  0.5061 -0.2179 -1.3245
 3803SOL     OW22867   4.708   0.812   6.099 -0.0048 -0.3468  0.3549
 3803SOL    HW122868   0.061   0.781   6.150  1.5658  0.4614 -1.4436
 3803SOL    HW222869   4.687   0.894   6.144  2.0393  0.3389  0.0734
 3804SOL     OW22870   2.279   2.382  13.306  0.7335  0.3260  0.0660
 3804SOL    HW122871   2.295   2.428  13.389 -1.3885  0.0763  0.5964
 3804SOL    HW222872   2.200   2.332  13.323  1.1510  0.0379  1.1290
 3805SOL     OW22873   4.517   4.456   3.683  0.6071 -0.0817 -0.5764
 3805SOL    HW122874   4.468   4.414   3.613 -0.7760  0.4324  0.0800
 3805SOL    HW222875   4.497   4.547   3.660  0.1538  0.6052  2.4830
 3806SOL     OW22876   0.836   2.523  11.916  0.0135 -0.1522 -0.4822
 3806SOL    HW122877   0.914   2.547  11.966  0.5940 -0.9825 -0.9991
 3806SOL    HW222878   0.772   2.580  11.959  0.4030 -0.6619  0.7878
 3807SOL     OW22879   2.668   1.005  16.899  0.1855 -0.1141 -0.4191
 3807SOL    HW122880   2.621   0.929  16.934 -0.3504  0.6121  0.4045
 3807SOL    HW222881   2.594   1.064  16.885  1.3301  1.6303  1.0466
 3808SOL     OW22882   4.172   1.418   3.981 -0.4601 -0.7463 -0.2982
 3808SOL    HW122883   4.127   1.492   3.941 -0.5221 -1.3112 -1.2853
 3808SOL    HW222884   4.227   1.389   3.907 -0.8179  3.1201 -2.0682
 3809SOL     OW22885   2.408   1.778  17.576 -0.7845 -0.1022 -0.1237
 3809SOL    HW122886   2.463   1.837  17.628  0.6656 -2.2282  0.7619
 3809SOL    HW222887   2.444   1.691  17.594 -1.0619 -0.0371  0.7507
 3810SOL     OW22888   3.001   1.812   5.869  0.5323  0.4702  0.0418
 3810SOL    HW122889   3.067   1.845   5.810  0.3618  1.1415  0.2303
 3810SOL    HW222890   3.045   1.774   5.946  0.3345  0.3116  0.0786
 3811SOL     OW22891   4.043   1.657   6.493  0.2863  0.5043 -0.5823
 3811SOL    HW122892   4.115   1.698   6.540  1.6215 -1.0011 -1.3434
 3811SOL    HW222893   4.092   1.620   6.420  0.0499  1.7621 -1.3901
 3812SOL     OW22894   1.669   4.525   2.222 -0.1209 -0.4746  0.8889
 3812SOL    HW122895   1.596   4.497   2.278  1.5229  1.3821  3.9479
 3812SOL    HW222896   1.717   4.579   2.284  0.0587 -0.9049  1.1217
 3813SOL     OW22897   4.558   1.520   4.878  0.0083  0.3443 -0.2599
 3813SOL    HW122898   4.595   1.498   4.793 -5.3352  0.5669 -2.6298
 3813SOL    HW222899   4.565   1.438   4.927 -0.6132 -0.7400 -2.0075
 3814SOL     OW22900   0.267   2.587  12.762 -0.4729  0.7032 -0.0731
 3814SOL    HW122901   0.298   2.497  12.749 -0.4944  0.3945  1.9970
 3814SOL    HW222902   0.223   2.610  12.680 -0.0696 -2.1815 -1.1300
 3815SOL     OW22903   0.739   3.853   4.080  0.3249  0.4967  0.1552
 3815SOL    HW122904   0.695   3.936   4.060  1.1371  0.7237 -0.7067
 3815SOL    HW222905   0.778   3.881   4.163 -0.5050 -0.5102  0.8804
 3816SOL     OW22906   1.477   2.663   0.522 -0.0387  0.6089 -1.1607
 3816SOL    HW122907   1.398   2.651   0.469 -0.4268 -2.2644  0.1067
 3816SOL    HW222908   1.445   2.694   0.607 -4.0310 -0.3638 -2.2968
 3817SOL     OW22909   0.676   4.159   0.871 -0.5363 -0.0415  0.3952
 3817SOL    HW122910   0.674   4.139   0.777 -1.8439  1.2709  0.1578
 3817SOL    HW222911   0.661   4.070   0.905 -2.1382  0.8140  1.9118
 3818SOL     OW22912   2.951   0.914   7.386 -0.2068  0.3083  0.7549
 3818SOL    HW122913   2.927   1.005   7.402 -0.4017  0.2947  0.5405
 3818SOL    HW222914   2.945   0.909   7.291  1.0357  2.3100  0.5498
 3819SOL     OW22915   2.400   0.999   1.676  0.7936  0.0677  0.2313
 3819SOL    HW122916   2.346   0.954   1.742  1.0540 -0.4413  0.0995
 3819SOL    HW222917   2.486   0.991   1.717  1.0538  1.1477 -0.1031
 3820SOL     OW22918   2.543   3.936  11.075  0.7514  0.3694 -0.2539
 3820SOL    HW122919   2.466   3.923  11.019  0.4016 -1.1644  0.5652
 3820SOL    HW222920   2.609   3.876  11.040 -1.1692 -1.0430 -1.4623
 3821SOL     OW22921   2.987   0.313  10.347  0.4643 -0.0646  0.0360
 3821SOL    HW122922   2.896   0.304  10.373  0.9808 -1.6921  1.2681
 3821SOL    HW222923   3.025   0.323  10.434  0.4835 -1.6955  0.2274
 3822SOL     OW22924   0.692   0.995   2.065  0.4397 -0.3015 -0.1169
 3822SOL    HW122925   0.646   1.038   1.993 -0.3770 -2.5982 -0.9805
 3822SOL    HW222926   0.671   1.057   2.135 -2.0095 -1.5764  0.2872
 3823SOL     OW22927   0.313   2.112  13.385 -0.5973  0.0280 -0.2979
 3823SOL    HW122928   0.405   2.138  13.391 -0.5678 -0.3804  0.9672
 3823SOL    HW222929   0.268   2.192  13.411 -0.2396 -0.1337  0.8249
 3824SOL     OW22930   4.618   1.759  14.223  0.8245  0.1565 -0.1145
 3824SOL    HW122931   4.609   1.834  14.282  0.3599 -1.6197  2.0689
 3824SOL    HW222932   4.573   1.688  14.269  1.2390 -0.0717 -0.0659
 3825SOL     OW22933   0.885   3.099   4.467 -0.2145 -0.3802  0.0766
 3825SOL    HW122934   0.905   3.049   4.546  2.0326 -0.2525 -0.4334
 3825SOL    HW222935   0.803   3.146   4.483  0.7582  1.4802 -0.3917
 3826SOL     OW22936   4.258   3.986   2.584  0.2230 -0.4622  0.2434
 3826SOL    HW122937   4.273   3.998   2.678 -0.6568 -1.7233  0.5455
 3826SOL    HW222938   4.336   4.030   2.551  0.2958  0.3008  1.4201
 3827SOL     OW22939   0.170   0.482  10.203 -0.7610  0.1984  0.4025
 3827SOL    HW122940   0.114   0.419  10.157  0.4736 -0.5620 -0.0672
 3827SOL    HW222941   0.112   0.536  10.256  0.5402  0.3880  1.6297
 3828SOL     OW22942   2.640   2.827   3.454 -0.2417 -0.2262 -0.4238
 3828SOL    HW122943   2.691   2.746   3.451 -1.6468 -1.1952  1.8524
 3828SOL    HW222944   2.635   2.832   3.550 -0.6017 -0.4709 -0.4320
 3829SOL     OW22945   4.585   2.631   8.058 -0.7556 -0.3382 -0.0531
 3829SOL    HW122946   4.658   2.600   8.004  0.9217 -1.3208  2.7618
 3829SOL    HW222947   4.582   2.719   8.023 -0.2623 -0.4120 -0.2888
 3830SOL     OW22948   1.507   4.079   0.753  0.0904  0.2481  0.1925
 3830SOL    HW122949   1.519   4.010   0.818  0.1952 -0.9885 -1.1462
 3830SOL    HW222950   1.476   4.022   0.682  0.1454  0.8649 -0.3277
 3831SOL     OW22951   0.964   4.642  16.014 -0.1884 -0.6714  0.1760
 3831SOL    HW122952   1.045   4.590  16.006  0.0260 -0.2795 -0.1664
 3831SOL    HW222953   0.992   0.001  15.971  2.3614 -1.8436 -0.3552
 3832SOL     OW22954   3.355   4.133   7.117  0.1241 -0.1603 -0.1723
 3832SOL    HW122955   3.300   4.199   7.075  1.1437  0.4321 -0.5826
 3832SOL    HW222956   3.285   4.091   7.166  1.1731 -0.0687  1.4059
 3833SOL     OW22957   4.191   1.081  15.062  0.0569  0.6754  0.4817
 3833SOL    HW122958   4.284   1.060  15.072 -0.2674 -1.0558 -0.0205
 3833SOL    HW222959   4.154   0.995  15.082  2.2950 -0.3430  0.3093
 3834SOL     OW22960   2.306   0.298  10.865  0.4736 -0.1408  0.1823
 3834SOL    HW122961   2.224   0.340  10.890  0.1162 -0.2102 -0.8704
 3834SOL    HW222962   2.360   0.377  10.856 -0.5959  0.5912  0.1516
 3835SOL     OW22963   1.756   3.374  10.988  0.2763 -0.2262  0.5745
 3835SOL    HW122964   1.686   3.328  10.943  0.3032 -0.4323  0.7464
 3835SOL    HW222965   1.806   3.295  11.010  1.1153  0.1409  0.0232
 3836SOL     OW22966   1.027   4.552   6.836 -0.1930 -0.3554 -0.0695
 3836SOL    HW122967   1.022   4.593   6.922  0.6021  2.7749 -1.5365
 3836SOL    HW222968   1.118   4.526   6.826  0.3261  0.7404  1.7016
 3837SOL     OW22969   4.572   3.660  11.941  0.0389  0.1634 -0.3260
 3837SOL    HW122970   4.536   3.597  12.004  0.0397  2.0727  1.6014
 3837SOL    HW222971   4.563   3.740  11.994  2.1013  1.0890 -1.3767
 3838SOL     OW22972   3.336   1.538   1.002  0.3208 -0.0817  0.1882
 3838SOL    HW122973   3.365   1.448   1.017 -1.9405 -0.8996 -0.3461
 3838SOL    HW222974   3.413   1.591   1.020 -0.0160  0.3908  0.2534
 3839SOL     OW22975   4.075   2.454  15.507 -0.1825 -0.0524 -0.0795
 3839SOL    HW122976   3.995   2.407  15.532 -1.1252  0.8926 -1.2994
 3839SOL    HW222977   4.046   2.538  15.470  0.0212  0.5068  1.0243
 3840SOL     OW22978   1.333   1.744   0.925  0.7590 -0.2278 -0.2102
 3840SOL    HW122979   1.302   1.758   0.836 -2.8012  2.6558  1.4838
 3840SOL    HW222980   1.255   1.695   0.951  0.4035  1.5054  2.0425
 3841SOL     OW22981   4.304   1.484   7.879  0.3749  0.1161 -0.1299
 3841SOL    HW122982   4.396   1.487   7.905  0.4126  1.9386 -0.4559
 3841SOL    HW222983   4.284   1.399   7.916 -1.7740  0.6159 -0.1411
 3842SOL     OW22984   2.576   2.703  15.038  0.3103  0.3101 -0.0647
 3842SOL    HW122985   2.635   2.757  14.985 -0.5487  1.8402  0.5474
 3842SOL    HW222986   2.576   2.764  15.112 -0.1801  0.6302 -0.3321
 3843SOL     OW22987   1.338   1.113   4.145  0.3027 -0.1158  0.1673
 3843SOL    HW122988   1.348   1.076   4.232  0.1842 -0.6500 -0.0431
 3843SOL    HW222989   1.395   1.186   4.122 -2.7903  2.1112 -0.4347
 3844SOL     OW22990   2.912   3.398   4.702  0.1617 -0.5903  0.0454
 3844SOL    HW122991   2.894   3.443   4.619  0.1943 -2.2239 -0.8419
 3844SOL    HW222992   2.995   3.444   4.716 -0.2918 -0.5297  2.5372
 3845SOL     OW22993   0.681   0.224  13.343 -0.0807  0.3159  0.8164
 3845SOL    HW122994   0.693   0.287  13.271  1.2298  0.4452  1.1413
 3845SOL    HW222995   0.763   0.228  13.392 -0.4921 -0.3426  1.5529
 3846SOL     OW22996   0.023   3.479   1.012  0.7908 -0.1141 -0.0853
 3846SOL    HW122997   4.721   3.406   0.954 -0.1289  1.9701 -2.3102
 3846SOL    HW222998   4.659   3.497   1.052  0.8039 -2.3743  0.9945
 3847SOL     OW22999   0.724   2.203   4.075 -0.0735 -0.3946  0.8449
 3847SOL    HW123000   0.782   2.128   4.084  0.8839  0.3828  1.2398
 3847SOL    HW223001   0.722   2.194   3.980 -0.8028  1.9223  0.6278
 3848SOL     OW23002   0.272   0.639  13.187  0.6012 -0.1645  0.2123
 3848SOL    HW123003   0.342   0.615  13.126  2.0428 -1.0468  2.1959
 3848SOL    HW223004   0.316   0.654  13.270 -1.5732 -0.9785  1.5187
 3849SOL     OW23005   2.407   2.989  17.685 -0.4194  0.8534  0.2229
 3849SOL    HW123006   2.492   3.017   0.032 -0.4118  0.7084  0.3220
 3849SOL    HW223007   2.347   3.056   0.028  0.0093  1.2829  0.1270
 3850SOL     OW23008   4.290   2.167   7.959  0.3619 -0.1129  0.2402
 3850SOL    HW123009   4.375   2.207   7.975  1.1955 -1.0402 -1.8137
 3850SOL    HW223010   4.303   2.080   7.997 -0.6227  0.5065  1.9761
 3851SOL     OW23011   3.023   0.871   6.509  0.7459 -0.1166  0.0641
 3851SOL    HW123012   3.008   0.860   6.603 -2.3743  0.8688 -0.3132
 3851SOL    HW223013   3.037   0.781   6.479 -0.6785 -0.1239 -0.5761
 3852SOL     OW23014   2.811   3.353   8.816 -0.0341  0.2659 -0.0600
 3852SOL    HW123015   2.804   3.378   8.908 -1.1796  1.0140 -0.3446
 3852SOL    HW223016   2.856   3.428   8.777 -0.1730  0.4375  0.1078
 3853SOL     OW23017   0.357   1.541   9.539  0.8306 -0.2244 -0.2794
 3853SOL    HW123018   0.451   1.547   9.555  0.7007  1.0206  0.0036
 3853SOL    HW223019   0.354   1.462   9.484 -1.4075  0.5350 -1.2481
 3854SOL     OW23020   2.647   1.619   8.838 -0.0914 -0.4343  0.3694
 3854SOL    HW123021   2.603   1.689   8.886  0.5679 -1.4612  2.4783
 3854SOL    HW223022   2.592   1.548   8.872 -2.7731  0.7880 -1.3667
 3855SOL     OW23023   1.817   1.228   6.021  0.4813  0.2897 -0.1013
 3855SOL    HW123024   1.773   1.187   5.946  1.3722 -0.8885  0.0340
 3855SOL    HW223025   1.776   1.315   6.018 -1.6008 -0.7240 -1.2113
 3856SOL     OW23026   3.211   2.153   3.445 -0.0648  0.7187  0.6079
 3856SOL    HW123027   3.237   2.082   3.386 -0.5225  0.1873  1.0460
 3856SOL    HW223028   3.174   2.218   3.386  1.2524  1.9397  1.1446
 3857SOL     OW23029   3.618   0.789   8.351 -0.2047  0.6294  0.2144
 3857SOL    HW123030   3.567   0.779   8.271  0.7281 -4.4823  0.2185
 3857SOL    HW223031   3.685   0.851   8.323  0.0387  0.8549  1.2992
 3858SOL     OW23032   1.316   0.548   0.291  0.0889 -0.6950 -0.1223
 3858SOL    HW123033   1.338   0.611   0.359  0.1502 -1.1981  0.3194
 3858SOL    HW223034   1.224   0.575   0.289  0.4219  0.1916 -3.2668
 3859SOL     OW23035   0.455   1.155  14.496  0.5875 -0.7738 -0.0204
 3859SOL    HW123036   0.387   1.136  14.431  1.3981 -0.4036 -0.9693
 3859SOL    HW223037   0.418   1.235  14.532  2.0866 -0.3779  0.6485
 3860SOL     OW23038   4.346   0.929   9.462  0.0006 -0.4344  0.2726
 3860SOL    HW123039   4.267   0.944   9.515  0.8041  1.9791  0.7839
 3860SOL    HW223040   4.356   1.022   9.442 -1.6382 -0.6105 -1.4801
 3861SOL     OW23041   4.177   0.486   2.322  0.3980  0.3007  0.2506
 3861SOL    HW123042   4.225   0.424   2.267 -0.2455  1.5945 -1.7593
 3861SOL    HW223043   4.184   0.445   2.408  0.5000 -0.5865 -0.1763
 3862SOL     OW23044   0.957   3.146  11.497 -0.6531 -0.0882 -0.3736
 3862SOL    HW123045   0.892   3.186  11.440  1.2071 -1.1442 -3.2043
 3862SOL    HW223046   0.914   3.141  11.583 -1.0532 -0.9229 -0.6194
 3863SOL     OW23047   1.656   4.152   6.060 -0.5516  0.7916  0.6101
 3863SOL    HW123048   1.739   4.130   6.017  0.2133  1.4696  1.7451
 3863SOL    HW223049   1.681   4.242   6.078  3.0267 -0.5083  2.2370
 3864SOL     OW23050   1.046   0.070   8.112  0.1828 -0.3913 -0.4074
 3864SOL    HW123051   1.125   0.015   8.119 -0.3550 -1.1315 -0.1793
 3864SOL    HW223052   0.997   0.005   8.063  0.6907 -1.0799 -0.0060
 3865SOL     OW23053   0.226   2.415   7.615 -0.5560  0.0891  0.2650
 3865SOL    HW123054   0.232   2.507   7.589 -2.3370  0.2998  0.5832
 3865SOL    HW223055   0.201   2.381   7.529 -2.0166  1.3680  0.1714
 3866SOL     OW23056   2.595   2.864  15.260 -0.1440 -0.4469 -0.0962
 3866SOL    HW123057   2.651   2.817  15.321 -2.3458 -2.4700  0.3966
 3866SOL    HW223058   2.531   2.895  15.324 -0.4265 -1.4186  0.1025
 3867SOL     OW23059   1.565   2.765  16.791  0.4932 -0.4683  0.1216
 3867SOL    HW123060   1.551   2.684  16.741  0.8757 -1.4821  1.6747
 3867SOL    HW223061   1.619   2.737  16.864 -0.4676 -0.3901  0.8577
 3868SOL     OW23062   1.762   2.419   6.860 -0.1162  0.1620 -0.8332
 3868SOL    HW123063   1.821   2.354   6.897 -1.9643 -0.7719  0.4996
 3868SOL    HW223064   1.771   2.401   6.766  1.9077  1.0880 -0.8141
 3869SOL     OW23065   4.583   4.215   7.005  0.0871  0.0244  0.1437
 3869SOL    HW123066   4.586   4.310   7.001 -1.5576  0.0380 -0.8816
 3869SOL    HW223067   4.489   4.198   7.014 -0.2731  2.7915  1.6854
 3870SOL     OW23068   2.394   1.303   1.312  0.0295  0.0145  0.2060
 3870SOL    HW123069   2.477   1.325   1.268 -1.4862  1.0340 -2.1145
 3870SOL    HW223070   2.352   1.233   1.262  1.0627 -1.0494  0.7995
 3871SOL     OW23071   0.355   1.703   1.678 -0.2482  0.0999  0.0020
 3871SOL    HW123072   0.369   1.609   1.691  2.9420  0.1186 -3.3449
 3871SOL    HW223073   0.432   1.736   1.726 -0.4458  1.2723 -0.4976
 3872SOL     OW23074   1.679   3.598   8.964  0.0517 -0.6483  0.3875
 3872SOL    HW123075   1.722   3.516   8.988 -0.8248 -0.5143  2.4731
 3872SOL    HW223076   1.688   3.646   9.047 -0.7015  1.0155 -0.4897
 3873SOL     OW23077   1.391   1.394   7.544 -0.3564  0.2920  0.4504
 3873SOL    HW123078   1.333   1.355   7.479  0.8179 -2.0214  0.7576
 3873SOL    HW223079   1.374   1.335   7.618  0.5831  0.8116  1.0819
 3874SOL     OW23080   1.686   4.270   8.500  0.1299 -0.2341 -0.7584
 3874SOL    HW123081   1.612   4.315   8.543  0.0630 -0.4100 -0.6913
 3874SOL    HW223082   1.687   4.183   8.540  0.2629 -0.1959 -0.6801
 3875SOL     OW23083   3.417   4.702   7.502 -0.2466  0.5305 -0.3181
 3875SOL    HW123084   3.471   4.623   7.491  0.7150  0.9893  1.3270
 3875SOL    HW223085   3.450   0.032   7.575 -0.5576 -1.1983  1.0261
 3876SOL     OW23086   3.933   3.500   6.940  0.2362 -0.0332  0.5817
 3876SOL    HW123087   3.975   3.416   6.924  2.1398  1.0901 -0.3716
 3876SOL    HW223088   3.864   3.506   6.874 -0.0991 -0.9307  0.8500
 3877SOL     OW23089   2.019   4.511   5.852  0.3011  0.2329  0.0647
 3877SOL    HW123090   2.086   4.444   5.845 -0.1763 -0.3257  0.8627
 3877SOL    HW223091   1.964   4.500   5.775  0.4484  1.7749 -0.2720
 3878SOL     OW23092   2.118   3.263   9.556  0.0619  0.1225  0.5429
 3878SOL    HW123093   2.137   3.182   9.604  1.2595  1.9666  3.2383
 3878SOL    HW223094   2.157   3.332   9.610  3.5301 -2.4937  1.3961
 3879SOL     OW23095   3.619   1.465   0.115 -0.3363 -0.2123 -0.1303
 3879SOL    HW123096   3.615   1.391   0.055 -2.1569 -1.0222  0.9599
 3879SOL    HW223097   3.562   1.434   0.186 -0.8875  0.9246 -0.0686
 3880SOL     OW23098   3.831   0.309   3.571  0.1956  0.1323  0.3234
 3880SOL    HW123099   3.826   0.396   3.611  0.9141  0.0322  0.6259
 3880SOL    HW223100   3.919   0.274   3.584 -0.1432 -2.5214 -4.5691
 3881SOL     OW23101   0.002   2.401   2.729 -0.1728 -0.3186 -0.0993
 3881SOL    HW123102   4.662   2.333   2.756  0.6379 -0.2369  1.9087
 3881SOL    HW223103   0.081   2.352   2.702 -0.2803  0.3395 -1.6263
 3882SOL     OW23104   4.702   3.621   3.211 -0.0186  0.2893 -0.0241
 3882SOL    HW123105   0.022   3.593   3.293 -0.3692 -1.4903 -0.4553
 3882SOL    HW223106   4.639   3.552   3.193 -1.2433  1.2102  0.7324
 3883SOL     OW23107   1.387   4.124   8.932 -0.1788  0.2973  0.0874
 3883SOL    HW123108   1.439   4.044   8.925  0.1813  0.5283  0.1407
 3883SOL    HW223109   1.456   4.179   8.969  0.1650  0.6267 -1.0757
 3884SOL     OW23110   0.381   4.072  11.263  0.0307  0.6395 -0.1366
 3884SOL    HW123111   0.319   4.100  11.330 -1.7830 -1.1478 -1.0725
 3884SOL    HW223112   0.404   3.990  11.307 -0.4270  0.1503 -0.8070
 3885SOL     OW23113   4.280   3.232  12.898 -0.0942 -0.7466 -0.5764
 3885SOL    HW123114   4.189   3.227  12.927 -1.0216  0.4145 -3.3091
 3885SOL    HW223115   4.307   3.142  12.918 -1.2964 -0.4262  2.4410
 3886SOL     OW23116   4.024   1.683  14.234  0.1883  0.3897  0.3485
 3886SOL    HW123117   3.969   1.631  14.175  1.9933 -1.9651  0.7621
 3886SOL    HW223118   4.102   1.629  14.247  0.4907  0.8955  0.6273
 3887SOL     OW23119   1.825   1.461   8.661  0.3342 -0.0700 -0.2333
 3887SOL    HW123120   1.862   1.539   8.620 -0.4901  1.1865  1.4313
 3887SOL    HW223121   1.906   1.416   8.687  0.1234  0.4467  1.3327
 3888SOL     OW23122   0.828   3.504   1.192  0.1214 -0.2938 -0.0504
 3888SOL    HW123123   0.809   3.571   1.126  2.7357  1.9830  1.5195
 3888SOL    HW223124   0.768   3.528   1.263 -0.9265 -2.1363 -0.3138
 3889SOL     OW23125   2.352   3.154   1.702 -0.6075 -0.3410 -0.3500
 3889SOL    HW123126   2.294   3.220   1.665 -1.6661 -1.1441 -0.1179
 3889SOL    HW223127   2.371   3.197   1.786  0.2381  1.2528 -1.3642
 3890SOL     OW23128   0.654   3.957   3.329  0.4771  0.2686  0.4182
 3890SOL    HW123129   0.587   3.893   3.304  0.8039  1.2313 -2.8599
 3890SOL    HW223130   0.614   4.004   3.402 -0.6281 -0.7781  0.4800
 3891SOL     OW23131   0.975   3.475   7.465 -0.2751 -0.6934  0.1906
 3891SOL    HW123132   0.884   3.497   7.486  0.3691 -0.7054  2.9849
 3891SOL    HW223133   1.022   3.552   7.496  1.3011 -1.8680  0.7029
 3892SOL     OW23134   1.072   1.162   0.834  0.2460  0.1050  0.4684
 3892SOL    HW123135   1.162   1.195   0.831 -0.3032  1.7896  2.3692
 3892SOL    HW223136   1.074   1.141   0.927  0.1220  1.1377  0.7084
 3893SOL     OW23137   4.225   3.486  14.359  0.2086  0.7731 -0.1084
 3893SOL    HW123138   4.244   3.392  14.354 -1.2266  0.2975  2.7571
 3893SOL    HW223139   4.296   3.523  14.411  0.6684 -1.2529  0.7069
 3894SOL     OW23140   2.664   0.067   6.402 -0.4967  0.2526  0.5572
 3894SOL    HW123141   2.701   0.077   6.490 -1.0280  1.3133  0.6626
 3894SOL    HW223142   2.730   0.017   6.354 -0.9993  0.8801 -0.7973
 3895SOL     OW23143   1.258   1.827  13.882 -0.2568 -0.1734  0.2179
 3895SOL    HW123144   1.209   1.885  13.941  0.0190 -1.4549  1.7109
 3895SOL    HW223145   1.347   1.849  13.907 -0.6599  1.2568  0.4103
 3896SOL     OW23146   1.889   0.041   1.899 -0.2455 -0.0324 -0.5622
 3896SOL    HW123147   1.827   0.041   1.826 -2.0611  1.7596  0.9763
 3896SOL    HW223148   1.910   0.134   1.908 -1.3946  0.4041 -2.3123
 3897SOL     OW23149   3.197   3.668   3.485  0.1115  0.4750  0.4450
 3897SOL    HW123150   3.102   3.662   3.495  0.1647 -1.2857 -0.0383
 3897SOL    HW223151   3.195   3.762   3.468 -1.2335  0.3909  0.1285
 3898SOL     OW23152   3.177   1.612   9.559 -0.0122  0.1439  0.3187
 3898SOL    HW123153   3.162   1.555   9.633  2.0193  0.9718  1.3731
 3898SOL    HW223154   3.249   1.571   9.511  1.0587  1.1333  1.0946
 3899SOL     OW23155   0.451   2.212   4.266 -0.3632 -0.2768  0.1180
 3899SOL    HW123156   0.425   2.120   4.256  0.6884 -0.3845 -1.5768
 3899SOL    HW223157   0.528   2.222   4.210  1.7469  1.4956  3.3443
 3900SOL     OW23158   1.955   3.875   8.961  0.2663 -0.1600  0.5524
 3900SOL    HW123159   1.937   3.969   8.972  1.7038  0.2523 -0.6430
 3900SOL    HW223160   2.048   3.879   8.937  0.5691  1.0115  1.9133
 3901SOL     OW23161   3.041   3.778  12.129  0.0509  0.7263  0.8525
 3901SOL    HW123162   2.981   3.853  12.127 -2.5252 -1.3177  1.2009
 3901SOL    HW223163   3.123   3.824  12.115  0.4065  0.8404  3.2468
 3902SOL     OW23164   2.429   1.838   5.258 -0.0324  0.3471 -0.0900
 3902SOL    HW123165   2.491   1.892   5.211  1.5777 -0.2590  1.3477
 3902SOL    HW223166   2.383   1.789   5.189  1.6111 -2.0392  0.5118
 3903SOL     OW23167   3.506   2.875  13.701  0.6592  0.4919  0.5270
 3903SOL    HW123168   3.497   2.797  13.646  3.3419  1.2652 -0.9811
 3903SOL    HW223169   3.502   2.946  13.638  1.1015 -2.3004 -2.6574
 3904SOL     OW23170   2.666   1.853   4.064  0.1525  0.1709 -0.6507
 3904SOL    HW123171   2.702   1.860   4.152  2.5877 -0.5740 -1.5719
 3904SOL    HW223172   2.632   1.941   4.053 -2.1962 -0.5614  0.8179
 3905SOL     OW23173   0.759   0.165   7.534  0.5994 -0.0793  0.1751
 3905SOL    HW123174   0.725   0.238   7.482  0.3635  1.0287  1.8755
 3905SOL    HW223175   0.776   0.100   7.466  0.2912 -0.5701  0.5662
 3906SOL     OW23176   4.432   1.648  16.883  0.6425 -0.2813  0.2372
 3906SOL    HW123177   4.349   1.664  16.838  0.5980 -0.6298  0.1981
 3906SOL    HW223178   4.429   1.695  16.966  1.5964 -0.5732  0.4333
 3907SOL     OW23179   1.770   3.529   2.414  0.4436  0.4085  0.2535
 3907SOL    HW123180   1.813   3.449   2.385  1.3108  0.6929  0.7517
 3907SOL    HW223181   1.718   3.553   2.337  1.6035 -1.1317 -1.0057
 3908SOL     OW23182   1.862   4.377   8.320 -0.3779 -0.5729  0.1056
 3908SOL    HW123183   1.926   4.306   8.315 -0.3269 -0.4727 -0.6049
 3908SOL    HW223184   1.793   4.332   8.370 -2.2428  1.8470 -0.2869
 3909SOL     OW23185   2.193   2.127   0.262  0.2306 -0.4400  0.2471
 3909SOL    HW123186   2.129   2.064   0.228  2.2552 -0.4396 -3.6621
 3909SOL    HW223187   2.189   2.099   0.353  2.3555  1.0281  0.7743
 3910SOL     OW23188   4.349   2.210   7.071 -0.5265  0.0638  0.1715
 3910SOL    HW123189   4.260   2.245   7.081 -0.2349  0.3576  1.7673
 3910SOL    HW223190   4.392   2.238   7.152 -2.3050 -0.1126  1.1708
 3911SOL     OW23191   0.689   1.522  17.041  0.0385  0.0801  0.1140
 3911SOL    HW123192   0.748   1.533  17.115 -0.0100 -0.1844  0.1940
 3911SOL    HW223193   0.617   1.583  17.056 -1.1086 -1.3251  0.4163
 3912SOL     OW23194   1.626   2.527   5.142  0.2095  0.4914  0.7224
 3912SOL    HW123195   1.649   2.441   5.108 -0.1689  0.7880 -0.2899
 3912SOL    HW223196   1.693   2.547   5.208 -0.4828  2.9184  0.7058
 3913SOL     OW23197   0.343   4.011  12.892 -0.3678 -0.1239  0.0159
 3913SOL    HW123198   0.436   4.011  12.870  0.3181  0.1327  2.8546
 3913SOL    HW223199   0.331   3.932  12.945 -0.8556 -1.6308 -2.3407
 3914SOL     OW23200   3.168   1.901   7.230  0.3775  0.5550  0.4766
 3914SOL    HW123201   3.214   1.888   7.313  2.0875 -1.5368 -0.7770
 3914SOL    HW223202   3.087   1.854   7.249 -0.1066  0.4926 -1.7147
 3915SOL     OW23203   2.731   2.354   2.739 -0.0595  0.3083  0.5493
 3915SOL    HW123204   2.722   2.407   2.660 -0.7643  1.4500  1.3926
 3915SOL    HW223205   2.696   2.268   2.713 -3.1910  0.7585  3.1863
 3916SOL     OW23206   3.322   0.073   4.107 -0.3123  0.1282 -0.3597
 3916SOL    HW123207   3.389   0.006   4.120 -1.8643 -1.2788  0.4924
 3916SOL    HW223208   3.377   0.148   4.085  0.5026 -0.8774 -1.7324
 3917SOL     OW23209   1.932   1.207   3.377  0.4185  0.8033  0.2097
 3917SOL    HW123210   1.978   1.284   3.409  1.0198 -0.5103  2.4308
 3917SOL    HW223211   1.938   1.149   3.452 -1.5972  0.7213  0.3295
 3918SOL     OW23212   3.290   2.510   6.746  0.0341  0.1261 -0.1531
 3918SOL    HW123213   3.226   2.443   6.723 -2.2238  2.2131  0.0881
 3918SOL    HW223214   3.356   2.470   6.804  1.0441 -0.5413 -1.7799
 3919SOL     OW23215   3.155   0.237   2.649  0.0184  0.0119  0.0024
 3919SOL    HW123216   3.152   0.142   2.640  0.1033  0.1874 -1.8219
 3919SOL    HW223217   3.106   0.262   2.570  1.3740  1.0933 -0.4941
 3920SOL     OW23218   3.756   1.088   7.895  0.3817 -0.3261 -0.5382
 3920SOL    HW123219   3.685   1.152   7.885 -1.8366 -2.8687 -0.8729
 3920SOL    HW223220   3.715   1.005   7.874  2.4129 -1.7376  1.1005
 3921SOL     OW23221   3.237   4.628   5.996  0.4372  0.2318 -0.1241
 3921SOL    HW123222   3.232   0.002   5.994  0.1318  0.2341  0.6822
 3921SOL    HW223223   3.145   4.606   6.011  0.4362  1.8983  2.1200
 3922SOL     OW23224   0.609   4.455   0.667 -0.0040  0.6904 -0.1955
 3922SOL    HW123225   0.655   4.485   0.745 -0.0461  0.1414  0.0417
 3922SOL    HW223226   0.648   4.515   0.603  1.7816  0.4314  0.6380
 3923SOL     OW23227   3.864   0.073   4.388  0.6544 -0.5049 -0.0034
 3923SOL    HW123228   3.901   0.160   4.399  0.8520 -0.6058  0.1224
 3923SOL    HW223229   3.944   0.028   4.363 -1.0795 -4.2277  1.0697
 3924SOL     OW23230   3.198   2.404   2.442  0.1380 -0.1988  0.2260
 3924SOL    HW123231   3.288   2.419   2.469  0.1685 -2.3107  1.3277
 3924SOL    HW223232   3.210   2.350   2.364  0.8992 -0.2719  0.4013
 3925SOL     OW23233   4.201   3.773  10.942 -0.2176 -0.4653  0.1136
 3925SOL    HW123234   4.132   3.837  10.924  0.4996  0.0658 -0.8090
 3925SOL    HW223235   4.185   3.766  11.036  1.3380 -3.3651  0.1644
 3926SOL     OW23236   2.949   4.577   5.608  0.4304 -0.1159  0.3622
 3926SOL    HW123237   2.925   4.527   5.530 -2.1033 -1.0493  1.7164
 3926SOL    HW223238   2.870   4.625   5.636  0.5804  0.6449 -0.5256
 3927SOL     OW23239   2.053   4.061   9.679 -0.0466  0.7167  0.4557
 3927SOL    HW123240   1.979   4.069   9.740 -1.1837  0.0149 -0.8325
 3927SOL    HW223241   2.049   4.129   9.612 -1.0794 -0.5772 -0.7897
 3928SOL     OW23242   4.597   1.830  14.716 -0.1966  0.2954 -0.1099
 3928SOL    HW123243   4.649   1.893  14.666 -2.0059  0.7212 -1.4293
 3928SOL    HW223244   4.668   1.772  14.745  1.0788  1.3846 -1.0712
 3929SOL     OW23245   2.799   0.139  10.175 -0.2138 -0.5153 -0.5355
 3929SOL    HW123246   2.870   0.076  10.161 -0.8079 -0.8016 -2.2445
 3929SOL    HW223247   2.777   0.124  10.267 -0.0980  1.5046 -0.1808
 3930SOL     OW23248   0.783   2.003   7.499 -0.1238 -0.0458  0.0873
 3930SOL    HW123249   0.752   2.079   7.548 -1.7015 -1.2674  1.0102
 3930SOL    HW223250   0.704   1.973   7.454 -0.6693 -0.9013  1.5787
 3931SOL     OW23251   0.415   2.855  12.650 -0.0282 -0.0019 -0.4512
 3931SOL    HW123252   0.342   2.817  12.699 -1.2394  1.8601 -0.8156
 3931SOL    HW223253   0.487   2.845  12.712  0.2156  2.0561 -0.4010
 3932SOL     OW23254   1.911   0.408   6.005 -1.0713 -0.0470  0.4858
 3932SOL    HW123255   1.961   0.328   5.989  0.5788  1.1057 -0.2283
 3932SOL    HW223256   1.960   0.431   6.085  0.6849 -0.3300 -0.4981
 3933SOL     OW23257   4.548   4.295   1.648  0.2771 -0.0677  0.4517
 3933SOL    HW123258   4.495   4.231   1.694  0.1380 -0.3250 -0.0732
 3933SOL    HW223259   4.532   4.375   1.698 -0.1668 -1.0926  1.9346
 3934SOL     OW23260   0.950   0.473  15.931  0.1995 -0.3090 -0.0646
 3934SOL    HW123261   0.867   0.426  15.933 -0.6633  1.2071 -0.1547
 3934SOL    HW223262   0.953   0.494  15.838 -1.3634  1.0981  0.1946
 3935SOL     OW23263   0.555   1.824   2.667 -0.2539 -0.0018 -0.6625
 3935SOL    HW123264   0.473   1.835   2.715 -0.4091 -1.5044 -0.5809
 3935SOL    HW223265   0.621   1.872   2.716  0.4273  1.6951 -3.2415
 3936SOL     OW23266   1.117   3.771   4.961  0.2360 -0.0287  0.2207
 3936SOL    HW123267   1.058   3.713   5.008 -0.6920  1.9434  1.4677
 3936SOL    HW223268   1.084   3.768   4.871  0.0397 -0.2503  0.3012
 3937SOL     OW23269   0.745   0.574   8.152 -0.0324 -0.1799  0.1122
 3937SOL    HW123270   0.794   0.567   8.071 -1.2634 -0.9769 -0.5621
 3937SOL    HW223271   0.720   0.667   8.154 -0.9775 -0.4355  0.4851
 3938SOL     OW23272   1.890   3.887  16.771  0.1632 -0.4353 -0.4236
 3938SOL    HW123273   1.872   3.981  16.765 -2.0115 -0.9131 -1.6163
 3938SOL    HW223274   1.973   3.903  16.815  1.3284 -1.4361 -2.2750
 3939SOL     OW23275   4.617   4.079   0.244  0.1793  0.0975  0.1295
 3939SOL    HW123276   4.687   4.143   0.229 -0.4752  0.8795  0.3753
 3939SOL    HW223277   4.655   3.997   0.212 -0.5634  0.7224 -2.3832
 3940SOL     OW23278   3.259   4.409   6.243  0.9463  0.0456 -0.1961
 3940SOL    HW123279   3.282   4.363   6.162  0.9830 -0.0064 -0.1554
 3940SOL    HW223280   3.288   4.337   6.299  0.7934  0.9839  1.0859
 3941SOL     OW23281   1.054   4.363   8.287 -0.6852  0.6858  0.2162
 3941SOL    HW123282   1.134   4.382   8.237 -0.4540 -0.7141  0.0489
 3941SOL    HW223283   1.055   4.430   8.355 -1.0863  0.8221  0.0862
 3942SOL     OW23284   3.206   0.688   4.264  0.0417 -0.1720 -0.2432
 3942SOL    HW123285   3.195   0.666   4.172 -0.7005 -1.3121  0.1181
 3942SOL    HW223286   3.300   0.674   4.275  0.3355  2.1659  0.3456
 3943SOL     OW23287   1.161   3.877   0.207 -0.1377 -0.1378 -0.0526
 3943SOL    HW123288   1.243   3.926   0.219  0.3018 -1.2962  1.7497
 3943SOL    HW223289   1.196   3.803   0.158 -0.0963 -0.6484  0.7524
 3944SOL     OW23290   3.018   4.125  12.346 -0.4226 -0.1623  0.6462
 3944SOL    HW123291   3.016   4.101  12.438  0.6261 -1.2830  0.3974
 3944SOL    HW223292   3.025   4.220  12.350  0.9148 -0.1403 -1.8565
 3945SOL     OW23293   4.000   1.576   6.808 -0.1020  0.2105  0.3254
 3945SOL    HW123294   3.953   1.659   6.803 -0.6597 -0.0095  1.9470
 3945SOL    HW223295   3.969   1.533   6.728 -0.1194  0.6523  0.0957
 3946SOL     OW23296   0.769   2.045   8.587  0.7599 -0.3322  0.4516
 3946SOL    HW123297   0.724   2.058   8.670 -1.5023  0.2012 -0.8442
 3946SOL    HW223298   0.836   2.113   8.597 -0.6180  1.2596 -0.9167
 3947SOL     OW23299   1.031   0.721  16.459 -0.1684 -0.1281 -0.2286
 3947SOL    HW123300   0.965   0.697  16.525 -0.0980 -0.3454 -0.2384
 3947SOL    HW223301   1.040   0.812  16.486  1.0428  0.1200 -1.5059
 3948SOL     OW23302   1.107   0.762   6.615  0.0827  0.3645 -0.6265
 3948SOL    HW123303   1.021   0.803   6.616 -0.6342 -1.1379 -0.7456
 3948SOL    HW223304   1.107   0.738   6.522 -2.2099  3.1963 -1.3490
 3949SOL     OW23305   4.339   0.742   4.462 -0.5278 -0.2888 -0.2960
 3949SOL    HW123306   4.366   0.661   4.506 -0.2394 -0.1177 -0.1584
 3949SOL    HW223307   4.249   0.721   4.437  0.0180 -3.0098  0.0341
 3950SOL     OW23308   2.128   1.912   6.252  0.5365  0.3459 -0.0786
 3950SOL    HW123309   2.155   1.954   6.170  1.8457  1.8073  1.0982
 3950SOL    HW223310   2.147   1.980   6.317  1.7018 -1.1078  1.0824
 3951SOL     OW23311   2.288   4.536  11.676  0.3876 -0.2522  0.2485
 3951SOL    HW123312   2.244   4.452  11.667 -0.0622  0.0884 -0.6764
 3951SOL    HW223313   2.225   4.581  11.732 -0.7365 -0.3071 -0.9952
 3952SOL     OW23314   0.962   2.389   6.122 -0.1681 -0.4777  0.7146
 3952SOL    HW123315   0.963   2.350   6.035 -0.8701 -0.1867  0.5700
 3952SOL    HW223316   1.038   2.446   6.112 -1.2319  0.9709  0.7020
 3953SOL     OW23317   1.622   1.881   9.459  0.6495 -0.6795 -0.7200
 3953SOL    HW123318   1.532   1.857   9.436 -0.2143  2.4364 -0.6643
 3953SOL    HW223319   1.674   1.817   9.410 -0.9514 -2.6698  0.1872
 3954SOL     OW23320   3.652   1.191  14.072 -0.2686  0.6260  0.4723
 3954SOL    HW123321   3.652   1.251  14.147 -0.5959 -1.7187  2.3440
 3954SOL    HW223322   3.615   1.249  14.005 -2.7823  0.2142  1.5259
 3955SOL     OW23323   4.423   0.617   3.960  0.2030  0.6295  0.3779
 3955SOL    HW123324   4.486   0.615   4.033  3.9663 -0.3709 -2.8946
 3955SOL    HW223325   4.359   0.553   3.990 -0.2477  0.4686 -0.9467
 3956SOL     OW23326   4.013   2.050  16.717  0.0355 -0.0759 -0.4093
 3956SOL    HW123327   4.099   2.093  16.718 -0.1592  0.2886  0.3750
 3956SOL    HW223328   4.000   2.003  16.799  1.1447  0.4826  0.0836
 3957SOL     OW23329   0.248   4.071   8.593  0.1804 -0.6973  0.2452
 3957SOL    HW123330   0.317   4.007   8.612 -0.2568 -0.6842  1.8420
 3957SOL    HW223331   0.299   4.123   8.530  0.2906  1.0953  1.8040
 3958SOL     OW23332   1.955   2.058  10.468 -0.4434  0.1296 -0.1965
 3958SOL    HW123333   2.018   2.103  10.411 -0.9066  0.6824 -0.2768
 3958SOL    HW223334   1.918   1.996  10.404  1.1423  0.5657 -1.5231
 3959SOL     OW23335   3.386   0.349  16.795  0.0397  0.0271 -0.4560
 3959SOL    HW123336   3.344   0.420  16.745  1.4201 -0.5332 -2.3808
 3959SOL    HW223337   3.423   0.394  16.871  0.7054  0.4409 -1.0280
 3960SOL     OW23338   2.560   0.937   2.196 -0.3981  0.3041 -0.1550
 3960SOL    HW123339   2.563   0.891   2.113 -0.9926 -1.0659  0.5767
 3960SOL    HW223340   2.649   0.971   2.193  0.4244 -2.0965 -3.2932
 3961SOL     OW23341   4.569   1.557  12.669 -0.8224 -0.1209 -0.4457
 3961SOL    HW123342   4.591   1.468  12.694 -1.5006 -0.1661 -0.0243
 3961SOL    HW223343   4.655   1.593  12.644  0.6564 -1.9241  2.0478
 3962SOL     OW23344   2.774   0.224   2.628  0.1494 -0.1942 -0.0744
 3962SOL    HW123345   2.867   0.215   2.648  0.1709 -1.0926 -0.5767
 3962SOL    HW223346   2.732   0.152   2.675  1.7536 -0.1596  1.4273
 3963SOL     OW23347   1.564   1.168   7.542 -0.2549 -0.2151 -0.2999
 3963SOL    HW123348   1.599   1.160   7.630 -1.3314  0.3841  0.1875
 3963SOL    HW223349   1.472   1.143   7.555 -0.4302  1.9234  2.3597
 3964SOL     OW23350   3.765   2.201   0.659 -0.6758  0.0799  0.3315
 3964SOL    HW123351   3.854   2.168   0.670  0.0897  1.5289 -1.5228
 3964SOL    HW223352   3.768   2.218   0.565  0.3939  0.8031  0.4940
 3965SOL     OW23353   2.437   4.396   9.888  0.2445  0.0075 -0.4237
 3965SOL    HW123354   2.446   4.360   9.976  1.2119  0.3804 -0.3698
 3965SOL    HW223355   2.376   4.469   9.903  0.5781  0.0548  0.6621
 3966SOL     OW23356   3.841   4.369   9.483 -0.1128 -0.8200  0.2269
 3966SOL    HW123357   3.855   4.425   9.559  1.6751  0.2196 -0.8662
 3966SOL    HW223358   3.927   4.332   9.464  0.7519  0.9484  0.6435
 3967SOL     OW23359   2.472   3.832   5.846  0.6088  0.4508 -0.5165
 3967SOL    HW123360   2.440   3.747   5.877 -1.5830  2.1096  1.7831
 3967SOL    HW223361   2.455   3.897   5.914 -2.0144 -0.0597 -0.6597
 3968SOL     OW23362   3.923   4.602   5.584  0.3975 -0.1036  0.2453
 3968SOL    HW123363   3.974   4.613   5.664 -0.8099 -0.8168  1.1054
 3968SOL    HW223364   3.934   4.691   5.549 -0.4046  1.0340  2.8288
 3969SOL     OW23365   4.501   4.501   1.837  0.8303 -0.4505  0.1143
 3969SOL    HW123366   4.443   4.468   1.906  2.8690 -2.8768  0.6630
 3969SOL    HW223367   4.567   4.553   1.884 -1.9642  3.0412  0.2283
 3970SOL     OW23368   2.467   0.793   5.940 -0.0298  0.2505 -0.4232
 3970SOL    HW123369   2.541   0.818   5.885 -0.9426  1.2707 -1.2109
 3970SOL    HW223370   2.513   0.755   6.014 -0.6091  2.1319  0.9141
 3971SOL     OW23371   3.379   2.786  10.165  0.7590 -0.4351  0.2001
 3971SOL    HW123372   3.324   2.830  10.101 -1.9552  0.1887  2.9472
 3971SOL    HW223373   3.456   2.770  10.110  2.2075 -0.4076  2.2077
 3972SOL     OW23374   2.705   3.170   9.495 -0.1956 -0.1950 -0.1875
 3972SOL    HW123375   2.734   3.117   9.570  0.2001  1.0644  0.5619
 3972SOL    HW223376   2.784   3.178   9.441 -1.7368 -2.8784 -2.8399
 3973SOL     OW23377   3.440   2.970  14.139 -0.3548  0.3080  0.4443
 3973SOL    HW123378   3.489   3.034  14.087  0.9173 -1.1816 -0.1546
 3973SOL    HW223379   3.472   2.893  14.093 -1.5892 -0.9502  1.6846
 3974SOL     OW23380   0.173   3.173   0.142 -0.7361  0.3541  0.1235
 3974SOL    HW123381   0.218   3.215   0.068  0.6954 -0.0243  0.7750
 3974SOL    HW223382   0.172   3.081   0.117  0.0128  0.9270 -2.0196
 3975SOL     OW23383   4.035   3.875   4.786  0.0985 -0.4379  0.0379
 3975SOL    HW123384   4.090   3.906   4.858  3.1748  0.7391 -2.8573
 3975SOL    HW223385   3.948   3.880   4.826  0.7055  0.1682  1.2671
 3976SOL     OW23386   2.335   2.547   9.835  0.6609  0.0240 -0.0650
 3976SOL    HW123387   2.393   2.606   9.884 -2.0609  2.3292  0.3943
 3976SOL    HW223388   2.308   2.485   9.903 -1.2095 -2.0349 -2.6552
 3977SOL     OW23389   2.269   0.779   3.823  0.3143  0.1058  0.0555
 3977SOL    HW123390   2.363   0.769   3.816  0.1755 -0.3032 -1.3177
 3977SOL    HW223391   2.242   0.710   3.884  2.7103 -0.8753 -0.0210
 3978SOL     OW23392   4.059   2.497   4.196  0.2002 -0.5895  0.3405
 3978SOL    HW123393   4.106   2.446   4.263 -0.6579 -0.8881  0.7074
 3978SOL    HW223394   4.066   2.432   4.125 -0.0780  2.1009 -2.1597
 3979SOL     OW23395   1.724   0.774   4.576  0.3087  0.5614  0.7139
 3979SOL    HW123396   1.693   0.767   4.666 -1.1256  1.9506  0.3279
 3979SOL    HW223397   1.777   0.694   4.571  0.3834  0.6980 -0.6264
 3980SOL     OW23398   3.450   4.036  16.124  0.0794 -0.0961 -0.7591
 3980SOL    HW123399   3.480   4.071  16.040 -0.0526 -0.4087 -0.9355
 3980SOL    HW223400   3.535   4.015  16.164  0.3661 -0.2248 -1.4421
 3981SOL     OW23401   0.369   4.141  10.765 -0.4283  0.4562  0.3617
 3981SOL    HW123402   0.383   4.104  10.678  1.0725  1.2352  0.2780
 3981SOL    HW223403   0.323   4.221  10.739 -0.9344  0.5424  1.4992
 3982SOL     OW23404   3.614   1.511   5.160  0.6292  0.1838  0.6645
 3982SOL    HW123405   3.652   1.466   5.236  0.5838  2.1202  1.8182
 3982SOL    HW223406   3.671   1.469   5.095  1.1145 -0.8085  1.7306
 3983SOL     OW23407   2.171   1.596   1.246  0.0741 -0.1688  0.6714
 3983SOL    HW123408   2.141   1.684   1.224 -1.0280 -0.9812 -1.0335
 3983SOL    HW223409   2.254   1.595   1.199  0.6978 -0.1140  1.7670
 3984SOL     OW23410   2.656   4.177   8.217 -0.1803 -0.2666  0.4539
 3984SOL    HW123411   2.593   4.229   8.266 -2.2383 -1.3373 -1.0711
 3984SOL    HW223412   2.661   4.230   8.138  2.7261 -2.5894 -0.9142
 3985SOL     OW23413   3.128   4.008  15.881 -0.0072 -0.1828 -0.2606
 3985SOL    HW123414   3.132   4.052  15.965  0.7607 -0.7183 -0.0090
 3985SOL    HW223415   3.196   3.942  15.894 -1.1549 -0.6055  3.5451
 3986SOL     OW23416   3.008   1.251   2.279 -0.4317  0.1202  0.7018
 3986SOL    HW123417   3.071   1.240   2.207 -0.8678 -0.2755  0.3770
 3986SOL    HW223418   3.041   1.324   2.329 -0.7351 -0.5763  1.9102
 3987SOL     OW23419   4.224   4.486   7.402 -0.5318 -0.2889  0.1056
 3987SOL    HW123420   4.308   4.446   7.380 -1.1065 -2.0714  1.1116
 3987SOL    HW223421   4.199   4.527   7.320  1.5160  1.5185  0.3891
 3988SOL     OW23422   4.396   2.488   4.169 -0.4788 -0.0601 -0.0020
 3988SOL    HW123423   4.370   2.398   4.191 -0.3732  0.0952  0.7357
 3988SOL    HW223424   4.384   2.483   4.074  0.1664 -2.3642  0.0226
 3989SOL     OW23425   4.482   1.558   2.757 -0.0023 -0.7400 -0.0203
 3989SOL    HW123426   4.537   1.605   2.694  0.7468 -0.2681  0.9700
 3989SOL    HW223427   4.397   1.598   2.740 -0.0139  0.1916  2.1664
 3990SOL     OW23428   3.777   2.241   2.261  0.1566  0.2954  0.3378
 3990SOL    HW123429   3.715   2.169   2.259  1.9527 -1.1923 -1.9984
 3990SOL    HW223430   3.720   2.305   2.219  1.1850  2.3351  2.0454
 3991SOL     OW23431   1.730   0.189   3.282 -0.4054  0.4474 -0.5359
 3991SOL    HW123432   1.776   0.253   3.337 -1.8532  0.5125  0.6085
 3991SOL    HW223433   1.754   0.113   3.334 -0.3227  1.3108  0.7024
 3992SOL     OW23434   3.656   0.521   0.138 -0.1028  0.1412  0.6025
 3992SOL    HW123435   3.700   0.580   0.199  0.6997  0.9229 -0.7165
 3992SOL    HW223436   3.606   0.464   0.196  0.2059  0.6557  1.3686
 3993SOL     OW23437   1.305   1.411   1.078  0.5949 -0.1756 -0.5697
 3993SOL    HW123438   1.248   1.470   1.027  0.4127 -0.5581 -0.8070
 3993SOL    HW223439   1.261   1.326   1.077 -2.9993  1.6993 -1.6651
 3994SOL     OW23440   4.570   0.644  13.537  0.3454 -0.1139 -0.1704
 3994SOL    HW123441   4.546   0.676  13.624 -2.1195 -0.0538 -0.8807
 3994SOL    HW223442   4.638   0.708  13.518 -1.3556  1.6550 -0.3258
 3995SOL     OW23443   0.306   0.333   8.658 -0.1275  0.1516 -0.1760
 3995SOL    HW123444   0.277   0.312   8.569  0.1298 -3.7691  0.6398
 3995SOL    HW223445   0.393   0.370   8.647 -0.4081  1.4128  1.9369
 3996SOL     OW23446   4.026   0.080   9.136 -0.2245  0.0761  0.3722
 3996SOL    HW123447   4.115   0.105   9.112  0.5781 -1.4618  1.7504
 3996SOL    HW223448   4.011   4.719   9.091 -0.8945  0.1716  0.4296
 3997SOL     OW23449   0.782   4.242   4.668  0.1264  0.2501  0.2259
 3997SOL    HW123450   0.829   4.258   4.750  1.3055 -0.8994 -0.2354
 3997SOL    HW223451   0.735   4.324   4.653  0.5325  0.4309 -0.0357
 3998SOL     OW23452   2.682   4.148  17.018 -0.1629 -0.5483 -0.0978
 3998SOL    HW123453   2.717   4.234  16.995 -0.5104 -0.2535  0.4394
 3998SOL    HW223454   2.658   4.151  17.111 -1.5813 -0.1297 -0.4731
 3999SOL     OW23455   3.738   3.325  11.948 -0.0064  0.2747 -0.2523
 3999SOL    HW123456   3.702   3.260  12.009  0.0101  1.8735  1.4623
 3999SOL    HW223457   3.829   3.296  11.961  0.2196 -0.2032 -2.9662
 4000SOL     OW23458   3.169   0.531  17.206 -0.4344  0.4449 -0.1973
 4000SOL    HW123459   3.189   0.622  17.227 -0.1973  0.1477  0.8779
 4000SOL    HW223460   3.229   0.489  17.267 -0.0213  0.3371 -0.6800
 4001SOL     OW23461   4.603   2.887   8.648  0.4230 -0.2166 -0.2412
 4001SOL    HW123462   4.687   2.933   8.642  0.2673  0.3216  1.6928
 4001SOL    HW223463   4.562   2.904   8.563 -2.5826  0.7572  1.4011
 4002SOL     OW23464   3.855   1.193  11.305  0.6070 -0.5448  0.5461
 4002SOL    HW123465   3.873   1.278  11.346 -1.9059  0.0814  0.3932
 4002SOL    HW223466   3.881   1.131  11.373 -0.8713 -1.2868  0.4333
 4003SOL     OW23467   0.981   1.790   8.480 -0.3085 -0.0080  0.2767
 4003SOL    HW123468   0.981   1.842   8.561  2.3018  0.9413 -0.3159
 4003SOL    HW223469   0.919   1.841   8.427 -0.0381 -0.2011 -0.2206
 4004SOL     OW23470   1.788   2.546   0.827 -0.6950 -0.0482 -0.2249
 4004SOL    HW123471   1.763   2.587   0.910  0.9755  0.3658  0.0833
 4004SOL    HW223472   1.808   2.618   0.767 -0.4571  0.1462  0.0821
 4005SOL     OW23473   2.740   3.654   4.828 -0.3421  0.5040  0.2231
 4005SOL    HW123474   2.729   3.662   4.733  1.9965 -1.7772 -0.2494
 4005SOL    HW223475   2.830   3.681   4.848 -1.4061  1.6431  3.4504
 4006SOL     OW23476   1.235   2.779   4.701 -0.0350  0.1729 -0.0613
 4006SOL    HW123477   1.235   2.736   4.786  0.0056  0.3066  0.0067
 4006SOL    HW223478   1.234   2.698   4.650 -0.5681  0.1969 -0.0855
 4007SOL     OW23479   0.157   0.716   4.063  0.3597 -0.4082 -0.4602
 4007SOL    HW123480   0.180   0.754   3.978 -0.5748 -0.3292 -0.6768
 4007SOL    HW223481   0.233   0.746   4.113  0.3303 -2.3008  0.7140
 4008SOL     OW23482   1.423   0.921  10.042 -0.3842 -0.6518 -0.4604
 4008SOL    HW123483   1.464   0.936  10.127 -0.0000 -2.2965 -0.3552
 4008SOL    HW223484   1.475   0.972   9.981  0.8727  1.7441  2.6174
 4009SOL     OW23485   1.681   3.601  12.007  0.0281 -0.5813  0.7289
 4009SOL    HW123486   1.719   3.527  12.055 -0.2909  0.1611  2.1225
 4009SOL    HW223487   1.758   3.657  12.008 -0.3065 -0.1336  1.2976
 4010SOL     OW23488   4.653   2.422   5.774  0.1103 -0.1726  0.1818
 4010SOL    HW123489   4.630   2.359   5.707 -0.9484 -0.0463  0.4273
 4010SOL    HW223490   4.622   2.377   5.852 -1.3153 -2.6851 -1.8512
 4011SOL     OW23491   1.832   1.335   3.614  0.0103 -0.1161 -0.0124
 4011SOL    HW123492   1.816   1.405   3.551  0.0733  1.1235  1.3518
 4011SOL    HW223493   1.915   1.362   3.652  1.7520 -2.9485 -1.8525
 4012SOL     OW23494   3.334   2.015   2.117 -0.3949  0.0497 -0.3739
 4012SOL    HW123495   3.399   1.960   2.075  0.8385  2.0106 -1.0059
 4012SOL    HW223496   3.321   1.974   2.203  1.7708  0.2731  0.0511
 4013SOL     OW23497   2.413   3.114   9.219 -0.1400 -0.4761 -0.3413
 4013SOL    HW123498   2.439   3.102   9.310 -0.4537  0.2281 -0.1612
 4013SOL    HW223499   2.327   3.149   9.239 -0.1203 -1.9629  2.3386
 4014SOL     OW23500   4.628   1.649   9.199 -0.0630 -0.0675 -0.6752
 4014SOL    HW123501   4.553   1.593   9.177 -0.4156 -0.0491  0.4517
 4014SOL    HW223502   4.619   1.714   9.129  0.8611  1.4077  0.5825
 4015SOL     OW23503   1.987   1.744  13.182  0.3994 -0.1624  0.0459
 4015SOL    HW123504   2.021   1.821  13.228 -0.7736 -0.1043  0.8047
 4015SOL    HW223505   1.981   1.762  13.088 -0.3890 -0.3455  0.0656
 4016SOL     OW23506   3.869   3.832   4.126  0.1912 -0.7988  0.2608
 4016SOL    HW123507   3.919   3.871   4.198 -1.9040  1.3840  0.5455
 4016SOL    HW223508   3.874   3.910   4.071  0.2686  0.3403  1.8898
 4017SOL     OW23509   1.066   4.083  12.098  0.6720  0.0172 -0.6997
 4017SOL    HW123510   1.020   4.095  12.181  2.2446  0.6472  0.1036
 4017SOL    HW223511   1.157   4.083  12.128  0.4850  0.7451 -0.1326
 4018SOL     OW23512   2.193   3.238   1.147  0.1783 -0.0335  0.3038
 4018SOL    HW123513   2.165   3.150   1.173  0.9835 -0.3821 -0.0330
 4018SOL    HW223514   2.231   3.276   1.226  0.4856  2.6436 -1.1409
 4019SOL     OW23515   4.067   4.628   6.395  0.1250 -0.3308  0.0829
 4019SOL    HW123516   4.032   4.713   6.369 -0.1006 -0.6467 -0.6650
 4019SOL    HW223517   4.091   4.595   6.308  0.5059  2.0163 -0.7071
 4020SOL     OW23518   3.575   1.700   5.911 -0.1006  0.0841  0.1603
 4020SOL    HW123519   3.518   1.627   5.889 -1.8118  2.0411 -1.9467
 4020SOL    HW223520   3.637   1.664   5.974  0.8707 -1.1054 -1.4872
 4021SOL     OW23521   4.220   1.036   6.095  0.4363  0.5894  0.1422
 4021SOL    HW123522   4.269   1.066   6.018 -1.0590  2.5437 -0.0478
 4021SOL    HW223523   4.199   0.945   6.074  1.1240  0.5737 -0.4786
 4022SOL     OW23524   4.041   1.948  14.923  0.2661  0.2909  0.1052
 4022SOL    HW123525   3.990   1.925  14.845 -1.6741  0.0248  1.4563
 4022SOL    HW223526   4.016   2.039  14.937  0.3108  0.1677  0.9975
 4023SOL     OW23527   1.168   3.784   7.927 -0.1759 -0.1306  0.5017
 4023SOL    HW123528   1.078   3.761   7.902  0.4702 -1.1193 -0.9394
 4023SOL    HW223529   1.166   3.860   7.985  1.3685 -0.1964  0.6399
 4024SOL     OW23530   0.964   1.000   5.292  0.2595 -0.0819 -0.4152
 4024SOL    HW123531   0.931   0.992   5.202 -1.7305  1.7987  0.1459
 4024SOL    HW223532   1.057   0.976   5.290  0.4459  0.8314 -2.0743
 4025SOL     OW23533   0.370   4.197   7.682 -0.7033 -0.1310 -0.4857
 4025SOL    HW123534   0.353   4.203   7.776 -1.6331  1.0244 -0.7373
 4025SOL    HW223535   0.399   4.106   7.678  0.4380  0.2970 -2.0082
 4026SOL     OW23536   1.782   1.129   9.637 -0.1379  0.1715 -0.2894
 4026SOL    HW123537   1.851   1.150   9.700 -0.7289  0.0065  0.4132
 4026SOL    HW223538   1.794   1.208   9.584  0.8732 -0.7647 -1.4712
 4027SOL     OW23539   2.803   1.125  12.623  0.7499  0.3348  0.1781
 4027SOL    HW123540   2.839   1.197  12.571 -0.1362  0.7594  0.1650
 4027SOL    HW223541   2.774   1.165  12.705  2.3582 -0.7623  1.2832
 4028SOL     OW23542   0.648   4.046  11.113 -0.2033  0.5500 -0.0760
 4028SOL    HW123543   0.728   4.064  11.163  0.3734 -0.4060 -0.6606
 4028SOL    HW223544   0.686   3.981  11.054  1.1640  0.8505  0.4855
 4029SOL     OW23545   3.827   2.009   7.355 -0.2863  0.2165 -0.1552
 4029SOL    HW123546   3.737   1.992   7.328  0.2633  0.6161 -2.2558
 4029SOL    HW223547   3.814   2.060   7.434  0.0406 -1.1948  0.8165
 4030SOL     OW23548   4.464   3.752   3.240 -0.5706 -0.2620 -0.2911
 4030SOL    HW123549   4.555   3.729   3.222  0.1171  1.4386  0.9579
 4030SOL    HW223550   4.446   3.706   3.322 -0.0767  0.1388  0.0489
 4031SOL     OW23551   2.233   4.668   3.338 -0.4752  0.2208  0.4060
 4031SOL    HW123552   2.199   4.632   3.256 -1.1417 -1.1838  1.3040
 4031SOL    HW223553   2.295   4.606   3.375  0.2922 -0.8922 -2.7793
 4032SOL     OW23554   0.040   3.010   7.127 -0.3090  0.0009  0.0747
 4032SOL    HW123555   0.110   3.016   7.192 -0.4742  3.0312 -0.0192
 4032SOL    HW223556   4.688   3.059   7.165 -0.2068  0.2628 -0.0649
 4033SOL     OW23557   0.153   1.204   6.365  0.3436  0.2827 -0.3572
 4033SOL    HW123558   0.120   1.293   6.351  0.0755 -0.3030 -3.2447
 4033SOL    HW223559   0.125   1.154   6.289  0.6975  0.0561 -0.3390
 4034SOL     OW23560   0.981   3.022   5.255 -0.1510  0.1562 -0.4952
 4034SOL    HW123561   1.071   3.000   5.281 -0.5507  0.7559  1.4006
 4034SOL    HW223562   0.944   3.030   5.343  0.7234 -0.8852 -0.0270
 4035SOL     OW23563   3.365   2.027  14.804 -0.5119  0.3152  0.3653
 4035SOL    HW123564   3.360   2.032  14.709  0.4519 -1.4630  0.2217
 4035SOL    HW223565   3.274   2.001  14.816  0.0985 -2.3252 -0.6177
 4036SOL     OW23566   3.122   1.950   8.437  0.2063 -0.2100  0.1961
 4036SOL    HW123567   3.099   2.034   8.398  2.0234 -0.4385 -1.3767
 4036SOL    HW223568   3.217   1.957   8.428  0.3108 -1.1439  0.5534
 4037SOL     OW23569   3.503   4.235   6.471 -0.6309 -0.7247  0.0174
 4037SOL    HW123570   3.520   4.315   6.520 -0.8504 -0.6865  0.0294
 4037SOL    HW223571   3.577   4.188   6.509  0.2518 -1.7423 -2.8982
 4038SOL     OW23572   0.133   4.598   1.689  0.0877 -0.5986 -0.3968
 4038SOL    HW123573   0.200   4.588   1.621 -1.4477  1.2861 -2.2012
 4038SOL    HW223574   0.139   4.512   1.730  1.5187  0.1504  0.9701
 4039SOL     OW23575   0.911   0.106   6.164 -0.0508 -0.2240  0.2056
 4039SOL    HW123576   0.873   0.021   6.190 -0.7245 -0.3242 -1.1193
 4039SOL    HW223577   0.965   0.080   6.090 -0.9110 -0.1433 -0.4485
 4040SOL     OW23578   1.433   3.834   7.046  0.2101  0.1202 -0.2906
 4040SOL    HW123579   1.426   3.925   7.016  0.0255  0.6051  1.2482
 4040SOL    HW223580   1.344   3.816   7.074  0.3495 -0.1555 -0.0218
 4041SOL     OW23581   1.521   0.616   3.315  0.5859 -0.3391  0.8691
 4041SOL    HW123582   1.451   0.588   3.255  1.2952  2.7910 -1.4577
 4041SOL    HW223583   1.482   0.600   3.400 -1.8490  1.2396  0.0483
 4042SOL     OW23584   2.611   0.211   8.831  0.4220 -0.4460  0.5307
 4042SOL    HW123585   2.535   0.221   8.887  0.2035  0.0404  0.1374
 4042SOL    HW223586   2.577   0.238   8.746 -1.2702 -2.0484  0.6953
 4043SOL     OW23587   1.010   2.194   0.385  0.2606 -0.1063  0.2162
 4043SOL    HW123588   1.095   2.158   0.360 -0.4173  0.0488 -2.3481
 4043SOL    HW223589   0.981   2.124   0.442 -0.4294 -1.8734 -2.3079
 4044SOL     OW23590   2.887   1.571   2.343 -0.4710 -0.2962  0.4488
 4044SOL    HW123591   2.916   1.550   2.432  1.0328 -1.0475 -0.2072
 4044SOL    HW223592   2.830   1.499   2.317 -0.0528  0.0568 -1.4497
 4045SOL     OW23593   3.719   4.579   3.700  0.4831  0.0484 -0.2431
 4045SOL    HW123594   3.714   4.549   3.790  0.5682  1.3053  0.1761
 4045SOL    HW223595   3.729   4.498   3.648  3.8052  0.4322 -0.1948
 4046SOL     OW23596   3.160   0.220   7.423 -0.2912  0.5246  0.0194
 4046SOL    HW123597   3.211   0.216   7.504  0.5840  0.6523 -0.5250
 4046SOL    HW223598   3.072   0.210   7.460  0.0356 -1.5264  0.2637
 4047SOL     OW23599   1.947   1.529   4.605 -0.5558 -0.2860  0.0697
 4047SOL    HW123600   1.913   1.526   4.516 -0.9889  1.2951  0.1831
 4047SOL    HW223601   2.013   1.461   4.622 -1.1956 -0.7107  0.8740
 4048SOL     OW23602   4.624   1.488  17.154 -0.2665  0.6544 -0.2999
 4048SOL    HW123603   4.570   1.445  17.087 -1.0905 -0.2965  0.9823
 4048SOL    HW223604   4.561   1.480  17.225  0.1385  1.3042  0.1329
 4049SOL     OW23605   0.227   2.866   6.388  0.6442 -0.1346  0.0901
 4049SOL    HW123606   0.147   2.829   6.352 -1.0174  1.8860  1.7135
 4049SOL    HW223607   0.201   2.944   6.437  0.3361  0.4322 -0.9640
 4050SOL     OW23608   3.378   0.762  11.588  0.8484 -0.4904 -0.1308
 4050SOL    HW123609   3.463   0.795  11.560  0.5531 -0.2550 -0.7553
 4050SOL    HW223610   3.371   0.697  11.518 -1.7407 -0.0740 -0.2745
 4051SOL     OW23611   3.793   4.627   4.724  0.0866 -0.3817  0.5380
 4051SOL    HW123612   3.717   4.680   4.703  0.5322 -0.6808 -1.8523
 4051SOL    HW223613   3.844   4.696   4.766 -1.4339  2.2648 -1.9915
 4052SOL     OW23614   0.120   4.631  12.057  0.4326 -0.6097  0.5857
 4052SOL    HW123615   0.199   4.614  12.108  1.8647  0.1510 -1.3739
 4052SOL    HW223616   0.149   4.721  12.040  0.1849 -0.2587  2.0752
 4053SOL     OW23617   2.661   1.994   3.478  0.1829  0.0924  0.0186
 4053SOL    HW123618   2.719   1.964   3.548 -1.3802 -0.7106  0.9407
 4053SOL    HW223619   2.574   1.993   3.518  0.4385  1.6938  0.6275
 4054SOL     OW23620   0.347   2.141   5.586 -0.7941 -0.1057 -0.5112
 4054SOL    HW123621   0.405   2.069   5.610 -2.6285 -2.0705 -1.8832
 4054SOL    HW223622   0.308   2.161   5.671 -2.5225 -1.1432 -1.0401
 4055SOL     OW23623   0.719   2.667   3.467  0.0536  0.8807  0.0101
 4055SOL    HW123624   0.648   2.604   3.461 -0.3843  1.3325  0.4313
 4055SOL    HW223625   0.695   2.723   3.392  0.0734 -0.0114 -0.6599
 4056SOL     OW23626   0.478   2.564  16.415 -0.0222 -0.5190 -0.5560
 4056SOL    HW123627   0.556   2.614  16.390 -0.4355 -0.0625 -0.9300
 4056SOL    HW223628   0.523   2.481  16.433 -0.7187 -1.0075 -1.0495
 4057SOL     OW23629   2.481   3.125   3.772 -0.1029  0.1406 -0.5591
 4057SOL    HW123630   2.405   3.146   3.718 -2.1619  0.4527  2.4475
 4057SOL    HW223631   2.437   3.074   3.839  1.2972  1.2898  1.2438
 4058SOL     OW23632   2.997   3.557  10.456  0.1023  0.2402 -0.0534
 4058SOL    HW123633   2.911   3.516  10.442  0.4503 -0.4518 -0.1913
 4058SOL    HW223634   3.002   3.561  10.552  1.8917 -0.2329 -0.1277
 4059SOL     OW23635   1.606   2.310   4.948 -0.4734 -0.5310 -0.3109
 4059SOL    HW123636   1.515   2.302   4.922 -0.5349  0.6751 -0.4764
 4059SOL    HW223637   1.647   2.312   4.862 -1.6851 -0.9852 -0.8856
 4060SOL     OW23638   3.441   1.401   5.535 -0.6665  0.6442 -0.6524
 4060SOL    HW123639   3.402   1.316   5.559  0.6025 -0.3157 -1.9814
 4060SOL    HW223640   3.451   1.381   5.442  1.9671  0.3236 -0.2872
 4061SOL     OW23641   0.098   4.217  10.584  0.4238  0.3469 -0.0950
 4061SOL    HW123642   0.074   4.124  10.591 -1.0770  0.7451  0.1109
 4061SOL    HW223643   0.013   4.262  10.581 -0.2621 -0.9902 -1.0144
 4062SOL     OW23644   1.678   1.887   2.411  0.0570 -0.4348 -0.0545
 4062SOL    HW123645   1.742   1.837   2.460  0.1432  1.2910  1.5934
 4062SOL    HW223646   1.697   1.971   2.453 -0.8325 -0.2463 -0.0206
 4063SOL     OW23647   3.611   2.124   6.512 -0.8600 -0.0305 -0.5116
 4063SOL    HW123648   3.599   2.140   6.418  1.0025 -0.0580 -0.7472
 4063SOL    HW223649   3.702   2.096   6.512 -1.3173 -1.4829  1.1594
 4064SOL     OW23650   1.381   3.811   4.781  0.5280  0.7169 -0.4616
 4064SOL    HW123651   1.410   3.722   4.762 -1.2235  0.0894 -0.2499
 4064SOL    HW223652   1.438   3.865   4.728  2.2794 -0.5203  0.1630
 4065SOL     OW23653   0.012   3.711   5.279 -0.1394 -0.4489  0.3942
 4065SOL    HW123654   4.651   3.726   5.231  0.8625 -1.6227 -1.7180
 4065SOL    HW223655   0.052   3.649   5.218  2.5627 -1.0418  2.7886
 4066SOL     OW23656   0.870   2.665   6.150 -0.0208  0.2345 -0.2173
 4066SOL    HW123657   0.965   2.675   6.150 -0.0423  0.4387 -0.9821
 4066SOL    HW223658   0.864   2.570   6.163 -0.7672  0.5923  2.0787
 4067SOL     OW23659   1.797   1.144   2.106  0.0603 -0.4011 -0.2755
 4067SOL    HW123660   1.715   1.098   2.087 -0.8241  0.5336  1.3544
 4067SOL    HW223661   1.842   1.143   2.021  0.7976 -0.3223  0.1125
 4068SOL     OW23662   3.478   2.597   5.176 -0.0722  0.5505  0.1986
 4068SOL    HW123663   3.504   2.664   5.113 -0.1891 -0.9260 -1.4147
 4068SOL    HW223664   3.534   2.527   5.142  0.7796  0.9660  0.7226
 4069SOL     OW23665   3.995   0.223   4.000  0.4847  0.2774 -0.5440
 4069SOL    HW123666   4.030   0.136   4.019 -1.5037 -0.4847 -0.3628
 4069SOL    HW223667   3.912   0.197   3.960  0.4687 -1.4422  0.6087
 4070SOL     OW23668   2.914   2.352   4.375  0.0402 -0.0027 -0.3257
 4070SOL    HW123669   2.912   2.257   4.364 -1.2423  0.0584 -0.7299
 4070SOL    HW223670   2.944   2.375   4.287 -0.2066  3.3327  0.4703
 4071SOL     OW23671   0.619   3.764   6.394 -0.0545 -0.0463  0.5890
 4071SOL    HW123672   0.583   3.844   6.355  3.3906  0.5143 -1.4214
 4071SOL    HW223673   0.573   3.761   6.478 -0.0149  1.8111  0.6637
 4072SOL     OW23674   4.398   2.352   1.458  0.1942  0.3150 -0.2661
 4072SOL    HW123675   4.380   2.261   1.483  0.4922  0.3028 -0.0910
 4072SOL    HW223676   4.357   2.358   1.372 -1.5935  3.0835  0.7643
 4073SOL     OW23677   0.372   0.545   4.778  0.1795 -0.2869  0.1266
 4073SOL    HW123678   0.363   0.571   4.869  0.6586 -2.9227  0.9414
 4073SOL    HW223679   0.339   0.626   4.740  1.2600  0.0741 -0.0194
 4074SOL     OW23680   1.094   0.441   4.010  0.0210 -0.3129  0.1260
 4074SOL    HW123681   1.173   0.436   3.956  0.1782  0.0375  0.3224
 4074SOL    HW223682   1.050   0.516   3.969 -0.6244 -1.1791 -0.7521
 4075SOL     OW23683   0.481   2.657   5.596  0.1520 -0.3539 -0.1177
 4075SOL    HW123684   0.397   2.701   5.611  0.0385  0.2530 -2.5080
 4075SOL    HW223685   0.451   2.570   5.569  0.9462 -0.9031  0.7817
 4076SOL     OW23686   0.000   3.117   3.083  0.1717 -0.2057  0.5958
 4076SOL    HW123687   0.033   3.032   3.113 -1.7657  0.1163  3.6464
 4076SOL    HW223688   4.650   3.139   3.143  0.2396 -1.8865  1.2951
 4077SOL     OW23689   0.306   2.436  11.839 -0.4430  0.3580  0.3399
 4077SOL    HW123690   0.330   2.374  11.908 -0.4841  0.2300  0.2377
 4077SOL    HW223691   0.370   2.508  11.842 -0.1270 -0.0171  3.1701
 4078SOL     OW23692   3.647   2.008   4.448 -0.7252  0.1956 -0.0626
 4078SOL    HW123693   3.667   2.081   4.507  1.8959  0.5965 -1.4536
 4078SOL    HW223694   3.717   2.010   4.384 -1.2462  1.1777 -0.6054
 4079SOL     OW23695   3.186   3.541   3.150 -0.2025 -0.2649 -0.1670
 4079SOL    HW123696   3.126   3.470   3.171 -0.4453 -0.0800 -0.2373
 4079SOL    HW223697   3.130   3.616   3.169  0.3137  0.1574 -0.3079
 4080SOL     OW23698   4.328   3.837   6.136  0.4259  0.5300 -0.4714
 4080SOL    HW123699   4.387   3.780   6.086  0.8267  0.6593 -0.1452
 4080SOL    HW223700   4.382   3.914   6.154 -1.0010  1.8317 -1.7749
 4081SOL     OW23701   4.564   1.903   5.965  0.0591 -0.2772  0.5640
 4081SOL    HW123702   4.479   1.920   6.005  0.2110  2.0652 -0.1481
 4081SOL    HW223703   4.556   1.809   5.948 -2.1470  0.4999 -2.7373
 4082SOL     OW23704   2.200   1.301   7.977  0.2371  0.1537  0.4959
 4082SOL    HW123705   2.245   1.217   7.972  0.9386  0.5580  0.0381
 4082SOL    HW223706   2.262   1.369   7.951  1.6801 -1.0280  0.8312
 4083SOL     OW23707   4.119   1.932   8.715 -0.0256 -0.1816  0.8062
 4083SOL    HW123708   4.025   1.927   8.702 -0.4498  4.2226  2.1888
 4083SOL    HW223709   4.138   2.020   8.746  0.9112  0.1675 -0.7383
 4084SOL     OW23710   2.172   3.693  15.042 -0.3538 -0.1487 -0.1796
 4084SOL    HW123711   2.085   3.728  15.021 -1.8203 -4.6236 -1.7431
 4084SOL    HW223712   2.223   3.772  15.058 -0.7146  0.9044 -4.1535
 4085SOL     OW23713   4.102   0.503   4.831 -0.3970 -0.6097  0.5061
 4085SOL    HW123714   4.132   0.594   4.832  0.9037 -1.0055 -2.5090
 4085SOL    HW223715   4.178   0.459   4.870  0.6642  0.3598 -0.4787
 4086SOL     OW23716   2.311   0.887  10.343  0.7168 -0.3968  0.0199
 4086SOL    HW123717   2.335   0.954  10.279 -0.4352  0.1817  0.1903
 4086SOL    HW223718   2.258   0.933  10.409  0.1617  0.1268 -0.7981
 4087SOL     OW23719   2.456   2.973   0.604 -0.7847  0.0339  0.0929
 4087SOL    HW123720   2.417   3.021   0.531  0.4435 -0.7792 -1.0972
 4087SOL    HW223721   2.413   3.018   0.677  0.6797  1.0488  0.3318
 4088SOL     OW23722   3.125   0.791   1.921  0.1039  0.2000  0.0622
 4088SOL    HW123723   3.099   0.876   1.955 -4.4538 -0.0385 -2.8957
 4088SOL    HW223724   3.042   0.753   1.893  0.1936  2.1003 -2.6688
 4089SOL     OW23725   2.552   2.415  13.264  0.2853  0.0539 -0.5258
 4089SOL    HW123726   2.456   2.418  13.270  0.1960  0.6724 -2.1237
 4089SOL    HW223727   2.574   2.507  13.248 -0.2976  0.2954  0.0377
 4090SOL     OW23728   1.438   3.221  14.894 -0.3444  0.2880  0.0727
 4090SOL    HW123729   1.524   3.222  14.936 -1.0443  1.1678  1.4472
 4090SOL    HW223730   1.405   3.144  14.939 -0.5037 -0.3298 -1.0926
 4091SOL     OW23731   1.327   1.711  16.814  0.0273 -0.3421 -0.2917
 4091SOL    HW123732   1.285   1.719  16.900  1.2944  0.9061  0.2103
 4091SOL    HW223733   1.262   1.660  16.765 -0.8198  1.1582 -0.7236
 4092SOL     OW23734   4.633   0.083   3.671  0.2727 -0.0117  0.0170
 4092SOL    HW123735   4.708   0.076   3.613 -0.3639  0.5953 -0.8845
 4092SOL    HW223736   4.562   0.048   3.617 -0.1110  0.3122  0.3101
 4093SOL     OW23737   0.795   1.165   3.898  0.1199 -0.0193  0.3204
 4093SOL    HW123738   0.711   1.137   3.936 -1.6914  1.5822 -2.4898
 4093SOL    HW223739   0.776   1.251   3.861 -2.5332 -1.6173 -2.0176
 4094SOL     OW23740   3.758   1.106   9.132 -0.3552 -0.1412  0.7868
 4094SOL    HW123741   3.800   1.159   9.200  0.4049 -0.0073  0.2143
 4094SOL    HW223742   3.803   1.021   9.131 -0.5858 -0.2707  1.4361
 4095SOL     OW23743   2.891   0.232   4.017  0.0890  0.5120  0.0340
 4095SOL    HW123744   2.812   0.177   4.014  0.8443 -0.5748  0.1345
 4095SOL    HW223745   2.926   0.218   4.105 -2.4233 -1.2787  0.7763
 4096SOL     OW23746   0.946   0.652  10.254 -0.2432  0.4303  0.1697
 4096SOL    HW123747   1.017   0.590  10.237 -0.4072  0.5018 -0.7438
 4096SOL    HW223748   0.974   0.725  10.198 -2.0064  0.5886 -0.4889
 4097SOL     OW23749   2.714   3.896   2.922  0.0110 -0.2689 -0.0804
 4097SOL    HW123750   2.649   3.965   2.907 -0.7190 -0.6968  1.1285
 4097SOL    HW223751   2.728   3.902   3.016  1.2464  0.4945 -0.3052
 4098SOL     OW23752   1.872   0.624   2.731 -0.5633 -0.2836  0.1874
 4098SOL    HW123753   1.953   0.598   2.773 -0.2350  0.8496  0.2671
 4098SOL    HW223754   1.854   0.704   2.781 -0.8934 -0.1742 -0.0996
 4099SOL     OW23755   1.738   3.339   5.287 -0.0833  0.7023 -0.2700
 4099SOL    HW123756   1.797   3.414   5.278  1.0016 -0.3397 -1.7422
 4099SOL    HW223757   1.685   3.356   5.209 -0.5825  0.2459 -0.0294
 4100SOL     OW23758   3.580   2.619   7.838  0.0048  0.1908 -0.0815
 4100SOL    HW123759   3.599   2.712   7.846 -1.5510  0.4884  0.2973
 4100SOL    HW223760   3.490   2.617   7.804  0.4993 -1.8056 -1.2569
 4101SOL     OW23761   3.842   0.359   7.943 -0.0309 -0.1887  0.3088
 4101SOL    HW123762   3.756   0.400   7.950 -0.0835 -0.5776  1.8985
 4101SOL    HW223763   3.905   0.430   7.957 -0.9499  0.6281  0.2920
 4102SOL     OW23764   1.612   2.688  17.438  0.5073 -0.1125  0.7946
 4102SOL    HW123765   1.560   2.713  17.515 -0.2738 -1.8469  0.8193
 4102SOL    HW223766   1.654   2.773  17.423 -0.2674  0.2262  0.4794
 4103SOL     OW23767   1.610   4.532   4.457 -0.0581 -0.3560  0.9806
 4103SOL    HW123768   1.582   4.621   4.479 -0.8163 -0.5214  0.6912
 4103SOL    HW223769   1.698   4.540   4.494  0.5637  0.6679 -0.7409
 4104SOL     OW23770   0.921   2.694   7.504 -0.7787  0.3403  0.2748
 4104SOL    HW123771   0.929   2.599   7.516  2.3463  0.4924 -0.7099
 4104SOL    HW223772   0.950   2.727   7.590  0.2560 -1.9186  0.7877
 4105SOL     OW23773   0.732   2.819   6.681 -0.3935 -0.7378  0.2933
 4105SOL    HW123774   0.746   2.880   6.753 -0.7790  1.6319 -1.6757
 4105SOL    HW223775   0.691   2.745   6.726 -0.7496  1.0122  2.8049
 4106SOL     OW23776   0.062   3.034  14.381  0.1165  0.2812 -0.6643
 4106SOL    HW123777   0.071   3.109  14.321 -0.5625 -0.2496 -1.4412
 4106SOL    HW223778   0.077   2.956  14.328 -1.2260 -2.0509  2.3971
 4107SOL     OW23779   3.590   0.324   4.365  0.0158 -0.1337 -0.2974
 4107SOL    HW123780   3.679   0.332   4.330  0.7553  1.1900  1.8331
 4107SOL    HW223781   3.606   0.259   4.434  1.7567  0.8736  0.2539
 4108SOL     OW23782   4.459   2.889   2.967  0.1520 -0.0495 -0.0267
 4108SOL    HW123783   4.545   2.931   2.958  1.7548 -2.8668  2.1538
 4108SOL    HW223784   4.440   2.871   2.875 -0.3617 -0.1532  0.0975
 4109SOL     OW23785   1.884   2.656   9.171 -0.5269 -0.7951 -0.0874
 4109SOL    HW123786   1.884   2.711   9.249 -0.3305 -0.4113 -0.3567
 4109SOL    HW223787   1.796   2.619   9.167 -0.8793 -0.1926  2.1144
 4110SOL     OW23788   4.660   2.976  11.858  0.3863  0.1445  0.1126
 4110SOL    HW123789   4.624   2.942  11.776 -1.3324  1.2112  0.4286
 4110SOL    HW223790   4.716   3.051  11.839 -2.5745  2.4479  0.5640
 4111SOL     OW23791   1.775   0.683   4.050 -0.3216 -0.1620 -0.3837
 4111SOL    HW123792   1.684   0.713   4.055  0.8766  3.0781  1.9822
 4111SOL    HW223793   1.808   0.731   4.126 -0.8895  0.8172 -0.7537
 4112SOL     OW23794   3.664   2.333   7.227  0.2816 -0.2467 -0.7533
 4112SOL    HW123795   3.673   2.244   7.193  1.9016  0.1695 -1.4194
 4112SOL    HW223796   3.575   2.342   7.191  0.0455 -1.2010 -0.4161
 4113SOL     OW23797   2.022   2.179   5.386 -0.2394 -0.1472 -0.4580
 4113SOL    HW123798   2.069   2.175   5.303 -1.1227  2.3872 -1.0966
 4113SOL    HW223799   2.085   2.230   5.437 -0.3603  1.5106 -1.9459
 4114SOL     OW23800   3.172   4.551   8.643  0.2886 -0.2399 -0.5147
 4114SOL    HW123801   3.177   4.471   8.591 -0.3760 -0.4832 -0.2158
 4114SOL    HW223802   3.150   4.606   8.567  0.0237 -0.3347 -0.5071
 4115SOL     OW23803   3.221   1.630   7.888 -0.2809 -0.6776  0.3657
 4115SOL    HW123804   3.210   1.560   7.953  1.3327 -0.9806  0.3143
 4115SOL    HW223805   3.133   1.629   7.850 -0.5686 -1.9345  1.0617
 4116SOL     OW23806   1.829   2.209   6.043 -0.1632  0.0784 -0.1892
 4116SOL    HW123807   1.866   2.135   6.092  1.1729 -0.1123 -1.4623
 4116SOL    HW223808   1.902   2.253   5.999 -1.6463  0.8059 -1.9311
 4117SOL     OW23809   4.050   4.652   3.760  0.6403 -0.2451 -0.1867
 4117SOL    HW123810   4.076   4.664   3.669  0.3604  2.2993  0.0805
 4117SOL    HW223811   4.067   4.560   3.780 -1.1311 -0.2054  1.5169
 4118SOL     OW23812   2.533   3.258   8.789  0.5247 -0.0113 -0.0229
 4118SOL    HW123813   2.496   3.172   8.809 -2.1509  1.5057  1.5191
 4118SOL    HW223814   2.625   3.235   8.777  0.2936 -0.2970 -1.2044
 4119SOL     OW23815   3.482   0.722   0.479 -0.2322  0.8461  0.6358
 4119SOL    HW123816   3.573   0.727   0.508 -0.2495  0.2344  0.7904
 4119SOL    HW223817   3.485   0.807   0.434  0.0428  0.7100  0.3963
 4120SOL     OW23818   4.700   4.636   5.395  0.7100  0.5865  0.1998
 4120SOL    HW123819   4.711   4.542   5.408 -1.8784 -0.0096 -1.7931
 4120SOL    HW223820   4.637   4.643   5.323  0.7553 -0.5911  0.0506
 4121SOL     OW23821   2.758   2.691   7.321  0.2283 -0.2523 -0.5211
 4121SOL    HW123822   2.742   2.713   7.413  3.7868  0.4607 -0.0705
 4121SOL    HW223823   2.775   2.598   7.334 -2.7511 -0.5494  1.2002
 4122SOL     OW23824   2.317   0.133  11.129  0.5389  0.3086  0.2819
 4122SOL    HW123825   2.264   0.168  11.057 -1.1997 -0.5987  1.1376
 4122SOL    HW223826   2.346   0.216  11.167 -1.1863  0.9694  0.1788
 4123SOL     OW23827   0.621   4.611   9.245 -0.0588  0.0608 -0.3750
 4123SOL    HW123828   0.556   4.548   9.213  0.2341  0.0614 -0.9744
 4123SOL    HW223829   0.642   4.660   9.165  0.1705  0.7983  0.1406
 4124SOL     OW23830   1.207   1.128  17.624 -0.3944 -0.6301  0.2676
 4124SOL    HW123831   1.188   1.213  17.664  4.0512  1.3262 -1.7675
 4124SOL    HW223832   1.215   1.157  17.532 -1.7428 -0.7270  0.1212
 4125SOL     OW23833   2.113   2.047   8.180  0.3244 -0.1936 -0.3606
 4125SOL    HW123834   2.118   2.133   8.139 -0.5683  0.0718  0.0950
 4125SOL    HW223835   2.056   2.003   8.117 -2.9650  1.4064  1.4990
 4126SOL     OW23836   3.948   1.678   5.041  0.3067  0.2019 -0.4488
 4126SOL    HW123837   3.937   1.682   4.946  2.6794  0.9301 -0.6743
 4126SOL    HW223838   3.935   1.583   5.048  0.4216  0.2885  0.9300
 4127SOL     OW23839   1.556   2.051   5.619  0.0390  0.0200 -0.1113
 4127SOL    HW123840   1.560   2.070   5.713  0.5143 -0.2588 -0.0766
 4127SOL    HW223841   1.641   2.080   5.587  1.0994 -0.3338  2.4318
 4128SOL     OW23842   0.886   0.246   4.720  0.1313  0.2969  0.6806
 4128SOL    HW123843   0.823   0.266   4.651  0.3602  0.7059  0.5941
 4128SOL    HW223844   0.904   0.152   4.721  3.1922  0.8708 -0.3077
 4129SOL     OW23845   1.309   4.571  11.506  0.0786 -0.3965  0.4563
 4129SOL    HW123846   1.259   4.605  11.580 -1.7971  1.0923 -1.4968
 4129SOL    HW223847   1.395   4.604  11.531  0.0871  0.0369 -0.1420
 4130SOL     OW23848   1.195   4.640   3.236  0.0326 -0.2456  0.1754
 4130SOL    HW123849   1.188   0.005   3.276  0.7203  0.4781 -1.2359
 4130SOL    HW223850   1.290   4.628   3.225 -0.0600  1.0409 -2.0640
 4131SOL     OW23851   4.281   1.733  10.371 -0.4573  0.3420  0.0532
 4131SOL    HW123852   4.269   1.765  10.281 -2.5485  1.4206  0.6932
 4131SOL    HW223853   4.226   1.789  10.426 -0.1648  1.6981 -1.0271
 4132SOL     OW23854   2.788   1.904  16.732 -0.2388 -0.1165  0.0890
 4132SOL    HW123855   2.875   1.873  16.708 -0.3197  1.1781 -1.8824
 4132SOL    HW223856   2.747   1.928  16.649  0.1546 -0.8558 -0.3195
 4133SOL     OW23857   1.902   1.831   4.954 -0.2182 -0.6512  0.4037
 4133SOL    HW123858   1.830   1.799   4.899  0.3806  0.4154 -0.9824
 4133SOL    HW223859   1.855   1.821   5.037 -0.2423  2.2863  0.7282
 4134SOL     OW23860   1.379   0.107   5.405  0.1212 -0.3890 -0.0002
 4134SOL    HW123861   1.407   0.041   5.341 -0.1776  0.6529 -1.2171
 4134SOL    HW223862   1.287   0.128   5.386  0.1311 -1.9251 -1.8644
 4135SOL     OW23863   3.065   3.792   3.854  0.1224  0.0236 -0.3030
 4135SOL    HW123864   2.974   3.799   3.885  0.6736 -1.4829  1.6228
 4135SOL    HW223865   3.059   3.834   3.768  0.4733 -1.0776 -0.8595
 4136SOL     OW23866   3.941   3.902   0.135  0.2988  0.5849  0.0040
 4136SOL    HW123867   3.909   3.954   0.209  1.2626  0.4919  0.4795
 4136SOL    HW223868   3.879   3.830   0.126  1.4671 -0.6785  2.0364
 4137SOL     OW23869   2.791   2.238   7.785 -0.9411  0.8851  0.0679
 4137SOL    HW123870   2.734   2.171   7.824  0.0220 -1.0100 -1.7914
 4137SOL    HW223871   2.856   2.258   7.852  0.4271 -0.2814 -0.9073
 4138SOL     OW23872   1.409   4.394   5.869  0.0980 -0.1242  0.1372
 4138SOL    HW123873   1.325   4.374   5.911  0.5633  1.3467  1.7638
 4138SOL    HW223874   1.453   4.462   5.920  1.6204 -0.3445 -0.8899
 4139SOL     OW23875   4.066   3.138   3.809  0.0137  0.0138  0.1877
 4139SOL    HW123876   4.147   3.104   3.771 -0.2259 -1.1405  0.7143
 4139SOL    HW223877   4.015   3.168   3.733  0.5980 -0.9576 -0.6019
 4140SOL     OW23878   3.963   1.386   2.579 -0.3021  0.4505 -0.1070
 4140SOL    HW123879   3.869   1.394   2.592  0.1589  1.5129  2.5238
 4140SOL    HW223880   3.993   1.476   2.587 -0.1144  0.5285 -1.6143
 4141SOL     OW23881   1.015   0.979  13.315  0.4834  0.0546  0.1497
 4141SOL    HW123882   0.932   0.977  13.269 -0.0728  0.1439  1.1505
 4141SOL    HW223883   1.015   0.902  13.372 -0.6432  0.8115  1.1791
 4142SOL     OW23884   4.337   0.343   5.452  0.0683 -0.1026 -0.6796
 4142SOL    HW123885   4.358   0.423   5.499 -1.1894 -1.1225  1.6441
 4142SOL    HW223886   4.242   0.334   5.461 -0.1296  2.1203 -0.6868
 4143SOL     OW23887   4.291   1.625  15.156 -0.5598  0.1117 -0.0729
 4143SOL    HW123888   4.343   1.640  15.077 -0.4424 -2.1291 -0.4210
 4143SOL    HW223889   4.269   1.533  15.145  0.8926 -0.1810 -0.5196
 4144SOL     OW23890   3.580   1.598   6.603 -0.1856 -0.2096  0.0641
 4144SOL    HW123891   3.488   1.575   6.601 -0.1149 -0.3838 -0.9730
 4144SOL    HW223892   3.612   1.537   6.536  0.4278  0.5067 -0.2991
 4145SOL     OW23893   0.795   0.236  16.130 -0.3897  0.4000  0.0904
 4145SOL    HW123894   0.744   0.311  16.161 -1.2510  0.0240 -0.4367
 4145SOL    HW223895   0.867   0.246  16.193 -1.7988 -1.1563  1.9665
 4146SOL     OW23896   0.536   0.061  14.687 -0.0786  0.2121 -0.4951
 4146SOL    HW123897   0.532   4.687  14.697  0.6309  0.5673  2.9042
 4146SOL    HW223898   0.511   0.097  14.772 -2.5235 -0.8031 -0.7791
 4147SOL     OW23899   1.343   2.906   6.012 -0.4589  0.1215 -0.4730
 4147SOL    HW123900   1.317   2.832   5.957 -1.5535  0.0727  0.0924
 4147SOL    HW223901   1.412   2.864   6.064  0.4776  0.0643 -1.7812
 4148SOL     OW23902   3.169   4.305   7.046 -0.3820 -0.1081 -0.2032
 4148SOL    HW123903   3.106   4.236   7.026 -1.4325  0.6912  0.3993
 4148SOL    HW223904   3.116   4.378   7.077 -0.3870  1.1844 -3.2944
 4149SOL     OW23905   2.701   0.311   6.869  0.1298 -0.6145 -0.0714
 4149SOL    HW123906   2.659   0.368   6.804  0.1233  0.1155  0.5623
 4149SOL    HW223907   2.693   0.359   6.952  4.5014 -0.3879  0.2315
 4150SOL     OW23908   3.064   0.629  12.460 -0.3475  0.4597 -0.1410
 4150SOL    HW123909   3.145   0.679  12.449 -0.3217  0.3475 -0.4659
 4150SOL    HW223910   3.070   0.614  12.554  1.0444  0.3755 -0.2395
 4151SOL     OW23911   2.162   2.315   6.022 -0.0851 -0.3939  0.1106
 4151SOL    HW123912   2.177   2.223   6.001 -0.9067 -0.1946 -1.3250
 4151SOL    HW223913   2.157   2.302   6.117  0.8183  2.2062  0.4900
 4152SOL     OW23914   0.826   0.579   4.210 -0.1831  0.1472 -0.1601
 4152SOL    HW123915   0.852   0.665   4.177 -1.3913  0.9335  0.9465
 4152SOL    HW223916   0.826   0.592   4.304  2.8379  0.2395 -0.1707
 4153SOL     OW23917   1.216   0.245  17.077  0.4053 -0.1957  0.4200
 4153SOL    HW123918   1.132   0.201  17.070  0.2166  0.2008  0.2172
 4153SOL    HW223919   1.191   0.335  17.095  0.7264  0.2656 -1.3982
 4154SOL     OW23920   1.902   2.975   4.124 -0.0946  0.3844  0.5639
 4154SOL    HW123921   1.927   2.919   4.197  0.8619  0.0554 -0.0132
 4154SOL    HW223922   1.936   2.923   4.050 -0.2175  0.7075  0.2781
 4155SOL     OW23923   2.882   2.156  12.002  0.3184 -0.7228  0.1161
 4155SOL    HW123924   2.843   2.210  11.932 -2.4004 -0.2471  1.9774
 4155SOL    HW223925   2.966   2.136  11.960  0.3211  0.7742 -0.6083
 4156SOL     OW23926   0.251   0.595   3.682 -0.8534  0.3538 -0.3578
 4156SOL    HW123927   0.178   0.655   3.695 -0.0618  1.2566 -0.0118
 4156SOL    HW223928   0.281   0.627   3.596  1.7433 -0.8218  0.0906
 4157SOL     OW23929   0.046   2.196  15.143  0.4342 -0.8673  0.1058
 4157SOL    HW123930   0.056   2.290  15.151 -2.9120 -0.7294  2.5403
 4157SOL    HW223931   4.690   2.183  15.198 -1.6545 -0.7966 -2.8399
 4158SOL     OW23932   2.811   3.849   3.895  0.0811  0.1577  0.4377
 4158SOL    HW123933   2.728   3.832   3.851  0.0348  2.0863 -0.2249
 4158SOL    HW223934   2.793   3.937   3.929  0.9246  1.3013 -2.0531
 4159SOL     OW23935   4.336   3.063  17.440 -0.0460 -0.0577  0.2286
 4159SOL    HW123936   4.386   3.087  17.362 -1.2726  3.0307  0.3721
 4159SOL    HW223937   4.405   3.081  17.504 -1.4640  0.0428  1.7343
 4160SOL     OW23938   4.326   2.446  15.372  0.3855  0.1743  0.1086
 4160SOL    HW123939   4.242   2.482  15.400  0.4518  0.5125 -0.1362
 4160SOL    HW223940   4.289   2.379  15.314  0.0549  0.0603  0.4483
 4161SOL     OW23941   1.663   1.006  11.099  0.0731 -0.5569 -0.1984
 4161SOL    HW123942   1.657   1.092  11.140 -0.2730  1.0013 -3.4777
 4161SOL    HW223943   1.741   1.003  11.044 -1.1539  0.6145 -1.9939
 4162SOL     OW23944   4.150   2.131   1.500  0.0096 -0.2703 -0.1998
 4162SOL    HW123945   4.115   2.079   1.427 -0.2679  0.5486 -0.6518
 4162SOL    HW223946   4.242   2.146   1.477 -0.3323  2.9362  0.5236
 4163SOL     OW23947   2.599   1.071   5.497 -0.0775  0.0399  0.0265
 4163SOL    HW123948   2.568   1.088   5.408  0.2105 -0.1915 -0.1173
 4163SOL    HW223949   2.569   0.981   5.509 -0.9327  0.4435  0.8711
 4164SOL     OW23950   0.087   4.039   3.316 -0.3177 -0.7091 -0.0424
 4164SOL    HW123951   0.089   4.103   3.245 -0.2052 -0.3901  0.2473
 4164SOL    HW223952   0.167   3.995   3.285 -0.0316 -0.5527  0.4795
 4165SOL     OW23953   0.096   3.865  11.803  0.0526 -0.0937 -0.2277
 4165SOL    HW123954   0.120   3.780  11.766  1.3693 -0.3658  1.2823
 4165SOL    HW223955   0.097   3.851  11.897  0.7545  0.4998 -0.1479
 4166SOL     OW23956   1.675   4.417   6.134  0.6568  0.7694 -0.1807
 4166SOL    HW123957   1.677   4.488   6.199  1.6647 -1.0938  1.8516
 4166SOL    HW223958   1.664   4.472   6.057 -0.2293 -0.9248 -1.2417
 4167SOL     OW23959   3.862   1.268   4.145 -0.4600  0.5857 -0.2738
 4167SOL    HW123960   3.866   1.361   4.125  3.7608  0.4507 -0.0188
 4167SOL    HW223961   3.773   1.252   4.112 -0.8866  1.2839  0.5341
 4168SOL     OW23962   4.237   0.112   1.765  0.5007  0.0917  0.2514
 4168SOL    HW123963   4.324   0.152   1.764  1.5875 -2.2508  0.2814
 4168SOL    HW223964   4.181   0.188   1.778  1.9866  1.2777 -0.2756
 4169SOL     OW23965   2.109   3.199   6.411  0.4064  0.0594  0.1699
 4169SOL    HW123966   2.096   3.110   6.378 -0.3241 -0.6237  2.3067
 4169SOL    HW223967   2.196   3.200   6.450  0.1421  0.0152  0.7572
 4170SOL     OW23968   2.854   1.486   9.747 -0.5247  0.0519 -0.1052
 4170SOL    HW123969   2.819   1.408   9.704  2.7165 -1.4578 -0.0552
 4170SOL    HW223970   2.825   1.564   9.700  1.1288 -0.9979 -2.8843
 4171SOL     OW23971   3.489   2.308   8.756 -0.3011 -0.1406 -0.0444
 4171SOL    HW123972   3.411   2.335   8.805 -0.2548 -2.4361  1.2805
 4171SOL    HW223973   3.500   2.220   8.791 -1.7475  0.0267  0.8626
 4172SOL     OW23974   2.965   3.550  10.743  0.0728  0.4882 -0.4276
 4172SOL    HW123975   2.984   3.478  10.803  0.2073  1.2310  0.4248
 4172SOL    HW223976   2.978   3.619  10.808  0.7029  0.3383 -0.3971
 4173SOL     OW23977   2.367   4.607   9.638  0.4396 -0.0628  0.0173
 4173SOL    HW123978   2.308   4.548   9.592 -1.7519  3.0589 -1.1628
 4173SOL    HW223979   2.332   4.585   9.725  0.0968  0.1638 -0.0617
 4174SOL     OW23980   0.954   4.273  16.490 -0.0941 -0.4363  0.0625
 4174SOL    HW123981   0.996   4.347  16.447 -2.4635 -0.0036 -1.5321
 4174SOL    HW223982   1.032   4.224  16.515 -0.2483 -0.1832  1.0220
 4175SOL     OW23983   3.278   2.035   2.840  0.8196 -0.5067  0.1026
 4175SOL    HW123984   3.225   2.114   2.829 -0.3285 -1.4135 -0.7986
 4175SOL    HW223985   3.355   2.073   2.796  0.7444 -0.4803 -0.0082
 4176SOL     OW23986   1.249   3.424   4.912 -0.5929  0.5475 -0.0281
 4176SOL    HW123987   1.211   3.446   4.997 -0.6730  1.0186 -0.1863
 4176SOL    HW223988   1.224   3.331   4.912  2.0498 -0.1677 -1.1179
 4177SOL     OW23989   2.285   3.863   9.567 -0.1092  0.6268  0.8673
 4177SOL    HW123990   2.297   3.902   9.481 -0.0237 -0.6904  0.2859
 4177SOL    HW223991   2.232   3.923   9.621  0.0173  0.1655  1.5038
 4178SOL     OW23992   3.524   1.738   1.231 -0.3277 -0.1771  0.2363
 4178SOL    HW123993   3.563   1.662   1.188  1.6075  0.3501  1.0805
 4178SOL    HW223994   3.596   1.751   1.292 -0.6729  1.0505  0.3876
 4179SOL     OW23995   4.069   1.811   9.009  0.4893 -0.1786  0.1608
 4179SOL    HW123996   4.010   1.868   9.060  2.6151  1.0418  1.2437
 4179SOL    HW223997   4.125   1.879   8.973  0.0302 -1.3355 -2.6958
 4180SOL     OW23998   1.794   4.627   5.543 -0.2414 -0.5577 -0.1031
 4180SOL    HW123999   1.772   4.703   5.596  0.4641 -2.1316  2.4331
 4180SOL    HW224000   1.784   4.559   5.609  1.2327  0.0049  0.6713
 4181SOL     OW24001   0.816   2.145   9.170  0.2895 -0.2072  0.1082
 4181SOL    HW124002   0.767   2.176   9.246 -1.1067 -1.0212 -0.4643
 4181SOL    HW224003   0.848   2.062   9.205 -2.1344 -1.4087 -0.5416
 4182SOL     OW24004   1.875   2.581  10.796  0.0235 -0.2391 -0.4225
 4182SOL    HW124005   1.956   2.580  10.847 -0.0921 -1.5398 -0.2562
 4182SOL    HW224006   1.878   2.663  10.748  1.6892 -1.4478 -2.3852
 4183SOL     OW24007   2.427   3.566   3.146  0.8230  0.1886  0.2253
 4183SOL    HW124008   2.421   3.523   3.061 -0.7446 -1.9983  1.4423
 4183SOL    HW224009   2.361   3.636   3.137  0.2385 -0.5155 -0.9272
 4184SOL     OW24010   0.175   2.190  12.748  0.2435 -0.2897  0.2795
 4184SOL    HW124011   0.240   2.260  12.753  1.5216 -1.3521 -1.5243
 4184SOL    HW224012   0.203   2.130  12.818 -0.6114 -1.5455 -0.4683
 4185SOL     OW24013   4.183   0.046   4.624  0.0921  0.0843 -0.3199
 4185SOL    HW124014   4.152   0.017   4.538  0.2961 -0.6551 -0.1514
 4185SOL    HW224015   4.263   4.715   4.632 -0.6195 -1.1515 -1.1431
 4186SOL     OW24016   1.889   0.595   7.113 -0.5337  0.2148  0.2041
 4186SOL    HW124017   1.973   0.637   7.093 -0.0383  0.4795  2.8688
 4186SOL    HW224018   1.908   0.544   7.192 -0.4123 -1.1484 -0.7051
 4187SOL     OW24019   2.030   2.164   3.334 -0.0443  0.4094  0.2670
 4187SOL    HW124020   1.935   2.167   3.336 -0.0098  1.7670 -0.5094
 4187SOL    HW224021   2.050   2.190   3.244 -2.4881 -1.7686 -0.9096
 4188SOL     OW24022   1.902   1.696   8.520 -0.1698  0.6361 -0.1162
 4188SOL    HW124023   1.956   1.693   8.441  0.8997  0.6795  0.6119
 4188SOL    HW224024   1.841   1.759   8.482  1.3047  0.1719 -3.2554
 4189SOL     OW24025   3.061   2.598   0.265  0.6538 -0.1635  0.2758
 4189SOL    HW124026   2.970   2.605   0.294  0.2687 -0.3678 -0.8521
 4189SOL    HW224027   3.042   2.581   0.172 -0.0938  0.2893  0.3432
 4190SOL     OW24028   4.532   1.273   5.046 -0.3618 -0.1840  0.3014
 4190SOL    HW124029   4.467   1.317   5.101  3.5827  4.0342  1.5891
 4190SOL    HW224030   4.605   1.273   5.107 -0.2566  1.2461  0.1724
 4191SOL     OW24031   0.073   1.237  17.321 -0.0546 -0.2596  0.1730
 4191SOL    HW124032   0.002   1.232  17.386 -1.9496  0.7784 -1.8189
 4191SOL    HW224033   0.046   1.306  17.260 -0.0447  0.4753  1.0014
 4192SOL     OW24034   1.315   0.379   5.059  0.2398 -0.1029  0.8020
 4192SOL    HW124035   1.223   0.359   5.042  0.5159 -0.8653  0.2235
 4192SOL    HW224036   1.354   0.292   5.049  2.3637  0.9760 -0.2589
 4193SOL     OW24037   3.257   1.750  13.672 -0.2098 -0.5307 -0.4415
 4193SOL    HW124038   3.214   1.734  13.587 -0.5084  3.7962 -1.0709
 4193SOL    HW224039   3.294   1.836  13.654  1.8547 -0.7055  3.2003
 4194SOL     OW24040   1.862   3.907   4.168 -0.2139 -0.1424 -0.2006
 4194SOL    HW124041   1.774   3.942   4.181 -0.7291 -1.6988  0.5912
 4194SOL    HW224042   1.869   3.919   4.074 -1.3465  0.4421 -0.2130
 4195SOL     OW24043   1.027   2.814  17.266 -0.6085 -0.1043 -0.0631
 4195SOL    HW124044   1.004   2.807  17.174  1.7779  1.9533 -0.8051
 4195SOL    HW224045   1.113   2.771  17.261  0.0202  1.1173  0.1586
 4196SOL     OW24046   3.163   3.711  14.272  0.0507 -0.1001 -0.0421
 4196SOL    HW124047   3.129   3.729  14.185  0.2326  1.0012  0.1151
 4196SOL    HW224048   3.112   3.633  14.292 -1.1475  0.6334 -0.2215
 4197SOL     OW24049   2.988   1.734   8.273  0.4216 -0.3467 -0.5071
 4197SOL    HW124050   2.999   1.810   8.216  1.1480  1.4211  1.9825
 4197SOL    HW224051   3.043   1.764   8.346  2.1904  0.2329 -2.0703
 4198SOL     OW24052   2.346   1.311   6.867 -0.3298  0.2781  0.0609
 4198SOL    HW124053   2.289   1.363   6.924 -0.3862  0.1475  0.1228
 4198SOL    HW224054   2.290   1.279   6.796 -0.3478 -0.3969  0.3807
 4199SOL     OW24055   4.602   0.094   6.520  0.1078 -0.4099 -0.0898
 4199SOL    HW124056   4.602   0.086   6.425 -3.4510 -2.9386  0.1251
 4199SOL    HW224057   4.649   0.016   6.549  2.1821  0.9944  0.3981
 4200SOL     OW24058   4.622   0.792   6.947  0.3344  0.1776  0.5286
 4200SOL    HW124059   4.647   0.866   6.891 -0.5985  0.7370  0.8442
 4200SOL    HW224060   4.614   0.719   6.886  1.1171  1.3764 -1.0139
 4201SOL     OW24061   2.540   1.816   9.002 -0.3498 -0.2000 -0.3712
 4201SOL    HW124062   2.452   1.817   9.040  0.1089 -1.4455  0.7478
 4201SOL    HW224063   2.598   1.823   9.078  0.4686 -1.4357 -0.8806
 4202SOL     OW24064   0.384   4.200  14.397  0.3834  0.0512 -0.1259
 4202SOL    HW124065   0.356   4.128  14.453  3.3738 -0.6864  0.4110
 4202SOL    HW224066   0.411   4.263  14.464  0.0590  2.3975 -2.1758
 4203SOL     OW24067   0.850   1.250  10.792  0.1655 -0.2172 -0.1893
 4203SOL    HW124068   0.774   1.208  10.831 -0.3081  2.4521  1.7506
 4203SOL    HW224069   0.880   1.183  10.729 -1.1788 -0.4797 -0.5461
 4204SOL     OW24070   0.885   2.819  16.338  0.2091  0.7725 -0.6345
 4204SOL    HW124071   0.828   2.753  16.377 -0.6287  1.4893 -0.6627
 4204SOL    HW224072   0.824   2.871  16.285 -1.0262  0.6566  0.6805
 4205SOL     OW24073   3.843   0.466   6.549  0.3361  0.0369 -0.5768
 4205SOL    HW124074   3.847   0.520   6.471  2.6672  2.0759  0.9564
 4205SOL    HW224075   3.924   0.417   6.538 -0.4794 -1.2745 -0.7879
 4206SOL     OW24076   3.200   0.628   4.000  0.1457 -0.2975 -0.1860
 4206SOL    HW124077   3.147   0.597   3.926 -1.2422  0.3536  0.5355
 4206SOL    HW224078   3.290   0.616   3.971  0.6571 -1.4275  1.9480
 4207SOL     OW24079   3.814   4.699   6.211  0.1758 -0.2891  0.0195
 4207SOL    HW124080   3.822   0.001   6.303  0.9446 -0.1411 -0.0818
 4207SOL    HW224081   3.900   4.715   6.171 -0.6482  1.5657 -1.0180
 4208SOL     OW24082   0.593   4.497  15.900 -0.4036 -0.0326 -0.0049
 4208SOL    HW124083   0.639   4.571  15.940 -0.2273  0.4651 -1.1369
 4208SOL    HW224084   0.607   4.427  15.964 -1.1634  1.0980  1.3988
 4209SOL     OW24085   1.895   3.433   7.614 -0.0078 -0.0264 -0.2294
 4209SOL    HW124086   1.970   3.435   7.673 -1.1859 -1.5204  1.3201
 4209SOL    HW224087   1.835   3.391   7.676  0.0850  0.9229  0.4921
 4210SOL     OW24088   3.750   0.134   8.748 -0.3096  0.0346  0.3133
 4210SOL    HW124089   3.795   0.054   8.719 -1.2828  0.1808 -1.5876
 4210SOL    HW224090   3.811   0.199   8.712 -1.4273  0.8193 -0.1773
 4211SOL     OW24091   3.325   3.445  10.979  1.0752 -0.2004  0.3079
 4211SOL    HW124092   3.306   3.399  10.898 -0.1289 -0.0221  0.4775
 4211SOL    HW224093   3.287   3.383  11.041  2.6302  0.5125  2.0010
 4212SOL     OW24094   1.239   2.472   4.074  0.0106  0.2310 -0.4467
 4212SOL    HW124095   1.301   2.415   4.027  0.9943  1.9182 -1.2250
 4212SOL    HW224096   1.248   2.548   4.017  0.3999  0.7737  0.3405
 4213SOL     OW24097   2.720   3.771  10.907 -0.2415  0.3362 -0.7857
 4213SOL    HW124098   2.815   3.774  10.915 -0.3617 -0.5119  0.9925
 4213SOL    HW224099   2.700   3.682  10.939  3.8881 -0.2762  0.0585
 4214SOL     OW24100   1.610   4.401   2.757  0.0021  0.5460 -0.0602
 4214SOL    HW124101   1.685   4.431   2.706 -1.0579  0.0658 -1.8708
 4214SOL    HW224102   1.588   4.476   2.813  0.2555 -2.0608  3.5824
 4215SOL     OW24103   1.482   1.431   6.465 -0.2502 -0.2999 -0.3284
 4215SOL    HW124104   1.495   1.372   6.540 -0.4151 -1.4654 -1.2198
 4215SOL    HW224105   1.536   1.401   6.392 -0.2751  0.6737 -0.7359
 4216SOL     OW24106   0.798   1.556   7.472  0.3853  0.1490 -0.6347
 4216SOL    HW124107   0.727   1.619   7.486 -1.7510 -2.8805  2.1957
 4216SOL    HW224108   0.862   1.615   7.433  2.5625 -0.7753  1.5218
 4217SOL     OW24109   4.183   1.318   5.756 -0.4996  0.9311  0.1653
 4217SOL    HW124110   4.230   1.395   5.723  0.8613  0.3129  0.6718
 4217SOL    HW224111   4.118   1.364   5.810 -0.2533 -1.7435  2.7794
 4218SOL     OW24112   2.831   1.358   2.113 -0.4022  0.1150  0.1018
 4218SOL    HW124113   2.814   1.272   2.075 -0.6207  0.6379 -0.9864
 4218SOL    HW224114   2.859   1.334   2.201 -0.3547  1.2314  0.3889
 4219SOL     OW24115   4.404   4.106  16.752 -0.5864  0.1984  0.3683
 4219SOL    HW124116   4.381   4.014  16.751  0.4844 -0.0638  0.0881
 4219SOL    HW224117   4.499   4.111  16.761 -0.3612  0.1724 -2.0617
 4220SOL     OW24118   2.311   4.052   3.038  0.4011  0.4873 -0.2328
 4220SOL    HW124119   2.361   4.129   3.067 -3.0395  2.8375 -0.5878
 4220SOL    HW224120   2.358   4.038   2.955  1.6425 -3.0043  1.0809
 4221SOL     OW24121   0.795   2.486   3.881  0.3907  0.8910 -0.2297
 4221SOL    HW124122   0.811   2.452   3.794  1.3198  1.2212 -0.1871
 4221SOL    HW224123   0.851   2.427   3.932 -2.4472 -1.6314 -0.0575
 4222SOL     OW24124   3.555   1.967   7.307  0.2788  0.3614 -0.1792
 4222SOL    HW124125   3.528   1.960   7.216  0.6792 -0.5768 -0.2308
 4222SOL    HW224126   3.478   1.950   7.361  0.9705 -0.2903  0.6203
 4223SOL     OW24127   2.441   0.567   5.685  0.3427 -0.0065  0.3967
 4223SOL    HW124128   2.476   0.513   5.756 -0.5423  0.3710  1.1230
 4223SOL    HW224129   2.398   0.641   5.727 -0.9494 -0.1736 -0.6374
 4224SOL     OW24130   4.257   0.724  14.843  0.0261 -0.3213 -0.2245
 4224SOL    HW124131   4.351   0.744  14.849 -0.4184  1.0540  2.0754
 4224SOL    HW224132   4.214   0.799  14.803  1.2818  0.1712 -0.6581
 4225SOL     OW24133   3.644   3.113   2.729 -0.4678  0.1037 -0.7514
 4225SOL    HW124134   3.719   3.146   2.679  1.0183 -0.3191  1.1981
 4225SOL    HW224135   3.624   3.194   2.776  0.8528 -0.3684  0.6485
 4226SOL     OW24136   3.158   0.181   8.133  0.3769 -0.1537  0.3342
 4226SOL    HW124137   3.158   0.224   8.048 -1.5352  0.0747  0.4353
 4226SOL    HW224138   3.175   0.257   8.190  0.3851  0.3760 -0.3816
 4227SOL     OW24139   3.180   2.254   8.506 -0.2078 -0.0852 -0.4002
 4227SOL    HW124140   3.245   2.230   8.440  0.2686 -0.2562  0.1388
 4227SOL    HW224141   3.209   2.199   8.579 -0.6489  2.5186  1.7548
 4228SOL     OW24142   3.330   0.669   6.581  0.1356 -0.1709 -0.4391
 4228SOL    HW124143   3.327   0.601   6.514 -0.0408  0.0433 -0.6469
 4228SOL    HW224144   3.300   0.617   6.656  2.3651  0.4464  0.8787
 4229SOL     OW24145   4.533   0.251   8.419  0.0369  0.0365 -0.0145
 4229SOL    HW124146   4.482   0.252   8.500  0.8276 -1.7236  0.5046
 4229SOL    HW224147   4.570   0.339   8.421  1.3295 -0.4640 -1.2649
 4230SOL     OW24148   4.409   4.345   6.558  0.1281  0.0057  0.1763
 4230SOL    HW124149   4.502   4.363   6.543 -0.3551  0.4720 -2.3999
 4230SOL    HW224150   4.383   4.436   6.543  1.0798  0.2016 -0.2989
 4231SOL     OW24151   4.159   3.292   4.014 -0.3155  0.1663 -0.4297
 4231SOL    HW124152   4.119   3.235   3.949 -1.3894  0.2970  0.1121
 4231SOL    HW224153   4.250   3.264   4.006 -0.5258 -1.1050  1.5930
 4232SOL     OW24154   1.556   0.273  13.904  0.2781  0.3651  0.1810
 4232SOL    HW124155   1.568   0.305  13.993  1.9523  0.2480  0.0045
 4232SOL    HW224156   1.628   0.317  13.858  2.2093 -1.2916  1.5706
 4233SOL     OW24157   2.049   2.246   1.548 -0.4328 -0.1413  0.0428
 4233SOL    HW124158   2.113   2.176   1.564 -1.5234 -1.2144 -0.3187
 4233SOL    HW224159   2.013   2.254   1.636  0.8592 -0.1049  0.5629
 4234SOL     OW24160   4.409   4.491   4.164  0.3455 -0.0724 -0.4989
 4234SOL    HW124161   4.454   4.407   4.163 -1.6998 -1.1524 -1.7247
 4234SOL    HW224162   4.362   4.497   4.081  1.7797  1.1851 -1.2239
 4235SOL     OW24163   2.206   1.445   7.046 -0.2974 -0.0762 -0.2818
 4235SOL    HW124164   2.123   1.425   7.089 -1.5885 -0.6212 -3.0264
 4235SOL    HW224165   2.237   1.522   7.094  0.9545 -0.3212 -0.7004
 4236SOL     OW24166   2.516   2.355   2.117 -0.1498  0.4587 -0.0011
 4236SOL    HW124167   2.431   2.350   2.074 -1.8107  1.3978  3.1441
 4236SOL    HW224168   2.510   2.268   2.156  0.3516  0.8185  0.9000
 4237SOL     OW24169   3.643   4.169   7.403 -0.2722 -0.6302 -0.1800
 4237SOL    HW124170   3.684   4.090   7.369 -0.8351 -1.1045  0.2370
 4237SOL    HW224171   3.711   4.197   7.465  0.4656  1.3233 -1.8964
 4238SOL     OW24172   4.339   2.009   4.820  0.4880  0.0724 -0.0266
 4238SOL    HW124173   4.275   1.942   4.796 -1.6356  1.3636  2.0455
 4238SOL    HW224174   4.411   1.947   4.837  0.7536  0.2098 -0.6702
 4239SOL     OW24175   3.354   3.109   2.179  0.7334 -0.9097 -0.5019
 4239SOL    HW124176   3.390   3.114   2.090 -2.4292  0.0777 -1.7337
 4239SOL    HW224177   3.267   3.145   2.161  1.1365 -0.6432 -1.9085
 4240SOL     OW24178   3.731   1.401   8.428  0.3455 -0.1253  0.3032
 4240SOL    HW124179   3.736   1.480   8.482  0.9018  0.9943 -1.3830
 4240SOL    HW224180   3.816   1.413   8.386  1.9778 -2.2053  2.9916
 4241SOL     OW24181   3.989   0.586   8.540  0.0799 -0.0157 -0.3097
 4241SOL    HW124182   4.046   0.599   8.616 -0.2836  1.3736 -0.2605
 4241SOL    HW224183   3.928   0.657   8.559 -1.4331 -1.5543  0.5557
 4242SOL     OW24184   1.418   3.124   3.770 -0.1533  0.1657 -0.1314
 4242SOL    HW124185   1.471   3.173   3.832  0.0746 -0.3447  0.0775
 4242SOL    HW224186   1.350   3.191   3.771  0.6942  1.0224 -0.5727
 4243SOL     OW24187   0.092   2.855  13.977  0.6450  0.1697 -0.2054
 4243SOL    HW124188   0.171   2.825  13.931  0.4915  0.7295 -0.8337
 4243SOL    HW224189   0.023   2.875  13.913  1.2954  1.5964 -0.4562
 4244SOL     OW24190   2.953   1.935   8.103  0.7977 -0.4876 -0.2701
 4244SOL    HW124191   2.985   1.937   8.012  1.3979 -1.9068 -0.0979
 4244SOL    HW224192   2.969   2.022   8.140  1.6139 -1.0895  0.7931
 4245SOL     OW24193   1.387   2.748   2.511 -0.0475  0.0916 -0.2030
 4245SOL    HW124194   1.334   2.698   2.449 -1.0378 -1.0566  1.5754
 4245SOL    HW224195   1.466   2.695   2.499  0.1199  0.4645 -0.7119
 4246SOL     OW24196   4.029   4.081   7.819  0.2254 -0.0679  0.3145
 4246SOL    HW124197   4.033   4.098   7.725  0.1828  1.6513  0.6271
 4246SOL    HW224198   4.106   4.030   7.846 -0.4264 -0.5891  1.2100
 4247SOL     OW24199   1.295   3.211   4.084  0.2640  1.0457  0.2284
 4247SOL    HW124200   1.276   3.130   4.131 -1.3312  1.8241  0.9257
 4247SOL    HW224201   1.231   3.222   4.013  0.5342  0.2103 -0.1526
 4248SOL     OW24202   1.968   4.309  12.913 -0.4144 -0.2309 -0.3548
 4248SOL    HW124203   1.988   4.273  12.826  0.3312 -2.9788  0.9796
 4248SOL    HW224204   1.996   4.401  12.907  1.6324 -0.8616 -0.5139
 4249SOL     OW24205   3.403   4.117   4.753  0.5331 -0.1726 -0.1436
 4249SOL    HW124206   3.413   4.038   4.700  1.1095  0.2486 -0.6457
 4249SOL    HW224207   3.407   4.082   4.842 -0.7620 -0.7553 -0.3077
 4250SOL     OW24208   4.652   2.694   5.749  0.2196 -0.1885 -0.0906
 4250SOL    HW124209   4.635   2.602   5.770 -3.2339  0.5404  0.3709
 4250SOL    HW224210   4.573   2.719   5.701 -0.2727  0.1895  0.9272
 4251SOL     OW24211   3.908   0.928   7.011 -0.4928 -0.4063  0.1978
 4251SOL    HW124212   3.846   0.949   7.081 -0.5557 -0.5494  0.1842
 4251SOL    HW224213   3.844   0.941   6.942  0.0866  0.5594 -0.1690
 4252SOL     OW24214   1.704   2.328   2.363  0.1360  0.1220  0.5227
 4252SOL    HW124215   1.796   2.355   2.366  0.8141 -1.6576 -4.2621
 4252SOL    HW224216   1.709   2.244   2.408 -0.7416 -0.4703 -0.4986
 4253SOL     OW24217   1.393   4.060  17.623 -0.0052  0.2489  0.3038
 4253SOL    HW124218   1.404   4.099   0.023  1.1437  0.5381  0.0290
 4253SOL    HW224219   1.302   4.032  17.624 -0.2104  0.7608 -2.6668
 4254SOL     OW24220   0.854   1.348   5.595  0.3469 -0.1183 -0.7276
 4254SOL    HW124221   0.948   1.333   5.582  0.2879  0.2701 -1.5748
 4254SOL    HW224222   0.820   1.333   5.507 -0.7435  0.0533 -0.3315
 4255SOL     OW24223   4.079   2.788   7.198  0.3301  0.1039 -0.6130
 4255SOL    HW124224   4.007   2.836   7.158 -1.6356  0.1815  3.0030
 4255SOL    HW224225   4.050   2.698   7.184  4.3189 -1.3595  0.3931
 4256SOL     OW24226   0.165   0.815   1.761  0.8089 -0.2372 -0.0788
 4256SOL    HW124227   0.166   0.841   1.853  1.8739 -2.2422  0.4806
 4256SOL    HW224228   0.077   0.780   1.748  0.0051  1.2498  1.3035
 4257SOL     OW24229   2.775   4.372   0.843 -0.2046 -0.2328  0.3416
 4257SOL    HW124230   2.867   4.354   0.823  0.0300  1.2133  0.1299
 4257SOL    HW224231   2.726   4.289   0.838  0.6731 -0.6079 -1.9547
 4258SOL     OW24232   4.396   0.462  12.416  0.0936 -0.0852 -0.4681
 4258SOL    HW124233   4.431   0.432  12.500  1.2338  1.5810 -0.3510
 4258SOL    HW224234   4.410   0.557  12.426 -2.2581  0.2377 -0.1477
 4259SOL     OW24235   1.715   1.714  14.190  0.1968  0.2249  0.2092
 4259SOL    HW124236   1.624   1.734  14.210 -1.0120 -2.3355 -2.6380
 4259SOL    HW224237   1.737   1.795  14.143  1.1612 -0.1350  0.0295
 4260SOL     OW24238   2.676   4.655   2.353 -0.1000  0.4592 -0.2215
 4260SOL    HW124239   2.677   4.595   2.428 -0.9207  0.2604 -0.3621
 4260SOL    HW224240   2.768   4.647   2.331 -0.2029  1.8470 -1.1768
 4261SOL     OW24241   3.338   4.660   8.161 -0.1588 -0.4003  0.5575
 4261SOL    HW124242   3.273   4.593   8.140 -1.4061  0.9005  0.3653
 4261SOL    HW224243   3.274   0.006   8.181  0.7897  0.0296  2.1236
 4262SOL     OW24244   1.058   1.506   2.476  0.4752 -0.3050  0.1745
 4262SOL    HW124245   1.036   1.600   2.476 -0.7257 -0.5757 -2.4948
 4262SOL    HW224246   1.136   1.500   2.530  0.0572 -0.4385  0.7731
 4263SOL     OW24247   3.289   4.518  12.258 -0.0214 -0.2535 -0.2035
 4263SOL    HW124248   3.233   4.582  12.213 -0.0356 -0.0104  0.1592
 4263SOL    HW224249   3.380   4.547  12.247  0.5358 -2.1151 -0.4459
 4264SOL     OW24250   3.306   1.932   1.297  0.0190 -0.3666  0.4099
 4264SOL    HW124251   3.358   1.853   1.313  1.3376  0.9367  2.5889
 4264SOL    HW224252   3.325   1.946   1.204  2.4767  1.9704  1.2646
 4265SOL     OW24253   0.679   2.217  17.063  0.9410 -0.3822 -0.0245
 4265SOL    HW124254   0.587   2.192  17.073  0.5308  1.5512  0.9100
 4265SOL    HW224255   0.670   2.298  17.013  0.3767  0.2552  1.1059
 4266SOL     OW24256   4.179   2.321   6.779  0.1242  0.4390  0.2762
 4266SOL    HW124257   4.084   2.320   6.772  0.1718 -1.9353  0.0622
 4266SOL    HW224258   4.175   2.380   6.854 -3.9268  0.8706 -0.2911
 4267SOL     OW24259   1.719   2.645   6.373  0.5464 -0.9658  0.2730
 4267SOL    HW124260   1.636   2.652   6.420 -0.0036  3.0909 -1.3180
 4267SOL    HW224261   1.683   2.591   6.303  0.0891 -1.1517  0.6554
 4268SOL     OW24262   0.774   2.150   6.197 -0.5297  0.2074 -0.0917
 4268SOL    HW124263   0.755   2.243   6.208  1.0797  0.7153 -1.5219
 4268SOL    HW224264   0.784   2.146   6.102 -0.0056 -0.3901 -0.0179
 4269SOL     OW24265   0.942   1.396   6.227 -0.0980  0.2988 -0.0597
 4269SOL    HW124266   1.019   1.398   6.171  0.8828 -1.0680  1.2174
 4269SOL    HW224267   0.944   1.300   6.235  1.3796  0.2292 -1.3708
 4270SOL     OW24268   0.542   1.079  15.295  0.0286 -0.2064  0.4119
 4270SOL    HW124269   0.567   1.001  15.246  0.3906  0.1158  0.0827
 4270SOL    HW224270   0.594   1.063  15.374  0.2158  1.6274  0.6518
 4271SOL     OW24271   2.388   1.467  12.207  0.2637 -0.0060  0.2230
 4271SOL    HW124272   2.438   1.526  12.150 -0.1042 -0.4138 -0.5208
 4271SOL    HW224273   2.401   1.500  12.296 -1.4221 -0.3390  0.5835
 4272SOL     OW24274   0.171   0.308   5.318  0.1946  0.4223  0.1182
 4272SOL    HW124275   0.231   0.333   5.248 -0.7289 -2.3556 -1.6968
 4272SOL    HW224276   0.203   0.361   5.391  2.0265 -1.4091  0.6363
 4273SOL     OW24277   4.348   4.099   3.677 -0.2591 -0.2831 -0.2897
 4273SOL    HW124278   4.434   4.120   3.642 -0.2407 -0.1841 -0.1873
 4273SOL    HW224279   4.365   4.124   3.768 -2.4923  0.0910  0.0218
 4274SOL     OW24280   3.519   3.735   5.300  0.6002  0.1143  0.7076
 4274SOL    HW124281   3.479   3.814   5.265  2.3260  0.1854 -1.0570
 4274SOL    HW224282   3.589   3.719   5.237 -0.9460  0.1719 -1.0047
 4275SOL     OW24283   0.355   4.002   4.228 -0.3192  0.2701 -0.0721
 4275SOL    HW124284   0.345   4.069   4.161 -2.6543  1.6537  1.6750
 4275SOL    HW224285   0.408   4.057   4.286 -0.9734 -1.4517  2.1915
 4276SOL     OW24286   4.106   3.971  12.332  0.4180  0.2293 -0.0277
 4276SOL    HW124287   4.109   3.881  12.299 -1.8248  0.1173  0.0204
 4276SOL    HW224288   4.097   3.948  12.424 -4.5030 -4.8888 -1.7930
 4277SOL     OW24289   3.858   0.584  14.392  0.7269 -0.5888 -0.0222
 4277SOL    HW124290   3.822   0.532  14.320  2.1516 -0.1009 -1.0992
 4277SOL    HW224291   3.798   0.565  14.464 -0.6929 -0.5679 -1.2162
 4278SOL     OW24292   0.091   0.688   9.449  0.0060  0.0189 -0.2644
 4278SOL    HW124293   0.030   0.632   9.497 -0.4991  0.9368  0.1593
 4278SOL    HW224294   0.148   0.734   9.511 -0.6433  0.1600  0.2263
 4279SOL     OW24295   2.514   2.473  11.931 -0.1946  0.0447 -0.1477
 4279SOL    HW124296   2.448   2.488  11.863 -0.3538 -0.1340 -0.0341
 4279SOL    HW224297   2.582   2.435  11.876 -0.0862 -2.1137  1.4870
 4280SOL     OW24298   3.809   1.979   8.712 -0.0592  0.1323  0.2373
 4280SOL    HW124299   3.783   1.993   8.803 -0.7010  1.2489 -0.1139
 4280SOL    HW224300   3.827   2.067   8.678  1.3068 -0.4668 -0.5611
 4281SOL     OW24301   2.894   3.197   0.343  0.1990 -0.0384  0.4040
 4281SOL    HW124302   2.840   3.137   0.393 -0.6638  1.3398  1.1194
 4281SOL    HW224303   2.826   3.260   0.319  0.5187 -0.1031 -0.7023
 4282SOL     OW24304   3.285   2.429   1.490 -0.0528  0.6226 -0.0559
 4282SOL    HW124305   3.323   2.392   1.410  1.8850 -0.4005  1.3409
 4282SOL    HW224306   3.239   2.503   1.451  0.1368  1.7085  1.8249
 4283SOL     OW24307   3.031   1.929   6.467  0.0291  0.0496  0.3949
 4283SOL    HW124308   3.032   1.856   6.529  0.6133  1.2644  1.8196
 4283SOL    HW224309   2.939   1.928   6.443  0.0578  0.3879  0.2634
 4284SOL     OW24310   1.662   2.343   8.918 -0.0663 -0.4348  0.4594
 4284SOL    HW124311   1.729   2.348   8.851  1.5188  0.2487  2.1075
 4284SOL    HW224312   1.581   2.359   8.870  0.7286  0.0256 -0.7270
 4285SOL     OW24313   4.014   1.476   6.117 -0.0091 -0.1494  0.0071
 4285SOL    HW124314   4.006   1.389   6.078  0.3800 -0.1588 -0.0501
 4285SOL    HW224315   3.923   1.498   6.136 -0.2416 -1.7711  0.8222
 4286SOL     OW24316   3.555   0.002   7.094 -0.0932 -0.3473 -0.1934
 4286SOL    HW124317   3.621   4.695   7.157  1.8867  0.2005 -2.0232
 4286SOL    HW224318   3.516   0.081   7.132 -0.3081  0.3511 -1.8661
 4287SOL     OW24319   2.056   3.268   8.524 -0.0136 -0.3304  0.0930
 4287SOL    HW124320   2.011   3.345   8.489 -1.7352 -0.9139  1.0504
 4287SOL    HW224321   2.140   3.311   8.540  0.6207 -2.8893  3.5980
 4288SOL     OW24322   1.959   1.080   7.106 -0.0812  0.2345 -0.6855
 4288SOL    HW124323   1.962   1.125   7.191 -0.7513 -1.7118  0.3651
 4288SOL    HW224324   1.881   1.025   7.110  0.4704 -0.4237  0.9364
 4289SOL     OW24325   0.594   3.506   6.036  0.0131 -0.0688  0.2826
 4289SOL    HW124326   0.676   3.458   6.034  0.0203 -0.0226 -0.7052
 4289SOL    HW224327   0.530   3.439   6.060  0.2224 -0.4509 -0.2440
 4290SOL     OW24328   1.989   1.975   0.218 -0.5076  0.0133  0.0906
 4290SOL    HW124329   2.002   1.970   0.124  3.2004  1.9522  0.5175
 4290SOL    HW224330   1.930   1.901   0.232  0.1046 -0.0236  2.6544
 4291SOL     OW24331   1.992   1.900   3.318  0.0242  0.3907  0.0433
 4291SOL    HW124332   1.968   1.864   3.232  0.6145  0.5150 -0.1720
 4291SOL    HW224333   2.006   1.994   3.304 -0.1400 -0.0414 -3.0202
 4292SOL     OW24334   1.258   4.239   6.760 -0.0726  0.2913 -0.2850
 4292SOL    HW124335   1.240   4.154   6.799 -0.8281 -0.0042 -1.2787
 4292SOL    HW224336   1.226   4.222   6.671  0.0080  1.4538 -0.5443
 4293SOL     OW24337   0.239   2.265   2.658 -0.4375  0.4068 -0.3186
 4293SOL    HW124338   0.329   2.256   2.626 -0.2270 -0.2219  0.4801
 4293SOL    HW224339   0.202   2.179   2.639  1.7158 -0.8219  1.0523
 4294SOL     OW24340   3.638   0.333   0.365  0.0223  0.2428  0.2610
 4294SOL    HW124341   3.554   0.375   0.345 -0.8369 -2.0354 -0.8839
 4294SOL    HW224342   3.637   0.258   0.305  0.0844  2.3893 -2.4317
 4295SOL     OW24343   1.369   1.957   5.142  0.2951 -0.2623  0.6717
 4295SOL    HW124344   1.372   1.984   5.234 -0.7593 -0.3986  0.7383
 4295SOL    HW224345   1.432   1.885   5.138 -0.0521 -0.5663  0.7504
 4296SOL     OW24346   0.658   2.333   8.509  0.0406  1.0777  0.2636
 4296SOL    HW124347   0.631   2.246   8.540  1.2588  0.6341  0.0835
 4296SOL    HW224348   0.591   2.382   8.557 -0.2818  0.4801  0.4216
 4297SOL     OW24349   0.489   3.095   0.666  0.4052  0.2334  0.5682
 4297SOL    HW124350   0.447   3.028   0.720 -0.0669  0.9623  1.1066
 4297SOL    HW224351   0.469   3.175   0.714 -0.4514  0.8884 -0.8807
 4298SOL     OW24352   0.311   3.041  10.331 -0.4757  0.0541 -0.3509
 4298SOL    HW124353   0.259   3.120  10.351 -0.9118  0.5086 -3.3418
 4298SOL    HW224354   0.382   3.075  10.276 -1.1411  1.2574 -0.4842
 4299SOL     OW24355   0.278   3.198   5.293 -0.1409 -0.5469  0.2364
 4299SOL    HW124356   0.322   3.149   5.362 -0.2095 -2.0466 -0.7915
 4299SOL    HW224357   0.352   3.224   5.238 -1.0179 -2.2830 -1.7580
 4300SOL     OW24358   3.956   3.186   4.267 -0.6408  0.1162 -0.2536
 4300SOL    HW124359   3.937   3.118   4.202 -1.6729 -0.3414  0.5217
 4300SOL    HW224360   4.049   3.167   4.277 -0.5926  1.5423  2.0527
 4301SOL     OW24361   0.494   1.788   7.951  0.0005  0.5576 -0.3829
 4301SOL    HW124362   0.555   1.777   7.878  1.1899  1.7861  0.4314
 4301SOL    HW224363   0.519   1.872   7.990 -0.5915  0.2294  0.7147
 4302SOL     OW24364   1.453   2.870  12.870  0.6102 -0.2428 -0.2581
 4302SOL    HW124365   1.515   2.833  12.807  0.7029 -0.1201 -0.2400
 4302SOL    HW224366   1.374   2.866  12.816  2.6566 -0.4501 -3.2799
 4303SOL     OW24367   1.408   0.258   6.984  0.2510 -0.2888  0.2567
 4303SOL    HW124368   1.318   0.271   7.015  0.8217 -0.1411  1.8742
 4303SOL    HW224369   1.389   0.213   6.902 -0.4429  1.3026 -0.4727
 4304SOL     OW24370   2.836   2.175   9.097 -0.4872 -0.0280 -0.1915
 4304SOL    HW124371   2.746   2.164   9.130 -1.0051  2.4813 -0.8180
 4304SOL    HW224372   2.826   2.196   9.005  0.6827  0.3907 -0.2184
 4305SOL     OW24373   1.162   0.652   2.921  0.0818 -0.0154  0.0435
 4305SOL    HW124374   1.144   0.568   2.962 -1.7645  0.4633  0.2223
 4305SOL    HW224375   1.192   0.716   2.985 -0.9039 -0.4354  0.9204
 4306SOL     OW24376   4.290   2.188   1.254  0.0833 -0.2651  0.1128
 4306SOL    HW124377   4.321   2.124   1.190  0.9759 -0.1346  0.4114
 4306SOL    HW224378   4.306   2.268   1.203  2.2756 -1.3632 -0.9265
 4307SOL     OW24379   4.077   0.736   3.450  0.4099  0.6602  0.2364
 4307SOL    HW124380   4.145   0.750   3.516  0.5518 -1.6127  0.5678
 4307SOL    HW224381   4.027   0.817   3.461 -0.9118 -0.1544  0.2432
 4308SOL     OW24382   2.117   2.176  10.787  0.2741  0.5844  0.5780
 4308SOL    HW124383   2.170   2.243  10.829  1.7154 -1.9172  2.7858
 4308SOL    HW224384   2.181   2.105  10.791  0.9236  1.2051  0.9567
 4309SOL     OW24385   4.075   2.500   5.012 -0.1354 -0.1176  0.3411
 4309SOL    HW124386   4.054   2.590   4.989  0.5227 -0.0117  0.1405
 4309SOL    HW224387   3.996   2.460   4.976 -1.3809  1.6019  1.1751
 4310SOL     OW24388   0.941   2.582   8.810  0.2661 -0.0989  0.1335
 4310SOL    HW124389   0.985   2.513   8.760 -0.4118  1.6034 -2.8291
 4310SOL    HW224390   0.876   2.529   8.855 -0.8517  0.7295 -0.5139
 4311SOL     OW24391   2.498   3.527   4.631 -0.0542 -0.0914  0.4279
 4311SOL    HW124392   2.531   3.456   4.686  1.0777  1.3833  1.6351
 4311SOL    HW224393   2.533   3.607   4.670  0.0923  1.1194 -2.1918
 4312SOL     OW24394   3.402   4.037  11.903  0.9207 -0.3246 -0.3332
 4312SOL    HW124395   3.329   4.098  11.919 -0.6112 -1.7819 -1.8109
 4312SOL    HW224396   3.477   4.056  11.960  0.7460 -2.1163  0.4877
 4313SOL     OW24397   3.653   3.100   5.872 -0.5869  0.5572  0.3412
 4313SOL    HW124398   3.698   3.018   5.853 -1.9701 -0.2295  0.4370
 4313SOL    HW224399   3.598   3.112   5.794  0.6211 -0.8546 -0.7238
 4314SOL     OW24400   3.290   2.725   2.693 -0.2708 -0.5952 -0.2391
 4314SOL    HW124401   3.255   2.761   2.612  2.5248  0.3849 -1.0105
 4314SOL    HW224402   3.214   2.684   2.735 -0.4759  1.2798  1.2091
 4315SOL     OW24403   4.627   3.286   5.935 -0.3393 -0.6372  0.3737
 4315SOL    HW124404   4.612   3.371   5.976  1.4751 -0.1263 -0.0222
 4315SOL    HW224405   4.650   3.298   5.843 -0.4061  1.1805  0.6020
 4316SOL     OW24406   0.177   2.337   5.865 -0.4692  0.0475  0.1436
 4316SOL    HW124407   0.232   2.415   5.867 -0.2715 -0.0662 -0.7903
 4316SOL    HW224408   0.096   2.369   5.825 -0.9489 -0.3658  0.7787
 4317SOL     OW24409   1.021   2.940   4.975 -0.5241 -0.0894  0.1500
 4317SOL    HW124410   1.022   2.931   5.070 -0.4086 -0.5882  0.1007
 4317SOL    HW224411   1.023   2.850   4.944 -0.1363 -0.2037  0.5107
 4318SOL     OW24412   4.019   3.093   5.029 -0.2695 -0.1325 -0.0248
 4318SOL    HW124413   3.986   3.181   5.009 -0.1633  0.2522  1.4959
 4318SOL    HW224414   3.983   3.067   5.114  0.0631 -0.2422  0.0858
 4319SOL     OW24415   2.032   3.675   9.849 -0.2631  0.0106  0.2549
 4319SOL    HW124416   1.944   3.695   9.880 -0.6631 -1.6383  0.2041
 4319SOL    HW224417   2.086   3.725   9.910 -1.4164 -0.4512  1.6512
 4320SOL     OW24418   3.628   0.405  11.650  0.0285  0.7500  0.2009
 4320SOL    HW124419   3.533   0.418  11.646  0.2693  2.5845  0.8107
 4320SOL    HW224420   3.656   0.425  11.561  1.5123  0.3250  0.5657
 4321SOL     OW24421   0.051   1.426   6.892 -0.1253 -0.4088 -0.3476
 4321SOL    HW124422   0.064   1.399   6.801 -0.7617  0.3815 -0.6717
 4321SOL    HW224423   0.002   1.352   6.928 -1.6060  0.5544 -0.3657
 4322SOL     OW24424   2.814   3.556   9.791 -0.4451  0.0445 -0.3453
 4322SOL    HW124425   2.866   3.584   9.865  0.4435 -3.6929  0.4626
 4322SOL    HW224426   2.770   3.474   9.814  1.2967 -0.8144 -0.1070
 4323SOL     OW24427   0.746   0.109   4.012 -0.0326  0.3186  0.2909
 4323SOL    HW124428   0.733   0.178   3.947 -1.0485 -0.2009 -0.0530
 4323SOL    HW224429   0.788   0.161   4.080 -0.7310 -0.0714  1.0157
 4324SOL     OW24430   1.345   1.174   7.736 -0.2003 -0.0277  0.1250
 4324SOL    HW124431   1.303   1.089   7.743  2.4997 -1.3217  0.3603
 4324SOL    HW224432   1.308   1.221   7.811  0.3538  0.8217 -0.1338
 4325SOL     OW24433   2.638   3.104   0.108 -0.6054 -0.0855 -0.0170
 4325SOL    HW124434   2.649   3.108   0.203  0.8330 -3.0847 -0.0652
 4325SOL    HW224435   2.677   3.185   0.077  0.1616 -1.2702 -2.1636
 4326SOL     OW24436   0.820   2.780   8.328 -0.2090  0.1444 -0.6686
 4326SOL    HW124437   0.760   2.848   8.358 -1.4355 -1.5287  0.7058
 4326SOL    HW224438   0.884   2.838   8.288 -0.5930 -1.3387 -3.4740
 4327SOL     OW24439   1.728   0.468  17.596 -0.1301 -0.2651  0.3559
 4327SOL    HW124440   1.771   0.388  17.565  1.6518 -0.4220  3.2555
 4327SOL    HW224441   1.800   0.526  17.621 -1.6031  1.4918  0.5151
 4328SOL     OW24442   4.660   1.391   7.254 -0.4853 -0.5031 -0.2524
 4328SOL    HW124443   4.721   1.461   7.274  1.2986 -2.4228  1.1347
 4328SOL    HW224444   4.619   1.369   7.338 -2.9356 -0.9344 -1.5581
 4329SOL     OW24445   3.067   2.456   4.096 -0.3953 -0.0909  0.4239
 4329SOL    HW124446   3.028   2.540   4.117 -0.3524 -0.0689  0.4156
 4329SOL    HW224447   3.152   2.482   4.060 -0.7461 -0.0760 -0.4005
 4330SOL     OW24448   0.300   2.472   7.876  0.3513 -0.0331 -0.2975
 4330SOL    HW124449   0.258   2.472   7.790  0.1987  3.9123 -0.2167
 4330SOL    HW224450   0.380   2.421   7.861  2.2282  2.2189  2.2222
 4331SOL     OW24451   4.237   2.563  16.100 -0.1790 -0.3304  0.0634
 4331SOL    HW124452   4.147   2.535  16.115 -0.7339  1.7944  0.6353
 4331SOL    HW224453   4.220   2.603  16.015  3.1325  1.1372  0.0840
 4332SOL     OW24454   4.564   4.673   3.993  0.2911  0.1040  0.7982
 4332SOL    HW124455   4.489   4.700   4.046  0.7225 -2.9235  2.9538
 4332SOL    HW224456   4.595   4.591   4.031  0.8657 -0.3069 -0.5706
 4333SOL     OW24457   0.155   0.624   1.393  0.3818 -0.1325  0.3059
 4333SOL    HW124458   0.111   0.696   1.347  0.3539 -0.0459  0.4704
 4333SOL    HW224459   0.081   0.566   1.415  0.1363  2.1182  5.3257
 4334SOL     OW24460   1.755   2.957   1.660  0.0900  0.4138 -0.7611
 4334SOL    HW124461   1.768   3.021   1.590 -0.5383  0.3487 -0.9376
 4334SOL    HW224462   1.667   2.928   1.637 -0.4524 -0.0809  2.0265
 4335SOL     OW24463   2.492   4.690   3.169 -0.1527  0.0061  0.4219
 4335SOL    HW124464   2.495   4.607   3.217  0.0509 -0.7596 -0.9022
 4335SOL    HW224465   2.442   4.676   3.088  1.7938  1.2860 -0.9883
 4336SOL     OW24466   2.782   2.591   0.241 -0.3386  0.4007 -0.2075
 4336SOL    HW124467   2.771   2.670   0.189  0.4391  2.0993  2.2069
 4336SOL    HW224468   2.695   2.551   0.238 -0.1231 -0.1914  1.5248
 4337SOL     OW24469   0.921   3.174   7.108 -0.4122 -0.0747  0.1652
 4337SOL    HW124470   0.972   3.110   7.058 -2.9455 -0.9242 -1.3181
 4337SOL    HW224471   0.943   3.261   7.076 -0.1524  0.0917  0.7888
 4338SOL     OW24472   1.872   0.927   4.778  0.1977 -0.3523 -0.0282
 4338SOL    HW124473   1.816   0.873   4.723  0.0430 -0.2616  0.0407
 4338SOL    HW224474   1.832   1.013   4.793  2.2580  0.6539 -0.3176
 4339SOL     OW24475   0.496   1.434   7.454  0.1191  0.4379 -0.0784
 4339SOL    HW124476   0.526   1.383   7.529  0.2132  0.3304 -0.1883
 4339SOL    HW224477   0.485   1.526   7.477 -3.0373  0.4518 -1.6109
 4340SOL     OW24478   1.982   2.353  10.640  0.7695 -0.3060  0.3755
 4340SOL    HW124479   2.060   2.377  10.589  0.0219  0.3209 -0.4756
 4340SOL    HW224480   1.967   2.434  10.689  2.0715  0.7050 -0.8891
 4341SOL     OW24481   0.688   3.789   7.680  0.5224  0.0605 -0.0265
 4341SOL    HW124482   0.596   3.770   7.696  1.5106 -4.2819  0.4209
 4341SOL    HW224483   0.695   3.745   7.596 -1.3464 -1.6947  0.7533
 4342SOL     OW24484   4.564   3.867   9.290 -0.8151  0.3161 -0.7746
 4342SOL    HW124485   4.637   3.845   9.348 -0.1818  0.7012 -1.4251
 4342SOL    HW224486   4.614   3.898   9.214 -0.5718 -0.0094 -0.7474
 4343SOL     OW24487   4.582   3.869   8.159  0.0458 -0.0129  0.4159
 4343SOL    HW124488   4.579   3.914   8.244  2.4579  0.2294  0.3677
 4343SOL    HW224489   4.496   3.828   8.148  0.1753 -0.5867  1.4969
 4344SOL     OW24490   4.241   1.356   6.749 -0.0223 -0.1643 -0.3911
 4344SOL    HW124491   4.171   1.418   6.731 -1.5046 -1.3698  1.2232
 4344SOL    HW224492   4.208   1.298   6.818 -1.2225 -0.2182 -1.0082
 4345SOL     OW24493   0.750   0.951   2.467 -0.1771 -0.3699  0.1113
 4345SOL    HW124494   0.784   0.964   2.555 -1.5034  0.5610  0.4773
 4345SOL    HW224495   0.765   0.857   2.453  0.7508 -0.3739  1.1679
 4346SOL     OW24496   1.699   0.066   4.795 -0.0986 -0.2909 -0.3803
 4346SOL    HW124497   1.635   4.717   4.805 -1.9639  1.6984  1.6154
 4346SOL    HW224498   1.775   0.012   4.817 -0.7791 -0.8380  0.6868
 4347SOL     OW24499   3.070   2.088   6.917 -0.5275  0.6177  0.2496
 4347SOL    HW124500   3.032   2.034   6.987  0.1541 -0.3150 -0.1114
 4347SOL    HW224501   2.991   2.128   6.880  0.0460  0.3858 -1.2070
 4348SOL     OW24502   1.497   3.245  17.000  0.1905  0.2427 -0.1272
 4348SOL    HW124503   1.566   3.190  16.962 -0.9252 -2.7558  2.2140
 4348SOL    HW224504   1.495   3.200  17.084  0.2156  0.7609  0.1555
 4349SOL     OW24505   1.137   2.918   2.514  0.5432  0.1390 -0.0843
 4349SOL    HW124506   1.117   2.928   2.420 -1.1084  1.1577  0.3668
 4349SOL    HW224507   1.200   2.846   2.512 -0.4537 -0.7116 -1.1896
 4350SOL     OW24508   0.704   2.176   5.921 -0.8023  0.7376  0.3373
 4350SOL    HW124509   0.685   2.084   5.902 -4.0701  1.8944 -2.0689
 4350SOL    HW224510   0.700   2.208   5.830  0.9229  1.6749  0.5854
 4351SOL     OW24511   0.742   0.396  11.406  0.0703 -0.5300  0.5927
 4351SOL    HW124512   0.789   0.313  11.403 -0.9721 -1.1040  0.3564
 4351SOL    HW224513   0.804   0.468  11.417  0.6644 -0.1904 -5.0472
 4352SOL     OW24514   0.532   1.184   3.954 -0.1681  0.1637 -0.2419
 4352SOL    HW124515   0.518   1.245   3.882 -1.0772  0.9154  0.5606
 4352SOL    HW224516   0.469   1.211   4.021  1.3566  0.2395  1.1526
 4353SOL     OW24517   3.867   3.781   3.027  0.1311  0.1446 -0.1081
 4353SOL    HW124518   3.871   3.785   3.123 -1.1477 -0.5764 -0.0169
 4353SOL    HW224519   3.908   3.695   3.015 -1.0018  0.1585 -3.8765
 4354SOL     OW24520   1.925   1.889   9.309  0.0943  0.3926  0.8236
 4354SOL    HW124521   1.872   1.950   9.362  1.4114  2.7880 -0.6182
 4354SOL    HW224522   1.995   1.948   9.280 -1.1294  1.6337  0.3639
 4355SOL     OW24523   2.553   4.590   5.047 -0.3182 -0.2734 -0.5087
 4355SOL    HW124524   2.640   4.619   5.021 -0.3771  1.3953  1.1935
 4355SOL    HW224525   2.532   4.630   5.131  1.5609 -2.5698  1.0615
 4356SOL     OW24526   4.000   0.156   7.706 -0.2506 -0.0987  0.1989
 4356SOL    HW124527   3.994   0.243   7.666 -2.4938 -1.5854 -2.7220
 4356SOL    HW224528   4.040   0.096   7.643  1.5965  0.9938  0.3215
 4357SOL     OW24529   3.330   2.908   1.598 -0.5237 -0.0074 -0.1850
 4357SOL    HW124530   3.300   2.951   1.518  0.2150 -0.7452 -0.8457
 4357SOL    HW224531   3.403   2.961   1.631 -0.6573 -1.8474  3.0823
 4358SOL     OW24532   2.529   4.503   6.976 -0.0406 -0.1160  0.7180
 4358SOL    HW124533   2.599   4.515   6.912 -0.9520 -0.8534 -0.4148
 4358SOL    HW224534   2.544   4.565   7.047  0.7161 -0.1117  0.5557
 4359SOL     OW24535   0.449   2.050   8.207  0.0746  0.0018 -0.3876
 4359SOL    HW124536   0.468   2.139   8.237  0.8286 -0.1577 -0.3873
 4359SOL    HW224537   0.378   2.061   8.143  0.7061 -0.6495 -1.1945
 4360SOL     OW24538   3.617   3.642   7.655 -0.8082 -0.1491 -0.6363
 4360SOL    HW124539   3.570   3.571   7.698 -1.8336 -0.2106 -1.8495
 4360SOL    HW224540   3.700   3.596   7.639 -1.4921 -0.4356 -3.4423
 4361SOL     OW24541   3.817   0.887  14.558 -0.2825  0.5889 -0.2924
 4361SOL    HW124542   3.797   0.979  14.539 -0.7382  0.8967  1.7202
 4361SOL    HW224543   3.739   0.836  14.535 -0.7917  0.3458  2.0419
 4362SOL     OW24544   0.968   2.881   8.976 -0.0282 -0.0765 -0.2148
 4362SOL    HW124545   1.043   2.822   8.977  2.1332  2.7387  3.7720
 4362SOL    HW224546   0.904   2.816   9.007  1.8681 -0.2447  3.3949
 4363SOL     OW24547   3.700   4.508   1.592  0.0826  0.1485  0.2338
 4363SOL    HW124548   3.680   4.599   1.616 -2.3122  0.6177 -3.4886
 4363SOL    HW224549   3.766   4.489   1.659  1.3721  3.2750 -0.1606
 4364SOL     OW24550   1.324   2.459  16.207  0.3389  0.3324  0.1297
 4364SOL    HW124551   1.252   2.471  16.145  2.8015 -1.3889 -3.1094
 4364SOL    HW224552   1.298   2.503  16.287  3.1846  1.1994  0.5999
 4365SOL     OW24553   0.963   0.743   7.527 -0.1228  0.8991 -0.2851
 4365SOL    HW124554   0.956   0.837   7.544 -1.1734  1.2532 -2.6765
 4365SOL    HW224555   1.045   0.734   7.478 -0.2622  1.0994 -0.5539
 4366SOL     OW24556   1.492   2.806  13.763  0.0598  0.2917 -0.0549
 4366SOL    HW124557   1.523   2.875  13.821 -0.5021  0.7672 -0.3131
 4366SOL    HW224558   1.567   2.801  13.703 -0.6348 -1.8310 -0.7759
 4367SOL     OW24559   2.997   1.526   3.742  0.6537  0.0183 -0.1474
 4367SOL    HW124560   2.951   1.444   3.761  0.9803 -0.8836 -3.2022
 4367SOL    HW224561   2.983   1.584   3.816  0.1409  0.2704 -0.4421
 4368SOL     OW24562   2.568   2.528   8.128 -0.7024  0.1276  0.1303
 4368SOL    HW124563   2.543   2.545   8.219  2.5460 -0.9344  1.2063
 4368SOL    HW224564   2.481   2.498   8.100 -0.3175 -1.1491  0.3278
 4369SOL     OW24565   4.720   2.218   4.236 -0.4752  0.5124 -0.9402
 4369SOL    HW124566   0.009   2.124   4.224  0.6649  0.6556 -1.0789
 4369SOL    HW224567   4.661   2.224   4.311  0.9240 -2.4900  0.3633
 4370SOL     OW24568   2.305   4.646   2.384  0.2786 -0.6679 -0.0567
 4370SOL    HW124569   2.363   4.665   2.311  1.1357 -0.1505  0.7589
 4370SOL    HW224570   2.243   4.718   2.370 -0.6826 -1.3072  0.9543
 4371SOL     OW24571   1.883   1.957   9.982 -0.0391 -0.1508 -0.0669
 4371SOL    HW124572   1.789   1.954  10.000  0.3592 -3.2110  1.4991
 4371SOL    HW224573   1.913   2.007  10.057 -0.3767 -1.7557  1.1471
 4372SOL     OW24574   2.631   0.241   9.549 -0.1478 -0.3216  0.1607
 4372SOL    HW124575   2.623   0.150   9.521 -0.7678 -0.1520 -0.2304
 4372SOL    HW224576   2.566   0.293   9.502  1.2186 -0.0880 -1.4505
 4373SOL     OW24577   4.070   4.590  11.908 -0.2892  0.5139 -0.8452
 4373SOL    HW124578   4.140   4.525  11.906 -0.7107  0.0150  0.6329
 4373SOL    HW224579   4.106   4.650  11.843  0.2967  0.0886 -0.9194
 4374SOL     OW24580   0.750   4.719  14.431 -0.8044  0.4820 -0.4365
 4374SOL    HW124581   0.691   4.649  14.401 -0.3217 -0.1964  0.2073
 4374SOL    HW224582   0.690   0.069  14.454 -1.7871 -0.4062 -0.2477
 4375SOL     OW24583   2.379   2.884   7.565  0.0644  0.0130 -0.4520
 4375SOL    HW124584   2.326   2.841   7.498 -1.5038 -1.5295  1.7889
 4375SOL    HW224585   2.327   2.955   7.603  2.5931  0.3424  2.4170
 4376SOL     OW24586   2.726   2.619   4.285 -0.3737 -0.3063 -0.7501
 4376SOL    HW124587   2.732   2.605   4.380 -0.7800  1.5272 -0.4439
 4376SOL    HW224588   2.653   2.680   4.274 -1.0653 -1.3307 -1.7260
 4377SOL     OW24589   2.214   2.837   7.945 -0.8778 -0.0791 -0.2952
 4377SOL    HW124590   2.277   2.851   8.015 -1.5300  0.5387  0.1716
 4377SOL    HW224591   2.259   2.778   7.885  1.6394  2.3130 -0.7468
 4378SOL     OW24592   2.906   3.691   3.440  0.5997  0.4139 -0.8937
 4378SOL    HW124593   2.853   3.637   3.498  1.9875 -0.0376 -0.0506
 4378SOL    HW224594   2.922   3.629   3.368  0.1075 -1.6061  0.7419
 4379SOL     OW24595   2.920   0.927   2.864 -1.2962 -0.1189  0.3680
 4379SOL    HW124596   2.860   0.997   2.838  0.7062  1.7767  0.8432
 4379SOL    HW224597   2.861   0.874   2.917  0.1207 -1.5316  0.5565
 4380SOL     OW24598   1.919   1.589   4.323 -0.2170 -0.2850  0.2947
 4380SOL    HW124599   1.994   1.543   4.287  0.0057  0.9268 -0.8066
 4380SOL    HW224600   1.944   1.681   4.317 -3.1924  0.5447  0.3233
 4381SOL     OW24601   4.618   2.910  10.610 -0.7710 -0.0722 -0.3084
 4381SOL    HW124602   4.573   2.988  10.641 -1.4165 -0.1837 -0.9579
 4381SOL    HW224603   4.692   2.954  10.567  0.4248  0.2568  2.1100
 4382SOL     OW24604   2.949   0.687   7.121 -0.7861 -0.0284 -0.1074
 4382SOL    HW124605   2.981   0.774   7.100 -2.4621  0.5182 -0.3428
 4382SOL    HW224606   2.868   0.694   7.071  0.2727  1.4296 -1.5913
 4383SOL     OW24607   3.576   0.641   7.197 -0.1419 -0.2830 -0.3103
 4383SOL    HW124608   3.516   0.590   7.252 -1.7270  1.9532 -0.0031
 4383SOL    HW224609   3.526   0.721   7.181  0.2722  0.0465  0.0550
 4384SOL     OW24610   3.962   1.535   4.770 -0.5408 -0.1632  0.1489
 4384SOL    HW124611   4.002   1.480   4.838  0.5196  3.3388  2.3188
 4384SOL    HW224612   4.014   1.510   4.694  1.5243  1.0220  1.1783
 4385SOL     OW24613   0.498   2.144   7.115 -0.0558 -0.4313  0.0433
 4385SOL    HW124614   0.427   2.081   7.105 -0.4924  0.0625  0.0606
 4385SOL    HW224615   0.491   2.203   7.041 -0.4373  0.2669  0.6417
 4386SOL     OW24616   1.982   2.526   8.349 -0.1654  0.0317  0.5299
 4386SOL    HW124617   2.040   2.600   8.333 -0.9059  0.7753  1.3480
 4386SOL    HW224618   2.055   2.485   8.396  0.0188  0.0890  0.2950
 4387SOL     OW24619   2.218   2.006   0.573  0.2200 -0.5349  0.5614
 4387SOL    HW124620   2.173   2.088   0.594  0.6934 -0.4612  1.2894
 4387SOL    HW224621   2.189   1.943   0.639  1.2850 -0.7003  0.8761
 4388SOL     OW24622   4.348   0.547   2.893  0.0693  0.0424  0.2473
 4388SOL    HW124623   4.439   0.555   2.863 -0.7534  2.0704 -1.6379
 4388SOL    HW224624   4.357   0.469   2.949 -2.5406  0.1286  0.7977
 4389SOL     OW24625   2.975   4.673  11.429  0.0662 -0.0281 -0.6584
 4389SOL    HW124626   3.047   0.012  11.408  1.1199 -1.3270 -0.8102
 4389SOL    HW224627   2.920   0.003  11.487  1.1211 -2.9304  2.9130
 4390SOL     OW24628   3.016   0.606   3.812  0.3315 -0.4372  0.7372
 4390SOL    HW124629   3.023   0.569   3.723  0.7807 -1.9059  1.3848
 4390SOL    HW224630   2.953   0.678   3.803  1.6267  0.2552 -2.6992
 4391SOL     OW24631   3.781   4.347   5.540 -0.1179  0.1942 -0.2460
 4391SOL    HW124632   3.744   4.355   5.627  0.6461 -2.5488  0.3278
 4391SOL    HW224633   3.763   4.434   5.504 -0.6750 -0.0824 -0.6210
 4392SOL     OW24634   0.340   2.847  17.001  0.0189 -0.2144 -0.0299
 4392SOL    HW124635   0.247   2.825  17.003  0.2383 -0.8470  3.1379
 4392SOL    HW224636   0.382   2.783  17.059 -1.2278  1.1354  2.3710
 4393SOL     OW24637   0.032   2.764   3.254  0.4055 -0.6154  0.1739
 4393SOL    HW124638   0.104   2.714   3.294  1.4173 -0.1635 -1.0691
 4393SOL    HW224639   0.078   2.801   3.179 -5.2298  0.4984 -2.6357
 4394SOL     OW24640   0.553   1.798   7.407  0.3373 -0.5968 -0.0088
 4394SOL    HW124641   0.548   1.835   7.319 -0.7148  0.0431  0.3180
 4394SOL    HW224642   0.465   1.761   7.414  0.2953 -0.3012  1.0140
 4395SOL     OW24643   0.505   4.302   9.350  0.6703 -0.1660  0.2724
 4395SOL    HW124644   0.538   4.285   9.262 -1.4798 -0.9339 -0.4002
 4395SOL    HW224645   0.444   4.371   9.323  1.1435 -0.4813 -1.6027
 4396SOL     OW24646   0.932   0.769  13.516  0.4261 -0.0709 -0.5624
 4396SOL    HW124647   0.881   0.820  13.580 -0.6419  2.0657 -3.1264
 4396SOL    HW224648   1.021   0.760  13.548  0.0066 -0.9957  0.3518
 4397SOL     OW24649   4.142   1.406   5.006 -0.3713  0.5266  0.3987
 4397SOL    HW124650   4.175   1.477   5.062 -1.8007  1.4858  0.0198
 4397SOL    HW224651   4.217   1.350   4.986  0.0221  0.3884  2.2218
 4398SOL     OW24652   0.644   3.992  17.191 -0.0201  0.4124  0.5698
 4398SOL    HW124653   0.715   3.970  17.132 -1.2866 -1.1576 -0.3883
 4398SOL    HW224654   0.647   3.929  17.263 -0.6635  0.1492  0.3701
 4399SOL     OW24655   1.488   4.573   5.330 -0.2001  0.1003  0.0714
 4399SOL    HW124656   1.573   4.604   5.298  0.4442 -0.3632  1.3290
 4399SOL    HW224657   1.492   4.486   5.291  0.0944  0.7432 -1.3429
 4400SOL     OW24658   2.477   2.954   8.506 -0.9271  0.0083 -0.3944
 4400SOL    HW124659   2.434   2.998   8.580 -1.3864 -0.4749 -0.3712
 4400SOL    HW224660   2.406   2.899   8.472  2.9919 -2.7741 -4.0164
 4401SOL     OW24661   1.447   2.401   6.824 -0.1310  0.2933 -0.1695
 4401SOL    HW124662   1.542   2.399   6.831  0.1645 -0.3334 -4.4307
 4401SOL    HW224663   1.430   2.400   6.918 -0.5644  0.1792 -0.2473
 4402SOL     OW24664   0.077   4.539   1.360 -0.3958 -0.2303  0.8829
 4402SOL    HW124665   0.103   4.520   1.269 -1.9060 -0.1990  0.4407
 4402SOL    HW224666   0.160   4.537   1.406  0.0674 -0.3607  0.0449
 4403SOL     OW24667   2.017   2.089   0.940 -0.8515 -0.0455 -0.0684
 4403SOL    HW124668   2.022   2.087   1.036 -0.7641  1.4016 -0.0483
 4403SOL    HW224669   1.996   2.180   0.922 -0.8788 -0.1745 -0.6820
 4404SOL     OW24670   1.000   3.601   4.030 -0.0350  0.2695 -0.2532
 4404SOL    HW124671   0.936   3.543   4.070  1.4382  0.1966  1.9777
 4404SOL    HW224672   1.074   3.548   4.002 -0.8034  0.2834 -2.3510
 4405SOL     OW24673   0.602   3.275   1.170  0.0445  0.1346 -0.1373
 4405SOL    HW124674   0.536   3.215   1.203 -0.8716  1.3125  0.1683
 4405SOL    HW224675   0.670   3.207   1.170 -0.0598  0.0273 -1.6170
 4406SOL     OW24676   4.432   4.431  14.023  0.1865  0.3155  0.5326
 4406SOL    HW124677   4.372   4.396  13.957  2.3885 -0.3403 -1.1070
 4406SOL    HW224678   4.484   4.355  14.048 -0.9428 -0.1243  1.5843
 4407SOL     OW24679   0.478   0.448   4.428  0.2260 -0.8601 -0.0999
 4407SOL    HW124680   0.490   0.448   4.333  0.7718 -0.9972 -0.0338
 4407SOL    HW224681   0.383   0.452   4.435  0.2342 -0.7123 -0.0703
 4408SOL     OW24682   3.458   2.718  12.392  0.5103  0.3160 -0.8089
 4408SOL    HW124683   3.460   2.636  12.441 -2.2583  0.8323  0.1898
 4408SOL    HW224684   3.443   2.786  12.459  0.0257 -0.2462 -0.3473
 4409SOL     OW24685   2.506   1.056   6.060  0.0528 -0.1648  0.3025
 4409SOL    HW124686   2.576   1.068   5.996 -1.0592 -3.2620 -1.5065
 4409SOL    HW224687   2.493   0.961   6.056 -0.1510 -0.1071 -0.5941
 4410SOL     OW24688   0.328   4.234  10.436  0.3663  1.0840  0.1080
 4410SOL    HW124689   0.283   4.209  10.355  1.3051 -1.3523  0.3433
 4410SOL    HW224690   0.252   4.231  10.494  0.5136 -0.6059  0.2269
 4411SOL     OW24691   3.571   0.328   7.622  0.5940  0.1684  0.1852
 4411SOL    HW124692   3.563   0.356   7.713 -3.0136  0.0013 -0.0834
 4411SOL    HW224693   3.574   0.233   7.628 -1.3656  0.1199  0.6011
 4412SOL     OW24694   2.404   0.484   8.559 -0.3558  0.0412  0.0498
 4412SOL    HW124695   2.468   0.414   8.546 -0.1746  0.1978  0.1020
 4412SOL    HW224696   2.437   0.533   8.634  1.4563 -2.1674  0.6888
 4413SOL     OW24697   4.657   3.493   3.465  0.3491  0.2701 -0.1753
 4413SOL    HW124698   4.633   3.406   3.496  0.6447  0.3312  0.2223
 4413SOL    HW224699   4.587   3.553   3.493  0.1411  0.9815 -2.1856
 4414SOL     OW24700   0.571   4.108   8.663  0.5890  0.1886  0.4991
 4414SOL    HW124701   0.582   4.113   8.758  0.3759  0.3008  0.5187
 4414SOL    HW224702   0.554   4.199   8.638 -0.2006 -0.4491 -1.2381
 4415SOL     OW24703   4.247   2.058  15.510 -0.0819  0.7491 -0.1251
 4415SOL    HW124704   4.302   1.989  15.473  1.3206  1.3870  0.7371
 4415SOL    HW224705   4.192   2.080  15.436 -0.1862 -1.8456 -0.8310
 4416SOL     OW24706   0.321   3.234  17.569 -0.7052 -0.0330  0.3790
 4416SOL    HW124707   0.414   3.251  17.554 -1.1976  2.4912  0.1099
 4416SOL    HW224708   0.295   3.326  17.575  1.7312  0.6839 -0.0707
 4417SOL     OW24709   1.450   1.850   8.015 -0.0246 -0.0939 -0.5532
 4417SOL    HW124710   1.504   1.793   8.071 -0.7271  1.4977  1.7393
 4417SOL    HW224711   1.520   1.908   7.985  0.4636 -0.2189  0.3165
 4418SOL     OW24712   3.281   2.424   4.328  0.1655 -0.1186 -0.7147
 4418SOL    HW124713   3.328   2.480   4.266  1.1283 -1.3986 -1.1345
 4418SOL    HW224714   3.204   2.397   4.277 -0.4999  0.6496 -0.1185
 4419SOL     OW24715   2.205   0.291   3.306 -0.3929 -0.0186  0.6192
 4419SOL    HW124716   2.189   0.236   3.383 -0.0184 -0.5441  0.3216
 4419SOL    HW224717   2.143   0.362   3.320 -0.9396 -0.5565  0.9184
 4420SOL     OW24718   0.228   0.296   4.583  0.3227  0.1561  0.1172
 4420SOL    HW124719   0.219   0.387   4.611  0.3162 -0.0199  0.6811
 4420SOL    HW224720   0.229   0.309   4.488  0.8375  1.6372  0.3334
 4421SOL     OW24721   3.126   2.163   0.585 -0.0121  0.7048 -0.2530
 4421SOL    HW124722   3.217   2.148   0.558 -0.4579 -0.2622 -1.2242
 4421SOL    HW224723   3.077   2.167   0.503  0.2447  2.3876 -0.3264
 4422SOL     OW24724   1.027   4.259   3.136  0.8015 -0.2475  0.4244
 4422SOL    HW124725   1.008   4.346   3.171  0.0841 -0.2253 -0.0285
 4422SOL    HW224726   1.123   4.251   3.134  0.8453  0.6662 -1.4557
 4423SOL     OW24727   4.283   3.033   3.685 -0.4529  0.1217  0.3996
 4423SOL    HW124728   4.366   2.998   3.716  0.4878 -0.4024 -2.7271
 4423SOL    HW224729   4.287   3.029   3.590 -0.6891  1.1132  0.3427
 4424SOL     OW24730   3.630   4.053  12.845 -0.1615 -0.1508 -0.3206
 4424SOL    HW124731   3.583   3.970  12.834 -1.4168  0.3627  1.1878
 4424SOL    HW224732   3.580   4.107  12.784 -0.2678 -2.9757 -2.7619
 4425SOL     OW24733   0.726   2.647   3.057 -0.0721 -0.0091  0.3193
 4425SOL    HW124734   0.747   2.707   3.128 -0.2425  2.2101 -1.5180
 4425SOL    HW224735   0.795   2.580   3.055  0.0256  0.0440  1.7754
 4426SOL     OW24736   0.215   0.314   6.197  0.2874 -0.4056  0.4187
 4426SOL    HW124737   0.301   0.278   6.173  0.4999 -1.3281  2.5250
 4426SOL    HW224738   0.188   0.253   6.266  2.0827  1.8126  3.0541
 4427SOL     OW24739   4.323   4.208   4.574  0.1060 -0.1656  0.1755
 4427SOL    HW124740   4.362   4.174   4.655 -0.0668  0.3992  0.4990
 4427SOL    HW224741   4.333   4.140   4.508  1.8787 -0.9285  1.2315
 4428SOL     OW24742   3.996   3.336   8.217 -0.2941  0.4608  0.2400
 4428SOL    HW124743   3.917   3.313   8.169 -0.1865  1.1075 -0.2423
 4428SOL    HW224744   4.029   3.400   8.155  1.3076 -0.7195 -0.1231
 4429SOL     OW24745   4.188   1.487   3.130 -0.1587  0.2658 -0.1020
 4429SOL    HW124746   4.151   1.409   3.171  1.9370 -1.1887 -0.9708
 4429SOL    HW224747   4.152   1.479   3.042  1.1906 -1.8151 -0.4556
 4430SOL     OW24748   4.713   2.937   4.423 -0.0073  0.4285 -0.1285
 4430SOL    HW124749   0.006   2.888   4.504 -0.0552 -0.0100 -0.3838
 4430SOL    HW224750   4.715   3.028   4.453 -0.0211  1.0260 -1.9568
 4431SOL     OW24751   2.349   3.419   0.798 -0.1845 -0.5038  0.2302
 4431SOL    HW124752   2.282   3.460   0.853 -0.4879  1.0227 -1.2768
 4431SOL    HW224753   2.380   3.347   0.853  1.8437 -0.8517 -1.3572
 4432SOL     OW24754   3.297   4.326  15.996 -0.7488 -0.2341 -0.5003
 4432SOL    HW124755   3.204   4.308  16.008 -0.7518 -1.1925 -1.9506
 4432SOL    HW224756   3.341   4.264  16.055 -2.1748 -0.0394  0.7545
 4433SOL     OW24757   0.391   2.735   8.065  0.0555  0.4737  0.3510
 4433SOL    HW124758   0.371   2.644   8.087  0.7492 -0.1372 -1.4842
 4433SOL    HW224759   0.474   2.744   8.112 -0.7363  0.6923  1.7127
 4434SOL     OW24760   3.700   3.865   4.733  0.4359 -0.1310  0.2072
 4434SOL    HW124761   3.742   3.913   4.661  0.0018 -0.8161 -0.5042
 4434SOL    HW224762   3.738   3.919   4.802  0.2589  1.2957 -0.8223
 4435SOL     OW24763   0.846   4.563   6.255 -0.6276 -0.2018 -0.0500
 4435SOL    HW124764   0.779   4.511   6.210 -0.5668  1.9237 -2.5887
 4435SOL    HW224765   0.806   4.552   6.341  1.4308 -2.6477  0.5873
 4436SOL     OW24766   0.995   3.520  11.658 -0.0692 -0.1138 -0.4367
 4436SOL    HW124767   0.962   3.596  11.611 -1.1805  0.5313  1.4011
 4436SOL    HW224768   0.982   3.553  11.747 -2.2862 -2.0613 -0.0245
 4437SOL     OW24769   0.998   0.690   2.078  0.8158 -0.2630  0.0281
 4437SOL    HW124770   1.014   0.634   2.155 -0.2918  0.4612  0.7876
 4437SOL    HW224771   0.971   0.622   2.016 -0.6517 -0.8716  1.3290
 4438SOL     OW24772   1.061   2.874   6.155 -0.3263 -0.0496  0.3299
 4438SOL    HW124773   0.995   2.923   6.106  1.2817  2.2862  0.4813
 4438SOL    HW224774   1.142   2.924   6.165  0.2259 -0.9989  0.5702
 4439SOL     OW24775   3.510   0.893   4.894 -0.5131 -0.0260  0.1322
 4439SOL    HW124776   3.532   0.830   4.963 -0.6025 -1.3020 -1.0046
 4439SOL    HW224777   3.533   0.835   4.822 -0.1633  0.3302 -0.0429
 4440SOL     OW24778   3.136   1.697   6.093  0.0886  0.1814 -0.5982
 4440SOL    HW124779   3.180   1.756   6.154  0.4432 -1.0618  0.3735
 4440SOL    HW224780   3.100   1.634   6.156 -0.0438  1.0737  0.2169
 4441SOL     OW24781   2.427   0.470   9.599  0.0117 -0.6471 -0.0050
 4441SOL    HW124782   2.373   0.435   9.529  1.1197 -1.3082 -0.5327
 4441SOL    HW224783   2.507   0.491   9.550  0.3443  2.5822  1.9473
 4442SOL     OW24784   0.838   3.844   5.180  0.4902  0.3854 -0.2883
 4442SOL    HW124785   0.796   3.775   5.231 -3.8258  2.1691 -1.4447
 4442SOL    HW224786   0.922   3.845   5.225 -0.2859 -0.0018  1.1702
 4443SOL     OW24787   1.593   1.099   2.603  0.2076 -0.2614 -0.2413
 4443SOL    HW124788   1.623   1.100   2.694  1.1559 -0.2142 -0.5573
 4443SOL    HW224789   1.607   1.007   2.585  0.3858 -0.5712  1.5066
 4444SOL     OW24790   2.793   2.859   0.129  0.6269 -0.0859 -0.1813
 4444SOL    HW124791   2.840   2.845   0.047  1.0308  2.1518 -0.3297
 4444SOL    HW224792   2.735   2.929   0.100  0.8259 -0.4889 -1.5266
 4445SOL     OW24793   2.629   3.613   3.590  0.3085  0.1128  0.2499
 4445SOL    HW124794   2.700   3.548   3.588 -0.3834 -0.6783  1.4577
 4445SOL    HW224795   2.553   3.557   3.573 -0.6453  1.4872 -0.0159
 4446SOL     OW24796   1.951   2.664   2.262 -0.1685 -0.1570  0.2157
 4446SOL    HW124797   1.882   2.669   2.195  0.6124 -0.0844 -0.5761
 4446SOL    HW224798   1.888   2.688   2.330 -1.1557  1.1105 -1.1360
 4447SOL     OW24799   1.552   3.106  12.504  0.0322  0.4245  0.0352
 4447SOL    HW124800   1.618   3.093  12.572  2.8471 -0.3640 -2.9130
 4447SOL    HW224801   1.495   3.039  12.543  1.2187  0.1457  1.2790
 4448SOL     OW24802   3.595   3.530  10.915  0.4953 -0.4221 -0.7291
 4448SOL    HW124803   3.661   3.557  10.979 -0.1117 -4.5355  1.6229
 4448SOL    HW224804   3.542   3.462  10.956  1.2368 -0.6431 -0.1293
 4449SOL     OW24805   2.978   2.932   0.936 -0.2320 -0.2001 -0.1027
 4449SOL    HW124806   3.036   2.939   0.860  1.4682  1.8362  1.3927
 4449SOL    HW224807   2.985   2.837   0.944 -1.2416 -0.3047 -0.3885
 4450SOL     OW24808   1.760   1.164  16.382 -0.4698  0.5418 -0.0032
 4450SOL    HW124809   1.843   1.153  16.336 -1.5819  0.0520 -1.9201
 4450SOL    HW224810   1.713   1.082  16.365  2.0560 -1.1619  1.3501
 4451SOL     OW24811   3.239   1.437   2.669 -0.3343  0.1647  0.0552
 4451SOL    HW124812   3.303   1.412   2.602 -1.1557 -0.4490 -0.4904
 4451SOL    HW224813   3.240   1.354   2.717 -0.8749  0.0947 -0.0542
 4452SOL     OW24814   3.742   0.093   5.176 -0.3132 -0.0517  0.0836
 4452SOL    HW124815   3.821   0.145   5.194 -1.2773  2.3632 -2.6349
 4452SOL    HW224816   3.684   0.121   5.246 -0.1361  0.9704 -0.1733
 4453SOL     OW24817   3.585   4.063  13.233  0.6800  0.1097 -0.4256
 4453SOL    HW124818   3.548   4.023  13.155  2.2007  2.0325 -2.1596
 4453SOL    HW224819   3.508   4.083  13.286 -0.6403  2.7567 -3.3319
 4454SOL     OW24820   0.616   3.129  11.622 -0.2465  0.3806  0.4026
 4454SOL    HW124821   0.669   3.205  11.645  1.5612  0.4466 -4.0076
 4454SOL    HW224822   0.687   3.067  11.638 -0.4616 -0.3177 -1.4181
 4455SOL     OW24823   1.262   1.581  12.524 -0.1352 -0.5204  0.0716
 4455SOL    HW124824   1.357   1.568  12.528 -0.2842 -1.8642 -0.6325
 4455SOL    HW224825   1.262   1.674  12.499  2.3221  0.0229  2.1404
 4456SOL     OW24826   0.525   0.409   0.829 -0.3536  0.4146  0.4419
 4456SOL    HW124827   0.533   0.504   0.831  0.2107  0.3001  3.2498
 4456SOL    HW224828   0.433   0.384   0.835 -0.3358 -0.1088 -1.4514
 4457SOL     OW24829   2.797   0.983   5.168  0.1294 -0.8368  0.1376
 4457SOL    HW124830   2.871   1.037   5.142  0.0484 -0.8393 -0.0945
 4457SOL    HW224831   2.827   0.897   5.137  1.1333  0.2036 -1.7913
 4458SOL     OW24832   1.707   0.082   4.260  0.3866 -0.2277  0.2179
 4458SOL    HW124833   1.677   0.144   4.193 -1.6662  1.7841  3.0338
 4458SOL    HW224834   1.675   0.129   4.337 -0.3534  1.1743 -0.9469
 4459SOL     OW24835   3.697   0.483   5.779 -0.4793 -0.0073 -0.2465
 4459SOL    HW124836   3.643   0.559   5.801  1.9700  1.7949 -0.4464
 4459SOL    HW224837   3.707   0.484   5.684  3.7748  0.3394  0.2234
 4460SOL     OW24838   3.891   2.753   6.715  0.2152 -0.0640  0.0780
 4460SOL    HW124839   3.833   2.822   6.681  1.3765  0.8809  0.0278
 4460SOL    HW224840   3.862   2.687   6.652 -1.3001 -0.0878  0.7964
 4461SOL     OW24841   3.003   3.574  13.760  0.0866 -0.3199 -0.2152
 4461SOL    HW124842   3.089   3.536  13.743 -0.3669 -1.7910  0.7432
 4461SOL    HW224843   2.951   3.516  13.704 -1.5535 -0.4901  1.4682
 4462SOL     OW24844   3.377   4.469   5.809 -0.5834 -0.0018 -0.5531
 4462SOL    HW124845   3.461   4.511   5.789 -0.2777 -0.0169  0.6971
 4462SOL    HW224846   3.338   4.533   5.869 -1.3854 -1.7799  0.8276
 4463SOL     OW24847   0.480   1.330  16.506 -0.3288 -0.6304  0.3386
 4463SOL    HW124848   0.563   1.365  16.474 -0.7970 -1.0519 -1.3800
 4463SOL    HW224849   0.435   1.414  16.493  0.7085  0.0642  1.2768
 4464SOL     OW24850   4.263   4.137   8.410  0.1010 -0.1676  0.5487
 4464SOL    HW124851   4.247   4.044   8.392 -2.7550  0.5517 -0.6614
 4464SOL    HW224852   4.190   4.169   8.357 -1.7116 -1.1719  2.4520
 4465SOL     OW24853   2.881   2.880   5.932  0.0947  0.1289  0.4008
 4465SOL    HW124854   2.852   2.796   5.970 -1.2534  1.1088  1.5331
 4465SOL    HW224855   2.849   2.872   5.843 -0.5009 -0.5536  0.6736
 4466SOL     OW24856   3.637   3.273   6.081  0.4283  0.0921 -0.6909
 4466SOL    HW124857   3.622   3.228   5.998  1.7943  0.2693 -1.0291
 4466SOL    HW224858   3.610   3.363   6.062  0.8918  0.1989 -0.8425
 4467SOL     OW24859   0.862   3.317   4.852  0.6193  0.3078 -0.1914
 4467SOL    HW124860   0.825   3.286   4.769  0.3946 -1.7097  0.6378
 4467SOL    HW224861   0.789   3.310   4.914  0.9870 -1.2704  0.0743
 4468SOL     OW24862   1.391   3.584  14.813 -0.2900  0.7023 -0.3845
 4468SOL    HW124863   1.411   3.500  14.772  0.0193  0.6851 -0.1988
 4468SOL    HW224864   1.335   3.541  14.878 -1.2802  2.4703 -0.0657
 4469SOL     OW24865   3.141   0.096   4.685  0.1278  0.0203 -0.9362
 4469SOL    HW124866   3.068   0.113   4.626 -0.4034 -1.8818 -0.8262
 4469SOL    HW224867   3.189   0.178   4.694  2.1762 -1.1747 -0.9201
 4470SOL     OW24868   1.340   0.306   4.366  0.3089  0.2027  0.6130
 4470SOL    HW124869   1.382   0.328   4.283  1.8275 -0.3045  1.2337
 4470SOL    HW224870   1.249   0.328   4.346  0.8815  0.3681 -1.8492
 4471SOL     OW24871   2.072   3.180   5.491 -0.0219 -0.7503  0.3397
 4471SOL    HW124872   2.036   3.193   5.579  0.5518 -1.8748  0.7290
 4471SOL    HW224873   2.119   3.263   5.478 -0.0720 -0.8519 -0.4644
 4472SOL     OW24874   1.398   4.669   8.547 -0.4027  0.1265  0.3802
 4472SOL    HW124875   1.341   0.018   8.578 -0.4305  0.8365 -1.2888
 4472SOL    HW224876   1.469   4.684   8.611 -0.6202  0.5402  0.5236
 4473SOL     OW24877   1.992   1.887   4.505  0.4028 -1.0378  0.1130
 4473SOL    HW124878   1.957   1.976   4.497  1.6728 -0.4753  0.8668
 4473SOL    HW224879   2.030   1.880   4.417  0.6088 -2.6701  0.3495
 4474SOL     OW24880   2.202   2.731   2.339  0.5918 -0.1685  0.3296
 4474SOL    HW124881   2.123   2.696   2.296  0.5280  0.2666  0.0860
 4474SOL    HW224882   2.269   2.713   2.274  0.4016 -0.2896  0.1671
 4475SOL     OW24883   2.375   1.942   8.261  0.2064  0.1313 -0.0956
 4475SOL    HW124884   2.291   1.970   8.223  1.2883 -0.5094 -2.9783
 4475SOL    HW224885   2.348   1.909   8.346 -0.2227 -1.6790 -0.9495
 4476SOL     OW24886   0.986   2.703   2.792  0.0988 -0.5662  0.1752
 4476SOL    HW124887   1.009   2.795   2.806 -0.3041 -0.4749  0.2325
 4476SOL    HW224888   1.074   2.665   2.788  0.6895  0.7220  1.1419
 4477SOL     OW24889   1.466   1.312   3.603  0.7649  0.3292  0.0122
 4477SOL    HW124890   1.378   1.275   3.606  0.9503 -0.0346  0.8273
 4477SOL    HW224891   1.514   1.249   3.549  2.0470  1.3757 -0.0793
 4478SOL     OW24892   2.162   0.082   5.136  0.6556 -0.7431 -0.3748
 4478SOL    HW124893   2.172   0.097   5.230  2.4659  1.4235 -0.9283
 4478SOL    HW224894   2.236   0.023   5.123 -0.0111 -1.3171 -1.5879
 4479SOL     OW24895   0.656   1.576   5.455  0.0911  0.0993  0.1278
 4479SOL    HW124896   0.605   1.560   5.534 -0.5248 -1.7300 -0.6351
 4479SOL    HW224897   0.592   1.586   5.384 -1.5162  0.6157  1.6486
 4480SOL     OW24898   4.382   1.440   5.204 -0.3813  0.5877 -0.2466
 4480SOL    HW124899   4.335   1.368   5.246 -1.0249  2.4273  2.1926
 4480SOL    HW224900   4.344   1.520   5.240  2.0198  0.7061  1.9952
 4481SOL     OW24901   0.659   3.111   2.782  0.1369  0.2042  0.1925
 4481SOL    HW124902   0.674   3.148   2.695 -0.0596  0.1038  0.1173
 4481SOL    HW224903   0.583   3.057   2.763 -1.1578  1.9561  0.3592
 4482SOL     OW24904   0.016   4.594   4.891  0.4703  0.2989  0.1036
 4482SOL    HW124905   4.683   4.530   4.844  0.4086  1.7580 -1.7860
 4482SOL    HW224906   4.669   4.637   4.943 -0.0576 -0.7356  0.2739
 4483SOL     OW24907   1.488   0.156  12.337 -0.7149  0.1790  0.0733
 4483SOL    HW124908   1.516   0.066  12.353 -1.2036  0.1724  0.8680
 4483SOL    HW224909   1.552   0.206  12.389 -0.8468  0.6906 -0.2544
 4484SOL     OW24910   2.405   1.166   8.249 -0.1333  0.4019 -0.0925
 4484SOL    HW124911   2.480   1.115   8.219 -0.7127  0.6087 -1.9158
 4484SOL    HW224912   2.373   1.114   8.322  0.0485 -0.6206 -0.7441
 4485SOL     OW24913   2.165   2.525  13.517 -0.3096 -0.3125  0.1001
 4485SOL    HW124914   2.091   2.543  13.459  0.5471 -0.5059 -1.0389
 4485SOL    HW224915   2.149   2.432  13.535  1.8158 -0.0768  3.1856
 4486SOL     OW24916   0.726   3.175   5.838  0.0867 -0.5977 -0.0039
 4486SOL    HW124917   0.725   3.167   5.743 -2.7259 -0.5851  0.0106
 4486SOL    HW224918   0.636   3.150   5.861  1.0835 -2.1175  2.2145
 4487SOL     OW24919   0.930   2.024   4.172 -0.7752  0.5964 -0.3728
 4487SOL    HW124920   1.022   2.012   4.149 -1.1806 -0.8865 -1.2229
 4487SOL    HW224921   0.923   1.973   4.252  0.0520  3.0644  1.2549
 4488SOL     OW24922   0.816   3.118  10.368 -0.0529  0.6033  0.6405
 4488SOL    HW124923   0.729   3.147  10.396  0.5690  4.4684 -1.5315
 4488SOL    HW224924   0.846   3.080  10.451  0.9511 -0.7984 -0.3681
 4489SOL     OW24925   3.708   2.814   9.280  0.2294 -0.2341 -0.1012
 4489SOL    HW124926   3.679   2.778   9.364  0.6896 -1.7939 -0.6138
 4489SOL    HW224927   3.676   2.739   9.229 -1.1115  1.5319 -1.9084
 4490SOL     OW24928   4.372   4.317   5.163 -0.0913  0.1011  0.2134
 4490SOL    HW124929   4.279   4.315   5.186  0.3526  4.1204  2.4539
 4490SOL    HW224930   4.371   4.282   5.074  1.0877 -0.2725  0.3396
 4491SOL     OW24931   2.175   4.342   1.754 -0.7521 -0.4939 -0.3060
 4491SOL    HW124932   2.157   4.261   1.706 -0.1015 -1.0295  0.3488
 4491SOL    HW224933   2.108   4.326   1.821  1.0982 -0.5088  1.5307
 4492SOL     OW24934   0.997   3.729   1.615  0.1771 -0.6227 -0.5070
 4492SOL    HW124935   1.037   3.711   1.530 -0.4977 -0.0640 -0.9484
 4492SOL    HW224936   1.001   3.640   1.649  0.5213 -0.1432  0.6990
 4493SOL     OW24937   0.673   1.733   6.308 -0.2423 -0.1427 -0.5653
 4493SOL    HW124938   0.611   1.782   6.254  0.8129  1.6215 -0.2059
 4493SOL    HW224939   0.757   1.763   6.274 -0.8160 -0.5094 -2.3158
 4494SOL     OW24940   1.903   2.082   2.956 -0.2990  0.3217  0.1931
 4494SOL    HW124941   1.940   2.054   2.872  2.1397  3.3650  0.2452
 4494SOL    HW224942   1.969   2.142   2.991  0.3834 -0.0934 -0.3696
 4495SOL     OW24943   2.422   1.465   8.873  0.3092  0.6055 -0.0538
 4495SOL    HW124944   2.360   1.481   8.803  0.0475 -1.5903 -0.3180
 4495SOL    HW224945   2.364   1.464   8.949  0.2174  0.9013 -0.1205
 4496SOL     OW24946   1.308   0.201   7.727 -0.2702  0.3853  0.4881
 4496SOL    HW124947   1.322   0.216   7.633  0.3217 -2.8619  0.0525
 4496SOL    HW224948   1.368   0.260   7.772  0.5086  0.5831 -0.7879
 4497SOL     OW24949   1.747   1.878   8.310 -0.8087 -0.0421 -0.9313
 4497SOL    HW124950   1.755   1.952   8.250  2.8577  1.0200  0.8948
 4497SOL    HW224951   1.661   1.891   8.349 -1.4674 -3.0630 -1.3682
 4498SOL     OW24952   1.940   0.232   6.932  0.2656 -0.3818  0.3214
 4498SOL    HW124953   1.990   0.185   6.865 -0.5477  2.1440 -2.0475
 4498SOL    HW224954   1.926   0.318   6.893  3.6372 -0.1847 -0.4247
 4499SOL     OW24955   0.903   2.301  13.860 -0.1587 -0.1129  0.3455
 4499SOL    HW124956   0.930   2.377  13.911 -0.9404  0.9133 -0.7881
 4499SOL    HW224957   0.877   2.232  13.922  0.1591 -0.0484  0.5489
 4500SOL     OW24958   2.934   2.711  10.892  0.2752 -0.5953 -0.1837
 4500SOL    HW124959   2.856   2.687  10.841 -1.3192  2.9941  0.5869
 4500SOL    HW224960   2.947   2.803  10.872  1.0673 -1.2913 -2.9965
 4501SOL     OW24961   1.169   1.813   7.629 -0.1501 -0.3677 -0.4179
 4501SOL    HW124962   1.239   1.760   7.592 -0.2951  0.5997 -2.0720
 4501SOL    HW224963   1.215   1.886   7.671 -2.6393  0.7258  0.4174
 4502SOL     OW24964   3.445   2.674   9.753 -0.0010  0.5524 -0.1607
 4502SOL    HW124965   3.456   2.768   9.737 -0.4073  0.9950  2.2366
 4502SOL    HW224966   3.476   2.660   9.842 -0.6094 -1.1453 -0.2100
 4503SOL     OW24967   1.857   4.220   1.223 -0.0934 -0.2210  0.0110
 4503SOL    HW124968   1.767   4.247   1.202  0.4558  0.6386 -1.2378
 4503SOL    HW224969   1.843   4.127   1.241 -0.2763  0.1132  1.5977
 4504SOL     OW24970   0.244   0.257   9.374  0.1085  0.5273  0.7293
 4504SOL    HW124971   0.280   0.248   9.286 -1.4530  1.4403 -0.0017
 4504SOL    HW224972   0.329   0.251   9.416  1.5689  2.2622 -2.0159
 4505SOL     OW24973   1.319   4.040   3.913  0.3927 -0.3342 -0.2395
 4505SOL    HW124974   1.252   4.047   3.982 -0.3471 -0.1556 -0.9730
 4505SOL    HW224975   1.309   4.125   3.870  1.7392 -1.0490 -1.9613
 4506SOL     OW24976   3.729   1.558   6.188 -0.2933  0.5572 -0.6201
 4506SOL    HW124977   3.733   1.561   6.283  0.2917 -1.5128 -0.5786
 4506SOL    HW224978   3.657   1.499   6.164  0.2969 -0.7521  0.9206
 4507SOL     OW24979   2.965   1.983   2.852  0.1317  0.3913 -0.3857
 4507SOL    HW124980   3.029   1.922   2.816  0.9118  0.2913  1.1873
 4507SOL    HW224981   2.909   1.926   2.904  2.6111  0.1438  2.0163
 4508SOL     OW24982   3.189   4.578   3.708  0.3226  0.2838 -0.6453
 4508SOL    HW124983   3.240   4.585   3.789 -1.5384 -0.7196  0.6237
 4508SOL    HW224984   3.232   4.645   3.655  2.7896  0.5388  1.6931
 4509SOL     OW24985   2.024   2.606   7.759 -0.2462  0.5444  0.1131
 4509SOL    HW124986   1.973   2.547   7.703 -1.0724 -0.7201  2.1952
 4509SOL    HW224987   2.107   2.558   7.761 -0.6230 -0.0929  0.4108
 4510SOL     OW24988   4.129   0.520  12.589  0.3666  0.1634 -0.4583
 4510SOL    HW124989   4.211   0.537  12.634  0.7159 -1.8329 -0.3270
 4510SOL    HW224990   4.062   0.582  12.618  1.7656  1.8498 -0.8656
 4511SOL     OW24991   3.254   1.724  17.443  0.2964  0.0454 -0.7312
 4511SOL    HW124992   3.324   1.735  17.507 -0.8053  2.0686  0.1171
 4511SOL    HW224993   3.279   1.782  17.370  0.5377  2.5053  1.3066
 4512SOL     OW24994   1.326   0.152   8.942 -0.1801 -0.2364  0.3308
 4512SOL    HW124995   1.288   0.101   9.013  1.3376 -2.6672 -0.6114
 4512SOL    HW224996   1.370   0.215   9.000  2.1868 -1.4735 -0.1180
 4513SOL     OW24997   2.658   1.362   9.968  0.4010 -0.3889 -0.3923
 4513SOL    HW124998   2.693   1.405   9.890  2.7683  0.7849  1.3369
 4513SOL    HW224999   2.572   1.403   9.971 -0.2758 -1.6862 -1.6263
 4514SOL     OW25000   2.954   2.245  12.241 -0.3249 -0.3648  0.7011
 4514SOL    HW125001   3.036   2.287  12.216 -0.1709 -1.0704  0.0174
 4514SOL    HW225002   2.914   2.225  12.156 -2.3444  0.1158  1.5393
 4515SOL     OW25003   3.337   0.686   8.886 -0.3477  0.0391 -0.1150
 4515SOL    HW125004   3.258   0.701   8.835 -1.2315 -1.4591  0.8206
 4515SOL    HW225005   3.301   0.688   8.975 -0.0830 -0.9612  0.0117
 4516SOL     OW25006   0.155   1.001  17.282  0.3775  0.5141  0.7436
 4516SOL    HW125007   0.120   1.088  17.297  3.8785  2.1349 -0.4129
 4516SOL    HW225008   0.201   1.023  17.201  0.3368  0.9112  0.8326
 4517SOL     OW25009   2.971   2.530   2.290 -0.2918 -0.0102 -0.0393
 4517SOL    HW125010   3.054   2.505   2.331 -0.2840  0.6184  0.3386
 4517SOL    HW225011   2.970   2.487   2.205  0.4321  0.9966 -0.5622
 4518SOL     OW25012   4.399   3.655  14.756  0.1720  0.2811  0.2234
 4518SOL    HW125013   4.392   3.717  14.829  1.5490  0.8137 -0.0980
 4518SOL    HW225014   4.369   3.573  14.794  2.8047 -0.4972  0.5901
 4519SOL     OW25015   4.404   3.560   6.975  0.3165 -0.0703 -0.1969
 4519SOL    HW125016   4.363   3.502   7.039  0.5353  0.6128  0.5557
 4519SOL    HW225017   4.402   3.649   7.009  1.1164 -0.3240  0.5229
 4520SOL     OW25018   4.500   2.800   0.692 -0.5260  0.0711 -0.4074
 4520SOL    HW125019   4.528   2.867   0.754 -1.1856 -0.3370  0.3299
 4520SOL    HW225020   4.420   2.771   0.737 -1.0609 -1.3194 -2.2225
 4521SOL     OW25021   2.443   3.484  16.906 -0.4723  0.0129  0.0734
 4521SOL    HW125022   2.360   3.479  16.953 -0.6580  0.5750 -0.1874
 4521SOL    HW225023   2.416   3.470  16.815 -1.2525  0.5106  0.2242
 4522SOL     OW25024   1.092   0.006   4.154  0.3215 -0.0734 -0.0672
 4522SOL    HW125025   1.050   0.088   4.177 -0.6201 -1.3149  2.6682
 4522SOL    HW225026   1.040   4.666   4.206  3.0014 -0.9828  1.5919
 4523SOL     OW25027   3.091   2.467   4.743  0.0958 -0.6019  0.1823
 4523SOL    HW125028   3.129   2.393   4.696  2.3129  0.8414 -0.2935
 4523SOL    HW225029   3.159   2.529   4.770 -0.8166  0.7120 -0.5535
 4524SOL     OW25030   2.024   0.994  16.927  0.1214  0.4968 -0.7049
 4524SOL    HW125031   2.103   0.941  16.913 -0.2643 -0.0888 -0.6197
 4524SOL    HW225032   1.983   1.004  16.841 -0.3445  0.1442 -0.5200
 4525SOL     OW25033   2.783   0.245   3.134  0.0594 -0.6372 -0.7468
 4525SOL    HW125034   2.873   0.233   3.163 -0.2002  1.1749  0.8148
 4525SOL    HW225035   2.752   0.183   3.200 -0.6094  0.0542 -0.4011
 4526SOL     OW25036   1.014   1.786   2.484 -0.1843  0.4277 -0.5902
 4526SOL    HW125037   0.995   1.847   2.556  1.6776  0.2620  0.0493
 4526SOL    HW225038   1.098   1.814   2.446  0.4368 -0.8421 -0.1629
 4527SOL     OW25039   2.014   0.291   6.525  1.1979 -0.2217  0.1768
 4527SOL    HW125040   1.930   0.300   6.570  2.0949  0.9231  1.6398
 4527SOL    HW225041   2.047   0.219   6.578  1.4667  0.4639  0.9298
 4528SOL     OW25042   1.043   4.063  16.151 -0.4566 -0.1594  0.1018
 4528SOL    HW125043   1.103   4.032  16.219 -0.7873  0.1461  0.5356
 4528SOL    HW225044   1.002   3.977  16.147 -0.9858  0.1894 -1.7980
 4529SOL     OW25045   1.737   1.257   3.968  0.7594 -0.4428 -0.2476
 4529SOL    HW125046   1.696   1.171   3.977 -0.0924 -0.1169 -0.9128
 4529SOL    HW225047   1.669   1.312   4.006  2.0633  1.5620 -0.8399
 4530SOL     OW25048   2.342   2.769  16.201 -0.2423  0.2057 -0.0335
 4530SOL    HW125049   2.255   2.755  16.164  0.1077 -0.1972 -0.6928
 4530SOL    HW225050   2.343   2.864  16.193  1.2438  0.2442  0.5890
 4531SOL     OW25051   3.794   2.486   4.212  0.4106  0.0620 -0.0286
 4531SOL    HW125052   3.876   2.529   4.189  0.9366 -0.1359  1.4672
 4531SOL    HW225053   3.744   2.502   4.132  1.8184  0.2176 -0.8667
 4532SOL     OW25054   4.623   3.330   7.018  0.3296  0.2699  0.5474
 4532SOL    HW125055   4.656   3.304   7.104 -1.4164  0.0940  1.1574
 4532SOL    HW225056   4.682   3.281   6.960 -0.8279  1.7002 -1.8238
 4533SOL     OW25057   0.231   3.527   3.418  0.5846 -0.0531  0.0943
 4533SOL    HW125058   0.254   3.448   3.466  0.4425 -0.7637 -1.0289
 4533SOL    HW225059   0.240   3.495   3.329  1.0081 -0.0845  0.1472
 4534SOL     OW25060   2.119   2.127   6.449 -0.0855  0.2571 -0.4231
 4534SOL    HW125061   2.025   2.106   6.452  0.0867 -0.4471  0.1483
 4534SOL    HW225062   2.125   2.187   6.523 -0.6230 -0.6815  0.3878
 4535SOL     OW25063   2.546   2.875   7.199 -0.1490  0.2640 -0.0226
 4535SOL    HW125064   2.591   2.926   7.266 -1.8756 -0.2647  1.5284
 4535SOL    HW225065   2.456   2.909   7.203 -0.9087 -1.9633  1.6965
 4536SOL     OW25066   0.081   4.211   6.600 -0.1191 -0.1160  0.2566
 4536SOL    HW125067   0.023   4.145   6.638 -1.0530  1.1145  0.9826
 4536SOL    HW225068   0.065   4.278   6.667  1.6731 -0.3060  0.8861
 4537SOL     OW25069   3.528   2.499  14.881  0.0315  0.7160 -0.2923
 4537SOL    HW125070   3.454   2.493  14.821 -1.6970 -3.2489  2.2633
 4537SOL    HW225071   3.499   2.433  14.944  2.7101 -1.3718 -1.2152
 4538SOL     OW25072   0.244   3.677   7.561  0.1844  0.1737 -0.2298
 4538SOL    HW125073   0.273   3.649   7.474  0.1022 -0.8398  0.0606
 4538SOL    HW225074   0.319   3.647   7.613 -1.1023 -0.0450  1.5142
 4539SOL     OW25075   2.143   0.216   2.103 -0.4713  0.0927 -0.2337
 4539SOL    HW125076   2.223   0.237   2.152  0.8794 -0.6920 -2.1315
 4539SOL    HW225077   2.167   0.152   2.036 -0.3237 -0.2990  0.1903
 4540SOL     OW25078   0.992   0.955   8.928 -0.2688  0.1981 -0.1227
 4540SOL    HW125079   0.998   1.031   8.871  1.5392  0.2360  0.1298
 4540SOL    HW225080   1.064   0.968   8.989  0.2682  2.2450 -1.1934
 4541SOL     OW25081   1.033   1.920   9.054 -0.0695 -0.4623 -0.4002
 4541SOL    HW125082   0.970   1.908   9.125 -0.5222  0.8953 -0.5725
 4541SOL    HW225083   1.113   1.942   9.102 -0.4541  0.4398 -0.1785
 4542SOL     OW25084   4.607   3.594  14.176 -0.3014  0.5680 -0.1047
 4542SOL    HW125085   4.668   3.553  14.114  0.2490  0.3220  0.6008
 4542SOL    HW225086   4.597   3.511  14.222  0.4202  0.3731 -0.3015
 4543SOL     OW25087   0.512   2.658   1.350  0.1465  0.0227  0.3686
 4543SOL    HW125088   0.525   2.675   1.443  1.4605 -2.0139  0.5400
 4543SOL    HW225089   0.418   2.672   1.336  0.1678  0.0568  0.2621
 4544SOL     OW25090   4.231   0.756   2.294  0.1062  0.4747 -0.0205
 4544SOL    HW125091   4.153   0.787   2.249 -0.7254  0.9460  1.7562
 4544SOL    HW225092   4.213   0.663   2.304  1.1017  0.0854 -1.8741
 4545SOL     OW25093   0.634   4.371   0.210 -0.5217 -0.7234 -0.2805
 4545SOL    HW125094   0.715   4.420   0.197 -0.8358 -0.5492 -1.5571
 4545SOL    HW225095   0.657   4.281   0.189  0.8952 -0.8959  2.1061
 4546SOL     OW25096   2.454   1.644   2.202 -0.6629  0.5599  0.2837
 4546SOL    HW125097   2.415   1.590   2.271 -0.1097  0.4334  0.4956
 4546SOL    HW225098   2.397   1.635   2.126  2.3550  0.7351 -1.9976
 4547SOL     OW25099   4.450   3.102   4.467  0.2647  0.0264  0.1191
 4547SOL    HW125100   4.531   3.149   4.450 -0.3892  1.7478  1.8182
 4547SOL    HW225101   4.478   3.010   4.474 -1.0723 -0.4110 -0.0860
 4548SOL     OW25102   3.270   1.891   3.253 -0.4228 -0.1047 -0.7156
 4548SOL    HW125103   3.301   1.876   3.164  2.2537  0.7792  0.0745
 4548SOL    HW225104   3.188   1.936   3.232 -0.7486  0.7591  2.3647
 4549SOL     OW25105   1.135   0.203   5.286  0.2805  0.9673  0.1170
 4549SOL    HW125106   1.089   0.280   5.253  1.8445  1.2295 -1.4057
 4549SOL    HW225107   1.066   0.163   5.339 -1.4881  2.9212 -0.6906
 4550SOL     OW25108   2.538   2.320   6.705 -0.3609 -0.1767  0.5196
 4550SOL    HW125109   2.550   2.397   6.649 -1.3878 -0.6292 -0.3131
 4550SOL    HW225110   2.468   2.266   6.669  2.4012 -3.1663 -0.4355
 4551SOL     OW25111   4.508   3.961   8.416 -0.5571 -0.2969  0.4176
 4551SOL    HW125112   4.460   3.904   8.476 -0.5593 -1.0362 -0.2852
 4551SOL    HW225113   4.535   4.034   8.471  1.3831 -0.6726 -0.0319
 4552SOL     OW25114   3.971   2.153   0.914 -0.0775  0.0374  0.0503
 4552SOL    HW125115   4.021   2.140   0.834  1.2525  2.5710  0.4449
 4552SOL    HW225116   4.003   2.082   0.970  0.4946  1.6020  1.7138
 4553SOL     OW25117   1.229   3.350   7.063 -0.5700  0.0364 -0.0047
 4553SOL    HW125118   1.236   3.385   6.975 -1.8345  1.5240  0.4961
 4553SOL    HW225119   1.240   3.257   7.045  2.4713 -0.0997  2.4925
 4554SOL     OW25120   0.207   4.388  15.126 -0.0073  0.1452  0.1038
 4554SOL    HW125121   0.283   4.444  15.110 -1.0470  1.1010 -1.3603
 4554SOL    HW225122   0.187   4.370  15.035  1.7757  0.3500 -0.3292
 4555SOL     OW25123   2.062   1.726   8.300 -0.4020 -0.1069 -0.0899
 4555SOL    HW125124   1.995   1.772   8.250 -1.3985 -1.2060  0.2338
 4555SOL    HW225125   2.108   1.691   8.224  1.2542  0.3580  0.6984
 4556SOL     OW25126   1.165   2.727   6.366 -0.1888  0.8171  0.2171
 4556SOL    HW125127   1.099   2.660   6.381  0.4888  0.0130 -0.4015
 4556SOL    HW225128   1.110   2.782   6.309  1.1377  0.4861 -1.3677
 4557SOL     OW25129   1.740   3.072   8.432 -0.9174 -0.5989  0.1206
 4557SOL    HW125130   1.829   3.037   8.424 -1.6478 -2.7414  1.3415
 4557SOL    HW225131   1.754   3.159   8.469 -1.1053  0.5790 -2.5784
 4558SOL     OW25132   0.900   4.159   4.140 -0.0160 -0.5584  0.2513
 4558SOL    HW125133   0.857   4.195   4.062 -1.7279 -2.8451  0.1317
 4558SOL    HW225134   0.857   4.194   4.218 -0.7694  0.6124 -0.6777
 4559SOL     OW25135   0.206   0.818   0.553 -0.3184 -0.6342 -0.3317
 4559SOL    HW125136   0.136   0.769   0.511  1.7835 -1.4244 -2.8599
 4559SOL    HW225137   0.157   0.872   0.615  0.3606 -0.5148  0.1012
 4560SOL     OW25138   3.481   2.444  16.883  0.0005 -0.4142 -0.6440
 4560SOL    HW125139   3.514   2.359  16.853  1.7785 -0.0668  0.3206
 4560SOL    HW225140   3.564   2.476  16.918 -0.2300 -2.1734  1.4855
 4561SOL     OW25141   4.596   2.570   6.513 -0.4084 -0.1460 -0.1332
 4561SOL    HW125142   4.547   2.626   6.574  0.9536  0.5031  0.3751
 4561SOL    HW225143   4.542   2.567   6.434  0.1743 -1.6478 -0.4502
 4562SOL     OW25144   2.615   1.297  17.501 -0.3496  0.2154 -0.3196
 4562SOL    HW125145   2.600   1.378  17.550 -0.2084 -0.4646  0.8520
 4562SOL    HW225146   2.533   1.279  17.454 -0.9452  0.4005  0.6576
 4563SOL     OW25147   2.989   3.338  12.881  0.4994 -0.4090  0.1481
 4563SOL    HW125148   2.900   3.311  12.904 -0.3560  2.5341  0.2679
 4563SOL    HW225149   2.980   3.389  12.800 -0.5768  0.0341  0.5461
 4564SOL     OW25150   4.315   2.806   7.047 -0.1054 -0.2548 -0.2725
 4564SOL    HW125151   4.257   2.777   6.977  1.2821 -2.2603 -0.5963
 4564SOL    HW225152   4.251   2.837   7.111 -1.0650  3.0225 -2.7656
 4565SOL     OW25153   0.519   0.789   2.285 -0.8696 -0.1716  0.3512
 4565SOL    HW125154   0.496   0.793   2.193 -1.2579 -2.9902  0.3326
 4565SOL    HW225155   0.494   0.876   2.317 -1.6959 -1.3775  3.0213
 4566SOL     OW25156   1.042   2.054   6.742  0.0172 -0.3598 -0.3196
 4566SOL    HW125157   0.973   2.083   6.801  0.5856  1.4691 -0.5575
 4566SOL    HW225158   0.989   2.040   6.664  0.9119  1.7418 -1.3245
 4567SOL     OW25159   3.569   1.344   4.940 -0.5822 -0.2184  0.5711
 4567SOL    HW125160   3.580   1.401   4.864 -0.9900 -2.4163 -1.1483
 4567SOL    HW225161   3.476   1.322   4.935 -0.6690  0.1356  0.6697
 4568SOL     OW25162   3.416   0.779  10.345  0.7834 -0.3177  0.0872
 4568SOL    HW125163   3.388   0.776  10.253  0.9812 -3.4895  0.1282
 4568SOL    HW225164   3.497   0.823  10.319 -0.3135 -0.0705 -2.9902
 4569SOL     OW25165   0.463   2.726  16.696  0.1642 -0.0471 -0.2603
 4569SOL    HW125166   0.547   2.728  16.741  0.7511 -0.4907 -1.3446
 4569SOL    HW225167   0.469   2.668  16.620  1.6737 -0.1312 -0.0811
 4570SOL     OW25168   3.044   1.538  10.005 -0.4138 -0.1807 -0.3467
 4570SOL    HW125169   2.957   1.563   9.972  0.1457  1.9266 -0.2341
 4570SOL    HW225170   3.088   1.502   9.928  0.8118  0.5054  0.0401
 4571SOL     OW25171   3.115   4.212   3.136 -0.1455 -0.0739  0.4880
 4571SOL    HW125172   3.189   4.225   3.196 -0.0948 -0.3518  0.4864
 4571SOL    HW225173   3.141   4.128   3.098 -0.4514 -0.0018  0.1241
 4572SOL     OW25174   4.527   2.262   5.203  0.3160  0.6265  0.1328
 4572SOL    HW125175   4.539   2.177   5.161 -1.1868  0.3923  0.1775
 4572SOL    HW225176   4.465   2.305   5.145 -1.9121 -0.7236  1.5166
 4573SOL     OW25177   2.533   4.204  15.775 -0.2292 -0.0394 -0.1133
 4573SOL    HW125178   2.447   4.244  15.757 -0.4900 -0.1576  0.8785
 4573SOL    HW225179   2.554   4.168  15.689  0.8690  1.1849 -0.3492
 4574SOL     OW25180   4.597   1.207   8.152  0.0522  0.7357 -0.2061
 4574SOL    HW125181   4.537   1.183   8.222  1.1987  0.0642  0.5337
 4574SOL    HW225182   4.616   1.117   8.124 -0.0640  0.7838 -0.4460
 4575SOL     OW25183   0.738   0.150   2.600 -0.0102  0.5133 -0.2850
 4575SOL    HW125184   0.757   0.242   2.586 -0.1033  0.8412  1.7309
 4575SOL    HW225185   0.794   0.113   2.532 -1.3993 -0.5018 -0.8759
 4576SOL     OW25186   3.630   0.182   4.573 -0.2721 -0.7698 -0.3328
 4576SOL    HW125187   3.721   0.152   4.579 -0.6537 -1.8266  0.2266
 4576SOL    HW225188   3.586   0.101   4.598  0.0093 -0.9045 -0.2758
 4577SOL     OW25189   4.360   1.131   5.891 -0.1323 -0.4721 -0.4713
 4577SOL    HW125190   4.445   1.161   5.856 -1.1475  2.4404 -0.4807
 4577SOL    HW225191   4.307   1.197   5.845 -0.0816 -0.7728 -0.9610
 4578SOL     OW25192   2.878   2.135   5.879  0.0240 -0.3874 -0.4021
 4578SOL    HW125193   2.828   2.107   5.955  0.2649 -0.2000 -0.1774
 4578SOL    HW225194   2.837   2.085   5.808 -0.9015  0.1354 -0.2321
 4579SOL     OW25195   2.415   3.484  13.891  0.2352  0.5441 -0.0116
 4579SOL    HW125196   2.323   3.482  13.862  0.8030  1.2776 -1.8446
 4579SOL    HW225197   2.446   3.404  13.850  1.0168 -0.3272  2.2998
 4580SOL     OW25198   1.407   3.699  16.861  0.4209  0.1319 -0.0824
 4580SOL    HW125199   1.379   3.755  16.789 -1.4002 -0.9706 -0.2314
 4580SOL    HW225200   1.328   3.711  16.914  0.2258 -1.6069  0.0263
 4581SOL     OW25201   3.636   0.301   6.604  0.4137 -0.1970 -0.8129
 4581SOL    HW125202   3.685   0.380   6.583 -0.7826  0.6875 -0.3058
 4581SOL    HW225203   3.655   0.290   6.698 -1.5053 -2.9216 -0.7312
 4582SOL     OW25204   2.854   4.460   6.282  0.2571  0.0044  0.2846
 4582SOL    HW125205   2.866   4.396   6.352  2.3467 -2.2150 -2.0987
 4582SOL    HW225206   2.928   4.520   6.288  0.1488  0.4834 -3.0743
 4583SOL     OW25207   4.257   2.048   1.973 -0.0722  0.2430 -0.8474
 4583SOL    HW125208   4.314   2.094   2.034 -0.6719 -1.0241  0.6579
 4583SOL    HW225209   4.265   2.103   1.894  0.0375 -0.0520 -1.0406
 4584SOL     OW25210   0.962   1.992   5.797  0.2978 -0.1356  0.3563
 4584SOL    HW125211   0.890   1.947   5.843 -0.7027  0.8145 -0.2996
 4584SOL    HW225212   1.012   2.026   5.872 -0.8687  0.4341  0.8776
 4585SOL     OW25213   3.928   0.037   6.944  0.2997 -0.1674  0.0616
 4585SOL    HW125214   3.878   0.107   6.902 -0.7009  0.0704  1.6497
 4585SOL    HW225215   3.935   0.081   7.029 -1.9724  1.0113 -0.3521
 4586SOL     OW25216   2.680   0.634  14.864  0.0246  0.0574 -0.8116
 4586SOL    HW125217   2.669   0.554  14.812  0.7316 -0.1777 -0.5949
 4586SOL    HW225218   2.635   0.611  14.945  0.2599 -1.1357 -1.0218
 4587SOL     OW25219   2.696   2.501   1.652  0.2035  0.3126 -0.4418
 4587SOL    HW125220   2.691   2.429   1.590 -1.7615  0.0253  0.0519
 4587SOL    HW225221   2.782   2.473   1.685  0.3755  0.9873 -0.2983
 4588SOL     OW25222   1.704   1.763   1.219  0.0098 -0.0471 -0.1442
 4588SOL    HW125223   1.631   1.792   1.274 -0.2271 -3.0638  1.0962
 4588SOL    HW225224   1.656   1.686   1.189 -1.0923  1.3146 -1.9296
 4589SOL     OW25225   1.104   0.815   2.422  0.2485 -0.2677 -0.7397
 4589SOL    HW125226   1.157   0.786   2.496 -1.2208  0.4794  0.5845
 4589SOL    HW225227   1.173   0.831   2.357  0.5044  0.0018 -0.4021
 4590SOL     OW25228   0.573   3.015   6.211  0.2597  0.2435  0.2099
 4590SOL    HW125229   0.587   2.922   6.226 -3.0536 -0.0379  1.5882
 4590SOL    HW225230   0.482   3.011   6.183  0.8775 -0.2622 -1.6829
 4591SOL     OW25231   1.066   3.029   6.914 -0.3681 -0.3751 -0.4018
 4591SOL    HW125232   1.045   2.955   6.857  1.0855  0.2437 -1.7360
 4591SOL    HW225233   1.127   3.069   6.852 -0.1403  1.4142  0.9639
 4592SOL     OW25234   4.529   0.626  13.828  0.5133 -0.3987 -0.7936
 4592SOL    HW125235   4.563   0.671  13.905 -0.0098 -0.1509 -0.7084
 4592SOL    HW225236   4.599   0.561  13.820  1.0729  0.0731  0.3032
 4593SOL     OW25237   1.377   1.536   5.776  0.2507 -0.2037 -0.0819
 4593SOL    HW125238   1.283   1.550   5.768 -0.0571 -1.1155  2.0011
 4593SOL    HW225239   1.413   1.614   5.733 -1.4533  0.0509 -1.0392
 4594SOL     OW25240   2.609   0.403   6.547  0.2312 -0.5963  0.7437
 4594SOL    HW125241   2.703   0.409   6.565  0.1099  1.3183  0.8328
 4594SOL    HW225242   2.585   0.482   6.498 -0.7584 -0.1631  1.9557
 4595SOL     OW25243   3.570   1.165   2.338 -0.0742 -0.3423  0.6503
 4595SOL    HW125244   3.654   1.121   2.344  0.2682  0.4221  1.5393
 4595SOL    HW225245   3.561   1.196   2.248  1.1458 -1.3527  0.1898
 4596SOL     OW25246   2.379   3.861   2.606 -0.2416 -0.0742  0.4299
 4596SOL    HW125247   2.380   3.946   2.649  1.5204  0.3286 -0.3932
 4596SOL    HW225248   2.456   3.857   2.550 -0.7258 -0.9160 -0.1661
 4597SOL     OW25249   3.457   2.560   0.476 -0.0220  0.2100  0.0783
 4597SOL    HW125250   3.459   2.481   0.532  0.5625  0.7655  0.8426
 4597SOL    HW225251   3.389   2.527   0.417 -2.5554  2.6394  1.6924
 4598SOL     OW25252   2.792   2.806  17.521  0.0513 -0.1962  0.6681
 4598SOL    HW125253   2.848   2.884  17.517 -0.9030  0.3645 -2.0817
 4598SOL    HW225254   2.705   2.846  17.519 -0.1409 -0.5753  1.5055
 4599SOL     OW25255   4.424   1.663   5.445  0.3540 -0.7027 -0.7336
 4599SOL    HW125256   4.441   1.747   5.489  1.9741 -3.0042  3.0354
 4599SOL    HW225257   4.335   1.677   5.411  0.1703 -1.5956 -0.6139
 4600SOL     OW25258   1.026   2.408   4.869 -0.4607  0.3679 -0.0250
 4600SOL    HW125259   1.072   2.341   4.920 -0.3854  0.8175  0.4926
 4600SOL    HW225260   1.038   2.374   4.780 -0.8320 -4.0473  1.6225
 4601SOL     OW25261   0.851   1.835   4.829 -0.0544  0.4621  0.1996
 4601SOL    HW125262   0.850   1.931   4.830  2.1819  0.5163 -1.3786
 4601SOL    HW225263   0.943   1.824   4.806 -0.7865  0.1455 -2.5353
 4602SOL     OW25264   3.977   0.924   9.052  0.1841 -0.2145 -0.0379
 4602SOL    HW125265   3.985   0.872   9.132  0.2528  2.6779  1.8505
 4602SOL    HW225266   3.953   0.860   8.985 -1.7645 -1.9407  2.3181
 4603SOL     OW25267   1.956   2.253   6.932  0.3615  0.1495  0.7038
 4603SOL    HW125268   1.902   2.174   6.932 -0.0776  0.4561  2.6896
 4603SOL    HW225269   2.026   2.226   6.990 -0.5713 -0.1313  1.6899
 4604SOL     OW25270   3.681   4.654   9.011  0.4524 -0.0394  0.3136
 4604SOL    HW125271   3.689   0.010   8.955  3.0616  0.3444  1.2128
 4604SOL    HW225272   3.622   4.693   9.075 -1.1324 -0.4774 -0.8788
 4605SOL     OW25273   1.841   4.433  10.171  0.4393 -0.3517  0.0475
 4605SOL    HW125274   1.785   4.502  10.204 -1.0018 -0.2534 -2.6145
 4605SOL    HW225275   1.929   4.459  10.198  0.5322 -1.6281  0.9959
 4606SOL     OW25276   3.495   4.365   4.997  1.4543 -0.4149 -0.3901
 4606SOL    HW125277   3.503   4.322   5.083  1.3297 -1.3239 -0.8328
 4606SOL    HW225278   3.585   4.353   4.968  2.0010  2.2121  0.2836
 4607SOL     OW25279   4.011   1.797   9.763 -0.2365 -0.0798 -0.2326
 4607SOL    HW125280   3.948   1.734   9.798  2.3052 -2.5199 -0.0425
 4607SOL    HW225281   4.028   1.849   9.841  0.0037 -0.9763  0.3057
 4608SOL     OW25282   3.329   1.446  16.272 -0.1880 -0.4709 -0.0183
 4608SOL    HW125283   3.332   1.518  16.335  1.2605 -1.5623  1.1612
 4608SOL    HW225284   3.415   1.406  16.290 -0.0706 -0.7299 -1.1914
 4609SOL     OW25285   2.309   1.929   8.545  0.4893 -0.1631 -0.3130
 4609SOL    HW125286   2.291   1.994   8.613 -0.0217  0.4509 -1.0371
 4609SOL    HW225287   2.249   1.864   8.581 -0.4531  0.5085 -0.6860
 4610SOL     OW25288   2.739   1.664   7.054 -0.1192 -0.3699 -0.0629
 4610SOL    HW125289   2.684   1.614   7.115  0.9396 -0.8158  0.5230
 4610SOL    HW225290   2.704   1.630   6.972 -0.2188 -0.2050 -0.0889
 4611SOL     OW25291   1.839   2.142  10.184 -0.2692  0.0539  0.0127
 4611SOL    HW125292   1.876   2.207  10.125  1.3486 -0.4348  0.4690
 4611SOL    HW225293   1.825   2.209  10.250 -2.8247 -1.0252  0.5462
 4612SOL     OW25294   1.308   4.560   4.018  0.1745  0.2805  0.6712
 4612SOL    HW125295   1.369   4.622   3.978 -0.0716  0.7560  1.0308
 4612SOL    HW225296   1.293   4.601   4.103 -0.1506  1.1968  0.1690
 4613SOL     OW25297   1.232   1.100   9.036 -0.4580  0.9157 -0.5524
 4613SOL    HW125298   1.241   1.195   9.033  0.0110  0.9323  1.0725
 4613SOL    HW225299   1.212   1.091   9.130  2.6739  0.2961  0.0674
 4614SOL     OW25300   0.449   0.082   1.394 -0.2082 -0.3972  0.4227
 4614SOL    HW125301   0.447   0.124   1.480  1.6882  0.4992  0.0219
 4614SOL    HW225302   0.522   0.021   1.406 -0.3997 -0.5063  1.0222
 4615SOL     OW25303   2.089   1.951  13.322  0.2246 -0.3792  0.1373
 4615SOL    HW125304   2.036   2.022  13.285  1.6230  1.1097  1.0000
 4615SOL    HW225305   2.118   1.980  13.408  0.0642 -1.7101  0.6277
 4616SOL     OW25306   0.562   0.551   2.087  0.6880  0.3257  0.5389
 4616SOL    HW125307   0.627   0.618   2.107  2.9371 -1.1762 -1.7534
 4616SOL    HW225308   0.489   0.607   2.061  0.7566 -0.0636 -0.5050
 4617SOL     OW25309   1.157   4.478   4.380  0.2074  0.2300 -0.1522
 4617SOL    HW125310   1.171   4.559   4.429 -1.0332 -0.1141  0.7603
 4617SOL    HW225311   1.241   4.479   4.333  0.3067 -0.7835  0.0026
 4618SOL     OW25312   2.917   3.548   8.627  0.5222  0.0008  0.1937
 4618SOL    HW125313   2.861   3.540   8.550  1.6785  3.0982 -0.9819
 4618SOL    HW225314   2.961   3.633   8.615  0.8831 -0.0957  0.7943
 4619SOL     OW25315   3.344   0.966   4.581 -0.1326 -0.8914  0.3316
 4619SOL    HW125316   3.336   0.871   4.591 -0.9962 -0.7995  0.5653
 4619SOL    HW225317   3.258   0.984   4.543 -0.2730 -2.7324 -0.2145
 4620SOL     OW25318   0.879   3.100   3.624  0.1565  0.5309 -0.1853
 4620SOL    HW125319   0.863   3.194   3.635 -1.8672  0.2448 -0.8131
 4620SOL    HW225320   0.936   3.098   3.547 -1.2684 -0.1700 -1.2118
 4621SOL     OW25321   4.290   4.673   5.638 -0.5997  0.3290 -0.0748
 4621SOL    HW125322   4.333   4.709   5.561  2.0493  1.1334  1.7860
 4621SOL    HW225323   4.239   0.030   5.659 -1.5214 -0.1631 -0.4890
 4622SOL     OW25324   3.656   1.894   6.138 -0.3688 -0.4407  0.2661
 4622SOL    HW125325   3.576   1.872   6.090 -1.1736  0.8051  1.0464
 4622SOL    HW225326   3.620   1.962   6.195 -0.0408 -1.2733  1.4485
 4623SOL     OW25327   1.432   2.581  14.020 -0.3436  0.0207  0.5372
 4623SOL    HW125328   1.441   2.616  14.109 -3.2657  1.1723  0.3635
 4623SOL    HW225329   1.392   2.654  13.973 -1.6946 -0.2974  1.1958
 4624SOL     OW25330   2.817   2.401   4.856  0.2582  0.7889  0.0248
 4624SOL    HW125331   2.836   2.420   4.948 -3.8459 -0.9662  1.2093
 4624SOL    HW225332   2.899   2.443   4.827  0.1721 -0.0749 -1.4229
 4625SOL     OW25333   0.224   3.524   5.979  0.0931  0.0984  0.6704
 4625SOL    HW125334   0.181   3.607   5.957 -0.2430 -0.0089  0.9244
 4625SOL    HW225335   0.230   3.528   6.074  0.2667  2.0412  0.5789
 4626SOL     OW25336   1.535   0.704  17.304  0.4005 -0.2512 -0.4139
 4626SOL    HW125337   1.480   0.635  17.342 -1.2377 -0.1016 -2.4999
 4626SOL    HW225338   1.557   0.758  17.379 -0.6781  0.3412 -0.5277
 4627SOL     OW25339   2.644   2.669  13.257 -0.0756  0.0994 -0.1734
 4627SOL    HW125340   2.609   2.742  13.206  0.8209  1.0803  0.6112
 4627SOL    HW225341   2.733   2.696  13.280  0.3038 -0.5738 -0.8366
 4628SOL     OW25342   2.776   1.634  10.035  0.1879  0.1793  0.0379
 4628SOL    HW125343   2.721   1.645   9.957  0.4702 -0.0043 -0.1888
 4628SOL    HW225344   2.740   1.704  10.089  1.8801  1.3167 -0.2965
 4629SOL     OW25345   1.928   4.533   9.605 -0.1874 -0.5358 -0.0739
 4629SOL    HW125346   1.909   4.603   9.668  1.4399 -2.2585  2.3609
 4629SOL    HW225347   2.006   4.570   9.563 -1.5336 -0.2191 -2.2647
 4630SOL     OW25348   3.663   1.737   8.134 -0.2498 -0.1603  0.1145
 4630SOL    HW125349   3.722   1.756   8.061  0.9185 -1.1313  0.8238
 4630SOL    HW225350   3.658   1.641   8.129  1.7028 -0.1513 -1.9503
 4631SOL     OW25351   4.134   0.203   3.539 -0.2667  0.4103 -0.1583
 4631SOL    HW125352   4.197   0.235   3.604  0.1225 -2.8190  1.0773
 4631SOL    HW225353   4.124   0.281   3.484  0.5962  0.2725 -0.5128
 4632SOL     OW25354   1.312   0.643   8.459  0.1372 -0.5379 -0.5184
 4632SOL    HW125355   1.313   0.662   8.553 -1.5302 -1.4544 -0.3115
 4632SOL    HW225356   1.301   0.728   8.416 -2.6692 -0.3270  0.5750
 4633SOL     OW25357   2.217   2.832   7.334  0.0349 -0.1771 -0.5552
 4633SOL    HW125358   2.199   2.744   7.369  1.4752  0.3691  1.5648
 4633SOL    HW225359   2.129   2.849   7.301 -0.1010  1.0600  0.4520
 4634SOL     OW25360   4.270   2.962   3.419 -0.2626 -0.3454 -0.2497
 4634SOL    HW125361   4.220   2.886   3.450 -0.2219 -0.2546  0.0332
 4634SOL    HW225362   4.335   2.912   3.368 -0.2381 -1.8242  1.2252
 4635SOL     OW25363   1.480   0.822  11.145 -0.0065 -0.3567 -0.0776
 4635SOL    HW125364   1.403   0.860  11.103  1.4211  1.4987 -1.0321
 4635SOL    HW225365   1.553   0.877  11.117 -0.3509  1.4532  2.5369
 4636SOL     OW25366   3.340   3.281   4.014 -0.0327 -0.0471 -0.3405
 4636SOL    HW125367   3.407   3.240   4.068 -1.1629 -0.4840  0.7196
 4636SOL    HW225368   3.293   3.207   3.976  0.6823 -0.8878  0.4330
 4637SOL     OW25369   0.623   1.774   4.682  0.1462  0.7828 -0.1272
 4637SOL    HW125370   0.704   1.775   4.732  0.3141  0.8216 -0.4016
 4637SOL    HW225371   0.614   1.869   4.680  0.4559  0.7578 -2.4825
 4638SOL     OW25372   3.093   4.503   4.180  0.5859 -0.2853  0.1510
 4638SOL    HW125373   3.160   4.435   4.168 -0.1004 -1.2937  2.1145
 4638SOL    HW225374   3.134   4.541   4.258  2.2065 -2.8462  0.5669
 4639SOL     OW25375   3.017   3.768   3.150  0.3040 -0.3674 -0.3956
 4639SOL    HW125376   2.974   3.743   3.068 -0.2112  1.6848 -0.7611
 4639SOL    HW225377   2.948   3.813   3.199  1.6471  0.2708  0.9189
 4640SOL     OW25378   1.419   3.213  13.386 -0.0055 -0.0095 -0.9147
 4640SOL    HW125379   1.332   3.194  13.422  0.1015  0.5867 -0.3256
 4640SOL    HW225380   1.476   3.138  13.402 -0.2752 -0.1989 -0.8356
 4641SOL     OW25381   1.412   4.392   0.295 -0.0411  0.5033 -0.1987
 4641SOL    HW125382   1.408   4.440   0.377  2.3952  0.3298  0.0128
 4641SOL    HW225383   1.387   4.466   0.240 -0.1387 -0.9649 -2.1289
 4642SOL     OW25384   2.273   0.726   0.649  0.1358  0.2469 -0.6610
 4642SOL    HW125385   2.336   0.679   0.704 -0.5592 -1.4864 -1.3887
 4642SOL    HW225386   2.295   0.690   0.564  1.8556 -1.0286  0.3226
 4643SOL     OW25387   0.102   0.830  14.178 -0.6076 -0.7894 -0.1522
 4643SOL    HW125388   0.178   0.836  14.235 -0.0231  0.0805 -1.0138
 4643SOL    HW225389   0.116   0.912  14.129 -1.6649  0.0228  0.8898
 4644SOL     OW25390   4.608   0.786   7.476 -0.1459  0.0608 -0.8465
 4644SOL    HW125391   4.548   0.856   7.452  0.7672  1.1756  0.1130
 4644SOL    HW225392   4.559   0.710   7.507 -0.0093  0.6672  0.8833
 4645SOL     OW25393   4.338   2.052   0.046  0.0355  0.1453 -0.5641
 4645SOL    HW125394   4.390   2.008  17.666  0.0474  0.2145 -0.6009
 4645SOL    HW225395   4.404   2.079   0.110 -1.2146  1.0591  0.3520
 4646SOL     OW25396   0.880   3.576   5.627  0.4975 -0.0457  0.3706
 4646SOL    HW125397   0.866   3.491   5.668 -3.0277  0.0974 -0.5760
 4646SOL    HW225398   0.964   3.592   5.670  0.7632  0.5147 -0.3495
 4647SOL     OW25399   2.162   0.531   6.548  0.1202 -0.0549  0.1224
 4647SOL    HW125400   2.241   0.495   6.588  0.2917  0.9990  0.7462
 4647SOL    HW225401   2.104   0.458   6.526  0.0823  0.2149 -0.6812
 4648SOL     OW25402   3.752   2.067   9.013 -0.0843 -0.5102  0.3491
 4648SOL    HW125403   3.780   2.155   9.040  1.0515 -0.7756  0.0575
 4648SOL    HW225404   3.808   2.016   9.073  0.6966 -1.8662 -1.5161
 4649SOL     OW25405   0.596   4.479   1.564 -0.7001  0.1697  0.8515
 4649SOL    HW125406   0.620   4.462   1.473  1.6072 -1.6379  1.7901
 4649SOL    HW225407   0.614   4.388   1.589 -0.4310 -0.5980 -2.1117
 4650SOL     OW25408   2.260   2.371   9.231  0.5541 -0.0090  0.1719
 4650SOL    HW125409   2.319   2.326   9.170 -0.2953 -0.6852 -0.1554
 4650SOL    HW225410   2.213   2.426   9.167  3.7962  0.7450 -1.5597
 4651SOL     OW25411   1.187   4.197   8.438  0.5586  0.1867 -0.5033
 4651SOL    HW125412   1.121   4.256   8.403  0.2013 -0.4433 -0.8831
 4651SOL    HW225413   1.249   4.261   8.474  0.8108  1.0898 -2.5234
 4652SOL     OW25414   3.288   3.068   6.479  0.1371 -0.0735 -0.6957
 4652SOL    HW125415   3.289   3.156   6.517  2.7148 -0.0097 -0.9284
 4652SOL    HW225416   3.236   3.012   6.536 -0.1129 -0.6515 -1.4938
 4653SOL     OW25417   4.267   3.616   6.319 -0.2912 -0.2075 -0.4075
 4653SOL    HW125418   4.297   3.693   6.270 -0.1211 -1.1230 -1.7393
 4653SOL    HW225419   4.336   3.614   6.385 -0.4901 -0.9476 -0.2232
 4654SOL     OW25420   0.561   3.963   1.350 -0.2067  0.2133 -0.4769
 4654SOL    HW125421   0.557   4.027   1.279  0.9764  0.5916 -0.2080
 4654SOL    HW225422   0.655   3.943   1.358 -0.6340 -2.3789 -2.0346
 4655SOL     OW25423   3.267   4.613   2.175  0.2027  0.5211  0.4665
 4655SOL    HW125424   3.210   4.687   2.158 -1.6995 -0.8135  1.0152
 4655SOL    HW225425   3.332   4.613   2.105 -1.2799  0.6743 -0.9007
 4656SOL     OW25426   3.316   0.451  17.606 -0.0540 -0.2484  0.5289
 4656SOL    HW125427   3.344   0.383  17.668  2.5669  0.8082  0.4917
 4656SOL    HW225428   3.250   0.400  17.559 -1.0094  1.0222  0.5102
 4657SOL     OW25429   0.584   1.591   8.122 -0.3405  0.0287 -0.4438
 4657SOL    HW125430   0.499   1.564   8.089 -0.5185 -0.2251  0.2141
 4657SOL    HW225431   0.581   1.673   8.072  0.3814  0.1073 -0.3581
 4658SOL     OW25432   2.752   3.908   8.150 -0.3527 -0.1620 -0.0366
 4658SOL    HW125433   2.727   3.997   8.129 -1.1652 -0.0555  1.3860
 4658SOL    HW225434   2.696   3.873   8.219 -0.2112  0.3117  0.3195
 4659SOL     OW25435   3.382   0.396  17.283 -0.2706  0.0600 -0.1280
 4659SOL    HW125436   3.313   0.345  17.326 -0.3998  0.3622  0.0250
 4659SOL    HW225437   3.463   0.350  17.306 -0.1614 -0.6717 -1.9707
 4660SOL     OW25438   2.163   0.545  10.028 -0.0196  0.0562 -0.1903
 4660SOL    HW125439   2.089   0.603  10.011  0.2474  0.6178  0.5368
 4660SOL    HW225440   2.140   0.478   9.965  0.3683 -1.1123  0.9049
 4661SOL     OW25441   4.457   3.043  12.039 -0.2238  0.6957 -0.1541
 4661SOL    HW125442   4.394   3.007  11.977  0.9456  0.4870 -1.2364
 4661SOL    HW225443   4.536   3.011  11.994 -1.0703 -1.3356 -0.2085
 4662SOL     OW25444   1.216   2.905  12.739 -0.3599  0.2964 -0.4016
 4662SOL    HW125445   1.158   2.832  12.763 -0.6855  0.1197 -1.7540
 4662SOL    HW225446   1.189   2.966  12.808  1.4242  0.1598  0.4202
 4663SOL     OW25447   2.622   1.340   1.161 -0.0673 -0.3769 -0.3665
 4663SOL    HW125448   2.682   1.389   1.104  0.5516 -2.0984 -1.1944
 4663SOL    HW225449   2.688   1.310   1.224  0.3718 -3.9830 -2.5437
 4664SOL     OW25450   1.683   0.242   9.059  0.4942 -0.1389  0.2122
 4664SOL    HW125451   1.756   0.297   9.087  2.7199 -3.5390  1.0974
 4664SOL    HW225452   1.601   0.287   9.075  1.4675  2.1448 -1.2683
 4665SOL     OW25453   4.270   0.288   7.826 -0.1804  0.0341  0.6657
 4665SOL    HW125454   4.339   0.328   7.879  0.7789  0.6271 -1.0390
 4665SOL    HW225455   4.226   0.363   7.786  0.8245 -0.2143 -0.8986
 4666SOL     OW25456   4.355   0.921   2.481  0.0446  0.2059 -0.4646
 4666SOL    HW125457   4.372   0.852   2.544 -2.1899  0.2129  0.1503
 4666SOL    HW225458   4.297   0.882   2.416  0.2046  0.3503 -0.6955
 4667SOL     OW25459   2.286   2.408   6.487  0.0729 -0.3750  0.4718
 4667SOL    HW125460   2.240   2.358   6.555 -2.0721  1.4102  0.3577
 4667SOL    HW225461   2.285   2.495   6.528 -1.2052 -0.0360 -0.2695
 4668SOL     OW25462   1.591   1.691   5.425  0.4098  0.5042  0.3204
 4668SOL    HW125463   1.546   1.611   5.451 -0.9419  1.8262  2.0359
 4668SOL    HW225464   1.680   1.665   5.451  0.4945  3.0295  2.6129
 4669SOL     OW25465   2.291   4.254   6.314  0.2390 -0.1163  0.1543
 4669SOL    HW125466   2.305   4.160   6.325 -0.6765 -0.4314 -1.2719
 4669SOL    HW225467   2.360   4.274   6.251  1.8326 -1.0000  1.6217
 4670SOL     OW25468   2.191   0.065   6.910 -0.1546 -0.0661 -0.4604
 4670SOL    HW125469   2.145   0.047   6.992 -0.6943 -0.8224 -0.9223
 4670SOL    HW225470   2.244   4.706   6.902 -0.8725 -0.8491  2.8834
 4671SOL     OW25471   2.547   1.744   6.180  0.0610 -0.4069  0.0442
 4671SOL    HW125472   2.548   1.649   6.191 -1.2194 -0.1437  2.4290
 4671SOL    HW225473   2.452   1.747   6.169  0.2569  1.1881 -1.3695
 4672SOL     OW25474   0.487   0.953  13.592 -0.1128 -0.1458  0.0595
 4672SOL    HW125475   0.452   1.037  13.561  1.0942 -0.1916 -1.4651
 4672SOL    HW225476   0.505   0.974  13.684  0.0678 -0.1641  0.0294
 4673SOL     OW25477   3.707   4.395   5.781 -0.7733 -0.4047 -0.1561
 4673SOL    HW125478   3.719   4.405   5.876  2.0745  1.3072 -0.6665
 4673SOL    HW225479   3.701   4.486   5.751 -1.4183 -0.5281 -0.4006
 4674SOL     OW25480   4.361   4.564   7.831 -0.0098  0.2483  0.1034
 4674SOL    HW125481   4.288   4.608   7.875  0.4569 -1.8193  2.9105
 4674SOL    HW225482   4.403   4.525   7.907  1.5791 -0.0043 -0.8942
 4675SOL     OW25483   3.227   1.174   2.743  0.2297 -0.1618 -0.3942
 4675SOL    HW125484   3.271   1.140   2.665  0.2758 -0.0920 -0.3989
 4675SOL    HW225485   3.136   1.157   2.720  0.1606  0.7935 -0.8137
 4676SOL     OW25486   0.553   3.211  10.366 -0.3198  0.0637  0.2741
 4676SOL    HW125487   0.486   3.267  10.406 -0.3531 -0.9381  1.5980
 4676SOL    HW225488   0.574   3.161  10.444 -0.5239  0.5311  0.6300
 4677SOL     OW25489   0.224   1.765   2.599 -0.0943 -0.4374  0.1735
 4677SOL    HW125490   0.139   1.725   2.580 -0.5498  0.3767  0.4890
 4677SOL    HW225491   0.249   1.794   2.511 -1.9769 -0.0443 -0.2303
 4678SOL     OW25492   1.260   3.846   5.849  0.5142 -0.1036  0.2274
 4678SOL    HW125493   1.331   3.852   5.785 -1.2265  2.5933 -1.4117
 4678SOL    HW225494   1.194   3.908   5.819  0.6453  0.1377  0.4328
 4679SOL     OW25495   0.080   0.595   5.816 -0.4219  0.2233  0.1497
 4679SOL    HW125496   0.161   0.646   5.813 -1.5260  1.9597  0.3502
 4679SOL    HW225497   0.114   0.510   5.846 -1.4983 -0.9820 -2.0069
 4680SOL     OW25498   1.693   1.020   4.088 -0.2854 -0.6517  0.0708
 4680SOL    HW125499   1.675   1.063   4.172  2.0076  0.6330 -0.0952
 4680SOL    HW225500   1.626   0.953   4.073 -0.8590 -0.3698  1.3112
 4681SOL     OW25501   0.126   4.369   6.169  0.3370  0.2801  0.3325
 4681SOL    HW125502   0.054   4.399   6.113  1.1420 -1.8562 -1.8865
 4681SOL    HW225503   0.171   4.443   6.208 -0.3359  0.6105  0.4754
 4682SOL     OW25504   1.414   2.389  10.709  0.0419 -0.0785  0.1384
 4682SOL    HW125505   1.465   2.392  10.628  0.8662  0.5811  0.6831
 4682SOL    HW225506   1.466   2.438  10.773  0.4840  0.0050 -0.2832
 4683SOL     OW25507   1.177   0.196   2.500  0.3871  0.0265 -0.1029
 4683SOL    HW125508   1.230   0.142   2.442  1.2508  0.6491  0.0926
 4683SOL    HW225509   1.097   0.148   2.520  0.1923  0.0935 -0.7529
 4684SOL     OW25510   2.543   0.906   6.587 -0.6275  0.0552 -0.3718
 4684SOL    HW125511   2.503   0.991   6.571  1.6042  1.1587  0.0338
 4684SOL    HW225512   2.473   0.852   6.624 -0.3264  0.6984  1.1330
 4685SOL     OW25513   4.263   3.485   6.087 -0.2810 -0.0944 -0.2797
 4685SOL    HW125514   4.176   3.446   6.098 -0.3181 -0.2727 -1.1869
 4685SOL    HW225515   4.257   3.546   6.161 -0.3047 -1.3815  0.7775
 4686SOL     OW25516   1.311   2.816   2.121 -0.5450  0.0418  0.0302
 4686SOL    HW125517   1.251   2.884   2.151 -0.8165  0.7908 -2.1771
 4686SOL    HW225518   1.387   2.859   2.082  0.0410  1.7137  2.9643
 4687SOL     OW25519   2.244   1.321   3.366 -0.2335 -0.2611  0.3800
 4687SOL    HW125520   2.215   1.233   3.392 -1.9946 -0.2069 -1.4005
 4687SOL    HW225521   2.306   1.322   3.439 -1.2905  0.1724  1.2746
 4688SOL     OW25522   2.687   3.502  11.544  0.3811  0.5191 -0.4257
 4688SOL    HW125523   2.599   3.536  11.557  0.3154  0.6918 -1.2886
 4688SOL    HW225524   2.674   3.437  11.475 -0.8117  0.1332  0.1676
 4689SOL     OW25525   4.307   3.434   0.021  0.0588  0.3421  0.3465
 4689SOL    HW125526   4.245   3.411  17.638  0.5068  1.2414 -0.3536
 4689SOL    HW225527   4.253   3.397   0.090 -0.8906 -1.1980 -1.2257
 4690SOL     OW25528   1.178   3.769   8.974 -0.3613 -0.2887 -0.4055
 4690SOL    HW125529   1.156   3.852   8.932 -0.9221  0.5255  1.5059
 4690SOL    HW225530   1.169   3.795   9.066 -3.2486 -1.3471 -0.3825
 4691SOL     OW25531   1.587   2.250   9.517  0.0295 -0.5272  0.0398
 4691SOL    HW125532   1.617   2.240   9.607  0.2217 -1.5586 -0.1405
 4691SOL    HW225533   1.640   2.323   9.484 -2.3021  1.0384 -0.2497
 4692SOL     OW25534   1.930   2.929   4.528  0.1123  0.3208  0.2238
 4692SOL    HW125535   1.837   2.909   4.520  0.0306  0.2842  1.2351
 4692SOL    HW225536   1.954   2.868   4.597 -1.2808 -0.2016  0.2311
 4693SOL     OW25537   1.149   3.938  10.911  0.5675 -0.1536  0.2190
 4693SOL    HW125538   1.083   3.984  10.962  1.0638 -0.7186  1.3678
 4693SOL    HW225539   1.116   3.848  10.918 -0.6448  0.0693 -2.4697
 4694SOL     OW25540   4.315   4.453   4.904 -0.0290  0.7119 -0.1786
 4694SOL    HW125541   4.409   4.437   4.895 -0.4396 -2.2090  0.8749
 4694SOL    HW225542   4.287   4.486   4.819  1.5696  1.5544 -0.3882
 4695SOL     OW25543   3.504   1.617   3.050 -0.1288 -0.3747  0.5166
 4695SOL    HW125544   3.470   1.706   3.048  1.7186  0.3191  0.4152
 4695SOL    HW225545   3.514   1.591   2.958 -0.1613 -0.2186  0.4693
 4696SOL     OW25546   4.642   2.661   7.481 -0.1492 -0.3049  0.2271
 4696SOL    HW125547   4.600   2.717   7.415 -0.6788 -0.2762  0.5897
 4696SOL    HW225548   0.006   2.704   7.487 -0.8937  1.0020  1.4987
 4697SOL     OW25549   0.468   0.301   4.747  0.0015  0.0993 -0.5718
 4697SOL    HW125550   0.414   0.262   4.677  0.3209  1.5006 -1.5944
 4697SOL    HW225551   0.440   0.392   4.743 -0.5885 -0.0666 -0.3404
 4698SOL     OW25552   1.930   3.548   1.131 -0.2660 -0.0074  0.2450
 4698SOL    HW125553   1.964   3.543   1.042  0.8122 -2.7196  0.8300
 4698SOL    HW225554   1.901   3.459   1.148  0.2536 -0.6117 -1.9804
 4699SOL     OW25555   0.389   1.028   3.676  0.4114  0.4313 -0.3632
 4699SOL    HW125556   0.367   1.119   3.660 -3.0698  0.1201  2.8556
 4699SOL    HW225557   0.459   1.015   3.611  0.7396 -0.4475  0.1624
 4700SOL     OW25558   4.181   1.694   3.359  0.2853  0.3746  0.2813
 4700SOL    HW125559   4.101   1.746   3.350  0.8017  0.4278 -3.9736
 4700SOL    HW225560   4.169   1.623   3.296 -2.0702  2.2504 -1.3888
 4701SOL     OW25561   0.142   3.703   4.886  0.1284 -0.4476  0.5199
 4701SOL    HW125562   0.226   3.744   4.907  1.2366 -2.2202 -0.4465
 4701SOL    HW225563   0.077   3.773   4.888 -0.5577 -1.0336 -1.0307
 4702SOL     OW25564   0.084   4.059   8.318 -0.0253 -0.0616 -0.2211
 4702SOL    HW125565   0.120   4.135   8.365  1.4609 -0.0243 -1.4113
 4702SOL    HW225566   0.035   4.013   8.387 -1.6170  0.2867 -1.1172
 4703SOL     OW25567   1.165   1.665   9.050 -0.4962  0.3093  0.7290
 4703SOL    HW125568   1.113   1.744   9.038 -1.0645 -0.3084 -0.8993
 4703SOL    HW225569   1.242   1.690   8.998 -0.6406  0.9966  0.8413
 4704SOL     OW25570   4.000   2.110  12.192 -0.4396 -0.2429 -0.6426
 4704SOL    HW125571   4.019   2.083  12.102  2.3745 -3.1084  0.8061
 4704SOL    HW225572   3.966   2.033  12.237 -0.4893 -1.8693 -3.4686
 4705SOL     OW25573   0.003   4.420   8.274  0.5672  0.1396  0.0998
 4705SOL    HW125574   4.697   4.370   8.197  0.5974 -1.7639  1.3260
 4705SOL    HW225575   4.642   4.403   8.320 -0.6683  1.9911 -1.4077
 4706SOL     OW25576   3.323   2.921   4.400 -0.2424  0.0218  0.0730
 4706SOL    HW125577   3.348   3.008   4.430  0.5751 -1.0513  2.5043
 4706SOL    HW225578   3.407   2.875   4.394 -0.6285 -0.4523 -1.7823
 4707SOL     OW25579   3.876   1.253  10.391  0.0793 -0.0051 -0.4998
 4707SOL    HW125580   3.924   1.226  10.469  2.6114  2.1391 -1.3132
 4707SOL    HW225581   3.939   1.244  10.319  0.1778 -1.4748 -0.2321
 4708SOL     OW25582   0.117   3.791   3.917  0.2450  0.3485  0.3555
 4708SOL    HW125583   0.194   3.759   3.965  0.4237 -1.6601 -1.2853
 4708SOL    HW225584   0.145   3.795   3.826  2.2839 -0.4304  0.9531
 4709SOL     OW25585   2.717   2.063   5.681  0.3630  0.2121  0.3425
 4709SOL    HW125586   2.648   2.002   5.705  0.0059  0.8733  1.0194
 4709SOL    HW225587   2.746   2.027   5.597 -1.6382  0.3724 -0.4219
 4710SOL     OW25588   3.841   3.233   8.573 -0.3089  0.0300 -0.1038
 4710SOL    HW125589   3.806   3.179   8.502 -0.0187 -3.0530  2.1040
 4710SOL    HW225590   3.931   3.215   8.546 -0.6642 -1.3396 -0.4068
 4711SOL     OW25591   1.303   1.144   6.863  0.3774  0.2135  0.1960
 4711SOL    HW125592   1.216   1.166   6.830  0.1834 -2.1577 -0.8901
 4711SOL    HW225593   1.305   1.050   6.841 -3.2660 -0.1350  1.3986
 4712SOL     OW25594   0.435   0.496  13.562 -0.1746  0.2062 -0.1151
 4712SOL    HW125595   0.393   0.536  13.638  1.7453 -0.6344  1.3802
 4712SOL    HW225596   0.451   0.568  13.501 -1.1583  0.1270 -0.4607
 4713SOL     OW25597   0.472   1.613   4.525 -0.5250  0.3530  0.2528
 4713SOL    HW125598   0.385   1.652   4.525 -0.6602  0.0744 -3.2808
 4713SOL    HW225599   0.521   1.670   4.584  2.2409 -0.1600 -1.5265
 4714SOL     OW25600   1.306   2.200   4.248 -0.1514 -0.6705 -0.5093
 4714SOL    HW125601   1.382   2.237   4.293 -0.6355 -0.4067  0.0966
 4714SOL    HW225602   1.336   2.221   4.159  2.9726 -0.3264  0.6265
 4715SOL     OW25603   4.124   1.085   6.545  0.1723  0.5064  0.3979
 4715SOL    HW125604   4.095   1.018   6.483  0.9643 -1.4243  2.1234
 4715SOL    HW225605   4.163   1.022   6.606 -0.9151 -2.2878 -1.7596
 4716SOL     OW25606   3.380   2.710   5.825 -0.0597 -0.4030  0.1897
 4716SOL    HW125607   3.471   2.738   5.833  0.4227 -1.6687 -0.6832
 4716SOL    HW225608   3.360   2.726   5.733  0.5370  1.2716  0.3616
 4717SOL     OW25609   3.960   1.042  11.552 -0.5934 -0.0666  0.1330
 4717SOL    HW125610   3.936   0.950  11.559  0.8002 -0.3305  1.3602
 4717SOL    HW225611   3.940   1.078  11.638 -0.5464  0.8232 -0.2234
 4718SOL     OW25612   1.601   4.268   9.029  0.6618  0.3861 -0.9642
 4718SOL    HW125613   1.633   4.220   9.105 -1.3850 -2.2354 -1.7503
 4718SOL    HW225614   1.543   4.338   9.058 -2.4504 -2.7700  0.3326
 4719SOL     OW25615   0.477   3.661  15.016  0.9567  0.0495 -0.4660
 4719SOL    HW125616   0.503   3.626  14.930  0.3736  2.7336 -1.7543
 4719SOL    HW225617   0.548   3.723  15.035  0.1733  0.4775  1.0206
 4720SOL     OW25618   2.042   2.480   3.282  0.5052  0.3944  0.2502
 4720SOL    HW125619   2.067   2.412   3.219  0.6375 -1.3766  2.2468
 4720SOL    HW225620   1.971   2.522   3.232  1.1194 -0.9177 -1.7394
 4721SOL     OW25621   3.359   2.212   7.975 -0.3659 -0.7808  0.2858
 4721SOL    HW125622   3.299   2.259   8.034 -0.1515 -0.0266 -0.0872
 4721SOL    HW225623   3.441   2.208   8.023 -0.6735 -0.6090  0.8284
 4722SOL     OW25624   1.091   1.811   2.140  0.3428 -0.1050  0.0929
 4722SOL    HW125625   1.005   1.775   2.118 -0.7331  1.5411  1.6282
 4722SOL    HW225626   1.144   1.793   2.063  0.2891  0.4147 -0.0638
 4723SOL     OW25627   1.074   2.253   4.340 -0.7707  0.1740 -0.4979
 4723SOL    HW125628   1.029   2.243   4.256 -1.0957 -2.9103  0.0478
 4723SOL    HW225629   1.161   2.224   4.312 -0.5249 -2.0084  2.6350
 4724SOL     OW25630   1.214   3.098   1.453  0.4027 -0.6676  0.4489
 4724SOL    HW125631   1.221   3.032   1.522  0.1462  1.4969  2.5111
 4724SOL    HW225632   1.223   3.184   1.494 -0.9773 -0.1045 -0.4168
 4725SOL     OW25633   4.408   2.859  10.397  0.0139 -0.2677  0.6500
 4725SOL    HW125634   4.372   2.927  10.454  0.2343  0.2444  0.1722
 4725SOL    HW225635   4.454   2.800  10.458 -0.2311 -0.8858  0.2374
 4726SOL     OW25636   1.656   1.187  16.087 -0.2385  1.0998 -0.5286
 4726SOL    HW125637   1.655   1.104  16.039 -2.3543  0.9796 -0.2951
 4726SOL    HW225638   1.632   1.151  16.172  0.3200 -0.0146 -0.8497
 4727SOL     OW25639   0.441   0.127  15.254 -0.0797 -0.1200  0.0245
 4727SOL    HW125640   0.415   0.160  15.340 -1.1251 -1.3245  0.1722
 4727SOL    HW225641   0.528   0.093  15.273 -0.5545 -2.1753 -1.5112
 4728SOL     OW25642   0.947   4.597  16.294  0.4429 -0.1038 -0.0021
 4728SOL    HW125643   0.955   4.674  16.238  4.7225 -0.0295  0.7105
 4728SOL    HW225644   0.913   4.534  16.230  1.9094  0.9848 -1.8278
 4729SOL     OW25645   1.483   3.506   0.657 -0.4645 -0.3068  0.1665
 4729SOL    HW125646   1.490   3.583   0.713 -2.3712 -1.7933  2.4485
 4729SOL    HW225647   1.513   3.549   0.577  0.5085 -0.1759  0.5970
 4730SOL     OW25648   1.480   1.774   1.678  0.9439  0.3925  0.4181
 4730SOL    HW125649   1.483   1.858   1.724  0.9193  1.2780 -1.1971
 4730SOL    HW225650   1.568   1.770   1.640  0.6442 -2.5561  0.0622
 4731SOL     OW25651   2.422   3.427   4.220  0.0232 -0.1499 -0.5719
 4731SOL    HW125652   2.353   3.468   4.169  0.6235  1.7644  0.1555
 4731SOL    HW225653   2.383   3.340   4.221  0.1349 -0.1613  2.0585
 4732SOL     OW25654   1.156   3.396   8.657  0.2052  0.5048 -0.1039
 4732SOL    HW125655   1.223   3.328   8.646 -1.8781 -1.6346  0.4639
 4732SOL    HW225656   1.188   3.451   8.728  0.5962 -0.8038  0.7249
 4733SOL     OW25657   4.525   4.525   2.809  0.5522  0.4261  0.0585
 4733SOL    HW125658   4.506   4.433   2.828 -0.3382  0.3960 -0.9945
 4733SOL    HW225659   4.591   4.522   2.739  2.4440  0.0519  1.8691
 4734SOL     OW25660   0.089   4.425   5.179 -0.3315  0.3275  0.3797
 4734SOL    HW125661   0.102   4.402   5.271 -0.3287 -2.3500 -0.2751
 4734SOL    HW225662   0.003   4.467   5.179 -1.1806 -1.4346 -2.6530
 4735SOL     OW25663   1.415   2.128   8.124 -0.4405  0.1166  0.2979
 4735SOL    HW125664   1.480   2.174   8.070 -0.9827 -1.1261 -1.3931
 4735SOL    HW225665   1.337   2.184   8.130 -1.1573 -0.7982 -0.5437
 4736SOL     OW25666   2.200   0.767   5.974 -0.0071  0.1356 -0.0125
 4736SOL    HW125667   2.187   0.709   5.899 -3.9640  0.2668  0.5706
 4736SOL    HW225668   2.294   0.773   5.961 -0.0919  1.0193 -0.2868
 4737SOL     OW25669   4.138   1.259   4.357 -0.1827 -0.1781 -0.2706
 4737SOL    HW125670   4.202   1.315   4.312  0.9077  1.3662  3.1627
 4737SOL    HW225671   4.194   1.218   4.423 -2.8029 -0.2981  1.8555
 4738SOL     OW25672   3.841   4.447   8.017 -0.1008 -0.0446  0.2134
 4738SOL    HW125673   3.812   4.480   8.102  1.2756 -0.0791  0.6919
 4738SOL    HW225674   3.910   4.509   7.993 -1.6522  1.3264 -0.7304
 4739SOL     OW25675   0.376   4.276   1.379 -0.0461  0.2573  0.2987
 4739SOL    HW125676   0.431   4.198   1.380 -1.3729 -0.6446  2.1826
 4739SOL    HW225677   0.393   4.307   1.290  3.1714 -0.4988  0.6708
 4740SOL     OW25678   4.155   3.903   7.075 -0.2343 -0.5856 -0.2595
 4740SOL    HW125679   4.099   3.825   7.072 -1.5091  0.3620 -1.2311
 4740SOL    HW225680   4.124   3.927   7.162 -1.3965  1.5197 -1.2381
 4741SOL     OW25681   3.703   2.628   6.973  0.2312 -0.2185  0.8252
 4741SOL    HW125682   3.726   2.697   6.911 -1.8413 -0.9609 -0.7703
 4741SOL    HW225683   3.733   2.670   7.054 -1.9711 -1.8010  2.4402
 4742SOL     OW25684   3.165   2.239   5.182 -0.4645  0.1220  0.1175
 4742SOL    HW125685   3.201   2.211   5.098 -1.4436 -1.6412  0.2869
 4742SOL    HW225686   3.196   2.330   5.183  0.8673 -0.3189 -0.7713
 4743SOL     OW25687   1.726   0.662   3.136 -0.2958 -0.4539  0.7774
 4743SOL    HW125688   1.797   0.687   3.196  0.6271 -0.4174 -0.3449
 4743SOL    HW225689   1.665   0.631   3.203  2.1574 -1.3703  2.6086
 4744SOL     OW25690   2.178   1.493   4.375 -0.3306 -0.1105  0.4747
 4744SOL    HW125691   2.273   1.500   4.375 -0.2230 -1.5341  2.4690
 4744SOL    HW225692   2.149   1.470   4.463  0.6533 -1.9143  0.3222
 4745SOL     OW25693   0.717   3.327   4.447 -0.3878  0.0097 -0.1126
 4745SOL    HW125694   0.789   3.386   4.470  1.9951 -2.2816 -1.7847
 4745SOL    HW225695   0.696   3.286   4.531  2.5680  1.4802  1.3311
 4746SOL     OW25696   2.680   4.685   5.707  0.1383 -0.3364 -0.0163
 4746SOL    HW125697   2.595   4.685   5.664  0.4900 -0.4899 -0.7242
 4746SOL    HW225698   2.667   0.051   5.742 -1.6285  1.2462 -4.6372
 4747SOL     OW25699   1.364   4.433  13.458 -0.2646  0.3517  0.6423
 4747SOL    HW125700   1.420   4.497  13.415 -0.9967  0.5748  0.0396
 4747SOL    HW225701   1.284   4.483  13.447  0.6600  0.9340 -3.3892
 4748SOL     OW25702   1.092   0.361   3.006  0.0718 -0.2330 -0.5304
 4748SOL    HW125703   1.046   0.324   2.930 -1.1679  1.3600 -0.5655
 4748SOL    HW225704   1.183   0.336   2.987 -0.0947 -0.5295 -0.9443
 4749SOL     OW25705   2.945   2.542  11.991 -0.1282  0.2871 -0.1705
 4749SOL    HW125706   3.000   2.602  11.942  0.5688  0.2227  0.5219
 4749SOL    HW225707   3.020   2.491  12.024  1.2835  2.4025 -0.0870
 4750SOL     OW25708   1.395   3.387   3.230 -0.3592  0.3996 -0.4980
 4750SOL    HW125709   1.329   3.344   3.284 -0.2666  0.8986  0.0111
 4750SOL    HW225710   1.396   3.480   3.254 -1.7560  0.2182  0.2329
 4751SOL     OW25711   0.337   0.174   4.955 -0.2461  0.0203 -0.0947
 4751SOL    HW125712   0.302   0.250   5.002 -0.7069 -0.3396  0.1609
 4751SOL    HW225713   0.398   0.207   4.890  0.5363  1.7288  1.5096
 4752SOL     OW25714   1.581   3.931  16.928 -0.6497 -0.3636  0.8696
 4752SOL    HW125715   1.536   3.847  16.922  1.0543 -1.2538  0.2850
 4752SOL    HW225716   1.590   3.934  17.023 -2.6326 -0.9113  1.0700
 4753SOL     OW25717   0.993   1.973   4.461  0.1436 -0.1733  0.0318
 4753SOL    HW125718   0.937   2.049   4.450  2.2832  1.5013  0.6223
 4753SOL    HW225719   1.059   2.006   4.522 -1.2889  0.9214  0.9748
 4754SOL     OW25720   0.955   1.784   7.826  0.1998 -0.8661 -0.5014
 4754SOL    HW125721   1.022   1.799   7.759  1.4220  2.1564  1.4574
 4754SOL    HW225722   1.004   1.784   7.908 -1.8449  0.8719  0.7064
 4755SOL     OW25723   3.209   1.217   4.189  0.3305 -0.4092 -0.0273
 4755SOL    HW125724   3.283   1.254   4.142 -1.2874  1.2125 -1.3473
 4755SOL    HW225725   3.144   1.232   4.120  0.1502 -0.9194  0.0293
 4756SOL     OW25726   2.797   0.900   6.365  0.5710  0.8544 -0.6227
 4756SOL    HW125727   2.872   0.871   6.417 -2.1346 -2.9907  1.1708
 4756SOL    HW225728   2.741   0.915   6.441 -0.1723 -0.5981 -0.8956
 4757SOL     OW25729   3.122   2.874   6.583  0.2190  0.1658 -0.1407
 4757SOL    HW125730   3.063   2.944   6.555  0.5129  0.0797 -0.9645
 4757SOL    HW225731   3.066   2.846   6.655  1.2104  1.0942  1.0109
 4758SOL     OW25732   0.226   3.873  14.992  0.3448 -0.4008 -0.1360
 4758SOL    HW125733   0.218   3.898  15.084  0.3245  0.2892 -0.3258
 4758SOL    HW225734   0.317   3.844  14.981  0.2253 -0.7892 -0.0979
 4759SOL     OW25735   0.505   2.532   8.611 -0.1633  0.0784 -0.1248
 4759SOL    HW125736   0.479   2.612   8.657  0.4251 -0.2310  0.7486
 4759SOL    HW225737   0.490   2.557   8.520 -0.6239  0.2043 -0.0141
 4760SOL     OW25738   4.599   1.214   3.622  0.1992  0.5809  0.3593
 4760SOL    HW125739   4.636   1.135   3.582  0.7288  0.1049  1.8132
 4760SOL    HW225740   4.606   1.277   3.550 -0.6071 -0.6186 -0.7553
 4761SOL     OW25741   0.600   2.325   6.631  0.4784  0.4275 -0.1774
 4761SOL    HW125742   0.529   2.376   6.591  1.0464  1.0370 -0.3989
 4761SOL    HW225743   0.591   2.245   6.579 -0.4481  1.1171 -1.0776
 4762SOL     OW25744   3.038   2.751   8.860  0.2817  0.1520 -0.1049
 4762SOL    HW125745   3.020   2.657   8.858  0.1282  0.1648  0.6632
 4762SOL    HW225746   3.028   2.778   8.952  1.2041  0.4496 -0.0990
 4763SOL     OW25747   0.608   4.542   7.481 -0.2776  0.3094  0.1466
 4763SOL    HW125748   0.668   4.608   7.445  2.1450 -2.0981 -0.2266
 4763SOL    HW225749   0.523   4.578   7.456  0.3582 -0.2130 -2.7517
 4764SOL     OW25750   0.919   4.224   5.797  0.1362 -0.0085 -0.1507
 4764SOL    HW125751   0.835   4.187   5.768  0.5918 -1.1025 -0.0978
 4764SOL    HW225752   0.941   4.271   5.716 -2.7789  2.0743  0.2759
 4765SOL     OW25753   2.657   0.853  14.671 -0.6983 -0.6601  0.0869
 4765SOL    HW125754   2.583   0.881  14.725 -0.6275  1.4178 -0.8928
 4765SOL    HW225755   2.681   0.775  14.721  2.0998 -1.4760 -2.5122
 4766SOL     OW25756   4.454   3.043   5.949  0.8185  0.0392  0.4589
 4766SOL    HW125757   4.508   3.120   5.933  0.8112 -0.0728 -0.0935
 4766SOL    HW225758   4.370   3.082   5.975 -0.1212 -0.5875 -1.6595
 4767SOL     OW25759   0.450   1.371   8.360  0.2309  0.4456 -0.2582
 4767SOL    HW125760   0.478   1.390   8.270  2.7132  1.5566  0.7583
 4767SOL    HW225761   0.518   1.308   8.384 -1.0387 -0.8836 -0.1584
 4768SOL     OW25762   4.061   1.996   6.692  0.3021  0.0346  0.1749
 4768SOL    HW125763   4.107   1.912   6.691 -0.5694 -0.4255 -1.0164
 4768SOL    HW225764   4.128   2.052   6.730 -0.3843  0.4444  0.8030
 4769SOL     OW25765   3.445   2.458   0.937  0.0534 -0.5178  0.2295
 4769SOL    HW125766   3.446   2.362   0.943 -2.0147 -0.3872  2.5662
 4769SOL    HW225767   3.490   2.464   0.853  0.0597 -0.5505  0.2306
 4770SOL     OW25768   4.237   1.795   6.663  0.1479 -0.7181  0.1040
 4770SOL    HW125769   4.330   1.817   6.660  0.1505 -0.4811  2.0000
 4770SOL    HW225770   4.238   1.722   6.725 -1.9679 -0.5384  0.3338
 4771SOL     OW25771   0.968   0.083   5.462 -0.1047  0.1220 -0.0762
 4771SOL    HW125772   1.006   0.043   5.540  0.7197  1.3418  0.1417
 4771SOL    HW225773   0.874   0.071   5.470 -0.3398  2.9694  1.2221
 4772SOL     OW25774   1.515   0.787   4.078 -0.6807 -0.3913  0.3069
 4772SOL    HW125775   1.446   0.768   4.015 -1.9798  0.1181  1.5970
 4772SOL    HW225776   1.469   0.754   4.155 -0.0949 -0.7637  0.5006
 4773SOL     OW25777   1.402   4.458   4.294 -0.3396  0.7597 -0.1044
 4773SOL    HW125778   1.420   4.432   4.204 -0.8445  0.1517 -0.0300
 4773SOL    HW225779   1.490   4.484   4.321 -0.8353 -0.1971  2.4783
 4774SOL     OW25780   3.762   3.069   1.456  0.1807 -0.5796  0.3583
 4774SOL    HW125781   3.718   3.111   1.382 -0.6189  0.5574  1.4794
 4774SOL    HW225782   3.822   3.138   1.485  0.9690 -1.7796  1.6046
 4775SOL     OW25783   0.289   3.161   7.652  0.1510  0.1230 -0.1955
 4775SOL    HW125784   0.380   3.146   7.678  0.1628 -1.7631 -1.3810
 4775SOL    HW225785   0.278   3.242   7.702 -0.3508  0.0533 -0.1916
 4776SOL     OW25786   3.889   0.960   0.703  0.1552 -0.1270 -0.2836
 4776SOL    HW125787   3.807   1.008   0.718 -0.5568 -1.2159 -0.6695
 4776SOL    HW225788   3.934   0.964   0.788  0.4172  0.7871 -0.4586
 4777SOL     OW25789   1.584   2.051   7.470 -0.4161  0.0191 -0.1549
 4777SOL    HW125790   1.628   1.976   7.510  0.4594  0.1167 -0.9508
 4777SOL    HW225791   1.600   2.109   7.544  2.4775 -0.8197 -0.1512
 4778SOL     OW25792   4.502   2.091   6.875 -0.0582 -0.5064 -0.0779
 4778SOL    HW125793   4.550   2.061   6.952  1.8372  0.5364 -0.8438
 4778SOL    HW225794   4.438   2.140   6.927  0.1019 -1.3204  0.8904
 4779SOL     OW25795   3.759   3.096   1.899 -0.0270 -0.5974 -0.2054
 4779SOL    HW125796   3.779   3.138   1.815 -0.4372 -2.0998 -1.0482
 4779SOL    HW225797   3.702   3.034   1.854 -0.1340  1.8128 -3.3849
 4780SOL     OW25798   0.776   1.564   9.572 -0.1498 -0.4733  0.2816
 4780SOL    HW125799   0.710   1.633   9.562  0.9902  0.4918 -0.6595
 4780SOL    HW225800   0.727   1.486   9.598 -1.1305  0.1200  0.2294
 4781SOL     OW25801   2.756   1.311   7.874  0.3147  0.1501 -0.0174
 4781SOL    HW125802   2.789   1.257   7.803 -0.4217 -2.7883  1.8561
 4781SOL    HW225803   2.805   1.279   7.950  1.3104 -0.7319 -1.0256
 4782SOL     OW25804   4.542   4.274   4.137 -0.4392 -0.3185  0.3896
 4782SOL    HW125805   4.635   4.281   4.155 -0.5338  2.8215 -0.4849
 4782SOL    HW225806   4.534   4.226   4.054  0.7380  0.5690 -0.2352
 4783SOL     OW25807   0.917   4.546   4.273 -0.0108  0.6397  0.2584
 4783SOL    HW125808   0.871   4.615   4.320 -1.1030  1.4071 -1.9337
 4783SOL    HW225809   0.988   4.522   4.332 -0.3640 -1.1484 -0.0369
 4784SOL     OW25810   4.633   1.184  16.352 -0.3624 -1.0066 -0.1231
 4784SOL    HW125811   4.575   1.252  16.387 -0.2671 -0.4599 -1.0351
 4784SOL    HW225812   4.711   1.185  16.407 -1.2511 -0.2932  1.1194
 4785SOL     OW25813   3.643   2.454   5.355  0.3618 -0.6304  0.2457
 4785SOL    HW125814   3.563   2.498   5.325  0.2470  0.0318  1.4990
 4785SOL    HW225815   3.597   2.384   5.403  0.0583  0.1712  1.1399
 4786SOL     OW25816   1.733   2.519  10.555 -0.0934  0.4361 -0.1282
 4786SOL    HW125817   1.650   2.567  10.555 -0.1780  0.2850  2.7088
 4786SOL    HW225818   1.782   2.581  10.610 -2.4177  0.7980  1.5360
 4787SOL     OW25819   1.233   3.519   6.263 -0.3350  0.0292  0.5593
 4787SOL    HW125820   1.200   3.539   6.175 -1.9983 -1.0203  0.9676
 4787SOL    HW225821   1.326   3.537   6.244 -0.2898 -0.7163  0.0692
 4788SOL     OW25822   2.732   4.421   3.963 -0.0171 -0.2564  0.4924
 4788SOL    HW125823   2.748   4.460   4.049  1.5952  1.1527 -0.4630
 4788SOL    HW225824   2.817   4.426   3.920  0.9329 -0.3382  2.3475
 4789SOL     OW25825   4.612   2.743   4.237  0.4832  0.0488  0.2326
 4789SOL    HW125826   4.658   2.799   4.299 -1.4139  0.8024  0.9894
 4789SOL    HW225827   4.689   2.697   4.204  0.9023  1.0398 -0.1870
 4790SOL     OW25828   2.530   1.282  13.670  0.5702 -0.2577  0.7088
 4790SOL    HW125829   2.541   1.357  13.612 -0.0039 -0.3486  0.4769
 4790SOL    HW225830   2.614   1.272  13.714  1.0356 -1.5877 -0.4806
 4791SOL     OW25831   3.885   2.576   5.404  0.3107 -0.0703 -0.1917
 4791SOL    HW125832   3.804   2.534   5.375  0.5597 -1.2805  0.8852
 4791SOL    HW225833   3.925   2.610   5.323  1.0668 -2.1274 -0.6887
 4792SOL     OW25834   1.830   0.224   5.609  0.0487  0.1563  0.3312
 4792SOL    HW125835   1.925   0.235   5.614  0.2295  0.4374 -4.2796
 4792SOL    HW225836   1.819   0.246   5.517 -0.4409 -1.1323  0.0906
 4793SOL     OW25837   4.390   1.366   2.331  0.1271 -0.1070 -0.1447
 4793SOL    HW125838   4.343   1.422   2.269  0.5793 -0.2322 -0.5970
 4793SOL    HW225839   4.452   1.430   2.364  1.1372 -0.1727 -1.9084
 4794SOL     OW25840   3.042   0.949   8.084  0.2370  0.1138 -0.0642
 4794SOL    HW125841   3.107   0.892   8.042 -2.1800 -3.2807  0.7958
 4794SOL    HW225842   3.109   1.015   8.103  0.1918  0.7491 -2.0773
 4795SOL     OW25843   3.982   3.621   4.440  0.4216 -0.4936  0.3009
 4795SOL    HW125844   3.955   3.572   4.363 -1.5198 -3.5974  2.9259
 4795SOL    HW225845   3.920   3.588   4.505  1.4272  0.4186  1.7384
 4796SOL     OW25846   1.302   3.358  13.820 -0.4868  0.2573 -0.0440
 4796SOL    HW125847   1.352   3.316  13.891  0.5674 -0.7870 -1.4016
 4796SOL    HW225848   1.370   3.416  13.787 -1.3880  1.5752  0.4180
 4797SOL     OW25849   0.898   2.038  15.090 -0.2052  0.0974  0.3243
 4797SOL    HW125850   0.882   2.031  15.184  0.0750 -0.1714  0.3533
 4797SOL    HW225851   0.851   2.120  15.077  0.0888  0.0290 -1.1346
 4798SOL     OW25852   0.745   2.920   2.376  0.4697  0.4195 -0.1369
 4798SOL    HW125853   0.660   2.876   2.370 -0.8421  2.8966  0.2073
 4798SOL    HW225854   0.766   2.891   2.464 -1.6029  1.6859  0.7685
 4799SOL     OW25855   0.056   2.288  10.671  0.1794 -0.4002  0.2691
 4799SOL    HW125856   0.101   2.315  10.751 -1.0617 -2.2205  1.5886
 4799SOL    HW225857   0.087   2.198  10.663 -1.5634 -1.1367  1.9409
 4800SOL     OW25858   1.329   1.805  17.441  0.0143  0.1900 -0.8082
 4800SOL    HW125859   1.356   1.862  17.369 -0.1399 -0.5091 -1.4165
 4800SOL    HW225860   1.268   1.862  17.488  0.4335 -0.7331  0.8936
 4801SOL     OW25861   2.707   3.311   6.483 -0.0086 -0.2612 -0.1515
 4801SOL    HW125862   2.723   3.258   6.405 -0.7094 -0.4820 -0.1384
 4801SOL    HW225863   2.692   3.398   6.447 -0.9496  0.3185  1.6429
 4802SOL     OW25864   0.962   0.996   4.896  0.2138  0.5600  0.0640
 4802SOL    HW125865   0.908   1.002   4.975 -0.7968  1.2819 -0.6708
 4802SOL    HW225866   1.002   0.910   4.886 -0.5082  0.1012  1.1241
 4803SOL     OW25867   2.952   4.470   3.802 -1.1808  0.0147 -0.0339
 4803SOL    HW125868   3.033   4.518   3.819 -1.7298  0.2961  1.7842
 4803SOL    HW225869   2.965   4.468   3.707 -0.2250 -0.4395  0.1101
 4804SOL     OW25870   0.299   4.160   4.036  0.2349 -0.3132 -0.6161
 4804SOL    HW125871   0.276   4.134   3.946  1.0635  0.0887 -0.9434
 4804SOL    HW225872   0.250   4.242   4.048  1.2356 -0.0597  1.5572
 4805SOL     OW25873   3.311   2.350   0.713  0.3072  0.6497 -0.3837
 4805SOL    HW125874   3.404   2.339   0.736  0.4029  0.1856 -0.9931
 4805SOL    HW225875   3.279   2.264   0.740  1.4540 -0.1818 -1.6657
 4806SOL     OW25876   1.677   2.880   6.621 -0.4836  0.3947 -0.1467
 4806SOL    HW125877   1.768   2.901   6.598 -0.4942  2.9490  2.1869
 4806SOL    HW225878   1.698   2.793   6.656  2.6073  0.9684 -0.5029
 4807SOL     OW25879   4.059   1.947   1.084  0.2659 -0.4276 -0.6942
 4807SOL    HW125880   4.005   1.958   1.163 -0.5590 -3.4622 -0.8321
 4807SOL    HW225881   4.050   1.857   1.053 -0.6641 -1.0604  1.4262
 4808SOL     OW25882   1.258   1.390  13.555  0.3645 -0.2181 -0.0555
 4808SOL    HW125883   1.253   1.320  13.620 -3.2150  0.6672  0.6453
 4808SOL    HW225884   1.226   1.469  13.600  0.0374  1.4753 -3.2375
 4809SOL     OW25885   1.067   1.264   7.198  0.1242  0.1379  0.6665
 4809SOL    HW125886   1.080   1.357   7.219  0.1575  0.1594  0.5484
 4809SOL    HW225887   1.104   1.268   7.110  0.2538  2.5546  0.8198
 4810SOL     OW25888   3.943   2.017   4.319  0.0463  0.5925 -0.2449
 4810SOL    HW125889   3.916   2.000   4.229  0.1921 -0.6998 -0.0393
 4810SOL    HW225890   4.015   1.958   4.339  0.7601  0.8498 -2.0953
 4811SOL     OW25891   0.304   2.389   8.426  0.6749  0.2494  0.2210
 4811SOL    HW125892   0.372   2.356   8.368  0.8246 -1.2380  1.2409
 4811SOL    HW225893   0.322   2.320   8.490  1.4951 -0.9505 -1.3185
 4812SOL     OW25894   3.827   0.134   6.452 -0.5020  0.5362  0.0645
 4812SOL    HW125895   3.908   0.166   6.492 -0.7909 -1.9919  2.7051
 4812SOL    HW225896   3.760   0.152   6.518 -0.2571  0.0283  0.4542
 4813SOL     OW25897   1.500   4.507   9.552  0.2313  0.2321 -0.1641
 4813SOL    HW125898   1.559   4.451   9.502  0.1545 -0.2646  0.3146
 4813SOL    HW225899   1.503   4.459   9.634 -1.9704  0.6167  0.1369
 4814SOL     OW25900   2.748   2.495  16.427  0.5365 -0.6023  0.5057
 4814SOL    HW125901   2.717   2.586  16.433  2.6845  0.1490  0.3142
 4814SOL    HW225902   2.751   2.474  16.520  0.1311  0.8825  0.8640
 4815SOL     OW25903   3.840   3.575   7.311  0.1782 -0.2364 -0.0074
 4815SOL    HW125904   3.839   3.484   7.282  0.8099 -0.3369  0.2837
 4815SOL    HW225905   3.753   3.607   7.287 -0.0291 -1.2108 -0.5337
 4816SOL     OW25906   1.382   0.943   4.385  0.1103  0.3282  0.6460
 4816SOL    HW125907   1.439   0.995   4.441  0.5033 -0.8535  1.3376
 4816SOL    HW225908   1.295   0.950   4.425 -0.2753  0.2398 -0.1638
 4817SOL     OW25909   0.309   1.125   7.080 -0.5416  0.3525 -0.2225
 4817SOL    HW125910   0.313   1.205   7.028  1.6699  1.6158  1.8867
 4817SOL    HW225911   0.287   1.171   7.161 -0.7679  1.1207 -0.7180
 4818SOL     OW25912   0.490   3.795   1.674  0.4898  0.0009  0.1709
 4818SOL    HW125913   0.580   3.820   1.657  0.2878 -0.6944 -1.9038
 4818SOL    HW225914   0.453   3.808   1.586 -2.0263  0.7249  1.3250
 4819SOL     OW25915   2.286   0.562  14.997 -0.8813  0.3800  0.0083
 4819SOL    HW125916   2.381   0.565  15.003 -0.9310  2.9082 -0.5470
 4819SOL    HW225917   2.284   0.472  14.964  1.3317  0.8434 -1.4124
 4820SOL     OW25918   2.270   3.782   3.101 -0.0708  0.3644  0.0908
 4820SOL    HW125919   2.190   3.830   3.122 -0.3388  0.8478 -2.0224
 4820SOL    HW225920   2.325   3.860   3.091 -1.0041  0.8319 -1.3231
 4821SOL     OW25921   0.486   0.652   5.627 -0.1975  0.3654 -0.0981
 4821SOL    HW125922   0.546   0.586   5.660 -1.1329 -0.1053  0.6674
 4821SOL    HW225923   0.528   0.721   5.679  3.8902 -3.1559  1.2217
 4822SOL     OW25924   3.701   0.990   7.446  0.4020  0.3552  0.2977
 4822SOL    HW125925   3.689   0.963   7.355  1.7582  0.0883  0.1888
 4822SOL    HW225926   3.738   0.912   7.488 -1.8733 -1.4107 -0.9872
 4823SOL     OW25927   1.022   2.695   8.011 -0.5297 -0.3196  0.3691
 4823SOL    HW125928   1.001   2.607   8.042  2.4665  0.3175  4.1225
 4823SOL    HW225929   1.108   2.698   8.052  0.2290 -1.2348 -1.1329
 4824SOL     OW25930   4.635   2.643   3.738  0.0062 -0.2437  0.6820
 4824SOL    HW125931   4.685   2.595   3.804  2.2208  0.6951 -0.3547
 4824SOL    HW225932   4.699   2.657   3.669 -0.6969  1.4198  0.3647
 4825SOL     OW25933   2.338   4.192   8.494 -0.4498  0.6518 -0.2131
 4825SOL    HW125934   2.394   4.173   8.570  0.8049  1.3655 -0.9660
 4825SOL    HW225935   2.392   4.232   8.427  1.3776  1.1037  1.5247
 4826SOL     OW25936   1.090   2.704   2.021  0.3985 -0.0502  0.5804
 4826SOL    HW125937   1.127   2.626   1.978 -0.0370 -0.7398  1.4495
 4826SOL    HW225938   1.168   2.756   2.040 -0.5449  2.7559 -3.1238
 4827SOL     OW25939   3.126   1.371  11.664  0.1513  0.3127  0.2455
 4827SOL    HW125940   3.140   1.286  11.707 -1.0594 -0.5684 -1.1200
 4827SOL    HW225941   3.106   1.421  11.744  2.3109  0.4826  0.6656
 4828SOL     OW25942   1.337   1.919   5.876 -0.1415 -0.2756  0.6732
 4828SOL    HW125943   1.349   2.014   5.876  1.0291 -0.4218 -2.3881
 4828SOL    HW225944   1.287   1.902   5.796 -1.3213 -1.7454  1.7238
 4829SOL     OW25945   1.957   0.881  13.478 -0.8435  0.0907 -0.3643
 4829SOL    HW125946   2.007   0.865  13.398  1.7118  1.6463  0.9088
 4829SOL    HW225947   1.882   0.925  13.438  1.3821  1.6384 -2.7978
 4830SOL     OW25948   0.450   0.171   0.563 -0.2577 -0.7453 -0.5698
 4830SOL    HW125949   0.364   0.176   0.522  0.6572  1.2979 -2.2314
 4830SOL    HW225950   0.419   0.128   0.642 -0.0387 -1.3896 -0.8318
 4831SOL     OW25951   1.849   0.989  12.526 -0.1318  0.2152  0.3075
 4831SOL    HW125952   1.906   0.977  12.602 -0.5556 -2.4396  0.2074
 4831SOL    HW225953   1.816   1.078  12.538 -0.5447  0.2042 -0.7532
 4832SOL     OW25954   3.028   2.737   2.022  0.5388 -0.0005  0.2326
 4832SOL    HW125955   3.043   2.645   2.003  0.0442 -0.0440  0.0710
 4832SOL    HW225956   3.065   2.781   1.945 -0.6816 -1.2873 -1.0771
 4833SOL     OW25957   4.126   0.944  14.755 -0.0281  0.3812  0.0744
 4833SOL    HW125958   4.100   1.019  14.702  0.4823 -0.9690 -2.0859
 4833SOL    HW225959   4.052   0.943  14.817 -3.1636 -2.0749 -3.6979
 4834SOL     OW25960   3.436   3.142   5.239 -0.4872  0.1909 -0.1811
 4834SOL    HW125961   3.471   3.224   5.206  0.5395 -1.0622 -2.1813
 4834SOL    HW225962   3.434   3.096   5.155  0.3518 -0.7261  0.2996
 4835SOL     OW25963   4.227   3.870   4.272 -0.7397  0.4555  0.2244
 4835SOL    HW125964   4.170   3.889   4.347 -3.4080 -1.9980 -1.1618
 4835SOL    HW225965   4.260   3.956   4.246  4.0995 -1.9636 -1.5609
 4836SOL     OW25966   3.695   3.217   3.533 -0.1334  0.1260 -0.4987
 4836SOL    HW125967   3.620   3.187   3.585  0.2157  0.8363  0.4144
 4836SOL    HW225968   3.657   3.262   3.458  1.5530 -0.9086 -1.9624
 4837SOL     OW25969   4.154   2.094   0.441  0.1002  0.3147  0.4868
 4837SOL    HW125970   4.178   2.022   0.383  2.2852  0.5337  1.0883
 4837SOL    HW225971   4.239   2.139   0.439  0.4210 -0.3435 -0.5166
 4838SOL     OW25972   3.792   1.164   1.936  0.1179  0.2862 -0.4026
 4838SOL    HW125973   3.874   1.141   1.893 -0.5026 -0.5722 -1.1390
 4838SOL    HW225974   3.830   1.185   2.021 -1.7636 -2.1635  1.0695
 4839SOL     OW25975   2.522   2.465   0.198 -0.4641  0.4704 -0.3126
 4839SOL    HW125976   2.489   2.376   0.189 -0.1248  0.2863  0.2776
 4839SOL    HW225977   2.556   2.478   0.109 -0.5630  1.2105 -0.2368
 4840SOL     OW25978   0.084   0.844   4.804 -0.1885  0.5672 -0.4769
 4840SOL    HW125979   0.012   0.816   4.861 -0.3550  0.5741 -0.6847
 4840SOL    HW225980   0.096   0.935   4.832  1.0391  0.1804  0.2832
 4841SOL     OW25981   1.173   3.626   0.617 -0.6090 -0.1256 -0.1603
 4841SOL    HW125982   1.138   3.682   0.548  0.5066  0.2693 -0.3946
 4841SOL    HW225983   1.230   3.574   0.561  2.2249  0.5263  2.1205
 4842SOL     OW25984   1.191   0.044   4.817  0.0018  0.1703 -0.4414
 4842SOL    HW125985   1.223   0.098   4.745 -0.3591 -0.7722 -1.3134
 4842SOL    HW225986   1.114   0.006   4.774  1.8116 -0.4971 -3.0965
 4843SOL     OW25987   1.279   1.458   1.858  0.4020 -0.6185  0.3028
 4843SOL    HW125988   1.366   1.453   1.818  0.1730 -2.2158 -0.0134
 4843SOL    HW225989   1.247   1.540   1.822 -0.3082  0.3483  3.0997
 4844SOL     OW25990   2.604   4.605   9.892 -0.2532  0.6718 -0.0549
 4844SOL    HW125991   2.661   4.546   9.942  0.6649 -0.9400 -2.9325
 4844SOL    HW225992   2.546   4.548   9.842  1.6090 -0.4189 -0.9592
 4845SOL     OW25993   0.209   1.926   6.873  0.5241 -0.2330  0.1170
 4845SOL    HW125994   0.297   1.942   6.839 -0.3120  1.7178 -1.1128
 4845SOL    HW225995   0.166   1.917   6.789 -0.3460  2.0350  0.3053
 4846SOL     OW25996   1.241   4.075   5.529  0.0660  0.0823 -0.1755
 4846SOL    HW125997   1.180   4.072   5.602  2.2339 -1.4323  1.6044
 4846SOL    HW225998   1.185   4.032   5.465  0.7135 -0.1364 -0.6035
 4847SOL     OW25999   0.619   1.862   0.921  0.3059 -0.4223  0.1169
 4847SOL    HW126000   0.624   1.931   0.855  0.6449 -2.4244 -1.9598
 4847SOL    HW226001   0.581   1.921   0.986 -0.0718 -0.3263 -0.1841
 4848SOL     OW26002   1.490   0.274   3.423  0.3653  0.1319  0.1901
 4848SOL    HW126003   1.489   0.357   3.472 -1.2392  0.2767 -0.0935
 4848SOL    HW226004   1.565   0.275   3.364  0.0149  3.0646 -0.2063
 4849SOL     OW26005   4.377   1.081   7.340 -0.2463  0.2290 -0.3185
 4849SOL    HW126006   4.422   1.153   7.384  0.5320  0.0260 -0.7914
 4849SOL    HW226007   4.358   1.117   7.253 -3.0662  1.7590  0.9119
 4850SOL     OW26008   2.425   4.284   1.636 -0.1731  0.3863  0.6794
 4850SOL    HW126009   2.435   4.369   1.593 -3.6636  0.7816  0.6254
 4850SOL    HW226010   2.345   4.296   1.687 -0.3438  0.1540  0.4726
 4851SOL     OW26011   1.931   1.075   2.851 -0.2446  0.1027 -0.3967
 4851SOL    HW126012   1.861   1.010   2.853  0.1991 -0.3433  0.4475
 4851SOL    HW226013   1.911   1.111   2.937 -0.0714  1.5580 -0.9617
 4852SOL     OW26014   1.781   1.922   7.636 -0.0758 -0.4126 -0.0332
 4852SOL    HW126015   1.873   1.948   7.633  0.2935 -1.5784  1.2975
 4852SOL    HW226016   1.784   1.826   7.641  1.5407 -0.4311 -1.2536
 4853SOL     OW26017   3.866   0.574  11.764  0.0192  0.5554 -0.0809
 4853SOL    HW126018   3.808   0.507  11.729 -0.5689  0.9779  0.0893
 4853SOL    HW226019   3.952   0.532  11.758  0.2953  0.9884  0.7962
 4854SOL     OW26020   2.523   2.302   6.981  0.4166 -0.0720  0.1705
 4854SOL    HW126021   2.609   2.338   7.005  0.6745 -0.0567 -0.7595
 4854SOL    HW226022   2.520   2.304   6.885  0.1971  1.5433  0.2134
 4855SOL     OW26023   3.465   2.440   5.866 -0.5598  0.4567 -0.2933
 4855SOL    HW126024   3.555   2.441   5.835 -0.5022  1.1196 -0.0926
 4855SOL    HW226025   3.441   2.532   5.875 -0.9566  0.3563 -0.3009
 4856SOL     OW26026   2.748   4.587   0.991  0.1282 -0.1170  0.1857
 4856SOL    HW126027   2.748   4.503   0.945 -0.9805  0.8515 -1.5669
 4856SOL    HW226028   2.714   4.553   1.074 -2.5597 -0.7184 -1.1594
 4857SOL     OW26029   3.987   3.255   6.898 -0.2930 -0.0581 -0.0243
 4857SOL    HW126030   3.943   3.187   6.847 -1.1892 -0.1334  0.8400
 4857SOL    HW226031   3.955   3.226   6.983 -1.1307  1.3224  0.1380
 4858SOL     OW26032   1.429   0.387   9.085  0.1876  0.3162  0.4572
 4858SOL    HW126033   1.349   0.438   9.072 -0.2431 -0.2385  0.9103
 4858SOL    HW226034   1.457   0.417   9.171  0.9986  0.7269  0.0506
 4859SOL     OW26035   0.020   1.026   3.467  0.0923 -0.2215 -0.6420
 4859SOL    HW126036   4.699   0.946   3.438  0.4220 -0.0520 -1.5988
 4859SOL    HW226037   0.070   1.049   3.388 -1.5555 -0.9101 -1.8716
 4860SOL     OW26038   2.634   1.565  13.740  0.2263 -0.4662 -0.7334
 4860SOL    HW126039   2.604   1.547  13.651  2.8182 -1.2552 -1.4600
 4860SOL    HW226040   2.727   1.578  13.719  0.9528 -1.0653  2.0845
 4861SOL     OW26041   3.669   4.215   3.920 -0.2509  0.2167 -0.2497
 4861SOL    HW126042   3.723   4.214   3.841  0.1143  1.3541 -0.0155
 4861SOL    HW226043   3.609   4.145   3.894 -1.6621  1.0642  0.7648
 4862SOL     OW26044   3.820   4.358   9.984  0.7082  0.1493 -0.5967
 4862SOL    HW126045   3.784   4.327  10.067  0.5332  0.5737 -0.5167
 4862SOL    HW226046   3.854   4.281   9.938 -0.0103 -0.2245 -0.4988
 4863SOL     OW26047   0.620   2.392   7.854 -0.4574 -0.2102 -1.0315
 4863SOL    HW126048   0.653   2.446   7.782  0.6680 -2.0871 -1.9044
 4863SOL    HW226049   0.643   2.309   7.813  0.5706  0.8066 -2.5147
 4864SOL     OW26050   2.707   1.276   6.769 -0.3003 -0.6290 -0.7070
 4864SOL    HW126051   2.697   1.265   6.674 -1.2223 -2.0711 -0.4571
 4864SOL    HW226052   2.654   1.354   6.785 -0.9599 -1.2814  0.3236
 4865SOL     OW26053   2.162   4.253   9.069 -0.7796 -0.5054 -0.5102
 4865SOL    HW126054   2.082   4.237   9.019 -1.0822 -1.1626  0.1810
 4865SOL    HW226055   2.154   4.341   9.106 -0.0694  0.3699 -2.4445
 4866SOL     OW26056   2.694   2.457  17.292 -0.2439  0.0434 -0.0761
 4866SOL    HW126057   2.713   2.366  17.267  0.4931  0.0416  0.4691
 4866SOL    HW226058   2.625   2.481  17.231 -0.5825 -1.3546 -0.2480
 4867SOL     OW26059   4.683   0.199   6.045 -0.3548  0.6284 -0.2752
 4867SOL    HW126060   4.634   0.203   5.963  0.7057 -0.0025 -0.9427
 4867SOL    HW226061   4.685   0.294   6.057  1.6839  0.7923 -1.8882
 4868SOL     OW26062   3.335   2.212   6.309 -0.0071 -0.0444  0.2545
 4868SOL    HW126063   3.247   2.222   6.343  0.0591 -0.5894  0.5891
 4868SOL    HW226064   3.396   2.250   6.373 -1.0451 -0.3241  1.4011
 4869SOL     OW26065   1.090   1.887   5.141  0.2694  0.1400 -0.3316
 4869SOL    HW126066   1.110   1.813   5.083  0.1402  1.7241 -2.3922
 4869SOL    HW226067   1.177   1.906   5.176  1.4863 -0.8392 -2.8275
 4870SOL     OW26068   0.815   3.789   9.053  0.0987 -0.7778 -0.0214
 4870SOL    HW126069   0.871   3.734   9.107  0.5793 -1.0824 -0.8193
 4870SOL    HW226070   0.830   3.755   8.964 -1.7260 -1.3881 -0.0972
 4871SOL     OW26071   1.468   1.607  16.546 -0.3945  0.4018 -0.4193
 4871SOL    HW126072   1.469   1.514  16.568 -0.6993  0.3287 -0.7129
 4871SOL    HW226073   1.479   1.636  16.637  1.0185 -0.9437 -0.1560
 4872SOL     OW26074   1.976   2.304   0.264  0.0824 -0.4591  0.6446
 4872SOL    HW126075   2.039   2.233   0.250  1.0864  0.4352  0.6469
 4872SOL    HW226076   1.937   2.302   0.177  0.3781  0.4001  0.5003
 4873SOL     OW26077   1.407   0.536   0.594  0.3237 -0.6850  0.3234
 4873SOL    HW126078   1.456   0.564   0.671 -0.0946 -0.6592  0.5837
 4873SOL    HW226079   1.473   0.482   0.550 -1.4258 -2.2190 -0.4282
 4874SOL     OW26080   3.055   1.387   0.952  0.3590  0.4076 -0.4069
 4874SOL    HW126081   3.148   1.404   0.934  0.3444 -0.5041 -1.3389
 4874SOL    HW226082   3.057   1.294   0.972 -2.2553  0.4601  0.0616
 4875SOL     OW26083   0.472   1.509   1.901  0.0873  0.0344  0.1128
 4875SOL    HW126084   0.556   1.471   1.928  0.0832  1.5331  2.2262
 4875SOL    HW226085   0.435   1.437   1.850  0.4388 -0.3914  0.4576
 4876SOL     OW26086   1.210   1.379   8.990 -0.3032  0.0125  0.7632
 4876SOL    HW126087   1.206   1.466   9.030 -3.2897 -1.0319  2.7484
 4876SOL    HW226088   1.268   1.397   8.916  0.5663  2.8374  2.0996
 4877SOL     OW26089   1.124   4.550   2.916  0.6823  0.0765  0.0751
 4877SOL    HW126090   1.207   4.504   2.925  1.3700  0.7656 -2.7269
 4877SOL    HW226091   1.084   4.549   3.003  0.2808  1.0881 -0.1006
 4878SOL     OW26092   0.276   0.584   2.055 -0.0415  0.2377  0.0729
 4878SOL    HW126093   0.263   0.544   2.141 -0.3056 -2.1081 -1.0704
 4878SOL    HW226094   0.186   0.609   2.037 -0.0803  0.6444  0.8008
 4879SOL     OW26095   0.578   1.372   9.616  0.4369  0.5499 -0.6584
 4879SOL    HW126096   0.562   1.288   9.658 -0.4762  0.5220 -1.0688
 4879SOL    HW226097   0.552   1.429   9.688  1.0214 -0.2352  0.1721
 4880SOL     OW26098   0.114   0.637  15.905  0.1181 -0.3169 -0.2204
 4880SOL    HW126099   0.029   0.630  15.861  0.4570 -0.9619 -0.7664
 4880SOL    HW226100   0.092   0.693  15.981 -0.6054  0.2888 -0.8703
 4881SOL     OW26101   3.874   3.438   4.242  0.0165  0.0983 -0.1538
 4881SOL    HW126102   3.884   3.345   4.221 -3.3776 -0.1986 -0.3740
 4881SOL    HW226103   3.781   3.442   4.220  0.0289  2.5692  0.2354
 4882SOL     OW26104   0.012   2.590   2.462 -0.3010 -0.0374 -0.0779
 4882SOL    HW126105   4.666   2.599   2.395  1.5311  0.8983 -1.7976
 4882SOL    HW226106   0.051   2.506   2.439  1.8037  0.6694  0.9370
 4883SOL     OW26107   0.752   3.690   5.429  0.3605  0.3198  0.2396
 4883SOL    HW126108   0.811   3.646   5.489 -1.2731 -0.3750  1.3303
 4883SOL    HW226109   0.666   3.664   5.461 -0.6573  0.2760 -2.5173
 4884SOL     OW26110   3.075   3.698  14.022 -0.0960  0.2776 -0.8395
 4884SOL    HW126111   3.076   3.637  13.949 -0.0408 -1.8633  0.9382
 4884SOL    HW226112   2.981   3.705  14.041 -0.4733  0.5719 -2.8577
 4885SOL     OW26113   0.230   2.726   1.729 -0.4694  0.2897 -0.0130
 4885SOL    HW126114   0.267   2.738   1.816  1.5164 -1.7734 -0.5863
 4885SOL    HW226115   0.140   2.694   1.731 -0.6647  0.7623 -1.2638
 4886SOL     OW26116   2.595   4.520   8.857 -0.2441  0.1447  0.0626
 4886SOL    HW126117   2.606   4.480   8.943 -0.4000 -0.9858 -0.4455
 4886SOL    HW226118   2.680   4.499   8.818  0.3454  0.3874  1.1964
 4887SOL     OW26119   0.095   0.966  12.243  0.0283 -0.0112  0.7291
 4887SOL    HW126120   0.105   0.895  12.180 -0.4284  1.3389 -0.8643
 4887SOL    HW226121   0.145   0.945  12.322  1.0374 -0.3626 -0.0022
 4888SOL     OW26122   4.138   2.273   0.029 -0.1470  0.0314 -0.0936
 4888SOL    HW126123   4.076   2.230  17.656 -0.2629  0.8017 -0.5214
 4888SOL    HW226124   4.189   2.194   0.046  1.2193  1.2391  1.3717
 4889SOL     OW26125   3.339   3.278   2.712  0.4006  0.0218  0.1307
 4889SOL    HW126126   3.415   3.285   2.769  1.2663  0.2552 -1.0464
 4889SOL    HW226127   3.381   3.301   2.629  1.8724 -2.3301  0.2270
 4890SOL     OW26128   3.304   1.733   7.044  0.9251 -0.5089 -0.2193
 4890SOL    HW126129   3.378   1.740   7.104  1.3612 -1.6641 -0.6281
 4890SOL    HW226130   3.247   1.798   7.087  1.0372  0.6414 -1.8006
 4891SOL     OW26131   0.716   0.932   5.494 -0.2139 -0.3159  0.4801
 4891SOL    HW126132   0.772   0.949   5.418 -1.1543  0.4577 -0.0507
 4891SOL    HW226133   0.670   0.850   5.478  0.3969 -0.7776  1.0772
 4892SOL     OW26134   3.405   1.863   3.026  0.4638 -0.4819  0.4879
 4892SOL    HW126135   3.491   1.894   2.999 -0.2668 -0.7605 -2.1706
 4892SOL    HW226136   3.354   1.909   2.959  0.4027 -1.0468  0.1397
 4893SOL     OW26137   4.215   3.121  10.337  0.1610 -0.1573  0.2359
 4893SOL    HW126138   4.249   3.097  10.423  0.0183  0.9513  0.5978
 4893SOL    HW226139   4.135   3.170  10.358  1.8421  1.5611  2.5309
 4894SOL     OW26140   4.371   3.201  14.195  0.4243 -0.3085 -0.3618
 4894SOL    HW126141   4.430   3.133  14.162  2.0006  0.4691  0.8823
 4894SOL    HW226142   4.441   3.250  14.238 -0.2870 -0.5758  1.1000
 4895SOL     OW26143   2.699   2.569   6.860  0.0498 -0.0466 -0.0158
 4895SOL    HW126144   2.703   2.489   6.912  1.1404 -1.6306 -2.5439
 4895SOL    HW226145   2.773   2.622   6.889 -0.8702  1.6059 -0.6992
 4896SOL     OW26146   3.157   4.653  16.114  0.4631 -0.5905  1.0031
 4896SOL    HW126147   3.063   4.648  16.132  0.1661  0.1373 -0.3333
 4896SOL    HW226148   3.147   4.626  16.022  0.1533  0.1929  0.8010
 4897SOL     OW26149   3.867   1.403   5.031 -0.0038  0.2226  0.2768
 4897SOL    HW126150   3.958   1.375   5.038  0.5002  2.1221  1.2611
 4897SOL    HW226151   3.820   1.325   5.061 -0.1103 -0.3570 -1.4452
 4898SOL     OW26152   2.194   1.095  11.632  0.4081 -0.0119  0.1166
 4898SOL    HW126153   2.235   1.161  11.577  1.3519  1.5926  2.7550
 4898SOL    HW226154   2.259   1.027  11.647  0.4466 -0.3864 -1.8081
 4899SOL     OW26155   2.109   3.688   2.511  0.0307  0.0468  0.5049
 4899SOL    HW126156   2.192   3.669   2.555  0.6044  0.2162 -0.5135
 4899SOL    HW226157   2.146   3.723   2.430  0.9166 -1.1532  0.3788
 4900SOL     OW26158   1.443   0.614   5.226 -0.0908  0.0359 -0.2286
 4900SOL    HW126159   1.476   0.687   5.279  0.9632 -0.4759 -0.1920
 4900SOL    HW226160   1.348   0.627   5.225  0.1933  2.0419  0.5445
 4901SOL     OW26161   1.225   1.217  12.193  0.6889 -0.1208  0.3706
 4901SOL    HW126162   1.183   1.278  12.253 -0.5665  0.2257 -0.8679
 4901SOL    HW226163   1.268   1.275  12.130  0.1378 -0.3203 -0.1870
 4902SOL     OW26164   0.577   0.749   4.468 -0.1825  0.1690 -0.0829
 4902SOL    HW126165   0.665   0.716   4.485 -0.1608  0.5399  0.5304
 4902SOL    HW226166   0.529   0.669   4.447  3.2915 -1.8677 -0.3198
 4903SOL     OW26167   3.517   1.110   1.976  0.1647  0.1646 -0.5045
 4903SOL    HW126168   3.609   1.120   1.951  0.2054  1.4668  0.1819
 4903SOL    HW226169   3.478   1.189   1.938  1.2325  0.3154 -1.2961
 4904SOL     OW26170   0.774   2.853  14.301 -0.2726 -0.7790  0.1794
 4904SOL    HW126171   0.711   2.803  14.352 -0.8484  0.9003  1.1224
 4904SOL    HW226172   0.772   2.943  14.334  0.4555 -1.0743  1.0399
 4905SOL     OW26173   1.272   4.124   2.150  0.4812 -0.1336  0.3370
 4905SOL    HW126174   1.205   4.066   2.113  3.0492 -3.3846  0.8338
 4905SOL    HW226175   1.214   4.175   2.207  0.2944 -2.2114  1.9994
 4906SOL     OW26176   0.557   4.720  12.032  0.3492 -0.5232 -0.4188
 4906SOL    HW126177   0.466   0.008  12.004  0.1805 -2.3490 -0.4426
 4906SOL    HW226178   0.539   0.030  12.121 -2.0973 -1.1349 -0.6984
 4907SOL     OW26179   2.115   4.692   9.439  0.3438  0.2753  0.1229
 4907SOL    HW126180   2.132   0.044   9.498 -1.3312  0.5206  0.2986
 4907SOL    HW226181   2.105   0.014   9.354  0.0498 -1.0261 -0.5053
 4908SOL     OW26182   1.078   1.514   6.440  0.2664  0.0299 -0.0661
 4908SOL    HW126183   1.013   1.469   6.387  1.1078  0.1372 -1.1754
 4908SOL    HW226184   1.019   1.589   6.455  0.8341  0.2798  0.9516
 4909SOL     OW26185   3.515   2.917   2.278  0.1216 -0.5908 -0.0167
 4909SOL    HW126186   3.468   2.993   2.243 -0.3197 -1.4339 -1.2448
 4909SOL    HW226187   3.463   2.852   2.230  0.5455 -2.5205  2.1672
 4910SOL     OW26188   3.514   0.114   3.199 -0.2551 -0.3398 -0.1135
 4910SOL    HW126189   3.481   0.050   3.262  1.0628  0.8986  1.8077
 4910SOL    HW226190   3.603   0.087   3.178 -0.1853  0.2837 -0.6235
 4911SOL     OW26191   4.407   0.487  10.798 -0.0113  0.1907  0.2901
 4911SOL    HW126192   4.349   0.560  10.781  0.3651  0.7557  1.4500
 4911SOL    HW226193   4.491   0.519  10.830  0.3168  2.1584 -2.5674
 4912SOL     OW26194   0.122   4.336   2.125  0.0314 -0.2784 -0.1443
 4912SOL    HW126195   0.149   4.245   2.110 -1.7651 -0.7590 -0.4092
 4912SOL    HW226196   0.199   4.367   2.172  0.9276 -0.7339 -1.2898
 4913SOL     OW26197   3.840   0.616   5.567  0.4253 -0.5135  0.1981
 4913SOL    HW126198   3.793   0.533   5.550 -1.6708  0.5063  1.0028
 4913SOL    HW226199   3.853   0.648   5.478  2.2420  1.5251  1.2111
 4914SOL     OW26200   4.440   1.697   0.181 -0.0456  0.3320 -0.0998
 4914SOL    HW126201   4.509   1.728   0.122 -0.5458  1.1070 -0.2807
 4914SOL    HW226202   4.410   1.619   0.135  1.1448 -0.1597 -0.0188
 4915SOL     OW26203   3.532   0.501   9.172  0.1033  0.1726 -0.5140
 4915SOL    HW126204   3.537   0.485   9.078  1.2653 -1.7119 -0.1238
 4915SOL    HW226205   3.438   0.508   9.188  0.1290 -2.6804  0.8654
 4916SOL     OW26206   3.126   2.023   4.348 -0.2126 -0.0222  0.3404
 4916SOL    HW126207   3.049   1.967   4.359  0.3288 -0.5261  1.5026
 4916SOL    HW226208   3.161   2.008   4.436  1.2155 -0.1440 -0.2595
 4917SOL     OW26209   4.638   1.782   3.864 -0.5079 -0.1326  0.1917
 4917SOL    HW126210   4.554   1.816   3.897 -0.2930  0.2669  0.3236
 4917SOL    HW226211   4.623   1.763   3.771 -0.5493 -1.1554  0.4140
 4918SOL     OW26212   1.561   2.502   7.470  0.1587 -0.2057 -0.0446
 4918SOL    HW126213   1.598   2.588   7.453 -0.2551  0.4245  2.3162
 4918SOL    HW226214   1.469   2.502   7.444  1.1005  1.5750 -3.4425
 4919SOL     OW26215   4.078   4.403   8.264  0.1443 -0.2932 -0.1489
 4919SOL    HW126216   4.075   4.365   8.176 -1.1899 -0.6781  0.0589
 4919SOL    HW226217   4.029   4.486   8.256  0.9533  0.0571 -1.6001
 4920SOL     OW26218   4.180   3.153  15.045 -0.2942  0.2680 -0.1884
 4920SOL    HW126219   4.173   3.229  15.102  1.6769 -0.0245  0.4505
 4920SOL    HW226220   4.139   3.083  15.096 -1.8133  0.5463 -1.0107
 4921SOL     OW26221   3.715   2.173   7.550  0.1856  0.0272 -0.1319
 4921SOL    HW126222   3.786   2.226   7.587  0.1936 -0.5125  0.6335
 4921SOL    HW226223   3.671   2.249   7.513  0.3557 -0.1151 -0.6219
 4922SOL     OW26224   4.122   3.350   0.197 -0.1578 -0.4224 -0.0746
 4922SOL    HW126225   4.125   3.304   0.280  0.4089 -2.2699 -1.1086
 4922SOL    HW226226   4.122   3.279   0.132 -0.4516  1.4026 -2.0870
 4923SOL     OW26227   1.622   4.404   0.118 -0.3014 -0.0697 -0.1239
 4923SOL    HW126228   1.553   4.386   0.182  0.8688 -1.7603  0.6543
 4923SOL    HW226229   1.668   4.468   0.172  1.7061 -2.0195  0.4816
 4924SOL     OW26230   4.284   0.143   6.986 -0.2307  0.7293  1.0358
 4924SOL    HW126231   4.324   0.206   7.047  0.5638  0.8221  0.4186
 4924SOL    HW226232   4.355   0.108   6.932 -2.2139  0.3358 -1.3193
 4925SOL     OW26233   1.868   1.910   0.509 -0.2380  0.2215  0.1710
 4925SOL    HW126234   1.883   2.002   0.487  0.3357  0.0456 -0.1943
 4925SOL    HW226235   1.865   1.913   0.604  1.9081 -0.1373  0.2411
 4926SOL     OW26236   2.391   2.115   6.116  0.5051 -0.2152  0.4818
 4926SOL    HW126237   2.438   2.198   6.106 -2.0731  1.3898  1.7169
 4926SOL    HW226238   2.389   2.116   6.211 -0.1871 -4.1754  0.5142
 4927SOL     OW26239   4.189   0.873  13.495 -0.4876  0.1955  0.0331
 4927SOL    HW126240   4.099   0.842  13.487 -0.8470  0.8935  1.3140
 4927SOL    HW226241   4.234   0.808  13.550 -1.1920 -0.6264 -0.3727
 4928SOL     OW26242   1.296   0.100   5.101 -0.0354 -0.4641  0.2837
 4928SOL    HW126243   1.258   0.133   5.183  0.1406  1.3232 -0.3596
 4928SOL    HW226244   1.223   0.111   5.041  3.6148 -0.9840 -4.2137
 4929SOL     OW26245   2.407   4.124  14.572  0.4542 -0.0519 -0.4053
 4929SOL    HW126246   2.318   4.094  14.551  0.6366 -0.8405 -0.0338
 4929SOL    HW226247   2.407   4.100  14.664 -1.8774  1.8641  0.0932
 4930SOL     OW26248   1.943   2.718   5.279  0.2320 -0.2780 -0.0793
 4930SOL    HW126249   1.874   2.660   5.310 -2.1797  2.3416 -0.5739
 4930SOL    HW226250   1.964   2.774   5.353  1.9480  0.7182 -1.3131
 4931SOL     OW26251   1.517   2.616   1.609  0.5627  0.2476  0.4763
 4931SOL    HW126252   1.449   2.659   1.660  0.4249  0.2928  0.2566
 4931SOL    HW226253   1.524   2.683   1.540  2.1588 -0.3111  0.0872
 4932SOL     OW26254   0.312   3.891   3.238 -0.1713  0.2223  1.1273
 4932SOL    HW126255   0.359   3.952   3.181 -2.4858  0.6533 -0.3314
 4932SOL    HW226256   0.342   3.811   3.194 -0.8167  0.8518 -0.4718
 4933SOL     OW26257   2.832   2.689   1.377 -0.6629 -0.2468 -0.6046
 4933SOL    HW126258   2.821   2.646   1.292 -1.4824  0.2756 -0.7661
 4933SOL    HW226259   2.747   2.680   1.420  0.2960  0.5834  1.4420
 4934SOL     OW26260   1.389   4.063   8.106 -0.0965  0.2071  0.3086
 4934SOL    HW126261   1.398   4.014   8.188 -0.9988  2.4236  1.7271
 4934SOL    HW226262   1.456   4.032   8.045 -0.0368 -1.6393  1.3104
 4935SOL     OW26263   3.351   2.018   9.100 -0.3217  0.3732  0.0810
 4935SOL    HW126264   3.269   2.034   9.053  0.0026 -0.3084 -0.7374
 4935SOL    HW226265   3.329   2.029   9.192  0.5928  1.0331  0.2136
 4936SOL     OW26266   0.601   1.415   6.947 -0.1005 -0.1278  0.5721
 4936SOL    HW126267   0.567   1.391   7.033  1.1088  1.7198  1.5476
 4936SOL    HW226268   0.519   1.392   6.902  0.7230 -0.8238 -0.5794
 4937SOL     OW26269   0.018   4.448   4.606  0.0251 -0.0303 -0.7293
 4937SOL    HW126270   0.095   4.402   4.640 -0.2976 -0.4094 -0.5075
 4937SOL    HW226271   4.683   4.385   4.560  1.7706 -1.2650 -1.1859
 4938SOL     OW26272   4.073   0.620   5.688  0.2714 -0.2834 -0.5662
 4938SOL    HW126273   3.984   0.608   5.654  0.6246  0.0296 -1.6288
 4938SOL    HW226274   4.130   0.640   5.614 -2.8896 -0.2803 -3.0126
 4939SOL     OW26275   3.789   0.885  13.506 -0.4822 -0.0794 -0.6364
 4939SOL    HW126276   3.819   0.942  13.436  0.4476 -0.8996 -0.8895
 4939SOL    HW226277   3.833   0.803  13.489 -0.5708 -0.0095 -1.1918
 4940SOL     OW26278   1.974   3.063  11.255  0.1255  0.1725  0.1669
 4940SOL    HW126279   1.917   3.125  11.209  1.5868  1.9192  0.6982
 4940SOL    HW226280   1.965   2.985  11.201  0.9406  0.9901 -1.1491
 4941SOL     OW26281   0.758   2.914   6.419  0.2265 -0.0518 -0.0588
 4941SOL    HW126282   0.744   2.850   6.489  1.8185 -0.6194 -0.2760
 4941SOL    HW226283   0.826   2.973   6.453  0.6901 -0.8064  0.3107
 4942SOL     OW26284   4.486   1.614   2.392 -0.0356  0.1192  0.3425
 4942SOL    HW126285   4.402   1.613   2.347 -0.6273 -1.3543  1.5039
 4942SOL    HW226286   4.499   1.708   2.378 -0.8595  0.5309  2.4552
 4943SOL     OW26287   1.252   3.143   6.179 -0.1714 -0.5320  1.0918
 4943SOL    HW126288   1.278   3.085   6.107 -2.7018 -1.8130  1.1933
 4943SOL    HW226289   1.190   3.206   6.141  1.6015  0.8002  0.4285
 4944SOL     OW26290   3.285   1.749   4.321 -0.2834 -0.0151  0.2163
 4944SOL    HW126291   3.229   1.749   4.243 -0.5990  1.6130  0.4454
 4944SOL    HW226292   3.323   1.662   4.333  1.7943  0.8880  0.2653
 4945SOL     OW26293   4.227   2.248   1.764  0.1508  0.0733  0.1083
 4945SOL    HW126294   4.182   2.324   1.728  4.0667  0.5470 -3.8574
 4945SOL    HW226295   4.214   2.187   1.692 -0.4960 -0.8987  1.0487
 4946SOL     OW26296   1.719   2.510   1.903  0.4671 -0.2787  0.4965
 4946SOL    HW126297   1.780   2.437   1.914  0.6954 -0.3782 -1.4013
 4946SOL    HW226298   1.777   2.585   1.915  1.3346 -0.7387 -0.8846
 4947SOL     OW26299   0.659   2.870   0.143  0.1735  0.3782  0.1190
 4947SOL    HW126300   0.594   2.872   0.214 -0.9831 -0.6336 -0.9011
 4947SOL    HW226301   0.700   2.785   0.161 -0.6887 -0.1577 -0.3934
 4948SOL     OW26302   2.727   2.692  14.084 -0.2071  0.3660 -0.0026
 4948SOL    HW126303   2.762   2.775  14.117  2.5197 -1.1807  0.9087
 4948SOL    HW226304   2.692   2.656  14.165 -1.8081  0.2043 -0.7500
 4949SOL     OW26305   0.066   0.439   0.347 -0.0342  0.0249  0.0767
 4949SOL    HW126306   0.090   0.491   0.270  1.2992 -0.0849  0.4220
 4949SOL    HW226307   0.048   0.352   0.312  0.4677 -0.1441  0.2359
 4950SOL     OW26308   2.441   1.531   4.336  0.2722  0.1064 -0.3603
 4950SOL    HW126309   2.529   1.495   4.344  0.0205 -0.5089 -0.3254
 4950SOL    HW226310   2.451   1.581   4.255  2.2613  0.2675 -0.0084
 4951SOL     OW26311   0.751   1.256   3.585  0.3257 -0.2869 -0.0174
 4951SOL    HW126312   0.771   1.331   3.529 -1.4229  0.3823  0.2260
 4951SOL    HW226313   0.842   1.247   3.612  0.4093 -0.3942 -0.3290
 4952SOL     OW26314   3.041   2.730  12.490  0.0352  0.4224  1.0069
 4952SOL    HW126315   3.069   2.641  12.469  1.9827  1.1476  0.5307
 4952SOL    HW226316   3.051   2.786  12.412  2.6423 -1.2730  0.1346
 4953SOL     OW26317   1.701   1.083   4.348 -0.0830  0.3900 -0.0915
 4953SOL    HW126318   1.739   1.171   4.344  0.4560  0.0670 -2.7148
 4953SOL    HW226319   1.626   1.099   4.404 -0.7372 -0.6567 -0.6755
 4954SOL     OW26320   2.716   2.646   5.914  0.2435 -0.0440 -0.0570
 4954SOL    HW126321   2.762   2.562   5.921  0.1367 -0.0976  0.0088
 4954SOL    HW226322   2.639   2.627   5.861  1.4767 -0.3770 -1.7434
 4955SOL     OW26323   2.638   0.753   7.279 -0.0666  0.2773 -0.0266
 4955SOL    HW126324   2.664   0.786   7.194 -0.2837 -2.2657 -1.0892
 4955SOL    HW226325   2.580   0.683   7.250  0.1650  0.3756 -0.7303
 4956SOL     OW26326   2.897   2.895  10.521 -0.4844 -0.3351  0.5627
 4956SOL    HW126327   2.943   2.832  10.466  2.7190  2.1370  0.3977
 4956SOL    HW226328   2.959   2.923  10.588 -0.2230  1.0186 -0.2252
 4957SOL     OW26329   0.689   4.078   5.146 -0.0060 -0.2128  0.5456
 4957SOL    HW126330   0.734   3.993   5.150 -2.8592 -1.9326 -2.7852
 4957SOL    HW226331   0.700   4.118   5.232 -0.4615  0.2726  0.3766
 4958SOL     OW26332   1.953   1.062   7.589  0.1964 -0.3716 -0.6526
 4958SOL    HW126333   1.925   1.062   7.680  1.6072  2.0716 -0.2245
 4958SOL    HW226334   2.016   0.989   7.587 -0.4095 -0.9217  0.6392
 4959SOL     OW26335   0.678   3.071   7.192  0.0426  0.4039  0.3499
 4959SOL    HW126336   0.708   2.999   7.248  1.4179 -0.4801 -1.5263
 4959SOL    HW226337   0.764   3.099   7.161 -0.4427 -0.8786 -2.1288
 4960SOL     OW26338   3.749   0.341   7.351  0.2014  0.0879 -0.8580
 4960SOL    HW126339   3.829   0.300   7.319  0.3811 -2.6106  3.0035
 4960SOL    HW226340   3.719   0.271   7.409  0.9625  0.8708  0.4826
 4961SOL     OW26341   3.265   0.403   7.664  0.1616 -0.2723 -0.1079
 4961SOL    HW126342   3.350   0.384   7.625 -0.6498 -0.6271 -1.6781
 4961SOL    HW226343   3.252   0.491   7.627 -2.1005 -0.0393  1.2168
 4962SOL     OW26344   0.130   1.374   9.528  0.0803  0.5145 -0.0109
 4962SOL    HW126345   0.169   1.459   9.505 -0.3661  0.5430 -0.6354
 4962SOL    HW226346   0.179   1.370   9.611 -1.9635 -0.1794  1.1684
 4963SOL     OW26347   2.440   0.208   6.974 -0.5852 -0.1669  0.2619
 4963SOL    HW126348   2.536   0.216   6.978 -0.4518 -0.5198 -2.1326
 4963SOL    HW226349   2.425   0.152   6.898 -0.5957 -1.9869  1.6166
 4964SOL     OW26350   2.314   4.497   3.034  0.2356 -0.4988  0.5987
 4964SOL    HW126351   2.277   4.415   3.003  0.7357 -0.6581  0.4169
 4964SOL    HW226352   2.242   4.556   3.057  0.2296 -1.5018  3.1112
 4965SOL     OW26353   0.152   4.081   9.521 -0.0679 -0.0325 -0.0647
 4965SOL    HW126354   0.222   4.137   9.486 -0.6855  1.1350  0.5780
 4965SOL    HW226355   0.142   4.122   9.607  1.1093  0.1499 -0.0112
 4966SOL     OW26356   4.428   1.737   4.483 -0.4540  0.0526 -0.1864
 4966SOL    HW126357   4.361   1.741   4.415  0.2230 -0.4642 -0.8796
 4966SOL    HW226358   4.379   1.687   4.548  1.4591  0.6515  1.7298
 4967SOL     OW26359   1.771   0.966   8.938  0.4070 -0.1190 -0.3466
 4967SOL    HW126360   1.792   0.936   8.849  3.7737 -3.1948  1.4784
 4967SOL    HW226361   1.847   1.021   8.957  1.2376 -1.4871  0.3058
 4968SOL     OW26362   4.225   1.969   2.373  0.2521  0.5557  0.1745
 4968SOL    HW126363   4.139   1.929   2.362  0.5896 -0.1883  0.2632
 4968SOL    HW226364   4.213   2.063   2.358  0.2052  0.4898 -0.1958
 4969SOL     OW26365   4.263   2.446   7.264  0.3823  0.3628 -0.6354
 4969SOL    HW126366   4.331   2.509   7.286  0.5583 -0.3303  0.8541
 4969SOL    HW226367   4.254   2.404   7.350  0.3842  0.2909 -0.6700
 4970SOL     OW26368   4.243   1.911   5.815 -0.8823 -0.0215  0.3915
 4970SOL    HW126369   4.194   1.923   5.896 -0.4456  1.3434  0.4573
 4970SOL    HW226370   4.283   1.998   5.806  0.8478 -1.2058 -3.4192
 4971SOL     OW26371   3.169   3.082   2.671  0.2063  0.4465 -0.0208
 4971SOL    HW126372   3.104   3.118   2.611 -0.7984 -0.7952  0.3304
 4971SOL    HW226373   3.229   3.153   2.693  0.4208  0.5870 -1.0738
 4972SOL     OW26374   0.531   0.571   9.996  0.1030 -0.2108  0.1555
 4972SOL    HW126375   0.594   0.524  10.051  0.4713 -0.0668 -0.1457
 4972SOL    HW226376   0.601   0.612   9.946 -0.2364  0.7942  0.5127
 4973SOL     OW26377   0.955   2.878  12.060 -0.4265  0.3146  0.7822
 4973SOL    HW126378   0.971   2.803  12.003 -0.7464  0.1731  0.8769
 4973SOL    HW226379   0.972   2.952  12.002 -1.9741  0.0326 -0.0663
 4974SOL     OW26380   0.577   1.705   6.564  0.1655  0.2940  0.1499
 4974SOL    HW126381   0.597   1.691   6.471 -0.6118 -2.3563  0.3934
 4974SOL    HW226382   0.623   1.634   6.609 -2.8841  0.1527  3.0264
 4975SOL     OW26383   3.366   2.496  14.630 -0.0242  0.0549  0.3878
 4975SOL    HW126384   3.319   2.414  14.645  0.2562 -0.6637 -2.6830
 4975SOL    HW226385   3.323   2.529  14.551 -0.4995 -1.6818 -0.0752
 4976SOL     OW26386   3.798   0.606   3.583  0.1282  0.2902 -0.3347
 4976SOL    HW126387   3.722   0.664   3.585 -0.7391 -0.8637  0.2542
 4976SOL    HW226388   3.867   0.669   3.561  1.8154 -1.6414 -0.6286
 4977SOL     OW26389   0.561   2.210   4.636  0.0213 -0.1322  0.0111
 4977SOL    HW126390   0.485   2.264   4.613 -0.0064 -0.5273 -0.8035
 4977SOL    HW226391   0.525   2.126   4.664  1.8515 -1.4773 -1.6814
 4978SOL     OW26392   0.812   4.144  11.300  0.1677 -0.1445  0.0734
 4978SOL    HW126393   0.749   4.168  11.368  0.0611  2.1407 -0.8496
 4978SOL    HW226394   0.874   4.217  11.308  0.0050 -0.0439  0.4162
 4979SOL     OW26395   3.736   3.745   1.982 -0.1590  0.4104  0.2931
 4979SOL    HW126396   3.771   3.658   1.967  1.6864  1.3033 -0.5478
 4979SOL    HW226397   3.818   3.791   1.964 -0.2078  0.5517  0.4316
 4980SOL     OW26398   2.603   1.192   1.926  0.1866 -0.4758  0.7848
 4980SOL    HW126399   2.650   1.109   1.916 -1.3981 -1.3846  0.9664
 4980SOL    HW226400   2.512   1.163   1.918 -0.4867  1.7985  0.1463
 4981SOL     OW26401   0.068   4.054   6.959  0.2991 -0.1619  0.0421
 4981SOL    HW126402   0.121   4.105   7.020 -0.3464  0.9271 -0.3190
 4981SOL    HW226403   4.721   4.120   6.952  1.3208  1.0338  1.2331
 4982SOL     OW26404   3.107   2.897  12.266  0.4675 -0.0040  0.5389
 4982SOL    HW126405   3.134   2.988  12.274 -1.9528  0.7451 -0.1066
 4982SOL    HW226406   3.016   2.921  12.253  0.8052  0.4771 -0.8569
 4983SOL     OW26407   0.863   2.749  13.416  0.2605  0.5769 -0.3046
 4983SOL    HW126408   0.798   2.684  13.391  0.0930 -0.1915  2.1529
 4983SOL    HW226409   0.809   2.820  13.451  0.1781  0.0486  0.6206
 4984SOL     OW26410   4.228   4.221   5.978 -0.4846 -0.1620 -0.1043
 4984SOL    HW126411   4.179   4.147   5.943 -0.2881 -0.2520 -0.1907
 4984SOL    HW226412   4.156   4.281   5.999  0.8070  1.1660  0.5255
 4985SOL     OW26413   2.554   0.581   1.445 -0.3647 -0.0407  0.2321
 4985SOL    HW126414   2.552   0.521   1.520 -0.4973  1.2045  1.2292
 4985SOL    HW226415   2.478   0.635   1.467  0.0047  0.4361  0.3508
 4986SOL     OW26416   2.666   4.267   4.867  0.1437  0.9908  0.3987
 4986SOL    HW126417   2.576   4.271   4.901  0.0313  2.6335 -0.1125
 4986SOL    HW226418   2.692   4.175   4.863  0.5779  1.1325 -0.0067
 4987SOL     OW26419   2.067   4.606   3.071  0.0968  0.1677  0.1566
 4987SOL    HW126420   2.047   4.585   2.980 -0.2643  1.4447 -0.0544
 4987SOL    HW226421   2.005   4.678   3.084  0.2495  0.1713  0.8729
 4988SOL     OW26422   3.979   0.443   6.998 -0.3721 -0.5846 -0.0129
 4988SOL    HW126423   4.006   0.379   6.932 -0.2323 -0.1045 -0.4157
 4988SOL    HW226424   4.065   0.471   7.030  0.0065 -0.3637 -1.2275
 4989SOL     OW26425   2.228   1.790   3.124  0.5184  0.0942  0.6828
 4989SOL    HW126426   2.287   1.810   3.052 -1.4078  2.0899 -0.3630
 4989SOL    HW226427   2.213   1.696   3.121 -0.9774  0.3514 -0.3414
 4990SOL     OW26428   3.270   4.650   9.059  0.7037 -0.6074  0.2739
 4990SOL    HW126429   3.334   4.690   9.116  1.1614 -1.8655  0.6484
 4990SOL    HW226430   3.330   4.622   8.989  0.6495 -0.6665  0.2508
 4991SOL     OW26431   3.075   3.899   8.456 -0.4870  0.0396 -0.2755
 4991SOL    HW126432   3.003   3.842   8.481 -0.5576 -0.2808 -1.2161
 4991SOL    HW226433   3.120   3.855   8.383  2.0721  0.1900  1.2037
 4992SOL     OW26434   1.303   1.094   1.410 -0.0781  0.5463  0.0064
 4992SOL    HW126435   1.304   1.011   1.458 -1.1755  0.2362 -0.5123
 4992SOL    HW226436   1.379   1.076   1.354 -1.6773 -1.3505 -1.5777
 4993SOL     OW26437   2.187   3.992   9.339  0.0987 -0.4080 -0.0949
 4993SOL    HW126438   2.121   3.939   9.296 -0.6119 -0.4168  1.0178
 4993SOL    HW226439   2.244   4.014   9.266 -0.0028 -0.9282 -0.3237
 4994SOL     OW26440   1.111   4.370   1.127  0.3513 -0.5046 -0.1627
 4994SOL    HW126441   1.116   4.440   1.192  1.0625 -0.5699 -0.1522
 4994SOL    HW226442   1.030   4.399   1.086 -0.9576 -0.8714  2.1573
 4995SOL     OW26443   0.300   0.445   3.940  0.7817  0.1595  0.0181
 4995SOL    HW126444   0.284   0.518   3.880 -0.8581  1.4560  2.0203
 4995SOL    HW226445   0.295   0.377   3.873  0.5861 -0.0418  0.2366
 4996SOL     OW26446   1.627   3.062   6.054  0.2262 -0.0883  0.4267
 4996SOL    HW126447   1.665   3.083   6.139 -2.1621  2.1005  0.9447
 4996SOL    HW226448   1.579   2.982   6.071  1.2347 -0.1772  2.8247
 4997SOL     OW26449   2.605   1.647   9.835 -0.3084 -0.0543  0.1913
 4997SOL    HW126450   2.518   1.615   9.859  0.0113 -0.8280  0.3099
 4997SOL    HW226451   2.586   1.659   9.742  1.7726  0.2633 -0.1955
 4998SOL     OW26452   3.432   2.256   5.455  1.0100 -0.5564 -0.4127
 4998SOL    HW126453   3.441   2.250   5.550  1.7637  4.1040 -0.2123
 4998SOL    HW226454   3.388   2.173   5.435  1.7692 -1.0184 -0.1696
 4999SOL     OW26455   4.446   1.270  15.509 -0.1890 -0.3087 -0.1901
 4999SOL    HW126456   4.483   1.222  15.583  0.8521  1.8568  0.6949
 4999SOL    HW226457   4.392   1.339  15.549 -1.3108 -0.7147 -1.0059
 5000SOL     OW26458   3.283   0.673  12.148 -0.4775  1.0966  0.3029
 5000SOL    HW126459   3.372   0.651  12.177  0.4301  2.2035 -1.6187
 5000SOL    HW226460   3.258   0.719  12.228  1.6528 -0.1377  1.7000
 5001SOL     OW26461   4.239   2.366  16.979 -0.1539  0.3058 -0.6353
 5001SOL    HW126462   4.293   2.287  16.984 -0.7468 -0.1050 -0.7615
 5001SOL    HW226463   4.189   2.358  17.061  0.3620 -0.8057 -0.4346
 5002SOL     OW26464   3.098   1.724   2.801  0.3248  0.0828 -0.7089
 5002SOL    HW126465   3.106   1.680   2.885 -0.6829 -0.0712 -0.6944
 5002SOL    HW226466   3.181   1.698   2.761  0.8090  0.8762 -0.2038
 5003SOL     OW26467   2.050   2.333   3.573  0.3546 -0.2356 -0.2026
 5003SOL    HW126468   2.070   2.315   3.481  0.5440  0.8075 -0.3567
 5003SOL    HW226469   1.955   2.349   3.571  0.5838  1.2224  0.4667
 5004SOL     OW26470   2.870   2.851   5.007  0.6137 -0.5758  0.5999
 5004SOL    HW126471   2.778   2.827   4.991  1.5470 -1.3113 -3.5345
 5004SOL    HW226472   2.851   2.934   5.050 -1.5339 -0.5134 -0.4532
 5005SOL     OW26473   4.183   1.729  17.659  0.4714 -0.1565  0.3183
 5005SOL    HW126474   4.214   1.691  17.577 -1.1950  2.4107 -1.5072
 5005SOL    HW226475   4.149   1.648   0.009 -0.2683  0.4082  0.8949
 5006SOL     OW26476   3.563   1.908   7.647 -1.1005 -0.1552  0.2981
 5006SOL    HW126477   3.622   1.853   7.597 -0.4884  1.4260 -0.7159
 5006SOL    HW226478   3.615   1.988   7.647 -0.0456 -0.8417  0.9640
 5007SOL     OW26479   2.388   1.832   7.171 -0.2679 -0.3212  0.0305
 5007SOL    HW126480   2.472   1.839   7.216  0.2763  3.0045 -1.5146
 5007SOL    HW226481   2.403   1.902   7.107  0.2158 -0.6544 -0.2189
 5008SOL     OW26482   4.276   0.159   9.048 -0.3486  1.2202  0.1017
 5008SOL    HW126483   4.344   0.110   9.001  0.0185  1.1614  0.6888
 5008SOL    HW226484   4.339   0.194   9.111 -0.5652 -0.2981  1.1614
 5009SOL     OW26485   0.657   3.287   1.801 -0.2382 -0.2074 -0.9397
 5009SOL    HW126486   0.701   3.372   1.803 -0.2023 -0.2639  0.6569
 5009SOL    HW226487   0.571   3.315   1.831  0.3469 -1.6612  2.1160
 5010SOL     OW26488   4.473   3.349   4.797 -0.3337  0.5414  0.1264
 5010SOL    HW126489   4.392   3.322   4.840  0.0387 -1.1139 -0.2010
 5010SOL    HW226490   4.543   3.312   4.851 -0.6513  1.2640  1.0326
 5011SOL     OW26491   2.159   0.871   0.001  0.3483  0.4969  0.2387
 5011SOL    HW126492   2.085   0.925   0.028  0.5966  0.8540  0.2184
 5011SOL    HW226493   2.230   0.936  17.685  2.4693 -1.7243  1.6290
 5012SOL     OW26494   0.515   4.116  11.612 -0.2292 -0.0264 -0.1685
 5012SOL    HW126495   0.527   4.036  11.662  0.9181  0.6501  0.6330
 5012SOL    HW226496   0.421   4.104  11.602 -0.1385 -2.2483  1.6754
 5013SOL     OW26497   4.458   1.768   4.862  0.0781 -0.0010  0.1379
 5013SOL    HW126498   4.505   1.687   4.882 -2.3409 -1.2851  0.5807
 5013SOL    HW226499   4.378   1.753   4.912  0.6123 -0.2951  0.9042
 5014SOL     OW26500   2.028   0.299  10.343  0.0844 -0.5759 -0.5018
 5014SOL    HW126501   2.069   0.383  10.324 -0.4465  0.2680  2.1429
 5014SOL    HW226502   2.018   0.295  10.438 -1.1810  1.1857 -0.5622
 5015SOL     OW26503   3.407   1.215   7.295  0.1447 -0.2300  0.7534
 5015SOL    HW126504   3.413   1.291   7.352 -2.9930  0.4716  0.2023
 5015SOL    HW226505   3.485   1.232   7.242 -1.0940  2.9121 -0.0625
 5016SOL     OW26506   4.472   2.820   3.272  0.3787  0.2258 -0.5771
 5016SOL    HW126507   4.463   2.728   3.247 -0.6302  0.3231 -0.5975
 5016SOL    HW226508   4.567   2.833   3.273  0.6663 -1.9894  1.1655
 5017SOL     OW26509   1.620   0.441   5.475 -0.2017  0.6953  0.1677
 5017SOL    HW126510   1.593   0.368   5.530  1.7131  0.4245  0.7535
 5017SOL    HW226511   1.607   0.401   5.390  2.9571 -0.3585  0.1943
 5018SOL     OW26512   0.778   0.210  10.279 -0.3136  0.3528  0.1548
 5018SOL    HW126513   0.775   0.206  10.375  1.9221 -0.2653  0.2102
 5018SOL    HW226514   0.763   0.303  10.260  1.0599  0.4397 -0.5415
 5019SOL     OW26515   2.199   1.065   5.428 -0.2217 -0.0904  0.3352
 5019SOL    HW126516   2.249   1.017   5.362 -1.0269 -0.3796 -0.0650
 5019SOL    HW226517   2.259   1.079   5.502  0.1707 -1.2220  0.2310
 5020SOL     OW26518   2.163   0.059   4.240  1.0232  0.1279 -0.6880
 5020SOL    HW126519   2.254   0.078   4.220  1.4704 -2.2064 -0.9135
 5020SOL    HW226520   2.135   0.132   4.296  1.7483  1.0146 -1.4952
 5021SOL     OW26521   3.091   1.903   8.720 -0.1759 -0.0291 -0.3186
 5021SOL    HW126522   3.124   1.814   8.710 -0.6059 -0.0655 -1.4800
 5021SOL    HW226523   3.106   1.921   8.627  0.9195 -1.4821 -0.4085
 5022SOL     OW26524   0.349   4.277  17.010  0.1377  0.1087 -0.0652
 5022SOL    HW126525   0.392   4.246  17.090 -0.3545  0.8005  0.4645
 5022SOL    HW226526   0.424   4.283  16.952  1.1896 -0.2296  1.2411
 5023SOL     OW26527   4.065   1.874   7.272  0.3091  0.2830 -0.6000
 5023SOL    HW126528   4.018   1.804   7.227 -1.9925  2.0398 -0.9228
 5023SOL    HW226529   3.991   1.928   7.302 -0.9666 -2.0838  0.5179
 5024SOL     OW26530   0.214   1.074   5.994 -0.3110  0.1628 -0.2860
 5024SOL    HW126531   0.255   1.031   6.068 -1.1412 -0.8112 -0.3873
 5024SOL    HW226532   0.291   1.076   5.937 -0.8493  0.6775 -1.0114
 5025SOL     OW26533   1.379   1.584   2.998  0.0143 -0.5634 -0.0798
 5025SOL    HW126534   1.456   1.527   3.001  1.0189  0.7671 -0.6130
 5025SOL    HW226535   1.401   1.624   2.914 -0.8862  0.6069  0.2349
 5026SOL     OW26536   3.026   0.705   4.770  0.9063 -0.7433 -0.3496
 5026SOL    HW126537   2.993   0.647   4.701  1.3265  1.1488 -2.1431
 5026SOL    HW226538   3.095   0.654   4.810 -1.4990 -1.2710  3.1425
 5027SOL     OW26539   0.857   3.195   4.201  0.3207  0.5595 -0.5261
 5027SOL    HW126540   0.866   3.149   4.285  0.4945  1.8988  0.1927
 5027SOL    HW226541   0.783   3.143   4.172  1.5099 -1.1895 -0.3910
 5028SOL     OW26542   3.621   0.908   4.593 -0.1286 -0.2058 -0.2254
 5028SOL    HW126543   3.628   0.958   4.674  1.2760 -1.5067  0.4475
 5028SOL    HW226544   3.534   0.939   4.568  0.7130  0.6013 -2.1996
 5029SOL     OW26545   4.545   3.354   6.521 -0.2768 -0.3139 -0.2982
 5029SOL    HW126546   4.453   3.368   6.542  0.4752  0.4263  2.5489
 5029SOL    HW226547   4.549   3.260   6.503 -1.6808 -0.9990  2.9471
 5030SOL     OW26548   0.800   2.431  13.399 -0.3760 -0.1989 -0.3357
 5030SOL    HW126549   0.743   2.498  13.361  0.3651 -0.5119 -2.0271
 5030SOL    HW226550   0.830   2.397  13.314  0.6212 -2.8834  1.0930
 5031SOL     OW26551   2.476   1.912   6.520  0.0734 -0.0062  0.0715
 5031SOL    HW126552   2.433   1.831   6.494 -1.0796  0.9265 -0.8866
 5031SOL    HW226553   2.469   1.959   6.438 -1.3302  0.4332  0.4462
 5032SOL     OW26554   2.657   1.902   0.006 -0.1361  0.0300  0.5186
 5032SOL    HW126555   2.752   1.910   0.017  0.1875  0.1111 -2.2061
 5032SOL    HW226556   2.624   1.890   0.094 -0.6765 -1.3110  0.1282
 5033SOL     OW26557   0.907   3.515   3.178  0.2573 -0.2814 -0.7232
 5033SOL    HW126558   0.895   3.588   3.117  0.8044 -0.3153 -0.8672
 5033SOL    HW226559   0.816   3.494   3.198 -0.0772  1.9655  0.2354
 5034SOL     OW26560   3.513   3.136  16.938 -0.5659 -0.4814  0.4091
 5034SOL    HW126561   3.430   3.177  16.962 -0.8363 -0.5744 -0.3784
 5034SOL    HW226562   3.559   3.199  16.883 -0.2566 -0.6973  0.4149
 5035SOL     OW26563   3.264   0.511   9.151  0.1238 -0.5987 -0.0951
 5035SOL    HW126564   3.187   0.502   9.208  0.4277  0.7028  0.5277
 5035SOL    HW226565   3.223   0.510   9.065 -0.6711  1.7315  0.2713
 5036SOL     OW26566   4.567   3.364  14.313  0.1925 -0.1881  0.4852
 5036SOL    HW126567   4.556   3.408  14.397 -2.7361 -1.7976  0.9082
 5036SOL    HW226568   4.653   3.323  14.323  1.1351  1.4945 -0.6585
 5037SOL     OW26569   4.125   2.631  16.956 -0.0884  0.4550 -0.4337
 5037SOL    HW126570   4.163   2.544  16.938  0.7673  1.1574 -2.0148
 5037SOL    HW226571   4.152   2.631  17.048 -2.7730 -0.8678  0.3423
 5038SOL     OW26572   1.481   3.919   0.269  0.0816 -0.1227 -0.0177
 5038SOL    HW126573   1.490   4.006   0.231 -0.9925  1.1340  2.5933
 5038SOL    HW226574   1.557   3.875   0.232  0.7209  2.2933 -1.5463
 5039SOL     OW26575   4.368   1.126   3.908 -0.6617  0.6807 -0.3746
 5039SOL    HW126576   4.424   1.153   3.981  0.4089  0.7843 -1.2501
 5039SOL    HW226577   4.360   1.033   3.929  0.8343  0.2650 -1.6824
 5040SOL     OW26578   3.636   4.448   3.435 -0.0340 -0.0527 -0.1942
 5040SOL    HW126579   3.653   4.537   3.466 -1.9611 -0.5464  2.2900
 5040SOL    HW226580   3.560   4.424   3.487  0.2598 -0.5142  0.0205
 5041SOL     OW26581   3.598   0.564  11.966  0.3182  0.0415  0.2347
 5041SOL    HW126582   3.505   0.545  11.952 -0.2629  3.0434  0.2149
 5041SOL    HW226583   3.623   0.580  11.875 -1.0664  1.5112  0.1159
 5042SOL     OW26584   2.383   0.756   2.356  0.4592 -0.2605 -0.0748
 5042SOL    HW126585   2.458   0.801   2.317  0.3144  2.3990  2.7332
 5042SOL    HW226586   2.327   0.753   2.278  1.2676  0.4425 -0.6924
 5043SOL     OW26587   1.697   1.989   9.038 -0.8282  0.0265  0.2786
 5043SOL    HW126588   1.612   1.944   9.039 -0.4355 -0.7401 -0.6554
 5043SOL    HW226589   1.695   2.049   9.113  1.2592  0.8978 -0.3634
 5044SOL     OW26590   0.205   3.189  10.084 -0.1368 -0.2009 -0.2107
 5044SOL    HW126591   0.214   3.230   9.998 -3.1769  1.7264  0.3950
 5044SOL    HW226592   0.267   3.119  10.063  0.2735 -0.0926  0.6302
 5045SOL     OW26593   2.675   4.036   7.381  0.4087 -0.1484 -0.1078
 5045SOL    HW126594   2.768   4.047   7.401  0.8654 -0.3567 -2.1146
 5045SOL    HW226595   2.645   3.984   7.456  1.5023 -1.6980 -0.7543
 5046SOL     OW26596   3.408   2.365   7.163  0.0755 -0.1293 -0.3052
 5046SOL    HW126597   3.356   2.422   7.219  0.9993  0.4986 -0.0887
 5046SOL    HW226598   3.359   2.283   7.174 -0.3679  0.3600  1.3227
 5047SOL     OW26599   0.151   3.609  11.621 -0.3783 -0.3749  0.4959
 5047SOL    HW126600   0.056   3.606  11.615 -0.4737  0.9129  1.4902
 5047SOL    HW226601   0.159   3.572  11.709 -0.1654  1.7898  1.3911
 5048SOL     OW26602   0.599   0.373   1.811 -0.1480  0.4370 -0.1091
 5048SOL    HW126603   0.670   0.309   1.814 -0.5604 -0.1150 -2.3418
 5048SOL    HW226604   0.633   0.436   1.875  0.6127  1.1776 -1.2432
 5049SOL     OW26605   2.995   4.695  10.095 -0.4811  0.4240 -0.0931
 5049SOL    HW126606   3.010   4.712  10.002 -2.8541  0.9758 -0.3766
 5049SOL    HW226607   3.046   4.616  10.111  1.0721  1.0568 -1.8546
 5050SOL     OW26608   4.223   2.737  11.347 -0.0060  0.4909  0.0871
 5050SOL    HW126609   4.245   2.691  11.266 -2.5373 -0.0831 -0.2962
 5050SOL    HW226610   4.131   2.707  11.348  0.0048  0.5195  1.8983
 5051SOL     OW26611   2.822   1.008   2.197  0.0065 -0.4872 -0.2662
 5051SOL    HW126612   2.872   1.079   2.238 -2.0892  0.8199  0.0219
 5051SOL    HW226613   2.817   0.949   2.272 -0.7043 -2.4025 -1.8204
 5052SOL     OW26614   2.170   0.634  13.619 -0.3168  0.0919  0.0260
 5052SOL    HW126615   2.203   0.561  13.671  0.5051  0.3262 -0.1726
 5052SOL    HW226616   2.230   0.707  13.637  0.8954 -0.9767  0.3500
 5053SOL     OW26617   1.476   0.921   4.861  0.2368  0.2687  0.0376
 5053SOL    HW126618   1.481   1.014   4.887  1.1805 -0.1397  1.3446
 5053SOL    HW226619   1.399   0.921   4.805  1.8428 -2.9317 -2.1236
 5054SOL     OW26620   2.530   4.219   4.602 -0.1422 -0.6267  0.0434
 5054SOL    HW126621   2.604   4.158   4.601  1.6360  1.5582 -0.7956
 5054SOL    HW226622   2.575   4.299   4.575  1.0540 -1.4587 -0.4175
 5055SOL     OW26623   1.376   2.584   5.058 -0.4275 -0.4087 -0.1829
 5055SOL    HW126624   1.459   2.551   5.093 -0.5869 -1.6214 -0.9388
 5055SOL    HW226625   1.313   2.578   5.130  0.3602  2.4318  0.7448
 5056SOL     OW26626   1.065   4.712   7.106 -0.1718  0.5142  0.3597
 5056SOL    HW126627   1.098   4.623   7.093 -0.1129  0.6651 -0.4869
 5056SOL    HW226628   1.145   0.042   7.112 -1.8371  3.2455 -0.5684
 5057SOL     OW26629   3.623   1.102   3.352  0.3781 -0.1700  0.3342
 5057SOL    HW126630   3.673   1.169   3.398 -1.5615  1.3095  0.3226
 5057SOL    HW226631   3.619   1.129   3.261  2.1340  1.4596  0.7614
 5058SOL     OW26632   1.695   3.529  12.818  0.1883  0.7423  0.1435
 5058SOL    HW126633   1.672   3.447  12.861  0.7819  0.9900  0.9325
 5058SOL    HW226634   1.695   3.596  12.885  1.6583 -0.0291  0.9097
 5059SOL     OW26635   4.244   3.410   3.621  0.4718  0.1180 -0.6486
 5059SOL    HW126636   4.214   3.445   3.704  1.1771 -0.1509 -0.2773
 5059SOL    HW226637   4.161   3.372   3.593 -0.4662  1.1510  0.7364
 5060SOL     OW26638   0.687   4.436  11.172 -0.0566 -0.3258 -0.6132
 5060SOL    HW126639   0.776   4.459  11.146  0.9474 -2.7830  0.6638
 5060SOL    HW226640   0.658   4.520  11.207 -0.7035 -0.7925 -0.0191
 5061SOL     OW26641   4.159   0.222   2.802  0.1268 -0.1121 -0.9279
 5061SOL    HW126642   4.186   0.301   2.754  2.0185 -0.1705  0.0225
 5061SOL    HW226643   4.176   0.158   2.732  0.7076  0.0639 -0.9533
 5062SOL     OW26644   2.247   3.217   3.935 -0.1860 -0.1667  0.4976
 5062SOL    HW126645   2.269   3.130   3.966 -1.1055 -1.0033 -1.2200
 5062SOL    HW226646   2.224   3.257   4.019  1.7921 -0.0825  0.9852
 5063SOL     OW26647   0.549   0.514   6.672  0.4281 -0.1919  0.2354
 5063SOL    HW126648   0.606   0.507   6.749 -0.3021 -0.3955  0.7496
 5063SOL    HW226649   0.575   0.605   6.655 -0.6145 -0.4213 -2.6735
 5064SOL     OW26650   0.850   0.464   9.297  0.2446 -0.1844  0.5036
 5064SOL    HW126651   0.876   0.480   9.206 -2.7510 -0.8867 -0.4676
 5064SOL    HW226652   0.756   0.479   9.287 -0.4897 -1.2252  5.5592
 5065SOL     OW26653   2.960   2.329   1.335  0.6036 -0.1682 -0.4890
 5065SOL    HW126654   3.034   2.291   1.288  0.4588  0.6722 -1.3971
 5065SOL    HW226655   2.894   2.337   1.267  0.8661  0.2522 -0.6932
 5066SOL     OW26656   1.556   1.497   2.504 -0.2159  0.1961  0.2492
 5066SOL    HW126657   1.559   1.416   2.453 -2.1905  1.4519 -1.8976
 5066SOL    HW226658   1.648   1.515   2.523 -1.3174  2.4993  3.4241
 5067SOL     OW26659   4.109   2.879  13.848 -0.0409 -0.1846  0.0597
 5067SOL    HW126660   4.096   2.963  13.891  2.6574  0.3481 -0.1740
 5067SOL    HW226661   4.041   2.879  13.780  0.7108 -1.5180 -0.7118
 5068SOL     OW26662   2.398   4.240   4.968  0.3456  0.1672  0.4624
 5068SOL    HW126663   2.395   4.199   4.881  0.2024  1.5446 -0.1750
 5068SOL    HW226664   2.318   4.292   4.971 -1.5706 -2.7977  1.2852
 5069SOL     OW26665   1.038   4.641   9.354  0.0927 -0.5257 -0.5313
 5069SOL    HW126666   1.055   4.687   9.437  1.5101  0.7335 -1.5201
 5069SOL    HW226667   0.966   4.583   9.376 -0.4351 -0.2669 -1.5668
 5070SOL     OW26668   0.337   3.907  11.002 -0.0123  0.8074  0.0908
 5070SOL    HW126669   0.361   3.957  11.080 -2.4529  0.3755  1.1159
 5070SOL    HW226670   0.376   3.963  10.935 -0.6395  0.9254 -0.1782
 5071SOL     OW26671   1.273   0.702   1.963 -0.4508 -0.8321  0.3617
 5071SOL    HW126672   1.288   0.761   1.889 -1.1247 -0.4513  0.5358
 5071SOL    HW226673   1.179   0.697   1.980 -0.9625  3.3679 -1.4363
 5072SOL     OW26674   0.042   3.489  13.995  0.1987 -0.0234 -0.4607
 5072SOL    HW126675   0.135   3.468  13.983  0.0080 -0.4187 -1.2386
 5072SOL    HW226676   0.046   3.577  13.956 -2.1855 -0.0092 -0.6653
 5073SOL     OW26677   4.452   4.236   7.932  0.5439  0.7372  0.5070
 5073SOL    HW126678   4.540   4.236   7.970 -0.2225 -0.3315  2.2735
 5073SOL    HW226679   4.409   4.185   8.001 -2.9860  1.2429 -1.3169
 5074SOL     OW26680   2.769   1.974   8.395  0.4031 -0.0380 -0.3301
 5074SOL    HW126681   2.759   1.911   8.467 -2.1443 -0.4383 -1.0273
 5074SOL    HW226682   2.818   1.925   8.330  0.0613 -0.3711 -0.3325
 5075SOL     OW26683   4.066   2.973   4.628 -0.5457 -0.0497  0.3411
 5075SOL    HW126684   3.983   2.992   4.584  0.2011 -1.4571 -1.7057
 5075SOL    HW226685   4.097   2.905   4.567 -0.1437  1.0943 -0.7429
 5076SOL     OW26686   2.326   2.538   0.993 -0.0067  0.2726  0.4574
 5076SOL    HW126687   2.289   2.473   0.934 -1.1335 -0.4664  1.9767
 5076SOL    HW226688   2.260   2.533   1.062 -1.1321  0.9124 -0.5725
 5077SOL     OW26689   3.172   1.116   1.237 -0.3656 -0.5256  0.2882
 5077SOL    HW126690   3.238   1.050   1.217 -0.3451 -0.8553  1.4933
 5077SOL    HW226691   3.136   1.104   1.325  0.2454  0.9261  0.7368
 5078SOL     OW26692   0.861   1.112  15.200 -0.4849 -0.3470  0.2591
 5078SOL    HW126693   0.946   1.099  15.156 -0.7835 -0.3232 -0.3248
 5078SOL    HW226694   0.880   1.182  15.263 -0.8873 -1.3723  1.5209
 5079SOL     OW26695   1.613   0.595   8.821  0.0270  0.0623  0.0571
 5079SOL    HW126696   1.572   0.675   8.788 -0.0719 -0.4498 -1.0624
 5079SOL    HW226697   1.538   0.538   8.839  1.2591 -1.3503  0.6967
 5080SOL     OW26698   3.848   3.911   7.574 -0.2493  0.3291  0.0326
 5080SOL    HW126699   3.892   3.907   7.489  0.4550  1.7736  0.3326
 5080SOL    HW226700   3.916   3.877   7.633  1.6347  0.9030 -1.7802
 5081SOL     OW26701   0.806   3.164   6.270  0.0419 -0.6830  0.5533
 5081SOL    HW126702   0.745   3.091   6.257  1.4009 -1.5675 -0.7474
 5081SOL    HW226703   0.864   3.122   6.334 -0.9135  1.2663  2.7301
 5082SOL     OW26704   2.085   3.977   6.173 -0.3321  0.1756  0.5132
 5082SOL    HW126705   2.001   3.937   6.152 -0.5748  1.0777 -0.2131
 5082SOL    HW226706   2.066   4.010   6.261 -0.5040  2.6137 -0.4434
 5083SOL     OW26707   3.152   3.608   8.085  0.0132  0.1626 -0.3270
 5083SOL    HW126708   3.214   3.661   8.136  0.6448 -1.5454  0.6828
 5083SOL    HW226709   3.081   3.672   8.082  0.3186  0.6102  2.1371
 5084SOL     OW26710   0.165   3.141  15.052 -0.0325  0.6360  0.7334
 5084SOL    HW126711   0.212   3.085  15.114 -2.0861 -2.0174 -0.1084
 5084SOL    HW226712   0.211   3.123  14.970 -0.2555 -0.8700  0.9372
 5085SOL     OW26713   4.382   0.881  13.308 -0.2724 -0.3578  0.4732
 5085SOL    HW126714   4.310   0.857  13.367 -1.9671  3.0945 -0.1960
 5085SOL    HW226715   4.433   0.932  13.370  0.5412 -0.5341 -0.0642
 5086SOL     OW26716   2.916   0.160   4.480 -0.1470 -0.0267  0.2372
 5086SOL    HW126717   2.849   0.229   4.483 -0.8080 -0.6889  0.7628
 5086SOL    HW226718   2.954   0.189   4.397  0.7413 -0.1028  0.6171
 5087SOL     OW26719   0.421   1.894   8.450 -0.7844 -0.2093  0.0507
 5087SOL    HW126720   0.431   1.938   8.365 -3.4488 -1.8955 -1.1606
 5087SOL    HW226721   0.340   1.845   8.435 -0.6686 -0.1186 -0.8689
 5088SOL     OW26722   1.096   2.568   3.285 -0.1770  0.8383 -0.2250
 5088SOL    HW126723   1.059   2.642   3.238 -0.6295  0.8306  0.1204
 5088SOL    HW226724   1.036   2.500   3.254  0.9233 -0.9303  1.4929
 5089SOL     OW26725   4.575   0.560   1.411  0.1613 -0.0814 -0.0403
 5089SOL    HW126726   4.561   0.620   1.484 -0.6405  0.6692 -0.8099
 5089SOL    HW226727   4.613   0.483   1.453  0.6220  0.8795  1.2894
 5090SOL     OW26728   1.376   3.224   9.689  0.0959 -0.2480 -0.3193
 5090SOL    HW126729   1.361   3.244   9.781 -0.1607  0.7360 -0.5788
 5090SOL    HW226730   1.315   3.153   9.668 -1.3370  0.5858  1.1133
 5091SOL     OW26731   0.809   2.151   2.430 -0.1753  0.7406  0.7298
 5091SOL    HW126732   0.716   2.166   2.414 -0.1477 -2.1525 -2.2122
 5091SOL    HW226733   0.805   2.071   2.483  3.4386  0.0213 -0.1175
 5092SOL     OW26734   4.078   4.396   3.812  0.3373  0.6992  0.1804
 5092SOL    HW126735   4.098   4.339   3.738 -0.4551 -1.1777  1.4074
 5092SOL    HW226736   4.059   4.335   3.884 -0.4163  2.3487  1.3808
 5093SOL     OW26737   4.072   0.664  15.034  0.6621  0.2519 -0.7116
 5093SOL    HW126738   4.021   0.742  15.058  0.8568  1.2056 -3.4359
 5093SOL    HW226739   4.147   0.707  14.993  0.3603  1.4178 -0.0623
 5094SOL     OW26740   3.379   1.298  10.650 -0.2629 -0.3718 -0.4885
 5094SOL    HW126741   3.378   1.347  10.732  2.1792 -0.4320 -0.4278
 5094SOL    HW226742   3.308   1.239  10.673  0.2663 -1.4348 -1.5754
 5095SOL     OW26743   3.785   4.561  15.825 -0.0655  0.4002  0.5362
 5095SOL    HW126744   3.754   4.603  15.905 -0.5824  1.2490 -0.1069
 5095SOL    HW226745   3.872   4.601  15.814 -0.0221 -0.1634 -1.1825
 5096SOL     OW26746   4.338   4.686   1.299 -0.6201  0.5414  0.1731
 5096SOL    HW126747   4.431   4.701   1.285 -0.6020 -0.5052 -0.8113
 5096SOL    HW226748   4.316   0.058   1.308 -1.5310  0.3527 -0.0689
 5097SOL     OW26749   3.491   3.082   8.084 -0.2419  0.2895 -0.3020
 5097SOL    HW126750   3.567   3.141   8.081 -0.4875  0.5829 -0.8602
 5097SOL    HW226751   3.408   3.128   8.080  0.8719  2.2986 -0.2533
 5098SOL     OW26752   1.526   0.511   6.969 -0.2348 -0.4383 -0.5804
 5098SOL    HW126753   1.495   0.421   6.982 -0.9594 -0.0694  0.2600
 5098SOL    HW226754   1.485   0.521   6.883 -1.5969  1.2126  0.2654
 5099SOL     OW26755   3.896   4.213   4.636  0.4459  0.0051 -0.8448
 5099SOL    HW126756   3.852   4.284   4.589 -2.0157 -1.5665 -0.9011
 5099SOL    HW226757   3.980   4.250   4.665  0.9457  1.0315 -3.5775
 5100SOL     OW26758   0.478   2.476   4.397  0.3908 -0.4466 -0.0516
 5100SOL    HW126759   0.561   2.472   4.350  0.7073 -1.7234  0.6163
 5100SOL    HW226760   0.447   2.391   4.366  0.4182 -1.0175  1.4766
 5101SOL     OW26761   0.896   3.062   9.217 -0.2637  0.3430  0.5600
 5101SOL    HW126762   0.903   3.032   9.126  1.1862 -2.9683  1.7576
 5101SOL    HW226763   0.805   3.045   9.242 -0.1707 -0.7659  0.1455
 5102SOL     OW26764   0.389   3.270  12.810 -0.1062 -0.5646 -0.6839
 5102SOL    HW126765   0.386   3.228  12.724 -0.0887  1.2435 -1.5609
 5102SOL    HW226766   0.301   3.240  12.834 -0.6727  0.7401 -1.0744
 5103SOL     OW26767   3.285   1.150  16.175 -0.2349 -0.3325 -0.1525
 5103SOL    HW126768   3.222   1.193  16.231  0.1536  0.1423 -0.0822
 5103SOL    HW226769   3.235   1.069  16.161  0.3974 -0.9792  1.2888
 5104SOL     OW26770   1.991   2.851   9.668 -0.1046 -0.0609  0.0283
 5104SOL    HW126771   2.034   2.766   9.662  2.2913  1.1557  0.2073
 5104SOL    HW226772   2.008   2.872   9.760  1.3329 -1.1727  0.0120
 5105SOL     OW26773   0.348   2.799  13.900 -0.2948 -0.3975  0.2598
 5105SOL    HW126774   0.424   2.809  13.842  0.5209  1.3137  1.6340
 5105SOL    HW226775   0.397   2.773  13.978 -1.0972  0.1637  0.9412
 5106SOL     OW26776   3.576   0.959   0.358 -0.5168  0.2724 -0.1409
 5106SOL    HW126777   3.659   0.958   0.312 -0.7571 -0.8665 -0.5621
 5106SOL    HW226778   3.510   0.962   0.289 -0.6887  0.0720  0.0140
 5107SOL     OW26779   2.268   0.092  11.518  0.5091  0.0913  0.0528
 5107SOL    HW126780   2.272   0.183  11.488 -0.3273 -0.1461 -0.7801
 5107SOL    HW226781   2.213   0.099  11.597 -0.5913  2.7824 -0.9374
 5108SOL     OW26782   0.464   1.957  13.224 -0.1526 -0.5575 -0.2585
 5108SOL    HW126783   0.471   2.009  13.144 -1.8370 -0.2769 -0.2115
 5108SOL    HW226784   0.398   2.001  13.278  0.5993 -0.6473  0.7302
 5109SOL     OW26785   3.748   0.996   2.668  0.4204 -0.4541  0.7606
 5109SOL    HW126786   3.694   0.927   2.628 -0.2517  1.3199 -1.3600
 5109SOL    HW226787   3.801   0.940   2.726  1.0880 -2.8417 -2.1703
 5110SOL     OW26788   3.604   0.689   3.068 -0.4317 -0.0141  0.2917
 5110SOL    HW126789   3.581   0.765   3.015 -1.1461 -1.3627 -1.3226
 5110SOL    HW226790   3.680   0.708   3.124  2.0107  2.6763 -3.9224
 5111SOL     OW26791   0.346   2.932   2.866  0.1259  0.6500  0.0725
 5111SOL    HW126792   0.407   2.870   2.827  0.8286  0.8715  0.8135
 5111SOL    HW226793   0.352   2.995   2.794 -0.8198  1.0882  0.3813
 5112SOL     OW26794   2.752   2.199   8.820  0.0834 -0.2135  0.0656
 5112SOL    HW126795   2.687   2.129   8.813  0.1330 -0.4455  1.7556
 5112SOL    HW226796   2.775   2.235   8.735  2.7212 -0.4955  0.6493
 5113SOL     OW26797   4.329   0.261  13.356  0.0026 -0.0790  0.1300
 5113SOL    HW126798   4.316   0.253  13.262  1.8199 -0.6047 -0.0786
 5113SOL    HW226799   4.270   0.192  13.389 -1.2538  1.2948  0.7468
 5114SOL     OW26800   2.672   2.446  15.047  0.2719  0.5178 -0.1085
 5114SOL    HW126801   2.757   2.444  15.092 -0.1247  0.4080  0.6378
 5114SOL    HW226802   2.639   2.535  15.058 -2.5294 -0.4153 -0.8245
 5115SOL     OW26803   3.206   3.621   2.685  0.1718  0.2477 -0.6882
 5115SOL    HW126804   3.263   3.694   2.662  0.3805  0.7287  1.3429
 5115SOL    HW226805   3.131   3.630   2.625 -0.7826  1.4311  0.6724
 5116SOL     OW26806   1.911   3.696  16.583  0.4537  0.1915  0.1485
 5116SOL    HW126807   1.899   3.777  16.634  0.7741 -0.2073  0.8614
 5116SOL    HW226808   1.833   3.646  16.607  1.5438 -0.7112  1.8671
 5117SOL     OW26809   2.604   3.054  15.836  0.2587 -0.2290 -0.3008
 5117SOL    HW126810   2.624   2.963  15.815  0.2905  0.2620 -2.4571
 5117SOL    HW226811   2.654   3.102  15.770  2.1621  0.8404  1.9284
 5118SOL     OW26812   1.817   1.093   7.858 -0.0687 -0.1648 -0.8978
 5118SOL    HW126813   1.867   1.035   7.916  0.2138  0.1075 -0.8699
 5118SOL    HW226814   1.835   1.176   7.902 -1.4136 -0.2487 -0.1989
 5119SOL     OW26815   1.861   1.701   9.109  0.4162  0.0275  0.3044
 5119SOL    HW126816   1.814   1.772   9.065  0.1183 -0.4403 -0.1344
 5119SOL    HW226817   1.904   1.745   9.182  1.7970 -0.8070 -0.0026
 5120SOL     OW26818   1.949   1.541   7.221 -0.2994  0.0923  0.4447
 5120SOL    HW126819   1.856   1.515   7.223 -0.4858  0.6748 -0.5821
 5120SOL    HW226820   1.947   1.616   7.279 -2.3621 -0.5368  1.2240
 5121SOL     OW26821   0.593   2.398  13.638  0.2662  0.6977  0.2490
 5121SOL    HW126822   0.547   2.459  13.582  1.0279 -0.3284 -1.4941
 5121SOL    HW226823   0.523   2.384  13.702  0.0587  0.3027 -0.0689
 5122SOL     OW26824   3.060   0.229   4.244 -0.0139  0.2359 -0.2058
 5122SOL    HW126825   3.104   0.222   4.159 -1.0212 -0.3083 -0.6715
 5122SOL    HW226826   3.134   0.270   4.290  2.5715 -1.9739 -2.3384
 5123SOL     OW26827   0.544   4.392   2.492 -0.0481  0.4159 -0.3557
 5123SOL    HW126828   0.530   4.315   2.437  0.1399  0.4554 -0.4588
 5123SOL    HW226829   0.617   4.430   2.443 -0.4431 -1.9050 -2.7161
 5124SOL     OW26830   4.412   0.071   2.848 -0.2125  0.0026  0.2918
 5124SOL    HW126831   4.464   4.716   2.875  0.2515  0.8597  1.8180
 5124SOL    HW226832   4.333   0.022   2.825 -1.3616 -0.4159  5.1143
 5125SOL     OW26833   0.485   2.273   6.190 -0.5629 -0.0247  0.6349
 5125SOL    HW126834   0.430   2.239   6.119  1.2244 -1.8384  0.0901
 5125SOL    HW226835   0.421   2.317   6.246 -1.1533 -2.2717  1.7395
 5126SOL     OW26836   4.379   3.695  15.810 -0.3253 -0.0950 -0.5455
 5126SOL    HW126837   4.304   3.748  15.836 -1.4747 -1.4178 -1.1803
 5126SOL    HW226838   4.353   3.608  15.840 -1.6036  0.7077  0.6382
 5127SOL     OW26839   4.241   1.014   2.892 -0.5635  0.3641  0.4976
 5127SOL    HW126840   4.224   0.921   2.881 -2.2577  0.6305  0.9123
 5127SOL    HW226841   4.282   1.008   2.979 -0.8280 -0.3695  0.5653
 5128SOL     OW26842   2.111   0.569   9.381 -0.2293 -0.3663 -0.0975
 5128SOL    HW126843   2.193   0.612   9.357 -0.1375 -0.5542 -0.1216
 5128SOL    HW226844   2.051   0.588   9.309  2.3514  1.5600 -1.7401
 5129SOL     OW26845   2.994   2.096   4.870  0.3263 -0.0279  0.0831
 5129SOL    HW126846   3.068   2.148   4.903  0.9472 -0.2892 -0.8880
 5129SOL    HW226847   3.012   2.018   4.922  2.3301  0.0960 -0.4360
 5130SOL     OW26848   0.346   1.761   5.254  0.5299  0.4028 -0.1250
 5130SOL    HW126849   0.289   1.811   5.312  0.1550 -0.8669  0.5887
 5130SOL    HW226850   0.345   1.679   5.303  1.7839  0.4911  0.0582
 5131SOL     OW26851   0.864   0.654   9.519  0.0434  0.5801  0.2113
 5131SOL    HW126852   0.866   0.746   9.493 -1.9898  0.9472  1.3553
 5131SOL    HW226853   0.842   0.613   9.435 -2.6682  1.5495  0.4466
 5132SOL     OW26854   1.167   4.247   4.704 -0.2980 -0.2713 -0.3606
 5132SOL    HW126855   1.247   4.259   4.653 -0.1406 -1.4921 -0.4061
 5132SOL    HW226856   1.175   4.154   4.726  0.8700  0.1126  0.8003
 5133SOL     OW26857   2.551   2.362   5.613 -0.4629  0.2799  0.0364
 5133SOL    HW126858   2.646   2.359   5.620 -0.5041 -1.2501 -0.1016
 5133SOL    HW226859   2.530   2.306   5.538  0.7167 -0.2224  0.0808
 5134SOL     OW26860   0.390   2.279  12.059  0.5858 -0.0225  0.8619
 5134SOL    HW126861   0.472   2.303  12.102 -0.2932 -0.2662  2.7104
 5134SOL    HW226862   0.329   2.269  12.133  0.8981 -1.3387  0.9431
 5135SOL     OW26863   2.414   3.528   5.805  0.2628 -0.4113 -0.2080
 5135SOL    HW126864   2.332   3.483   5.825  0.5660 -0.1800  1.5716
 5135SOL    HW226865   2.476   3.456   5.790 -0.2768 -1.6094  3.4258
 5136SOL     OW26866   0.617   3.080   3.533  0.7303  0.5046 -0.2456
 5136SOL    HW126867   0.588   3.153   3.587  1.0952 -0.2844  1.0135
 5136SOL    HW226868   0.706   3.091   3.566  0.3362  3.4868 -0.1382
 5137SOL     OW26869   1.564   4.021   2.095 -0.3832  0.1242  0.1964
 5137SOL    HW126870   1.479   4.062   2.080 -0.1654  1.4615  2.7551
 5137SOL    HW226871   1.576   4.033   2.189  0.4492  0.1853  0.0842
 5138SOL     OW26872   0.627   1.097   2.801  0.1792  0.4039 -0.5607
 5138SOL    HW126873   0.707   1.070   2.755 -0.0935  2.2417 -2.1379
 5138SOL    HW226874   0.569   1.024   2.781  0.4948  0.1907 -0.6915
 5139SOL     OW26875   0.210   0.336   2.509  0.4019 -0.3033  0.0643
 5139SOL    HW126876   0.304   0.324   2.495  0.6262  1.8879 -0.2363
 5139SOL    HW226877   0.174   0.281   2.439  1.4328 -1.2429  0.2676
 5140SOL     OW26878   2.977   4.331  15.598 -0.0895 -0.3283  0.1600
 5140SOL    HW126879   3.065   4.295  15.607 -0.4507 -0.6047  2.6931
 5140SOL    HW226880   2.936   4.282  15.669  0.5895 -0.9435  0.1301
 5141SOL     OW26881   0.987   3.245   8.191 -0.1047 -0.2741 -0.1391
 5141SOL    HW126882   0.953   3.158   8.172  1.0469 -0.1639 -2.6277
 5141SOL    HW226883   1.002   3.252   8.285 -2.6806  1.9010  0.1054
 5142SOL     OW26884   3.369   2.103  13.333 -0.2578  0.6056 -0.2837
 5142SOL    HW126885   3.313   2.101  13.411 -0.8112  2.8254 -0.6178
 5142SOL    HW226886   3.345   2.025  13.283 -1.5246  0.4676  0.5197
 5143SOL     OW26887   2.507   2.396  16.954 -0.5353 -0.0982  0.9653
 5143SOL    HW126888   2.514   2.376  17.047 -0.3867  0.4292  1.0678
 5143SOL    HW226889   2.431   2.454  16.956  0.4831  1.2534  0.5656
 5144SOL     OW26890   0.405   2.145   0.785 -0.1064  0.2049  0.0016
 5144SOL    HW126891   0.454   2.063   0.782  2.0639  1.4634  1.5674
 5144SOL    HW226892   0.441   2.180   0.866  0.5998  1.2348 -0.7561
 5145SOL     OW26893   4.003   3.251  11.912 -0.6480  0.6614 -0.0762
 5145SOL    HW126894   4.022   3.211  11.827  1.6170 -0.0922  0.7812
 5145SOL    HW226895   4.001   3.173  11.968 -0.4416  1.3128  0.8345
 5146SOL     OW26896   1.260   4.549   5.520 -0.5993 -0.1651 -0.1065
 5146SOL    HW126897   1.325   4.599   5.470 -0.7882  0.3623  0.1844
 5146SOL    HW226898   1.221   4.616   5.575  1.1452  0.9865 -0.2884
 5147SOL     OW26899   2.369   2.528   4.006 -0.3484  0.3980 -0.7167
 5147SOL    HW126900   2.351   2.477   4.085 -0.9401 -1.5431 -2.1058
 5147SOL    HW226901   2.453   2.486   3.989 -1.3089 -0.7314 -2.6536
 5148SOL     OW26902   4.695   0.158  12.754  0.0320  0.2003 -0.0994
 5148SOL    HW126903   4.698   0.093  12.824 -0.3076  2.1323  1.6980
 5148SOL    HW226904   0.018   0.232  12.795  0.8163  0.5620 -1.6143
 5149SOL     OW26905   2.265   2.873  14.987  0.5570  0.1447  0.5801
 5149SOL    HW126906   2.266   2.859  15.081  0.3039 -0.9564  0.4158
 5149SOL    HW226907   2.225   2.960  14.991  2.8973  1.3073 -1.2331
 5150SOL     OW26908   3.178   3.459   7.581 -0.1609  0.0637  0.0482
 5150SOL    HW126909   3.197   3.540   7.533 -0.9303  0.8274  1.0467
 5150SOL    HW226910   3.250   3.400   7.561  0.6796  0.8133  0.8809
 5151SOL     OW26911   2.195   0.134   8.855  0.5298  0.5993  0.0085
 5151SOL    HW126912   2.191   0.082   8.775  0.0084  0.2877  0.2402
 5151SOL    HW226913   2.103   0.125   8.879  0.7399  0.1918  0.6604
 5152SOL     OW26914   4.289   1.195   9.857 -0.0994  0.1649  0.0618
 5152SOL    HW126915   4.252   1.205   9.945 -0.1619 -0.6420  0.1339
 5152SOL    HW226916   4.282   1.287   9.832 -2.5641  0.0087  0.1830
 5153SOL     OW26917   2.279   3.981   8.174  0.2381  0.3868  0.0306
 5153SOL    HW126918   2.236   4.027   8.101 -4.9235  0.5061  3.1928
 5153SOL    HW226919   2.359   3.942   8.139 -0.4510 -0.2195 -0.8745
 5154SOL     OW26920   3.550   1.396  17.374 -0.0010 -0.0011 -0.3337
 5154SOL    HW126921   3.463   1.357  17.382 -1.2288  2.2579 -2.8729
 5154SOL    HW226922   3.605   1.322  17.400  0.4376  0.1607 -0.7957
 5155SOL     OW26923   2.145   3.256   7.296  0.0142  0.4634 -0.1625
 5155SOL    HW126924   2.070   3.235   7.352 -0.1362  1.6431  0.0679
 5155SOL    HW226925   2.117   3.265   7.204  0.5840 -1.0968 -0.4878
 5156SOL     OW26926   4.483   2.614  15.531 -0.0090  0.5326 -0.5464
 5156SOL    HW126927   4.467   2.547  15.466  0.7132  0.8651 -1.0642
 5156SOL    HW226928   4.475   2.699  15.487  0.0741  1.2189  0.7382
 5157SOL     OW26929   1.148   2.940   0.290 -0.1298  0.3238  0.0001
 5157SOL    HW126930   1.071   2.901   0.330 -0.8946  0.4647 -1.3625
 5157SOL    HW226931   1.118   3.019   0.244 -1.4132 -0.3400 -0.2756
 5158SOL     OW26932   0.412   2.193  17.079  0.3833  0.2708  0.1435
 5158SOL    HW126933   0.340   2.186  17.017 -0.5186  2.6441  0.9151
 5158SOL    HW226934   0.383   2.272  17.126 -0.5119 -0.2211  0.4172
 5159SOL     OW26935   3.525   2.696   1.470 -0.3147 -0.2486  0.0026
 5159SOL    HW126936   3.545   2.618   1.521 -0.8529  0.6197  1.5607
 5159SOL    HW226937   3.450   2.732   1.518 -0.9874 -0.0322 -1.2183
 5160SOL     OW26938   0.952   0.007   3.515 -0.4059  0.0428  0.0351
 5160SOL    HW126939   0.909   0.003   3.429  0.6143 -0.5404 -0.4520
 5160SOL    HW226940   0.956   0.103   3.525  0.6935 -0.0125  0.1232
 5161SOL     OW26941   2.686   0.823   5.774 -0.2095 -0.4319  0.6088
 5161SOL    HW126942   2.739   0.771   5.834  1.7946  1.0951  0.1313
 5161SOL    HW226943   2.704   0.772   5.695  1.2771 -0.0158  0.6871
 5162SOL     OW26944   3.308   0.084  16.801 -0.9700  0.3378 -0.4237
 5162SOL    HW126945   3.312   0.178  16.783 -0.4586  0.5548  0.7795
 5162SOL    HW226946   3.294   0.078  16.896  1.1099  2.6095  0.0391
 5163SOL     OW26947   4.254   3.538  10.808  0.2694  0.1626  0.4375
 5163SOL    HW126948   4.256   3.619  10.859 -1.0178 -0.7279  1.9090
 5163SOL    HW226949   4.184   3.562  10.748  1.8501  0.9468 -1.0790
 5164SOL     OW26950   4.633   4.351   8.740 -0.1480 -0.6041 -0.1396
 5164SOL    HW126951   4.659   4.433   8.697  1.6018 -0.6589  0.8435
 5164SOL    HW226952   4.690   4.354   8.816 -0.6921  1.5696  0.1921
 5165SOL     OW26953   3.887   3.457   5.638  0.7738  0.6115  0.1896
 5165SOL    HW126954   3.874   3.405   5.559 -0.6923  2.0732 -0.5315
 5165SOL    HW226955   3.892   3.385   5.701 -1.0582 -0.0496 -0.4124
 5166SOL     OW26956   2.989   3.938   4.915 -0.4870  0.0530  0.3934
 5166SOL    HW126957   2.980   3.872   4.984  2.2567 -1.1825 -0.4178
 5166SOL    HW226958   3.067   3.910   4.867 -1.1039 -0.8423 -0.0802
 5167SOL     OW26959   2.010   0.916   3.486 -0.5476 -0.0233  0.3938
 5167SOL    HW126960   2.084   0.977   3.483  0.4202 -1.2442 -0.2070
 5167SOL    HW226961   1.959   0.948   3.560  1.5131  0.6382  1.5096
 5168SOL     OW26962   1.424   2.391   7.086  0.1083 -0.2211 -0.0061
 5168SOL    HW126963   1.380   2.434   7.160  1.4572  1.2733 -0.0813
 5168SOL    HW226964   1.470   2.324   7.136 -0.2407 -0.7483 -0.3962
 5169SOL     OW26965   2.961   1.636   7.773  0.4975 -0.1281  0.2607
 5169SOL    HW126966   2.930   1.584   7.700  4.3670 -0.1316 -1.4031
 5169SOL    HW226967   2.909   1.595   7.842  2.3116 -1.4059  0.8654
 5170SOL     OW26968   0.384   1.570   2.742  0.0053 -0.1774  0.5970
 5170SOL    HW126969   0.412   1.532   2.659 -0.3112 -2.0085  1.3263
 5170SOL    HW226970   0.320   1.634   2.709  0.2002 -0.1945  0.1903
 5171SOL     OW26971   3.756   0.990   6.054  0.1906 -0.5178 -0.1066
 5171SOL    HW126972   3.788   1.028   6.136  0.6241  2.8699 -1.8342
 5171SOL    HW226973   3.832   0.986   5.996  1.3674  0.2864  1.4041
 5172SOL     OW26974   0.897   1.990   0.547 -0.1704  0.8215  0.6232
 5172SOL    HW126975   0.905   1.916   0.486 -0.6512  0.6322  0.7884
 5172SOL    HW226976   0.916   1.950   0.632  0.3773  0.2855  0.2554
 5173SOL     OW26977   3.228   0.646   7.184  0.1467  0.6156  0.8300
 5173SOL    HW126978   3.251   0.553   7.186  1.6295  1.0137  1.8361
 5173SOL    HW226979   3.132   0.645   7.178  0.0914 -2.0959  2.0392
 5174SOL     OW26980   1.228   1.863   2.666  0.5465 -0.4531  0.1874
 5174SOL    HW126981   1.236   1.775   2.629  0.8928  0.0335 -0.8986
 5174SOL    HW226982   1.322   1.880   2.670  0.1732  1.9063 -1.6012
 5175SOL     OW26983   0.252   3.840   0.780 -0.2997  0.7710  0.6386
 5175SOL    HW126984   0.163   3.838   0.746 -0.3014  0.4271  0.6584
 5175SOL    HW226985   0.247   3.755   0.825  1.7073  0.0954 -0.4065
 5176SOL     OW26986   0.824   0.685   0.462 -0.6907  0.3435  0.6911
 5176SOL    HW126987   0.820   0.727   0.376 -1.0462  0.6082  0.8319
 5176SOL    HW226988   0.732   0.667   0.480 -0.5007  1.2697  2.6221
 5177SOL     OW26989   3.569   1.386   5.784  0.2048 -0.5446  0.3407
 5177SOL    HW126990   3.517   1.412   5.708  0.1748 -1.7570 -0.0497
 5177SOL    HW226991   3.503   1.338   5.835  0.0808 -0.4330  0.2866
 5178SOL     OW26992   4.585   3.923   8.797  0.2396 -0.6432  0.1047
 5178SOL    HW126993   4.605   3.856   8.863  0.9855 -0.3196  0.2081
 5178SOL    HW226994   4.664   3.975   8.805 -1.6143  1.7125  2.8100
 5179SOL     OW26995   4.131   3.500   3.839 -0.8276  0.1591  0.7507
 5179SOL    HW126996   4.153   3.433   3.904 -1.0860 -0.3301  0.3293
 5179SOL    HW226997   4.052   3.545   3.871 -1.2744  0.9747 -1.5247
 5180SOL     OW26998   2.692   1.394   2.470 -0.3003  0.5665  0.5899
 5180SOL    HW126999   2.633   1.321   2.446 -0.0166  0.3595  0.5237
 5180SOL    HW227000   2.765   1.340   2.501  0.8253  0.6434 -1.9371
 5181SOL     OW27001   0.694   2.938  13.498 -0.5099  0.6549  0.2129
 5181SOL    HW127002   0.707   3.030  13.519 -0.6543  1.0318 -1.3071
 5181SOL    HW227003   0.636   2.941  13.422  1.7305  0.6637 -1.5222
 5182SOL     OW27004   4.502   1.531  14.313 -0.4701  0.4454 -0.3949
 5182SOL    HW127005   4.539   1.534  14.402 -0.5218  1.0465 -0.3979
 5182SOL    HW227006   4.496   1.437  14.295 -0.8557  0.0293  1.8443
 5183SOL     OW27007   1.973   1.144   8.941 -0.5249  0.0735  0.4550
 5183SOL    HW127008   1.954   1.237   8.933 -1.0028 -0.1943 -1.8239
 5183SOL    HW227009   2.054   1.156   8.989  1.0209 -0.8608 -1.8693
 5184SOL     OW27010   0.864   3.686   2.973 -0.3180  0.2994  0.2575
 5184SOL    HW127011   0.792   3.637   2.935  0.2509 -2.4854  2.8205
 5184SOL    HW227012   0.815   3.768   2.975 -1.5587 -0.4212 -0.7134
 5185SOL     OW27013   4.700   3.612  10.790 -0.2946  0.7479 -0.0119
 5185SOL    HW127014   0.045   3.681  10.794 -2.5099  2.8060  1.3296
 5185SOL    HW227015   0.000   3.570  10.706  1.6739 -0.1755  0.9559
 5186SOL     OW27016   0.081   2.437   6.161  0.3239  0.4054  0.6956
 5186SOL    HW127017   0.144   2.463   6.093  0.1233  0.5007  0.5467
 5186SOL    HW227018   0.006   2.495   6.149  1.6677  1.9967 -0.0238
 5187SOL     OW27019   4.327   1.122   3.269 -0.0572 -0.3495 -0.2191
 5187SOL    HW127020   4.321   1.044   3.214 -2.1598  0.3716 -1.0204
 5187SOL    HW227021   4.417   1.106   3.296 -0.0169 -2.2539 -1.5116
 5188SOL     OW27022   0.310   1.909   2.809  0.0201 -0.0755 -0.0319
 5188SOL    HW127023   0.328   1.842   2.875  0.0009 -0.2489 -0.1993
 5188SOL    HW227024   0.273   1.859   2.735  0.0373 -1.1894  0.7019
 5189SOL     OW27025   4.651   2.264   2.090  0.3936 -0.6018 -0.0683
 5189SOL    HW127026   4.682   2.349   2.056 -0.4374 -0.0285  0.6123
 5189SOL    HW227027   4.603   2.234   2.014 -1.4062  0.9259  0.4643
 5190SOL     OW27028   1.341   4.531   0.529 -0.0822  0.1073 -0.8114
 5190SOL    HW127029   1.329   4.458   0.590 -2.0052 -0.4315 -1.8361
 5190SOL    HW227030   1.305   4.603   0.581 -0.2843  0.0968 -0.9405
 5191SOL     OW27031   3.478   1.176   4.329  0.6502 -0.6705  0.1581
 5191SOL    HW127032   3.540   1.213   4.266 -1.9910  0.4682 -1.7643
 5191SOL    HW227033   3.455   1.095   4.282 -0.4994 -0.0026 -0.4199
 5192SOL     OW27034   1.686   1.723  12.890  0.1218  0.1635  0.1284
 5192SOL    HW127035   1.639   1.769  12.821  1.6891 -0.6150 -1.4417
 5192SOL    HW227036   1.655   1.784  12.957 -2.0662  0.1904 -0.9087
 5193SOL     OW27037   1.025   0.853   8.003  0.7242 -0.2222 -0.2842
 5193SOL    HW127038   0.994   0.768   7.972 -2.4684  0.6704  0.4934
 5193SOL    HW227039   1.006   0.849   8.097 -2.7907  1.5994 -0.9479
 5194SOL     OW27040   2.310   0.972   6.806 -0.0477  0.4792 -0.3826
 5194SOL    HW127041   2.325   1.005   6.718  0.3137  2.5725  0.4680
 5194SOL    HW227042   2.216   0.984   6.820 -0.0754 -1.1360  0.8201
 5195SOL     OW27043   2.637   2.727  16.377  0.5586  0.1332  0.5677
 5195SOL    HW127044   2.698   2.791  16.412  0.7693 -0.0416  0.5220
 5195SOL    HW227045   2.563   2.780  16.347 -0.8307 -1.5069  1.0971
 5196SOL     OW27046   1.944   1.578   1.904 -0.2266  0.5308 -0.8523
 5196SOL    HW127047   1.968   1.596   1.813 -0.5228  1.9450 -0.6399
 5196SOL    HW227048   2.026   1.544   1.939  0.3567  1.4737 -1.3352
 5197SOL     OW27049   4.543   1.951   4.186  0.2964  0.4925  0.8051
 5197SOL    HW127050   4.490   1.872   4.172 -0.7712  1.4559 -0.5993
 5197SOL    HW227051   4.634   1.927   4.203 -0.3983 -2.0909  0.9245
 5198SOL     OW27052   0.631   2.113   6.437  0.1865 -0.1038  0.1874
 5198SOL    HW127053   0.667   2.139   6.352  3.5820 -0.3016  1.5447
 5198SOL    HW227054   0.547   2.077   6.409  1.3846 -1.8183 -1.2296
 5199SOL     OW27055   0.303   1.461   3.378 -0.0225 -0.5270  0.3486
 5199SOL    HW127056   0.308   1.405   3.301 -0.8971 -0.4555  0.2392
 5199SOL    HW227057   0.395   1.489   3.386  0.8429 -2.9828 -1.1569
 5200SOL     OW27058   3.287   2.472   2.173 -0.3636  0.2926 -0.4131
 5200SOL    HW127059   3.343   2.456   2.098  0.7961 -0.4300  0.6193
 5200SOL    HW227060   3.250   2.385   2.182  0.0609  0.1607  0.0351
 5201SOL     OW27061   2.771   3.335   2.427  0.4099 -0.6815  0.5940
 5201SOL    HW127062   2.735   3.343   2.515  1.2294  2.2484  0.6417
 5201SOL    HW227063   2.815   3.418   2.410  1.3049 -0.5824  3.3951
 5202SOL     OW27064   0.698   0.410  15.830  0.0687 -0.4811 -0.5865
 5202SOL    HW127065   0.628   0.452  15.781 -0.2345  0.6254  0.8048
 5202SOL    HW227066   0.684   0.317  15.810  0.1071 -0.6547  0.1847
 5203SOL     OW27067   2.954   1.919   0.102  0.8944  0.1947  0.4040
 5203SOL    HW127068   2.979   2.010   0.119 -1.7996  1.0247 -0.1106
 5203SOL    HW227069   2.995   1.901   0.017 -1.0681 -0.6720 -0.3458
 5204SOL     OW27070   2.233   0.746   2.578  0.3359  0.1932 -0.3825
 5204SOL    HW127071   2.291   0.760   2.503  0.5626  2.3832  0.1826
 5204SOL    HW227072   2.158   0.802   2.556  0.8283  0.6109 -0.9878
 5205SOL     OW27073   0.011   1.440   6.624  0.4872 -0.0595 -0.2195
 5205SOL    HW127074   4.672   1.499   6.578 -0.3266 -0.4241  0.3879
 5205SOL    HW227075   0.101   1.460   6.596  0.5834 -0.5595 -0.2647
 5206SOL     OW27076   0.288   2.172  15.355 -0.1821  0.6249 -0.3782
 5206SOL    HW127077   0.235   2.139  15.428 -1.3400 -1.0496 -1.9546
 5206SOL    HW227078   0.242   2.147  15.274 -0.6106  1.4991 -0.4011
 5207SOL     OW27079   2.915   2.217   2.060 -0.0045 -0.4222 -0.5016
 5207SOL    HW127080   2.846   2.283   2.066 -0.5753 -1.3357  2.8844
 5207SOL    HW227081   2.907   2.186   1.970 -0.7469  1.1794 -0.9935
 5208SOL     OW27082   0.139   2.369   2.405  0.3621 -0.0921  0.5183
 5208SOL    HW127083   0.154   2.300   2.340  0.2869 -0.3711  0.7918
 5208SOL    HW227084   0.156   2.319   2.485  0.6433 -2.3813 -0.9625
 5209SOL     OW27085   1.432   1.817  11.103 -0.5265  0.2688 -0.1982
 5209SOL    HW127086   1.477   1.839  11.021  3.9306 -1.8107  1.7316
 5209SOL    HW227087   1.341   1.805  11.073 -0.0430 -1.7379 -0.8694
 5210SOL     OW27088   2.670   2.536   9.018  0.1976  0.1570  0.1192
 5210SOL    HW127089   2.759   2.513   8.991  0.7540  0.5573  1.5823
 5210SOL    HW227090   2.642   2.584   8.940 -0.8428  0.2111  0.5199
 5211SOL     OW27091   4.292   1.342  12.807  0.5363 -0.0224 -0.0313
 5211SOL    HW127092   4.244   1.417  12.772  2.8896  0.7641 -1.5990
 5211SOL    HW227093   4.319   1.380  12.890 -0.2590 -2.2013  1.2110
 5212SOL     OW27094   3.114   0.820  11.910  0.0798 -0.2895 -0.4451
 5212SOL    HW127095   3.102   0.894  11.970 -0.8129 -0.4202 -0.4617
 5212SOL    HW227096   3.119   0.865  11.825  0.5967  0.4570 -0.0210
 5213SOL     OW27097   0.538   3.269   5.006  0.6740  0.2581  0.1454
 5213SOL    HW127098   0.559   3.177   5.021  1.7011  0.1854 -1.7534
 5213SOL    HW227099   0.517   3.268   4.913 -3.8538  0.3489  1.1310
 5214SOL     OW27100   4.049   2.236  14.298 -0.4166 -0.5044 -0.4464
 5214SOL    HW127101   3.955   2.239  14.281 -0.5205 -1.1805  0.0172
 5214SOL    HW227102   4.062   2.144  14.274  0.0977 -0.7990  1.0008
 5215SOL     OW27103   4.650   2.188   5.584 -0.4167 -0.4031  0.3869
 5215SOL    HW127104   4.669   2.111   5.531 -0.1933  1.0189 -1.6027
 5215SOL    HW227105   4.696   2.154   5.661  1.6566  0.6173 -0.3850
 5216SOL     OW27106   0.731   1.525   4.083 -0.6893 -0.2884 -0.3434
 5216SOL    HW127107   0.771   1.609   4.063  1.5747 -0.8239  2.0815
 5216SOL    HW227108   0.737   1.524   4.178  2.2483 -1.1747 -0.5519
 5217SOL     OW27109   1.290   1.525   4.320 -0.3967  0.2641  0.2543
 5217SOL    HW127110   1.218   1.587   4.333 -1.0306 -0.5133  0.5599
 5217SOL    HW227111   1.297   1.516   4.225  0.3630  1.0992  0.2412
 5218SOL     OW27112   1.554   1.807   8.580  0.3446 -0.1944 -0.1911
 5218SOL    HW127113   1.558   1.869   8.653 -0.4067 -0.5687  0.1738
 5218SOL    HW227114   1.553   1.861   8.501 -0.2796  1.0828  0.6863
 5219SOL     OW27115   0.932   1.402   3.177 -0.2391  0.4455  0.2285
 5219SOL    HW127116   1.008   1.435   3.128 -0.4656  2.0481  0.9490
 5219SOL    HW227117   0.960   1.312   3.189 -1.3168 -0.0610 -1.0643
 5220SOL     OW27118   2.649   4.321   9.070 -0.6997 -0.1889 -0.1879
 5220SOL    HW127119   2.647   4.268   9.150 -2.0154 -0.7653 -0.6041
 5220SOL    HW227120   2.739   4.351   9.071 -0.4543 -0.9060 -0.9387
 5221SOL     OW27121   0.000   4.526   2.595  0.0765  0.1156  0.1666
 5221SOL    HW127122   4.700   4.471   2.520  1.2857  0.9612 -0.8098
 5221SOL    HW227123   0.095   4.514   2.596 -0.0411 -0.7735  0.3779
 5222SOL     OW27124   0.866   1.025   4.524 -0.4296  0.1068  0.1066
 5222SOL    HW127125   0.873   0.952   4.463 -1.1907  1.6782 -1.8403
 5222SOL    HW227126   0.813   1.086   4.473 -2.5440 -0.6733  1.3817
 5223SOL     OW27127   0.768   3.356  11.734 -0.0386 -0.3552  0.6259
 5223SOL    HW127128   0.782   3.353  11.828 -0.4496 -0.2096  0.6903
 5223SOL    HW227129   0.838   3.414  11.702 -0.2121  1.4745  3.5683
 5224SOL     OW27130   1.645   1.458   6.246  0.4356 -0.3091 -0.3291
 5224SOL    HW127131   1.708   1.530   6.248  1.4509 -1.3087  2.6978
 5224SOL    HW227132   1.623   1.449   6.153 -1.3379 -0.9091  0.1662
 5225SOL     OW27133   1.222   0.160   3.388 -0.2893  0.5158 -0.5217
 5225SOL    HW127134   1.294   0.223   3.392 -0.3194  0.5835 -0.9909
 5225SOL    HW227135   1.153   0.225   3.403  0.4185  0.2574  3.8286
 5226SOL     OW27136   4.643   0.440   5.658  0.2134  0.4077  0.1038
 5226SOL    HW127137   4.709   0.487   5.708 -2.7793  1.4006  3.1160
 5226SOL    HW227138   4.695   0.374   5.612 -0.4922 -0.2278  0.2236
 5227SOL     OW27139   2.690   2.174   7.355 -0.2739  0.2211 -0.2539
 5227SOL    HW127140   2.686   2.100   7.416  0.3998  0.4029  0.0058
 5227SOL    HW227141   2.597   2.176   7.331 -0.2593 -1.2883 -0.4620
 5228SOL     OW27142   4.040   3.289   5.396 -0.7988  0.7094 -0.1363
 5228SOL    HW127143   4.086   3.345   5.334  0.2983 -0.6470 -0.5371
 5228SOL    HW227144   3.958   3.277   5.349 -1.2093  1.6066  0.3485
 5229SOL     OW27145   0.567   1.517   5.699 -0.2525 -0.2826 -0.1781
 5229SOL    HW127146   0.485   1.491   5.742  0.0820 -1.0615 -0.0099
 5229SOL    HW227147   0.635   1.461   5.736 -0.7272 -0.4645  0.4126
 5230SOL     OW27148   1.863   3.731   7.855  0.1518 -0.4203  0.3928
 5230SOL    HW127149   1.942   3.681   7.836 -0.0814 -0.1456 -1.2903
 5230SOL    HW227150   1.804   3.665   7.892 -1.4602  0.1821 -1.0939
 5231SOL     OW27151   1.520   1.356   4.113 -0.9103  0.0284 -0.3093
 5231SOL    HW127152   1.462   1.426   4.085 -1.6263 -0.4608 -0.0365
 5231SOL    HW227153   1.587   1.413   4.150  0.0462 -0.7362 -0.8439
 5232SOL     OW27154   1.351   2.072   3.573  0.5003 -0.0007  0.3158
 5232SOL    HW127155   1.340   1.983   3.541  0.2983  0.1922 -0.1560
 5232SOL    HW227156   1.386   2.122   3.498  0.7622  0.6853  0.8955
 5233SOL     OW27157   1.617   3.196   8.190  0.2097 -0.1184 -0.1758
 5233SOL    HW127158   1.668   3.134   8.242  0.0690 -1.2777 -1.3991
 5233SOL    HW227159   1.598   3.261   8.257  0.2774 -0.2211 -0.0565
 5234SOL     OW27160   4.510   1.416   1.486  0.0151 -0.5936  0.0917
 5234SOL    HW127161   4.431   1.364   1.471 -0.9096  0.5415  1.0481
 5234SOL    HW227162   4.491   1.461   1.568  0.8689 -1.0128  0.5209
 5235SOL     OW27163   3.135   3.316   0.240 -0.6965  0.0878 -0.3503
 5235SOL    HW127164   3.198   3.246   0.221  1.3317  2.3600 -1.8896
 5235SOL    HW227165   3.062   3.254   0.249 -2.0859  1.5425 -1.6428
 5236SOL     OW27166   1.729   0.614   5.656  0.0995 -0.5709  0.0950
 5236SOL    HW127167   1.693   0.548   5.596 -0.4282  0.4789 -0.7300
 5236SOL    HW227168   1.822   0.598   5.639 -0.6048 -0.4879 -3.7473
 5237SOL     OW27169   3.019   3.768   8.957  0.7174  0.7322  0.3667
 5237SOL    HW127170   2.951   3.701   8.953  0.4751  1.1464 -2.0595
 5237SOL    HW227171   3.027   3.781   9.052  0.2259 -0.4832  0.5741
 5238SOL     OW27172   2.398   3.758   9.290 -0.3929  0.3645  0.2982
 5238SOL    HW127173   2.375   3.767   9.197 -0.2433  0.7029  0.2928
 5238SOL    HW227174   2.487   3.795   9.293 -2.5543  5.3836  2.0447
 5239SOL     OW27175   2.121   2.101   9.211  0.3381 -0.4595 -0.6853
 5239SOL    HW127176   2.072   2.169   9.257 -0.6076 -2.8805  1.8672
 5239SOL    HW227177   2.205   2.133   9.243 -0.2104  0.5378 -0.2450
 5240SOL     OW27178   2.440   2.134   7.909  0.4895  0.0062 -0.2905
 5240SOL    HW127179   2.523   2.105   7.947  0.3141 -1.0194 -0.6931
 5240SOL    HW227180   2.417   2.218   7.951  1.1253  0.7138 -1.3653
 5241SOL     OW27181   1.172   1.651   4.984 -0.4849 -0.1592 -1.0710
 5241SOL    HW127182   1.141   1.574   5.031  3.4523  0.1016  1.9709
 5241SOL    HW227183   1.262   1.619   4.972 -0.2185  0.6617 -1.2485
 5242SOL     OW27184   4.152   4.069   0.070 -0.1773  0.4452  0.3299
 5242SOL    HW127185   4.222   4.009   0.042  0.4139  1.5763 -0.6046
 5242SOL    HW227186   4.084   4.004   0.088 -0.0425  0.4423  0.8276
 5243SOL     OW27187   2.948   3.263   1.874  0.4104  0.7308 -0.0818
 5243SOL    HW127188   2.882   3.225   1.816  2.3337 -2.9403  0.1318
 5243SOL    HW227189   2.934   3.358   1.869 -3.6771  0.1107 -0.4263
 5244SOL     OW27190   3.179   0.935  11.529  0.5364 -0.0236 -0.1394
 5244SOL    HW127191   3.224   1.010  11.568  1.5108  0.7617 -2.7757
 5244SOL    HW227192   3.232   0.861  11.560 -2.0894 -1.2374  1.3994
 5245SOL     OW27193   0.424   2.941  17.515  0.6401  0.0510 -0.7859
 5245SOL    HW127194   0.378   2.908  17.438 -0.0206  0.8987 -0.7446
 5245SOL    HW227195   0.391   3.030  17.511 -0.6296 -0.4228 -0.8802
 5246SOL     OW27196   3.811   1.024   3.038  0.9116  0.5520 -0.3468
 5246SOL    HW127197   3.826   1.095   2.976 -0.4005 -0.3034 -1.6490
 5246SOL    HW227198   3.814   0.953   2.973 -3.9756  1.5785 -1.7436
 5247SOL     OW27199   1.191   1.854  10.557  0.1773 -0.6819  0.0881
 5247SOL    HW127200   1.180   1.790  10.628 -0.3423  1.2510  1.7615
 5247SOL    HW227201   1.277   1.884  10.587  0.8201 -0.8681 -1.6280
 5248SOL     OW27202   4.207   3.748   5.863 -0.1237  0.0444  0.0787
 5248SOL    HW127203   4.205   3.755   5.959 -1.3127 -3.8134  0.3154
 5248SOL    HW227204   4.115   3.720   5.856  0.5530 -1.9405 -0.7726
 5249SOL     OW27205   2.272   0.854   8.527 -0.4123 -0.2498  0.2377
 5249SOL    HW127206   2.249   0.855   8.434  0.6799 -0.3828 -0.0418
 5249SOL    HW227207   2.365   0.873   8.516 -0.9816  1.9808 -0.5437
 5250SOL     OW27208   0.135   0.372   1.874 -0.0749 -0.0434  0.0243
 5250SOL    HW127209   0.108   0.444   1.930  0.0085  0.5419 -0.6836
 5250SOL    HW227210   0.196   0.426   1.824 -0.4821 -0.8378 -1.3589
 5251SOL     OW27211   0.859   4.517   2.689  0.2696  0.2053  0.2437
 5251SOL    HW127212   0.814   4.508   2.773 -2.3633  0.2408 -1.1556
 5251SOL    HW227213   0.882   4.610   2.690 -0.4414  0.4008 -1.3784
 5252SOL     OW27214   0.926   0.206  17.001  0.7049 -0.2765 -0.5004
 5252SOL    HW127215   0.838   0.169  16.995  0.6713  0.0994 -2.2399
 5252SOL    HW227216   0.935   0.265  17.076  0.4367 -1.3428  0.3788
 5253SOL     OW27217   1.205   4.685   0.692  0.2323 -0.6589  0.1061
 5253SOL    HW127218   1.252   0.013   0.760  0.5641 -1.1915  0.2542
 5253SOL    HW227219   1.111   4.702   0.695  0.1489 -0.6850 -2.6805
 5254SOL     OW27220   2.471   3.052   9.495 -0.0115 -0.3999 -0.7004
 5254SOL    HW127221   2.555   3.095   9.483  0.0005 -0.5109 -1.0081
 5254SOL    HW227222   2.502   2.966   9.523 -1.7313 -1.3232 -1.6622
 5255SOL     OW27223   0.038   0.519  13.183  0.5120  0.1614 -0.0230
 5255SOL    HW127224   0.011   0.604  13.147  0.5800 -0.1807 -0.8888
 5255SOL    HW227225   0.131   0.543  13.188  1.2137 -1.9879 -2.6000
 5256SOL     OW27226   3.128   1.831  15.091  0.1670 -0.5629  0.4967
 5256SOL    HW127227   3.151   1.756  15.037 -0.5317 -0.6082  0.2601
 5256SOL    HW227228   3.064   1.802  15.157  1.3191 -2.9638  0.5566
 5257SOL     OW27229   3.116   2.976   0.721 -0.7769 -0.0297 -0.0429
 5257SOL    HW127230   3.119   3.050   0.661  0.5830 -0.6145 -0.6926
 5257SOL    HW227231   3.086   2.911   0.658 -2.0205  0.7731 -0.2798
 5258SOL     OW27232   3.055   4.415  12.378 -0.3245  0.3987  0.2727
 5258SOL    HW127233   3.135   4.454  12.344  1.0059  0.6619  3.7143
 5258SOL    HW227234   3.001   4.494  12.382 -2.0784 -0.7966  0.6484
 5259SOL     OW27235   0.127   2.661  12.463 -0.5042  0.2664 -0.1597
 5259SOL    HW127236   0.085   2.588  12.506 -0.9825  0.7815  0.2434
 5259SOL    HW227237   0.155   2.632  12.376 -1.7139 -0.7894 -0.1914
 5260SOL     OW27238   4.700   3.983  12.413 -0.0801 -0.3543  0.7971
 5260SOL    HW127239   4.607   3.970  12.434 -1.1770  3.7830 -1.3979
 5260SOL    HW227240   4.680   4.055  12.353 -0.4350  0.0400  1.3890
 5261SOL     OW27241   0.159   4.536   0.862  0.0364  0.1281 -0.6249
 5261SOL    HW127242   0.067   4.548   0.886  0.1077 -0.1868 -0.1843
 5261SOL    HW227243   0.160   4.442   0.842 -0.1716  0.0858 -0.4420
 5262SOL     OW27244   3.752   2.485  14.147 -0.5856 -0.3840 -0.0008
 5262SOL    HW127245   3.686   2.422  14.176 -1.7207  0.3158 -1.0583
 5262SOL    HW227246   3.751   2.464  14.054 -0.7250  0.8749 -0.2789
 5263SOL     OW27247   1.724   2.800  10.943 -0.6034 -0.0677  0.3777
 5263SOL    HW127248   1.758   2.868  10.885 -0.6459  1.2044  1.8559
 5263SOL    HW227249   1.695   2.742  10.872  2.4021 -2.1202  0.7893
 5264SOL     OW27250   1.927   1.933   3.755 -0.7037  0.1742  0.2479
 5264SOL    HW127251   1.876   1.902   3.680 -2.8277  2.8295  0.5801
 5264SOL    HW227252   1.901   1.870   3.821  1.6799 -0.5075  0.5434
 5265SOL     OW27253   4.010   2.211   7.334  0.6671 -0.2316 -0.0845
 5265SOL    HW127254   4.010   2.208   7.238 -1.2139  2.9776 -0.1878
 5265SOL    HW227255   3.930   2.160   7.347  0.2624  0.5836  0.6079
 5266SOL     OW27256   4.149   2.680  15.783  0.2490  0.2474  0.1099
 5266SOL    HW127257   4.220   2.617  15.773 -0.8719 -1.1369  0.8663
 5266SOL    HW227258   4.075   2.649  15.731 -0.1469  0.5945  0.4653
 5267SOL     OW27259   3.914   2.019   1.331  0.1076  0.2377 -0.9622
 5267SOL    HW127260   3.841   2.006   1.271  0.0079  0.6312 -0.9272
 5267SOL    HW227261   3.877   1.989   1.414  0.6401  1.6264 -0.2237
 5268SOL     OW27262   1.298   2.471   4.333 -0.0981  0.1518 -0.1441
 5268SOL    HW127263   1.238   2.455   4.260  1.1375 -1.3551 -0.8177
 5268SOL    HW227264   1.318   2.564   4.319 -0.5939 -0.0644 -2.2676
 5269SOL     OW27265   1.869   4.107   3.148  0.4352  0.1075 -0.1848
 5269SOL    HW127266   1.780   4.121   3.181 -0.3112 -1.0150 -1.7484
 5269SOL    HW227267   1.886   4.199   3.128 -2.4070  0.0860 -2.6096
 5270SOL     OW27268   3.919   0.729   8.856 -0.1767  0.3494  0.0561
 5270SOL    HW127269   3.871   0.663   8.907 -1.0639 -0.0016 -1.2431
 5270SOL    HW227270   3.997   0.675   8.843 -1.0323 -0.5714 -1.2630
 5271SOL     OW27271   3.503   2.839  15.666 -0.1053 -0.1240 -0.3586
 5271SOL    HW127272   3.588   2.797  15.671 -1.9102 -4.0719 -2.5397
 5271SOL    HW227273   3.505   2.898  15.741 -0.3913 -0.6664  0.0789
 5272SOL     OW27274   3.021   1.537   2.599 -0.1056 -0.2759  0.7542
 5272SOL    HW127275   3.110   1.515   2.623  0.7097 -0.0552 -2.0344
 5272SOL    HW227276   3.010   1.617   2.650 -2.5634 -0.8623  1.1381
 5273SOL     OW27277   0.939   0.136  13.090 -0.4992 -0.4196  0.3131
 5273SOL    HW127278   0.941   0.218  13.140  2.5339  0.3978 -1.1557
 5273SOL    HW227279   1.031   0.113  13.100  0.0946  3.0152  2.8020
 5274SOL     OW27280   3.954   0.684  12.700 -0.5105 -0.0803  0.0616
 5274SOL    HW127281   3.882   0.682  12.762 -0.2023  3.5355  0.5169
 5274SOL    HW227282   3.961   0.778  12.685  1.5383 -0.1731  0.5245
 5275SOL     OW27283   0.630   1.067   6.951  0.7025 -0.5286 -0.2181
 5275SOL    HW127284   0.685   1.134   6.911  0.0273 -0.7465 -1.5115
 5275SOL    HW227285   0.553   1.119   6.973 -0.9175 -3.1088  0.2740
 5276SOL     OW27286   0.839   0.577  17.548 -0.1618  0.0874  0.4150
 5276SOL    HW127287   0.824   0.581  17.643 -0.1460  1.9060  0.3500
 5276SOL    HW227288   0.768   0.519  17.520 -0.7254  1.2920 -0.6823
 5277SOL     OW27289   2.686   2.505   3.141 -0.4796 -0.5068 -0.1908
 5277SOL    HW127290   2.758   2.557   3.106  1.2834 -1.7189  1.6568
 5277SOL    HW227291   2.690   2.420   3.097  1.1189 -0.6168  0.1803
 5278SOL     OW27292   1.011   4.210   2.821  0.6457 -0.3268  0.1569
 5278SOL    HW127293   1.040   4.119   2.817  3.9121  0.5891  2.4590
 5278SOL    HW227294   0.979   4.226   2.910  3.0818 -1.4703  1.2473
 5279SOL     OW27295   0.962   1.568   2.817 -0.1977  0.2223  0.2555
 5279SOL    HW127296   0.929   1.657   2.806 -2.1485 -0.7072 -1.5047
 5279SOL    HW227297   1.008   1.555   2.735  0.8504 -0.9456  1.0295
 5280SOL     OW27298   3.046   1.591   3.036  0.1799 -0.2755 -0.1446
 5280SOL    HW127299   3.053   1.534   3.112  0.9827  0.2115  0.1402
 5280SOL    HW227300   2.960   1.630   3.051  0.1862  0.1825 -1.2892
 5281SOL     OW27301   1.469   2.465  17.414  0.0530  0.1913  0.6418
 5281SOL    HW127302   1.527   2.390  17.404 -0.6508 -0.4163  1.1604
 5281SOL    HW227303   1.529   2.540  17.424  1.3035 -0.6061 -0.7746
 5282SOL     OW27304   2.338   3.363   0.029  0.1283  0.3848 -0.5498
 5282SOL    HW127305   2.267   3.423   0.008  0.5497  1.1981  0.4169
 5282SOL    HW227306   2.289   3.283   0.049 -0.8667  0.5459 -2.2468
 5283SOL     OW27307   0.277   2.924   0.048 -0.0773  0.0124  0.1947
 5283SOL    HW127308   0.354   2.908  17.681  0.3771 -0.2072  0.9087
 5283SOL    HW227309   0.234   2.841   0.028  0.2479 -0.2197  0.4786
 5284SOL     OW27310   1.486   0.423   6.087 -0.3812  0.4904 -0.5317
 5284SOL    HW127311   1.527   0.487   6.146  0.7820  0.1885 -1.0128
 5284SOL    HW227312   1.537   0.440   6.008 -0.5965 -2.0172 -1.1938
 5285SOL     OW27313   0.548   0.463   8.601  0.0689 -0.6673  0.3148
 5285SOL    HW127314   0.522   0.550   8.570  0.5506 -0.0301  1.6930
 5285SOL    HW227315   0.585   0.423   8.522  1.1936 -1.1857  1.1105
 5286SOL     OW27316   2.696   0.076  14.631 -0.7023 -0.6996 -0.2830
 5286SOL    HW127317   2.778   0.114  14.662 -2.5198  2.4435  0.6725
 5286SOL    HW227318   2.718   4.705  14.616  1.7229  0.0261 -1.3082
 5287SOL     OW27319   2.635   0.202   2.397  0.1831 -0.2493 -0.1876
 5287SOL    HW127320   2.679   0.220   2.480  1.2159 -1.1723 -0.5376
 5287SOL    HW227321   2.644   0.108   2.381  0.6243 -0.2743  0.2305
 5288SOL     OW27322   0.104   0.083   9.162  0.6424  0.0046  0.0687
 5288SOL    HW127323   0.060   0.105   9.080  1.2354  1.3350  0.1072
 5288SOL    HW227324   0.183   0.136   9.169 -0.5183  1.6734  0.5696
 5289SOL     OW27325   0.332   0.877   6.947  0.2061 -0.2722  0.0031
 5289SOL    HW127326   0.340   0.968   6.977 -0.7785 -0.0504 -0.3967
 5289SOL    HW227327   0.415   0.833   6.963  1.5623  2.0180 -0.8135
 5290SOL     OW27328   0.246   4.558   6.324  0.3747  0.4626 -0.4595
 5290SOL    HW127329   0.302   4.591   6.394  0.9014 -0.3240 -0.5121
 5290SOL    HW227330   0.185   4.631   6.319  1.0842  1.1888  1.4006
 5291SOL     OW27331   2.700   2.200   0.235 -0.0794 -0.7158  0.0465
 5291SOL    HW127332   2.718   2.231   0.146 -0.6734 -1.5936 -0.3756
 5291SOL    HW227333   2.606   2.187   0.222 -0.2015  1.4185 -1.1808
 5292SOL     OW27334   3.854   3.225   7.372 -0.1292  0.8294 -0.0156
 5292SOL    HW127335   3.819   3.200   7.457 -0.2877  2.3661  0.3817
 5292SOL    HW227336   3.773   3.265   7.340  0.5869  0.0099 -2.8205
 5293SOL     OW27337   3.527   1.080   5.159 -0.1377  0.1462  0.2277
 5293SOL    HW127338   3.481   1.159   5.187 -0.2372  0.0134  0.4462
 5293SOL    HW227339   3.492   1.066   5.072  2.1850 -0.4390 -0.6155
 5294SOL     OW27340   2.111   4.591   2.084 -0.3409  0.2155  0.0679
 5294SOL    HW127341   2.086   4.644   2.160  3.1813  0.7213  0.8593
 5294SOL    HW227342   2.026   4.553   2.060 -0.3658 -1.0263  2.1212
 5295SOL     OW27343   2.190   0.644   3.211 -0.4633 -0.3296  0.1645
 5295SOL    HW127344   2.257   0.576   3.197 -1.5531 -0.9892 -1.8810
 5295SOL    HW227345   2.249   0.713   3.239 -1.9858  1.7428 -1.8007
 5296SOL     OW27346   4.619   0.846   9.341 -0.0984  0.0949  0.0769
 5296SOL    HW127347   4.686   0.805   9.397 -0.3063  0.7691  0.8144
 5296SOL    HW227348   4.568   0.897   9.403 -0.3544 -0.4360  0.2974
 5297SOL     OW27349   4.509   0.616   4.884 -0.1147 -0.0077  0.4223
 5297SOL    HW127350   4.426   0.573   4.865  0.1093 -0.7003  1.0106
 5297SOL    HW227351   4.566   0.580   4.815 -3.4325  0.5661 -2.6248
 5298SOL     OW27352   3.702   2.133   7.057  0.6240  0.5280  0.3000
 5298SOL    HW127353   3.696   2.183   6.976 -1.4236 -0.8199 -0.3628
 5298SOL    HW227354   3.789   2.095   7.047  0.4423 -0.0680  0.9924
 5299SOL     OW27355   1.275   1.125  16.386  0.0143  0.6416 -0.4653
 5299SOL    HW127356   1.214   1.088  16.450  0.6714  0.8649  0.2745
 5299SOL    HW227357   1.221   1.173  16.323 -1.4694  1.5186  1.4685
 5300SOL     OW27358   4.009   2.615   8.830 -1.0502 -0.4537  0.5166
 5300SOL    HW127359   3.986   2.570   8.910 -0.3038 -2.3253 -0.3329
 5300SOL    HW227360   3.999   2.708   8.850  2.4401  0.2458 -0.9505
 5301SOL     OW27361   1.646   0.328   7.438 -0.5556 -0.5061 -0.6310
 5301SOL    HW127362   1.624   0.243   7.475 -1.1501 -1.0283 -2.2113
 5301SOL    HW227363   1.632   0.317   7.344  2.1164  1.0829 -1.2257
 5302SOL     OW27364   4.018   2.242   7.070 -0.0431  0.5594 -0.0868
 5302SOL    HW127365   4.051   2.319   7.024 -2.6297  1.5504 -0.2807
 5302SOL    HW227366   3.989   2.188   6.996 -1.5363 -1.0136  1.6572
 5303SOL     OW27367   3.852   3.017   2.910  0.2833 -0.7465 -0.0641
 5303SOL    HW127368   3.872   3.104   2.876  0.8969 -0.9730 -0.2805
 5303SOL    HW227369   3.759   3.019   2.889  0.0505  0.5835  1.1097
 5304SOL     OW27370   4.713   0.045  17.631 -0.6160 -0.0242  0.2197
 5304SOL    HW127371   0.084   0.022  17.641 -0.7771  0.0398  1.9401
 5304SOL    HW227372   4.678   4.682  17.660  0.2557 -0.1290  0.9874
 5305SOL     OW27373   0.346   4.014   4.673 -0.2760  0.1625  0.1296
 5305SOL    HW127374   0.252   4.027   4.661 -0.6646 -1.6313  1.2529
 5305SOL    HW227375   0.363   3.991   4.764 -0.1773 -0.2292  0.0147
 5306SOL     OW27376   1.149   1.860  13.462  0.1836 -0.4458  0.5268
 5306SOL    HW127377   1.218   1.794  13.465  0.8526  0.2205 -0.2604
 5306SOL    HW227378   1.189   1.940  13.497 -0.0489  1.6048 -3.8449
 5307SOL     OW27379   2.492   4.514  16.769 -0.3711  0.0475 -0.1485
 5307SOL    HW127380   2.420   4.559  16.725 -0.8379 -0.7930 -0.2223
 5307SOL    HW227381   2.550   4.490  16.697  1.0791 -0.0229  1.0427
 5308SOL     OW27382   2.895   1.207   8.379 -0.1050 -0.5431  0.3461
 5308SOL    HW127383   2.974   1.200   8.326 -0.4264 -2.1212  0.0722
 5308SOL    HW227384   2.921   1.281   8.433 -1.7548  0.9435 -0.8893
 5309SOL     OW27385   0.129   4.663   6.040 -0.0505 -0.4203  0.7511
 5309SOL    HW127386   0.046   4.616   6.049  0.1734 -0.6374  1.7811
 5309SOL    HW227387   0.084   0.026   6.027 -0.5925 -0.5933  1.4786
 5310SOL     OW27388   4.441   0.804   8.523  0.0300  0.3668 -0.2341
 5310SOL    HW127389   4.438   0.746   8.600 -0.6405  1.5385  0.6153
 5310SOL    HW227390   4.436   0.741   8.451  1.2734 -2.1600  1.8983
 5311SOL     OW27391   2.245   3.863   6.372 -0.3343 -0.2505 -0.3346
 5311SOL    HW127392   2.168   3.851   6.428 -0.2752  0.0710 -0.1834
 5311SOL    HW227393   2.208   3.869   6.284 -0.0193 -3.1852 -0.6528
 5312SOL     OW27394   3.055   2.614   3.427 -0.1307  0.1753 -0.1576
 5312SOL    HW127395   3.055   2.636   3.334 -1.6551 -0.5312 -0.3377
 5312SOL    HW227396   2.961   2.597   3.437 -0.3063  0.2342 -1.7172
 5313SOL     OW27397   1.184   4.259   7.373 -0.0041 -0.0176 -0.3175
 5313SOL    HW127398   1.198   4.228   7.283 -1.4425  1.0033 -0.8991
 5313SOL    HW227399   1.099   4.227   7.403  0.7889  0.1382  2.0379
 5314SOL     OW27400   3.574   2.133   8.540  0.5305  0.0708 -0.4145
 5314SOL    HW127401   3.600   2.065   8.478 -3.2309 -2.8834  1.2500
 5314SOL    HW227402   3.656   2.160   8.583 -0.3212  1.2756  0.4378
 5315SOL     OW27403   4.574   0.381   4.732  0.1037 -0.0429  0.5608
 5315SOL    HW127404   4.526   0.401   4.651  1.5192 -0.5456 -0.3846
 5315SOL    HW227405   4.648   0.439   4.716  0.7475  0.5330  5.7030
 5316SOL     OW27406   4.301   1.739   1.158 -0.7220 -0.3930 -0.2107
 5316SOL    HW127407   4.344   1.823   1.144 -3.4885  0.9451 -0.7245
 5316SOL    HW227408   4.271   1.722   1.068  0.6569  2.1447 -1.1516
 5317SOL     OW27409   0.920   4.645   5.159 -0.5453  0.0841  0.0160
 5317SOL    HW127410   0.866   4.576   5.198 -0.4210 -0.5979 -1.0293
 5317SOL    HW227411   1.003   4.623   5.204  0.6263  1.8612 -1.2992
 5318SOL     OW27412   0.145   4.014   2.299 -0.2176 -0.2599  0.7387
 5318SOL    HW127413   0.165   4.036   2.208  0.5236 -0.6024  0.8191
 5318SOL    HW227414   0.234   4.008   2.333  1.5936 -2.0858 -4.3368
 5319SOL     OW27415   0.082   2.995  11.516 -1.2084 -0.5265 -0.0888
 5319SOL    HW127416   0.126   3.043  11.445  0.6741 -1.2072  0.6175
 5319SOL    HW227417   0.088   3.061  11.585 -4.3370 -0.1930 -0.1620
 5320SOL     OW27418   0.035   0.317   2.952 -0.3445 -0.1770  0.6555
 5320SOL    HW127419   0.005   0.317   2.861 -0.5213 -0.1765  0.7137
 5320SOL    HW227420   0.114   0.267   2.934 -2.0227 -3.3687  2.0192
 5321SOL     OW27421   4.676   0.639   3.008  0.1320  0.7065 -0.3539
 5321SOL    HW127422   4.715   0.569   2.956 -1.0420 -0.6036  0.5092
 5321SOL    HW227423   4.657   0.707   2.944  0.4128  3.4090  2.4607
 5322SOL     OW27424   3.265   0.920   6.929 -0.2328  0.2016  0.3412
 5322SOL    HW127425   3.280   1.012   6.907 -0.2475 -0.0475 -0.7011
 5322SOL    HW227426   3.177   0.915   6.892 -1.3189 -0.8277  3.0806
 5323SOL     OW27427   0.554   4.169   4.344  0.1736 -0.4534  0.4734
 5323SOL    HW127428   0.640   4.195   4.377  0.0774  0.5686 -0.0547
 5323SOL    HW227429   0.540   4.234   4.274 -0.3217  0.5343  1.4979
 5324SOL     OW27430   1.601   0.902   1.973 -0.2911 -1.1642  0.6875
 5324SOL    HW127431   1.644   0.972   1.924 -0.3097 -1.2060  0.6118
 5324SOL    HW227432   1.518   0.938   2.004  0.9450  3.0729 -0.9460
 5325SOL     OW27433   4.625   2.842   2.683  0.4707 -0.1032 -0.2829
 5325SOL    HW127434   4.543   2.876   2.645 -0.3296 -0.5855  1.0251
 5325SOL    HW227435   4.681   2.920   2.683  2.1241 -1.2986  1.9581
 5326SOL     OW27436   2.817   4.046  16.072 -0.1556 -1.2329 -0.4932
 5326SOL    HW127437   2.770   3.972  16.111 -1.0136  0.1760  1.1176
 5326SOL    HW227438   2.871   4.010  16.002  0.6332 -0.7229 -0.1422
 5327SOL     OW27439   1.778   1.151   8.255 -0.1666  0.0242 -0.7815
 5327SOL    HW127440   1.866   1.188   8.248 -0.5404  1.1763  0.6419
 5327SOL    HW227441   1.722   1.214   8.208 -1.1741  0.4029  0.9305
 5328SOL     OW27442   2.510   4.110   8.673 -0.1651  0.1976 -0.4476
 5328SOL    HW127443   2.553   4.032   8.709  1.2915  0.9338 -0.6115
 5328SOL    HW227444   2.453   4.123   8.749  1.8706  0.2264  1.0615
 5329SOL     OW27445   4.365   0.584   3.212 -0.2869 -0.0840 -0.2251
 5329SOL    HW127446   4.443   0.528   3.210  0.5013  1.0230 -0.7380
 5329SOL    HW227447   4.356   0.590   3.307 -0.5054  2.3828 -0.3997
 5330SOL     OW27448   1.778   2.227   5.515 -0.0379  0.5680 -0.2847
 5330SOL    HW127449   1.858   2.194   5.473 -0.0227  0.5209 -0.2195
 5330SOL    HW227450   1.722   2.237   5.438  0.9386  1.2431 -0.9129
 5331SOL     OW27451   1.659   4.552   5.889 -0.3695 -0.5631 -0.0458
 5331SOL    HW127452   1.676   4.633   5.841  1.9942 -2.1598 -1.9008
 5331SOL    HW227453   1.701   4.494   5.826 -1.1728 -1.5314  0.3101
 5332SOL     OW27454   2.446   0.374  11.199 -0.1891  0.1641 -0.5428
 5332SOL    HW127455   2.526   0.365  11.251 -0.5052 -2.9188 -0.5926
 5332SOL    HW227456   2.479   0.425  11.125 -0.6850  0.3301 -0.6517
 5333SOL     OW27457   4.441   3.728   6.513  0.2538 -0.0450  0.5652
 5333SOL    HW127458   4.516   3.768   6.557  0.1064  0.5419  0.2794
 5333SOL    HW227459   4.407   3.688   6.593  0.5369  0.0061  0.7140
 5334SOL     OW27460   0.099   1.677   3.379  0.0149 -0.5455 -0.2463
 5334SOL    HW127461   0.165   1.612   3.403 -0.1811 -0.8533 -0.5385
 5334SOL    HW227462   0.095   1.662   3.284 -1.0937  2.7774 -0.7167
 5335SOL     OW27463   3.023   0.201  13.450 -0.3494 -0.1990 -0.4822
 5335SOL    HW127464   2.998   0.293  13.441  0.7249  0.0996 -0.4597
 5335SOL    HW227465   3.119   0.207  13.456 -0.2469 -3.0387  0.7151
 5336SOL     OW27466   1.152   2.063  15.041  0.6296 -0.7517  0.3762
 5336SOL    HW127467   1.071   2.013  15.031  0.9334 -1.2282  0.3013
 5336SOL    HW227468   1.111   2.146  15.065  1.3924  0.0831 -1.1941
 5337SOL     OW27469   2.087   2.351   6.295  0.9813 -0.0867 -0.4016
 5337SOL    HW127470   2.112   2.287   6.362  0.3915 -0.3032 -0.3951
 5337SOL    HW227471   2.108   2.432   6.343 -0.0116  0.6423 -1.2005
 5338SOL     OW27472   4.067   1.502   2.882 -0.4809 -0.4188  0.8210
 5338SOL    HW127473   4.068   1.414   2.844 -3.4571 -0.4133  0.7111
 5338SOL    HW227474   4.071   1.561   2.807  1.2850  1.5671  2.4626
 5339SOL     OW27475   1.524   3.890   5.720 -0.4295  0.4677  0.6062
 5339SOL    HW127476   1.491   3.972   5.759  0.7785  0.9887  0.5286
 5339SOL    HW227477   1.597   3.923   5.668  0.9186 -1.2843  1.3957
 5340SOL     OW27478   1.587   3.619   5.112  0.3809  0.0528  0.2720
 5340SOL    HW127479   1.511   3.561   5.106 -0.7420  1.6957 -1.2904
 5340SOL    HW227480   1.596   3.618   5.207 -0.6171 -0.5673  0.3633
 5341SOL     OW27481   4.017   2.827   2.979  0.3971  0.1671 -0.8056
 5341SOL    HW127482   4.093   2.880   2.954 -0.4348  0.3661 -2.8697
 5341SOL    HW227483   3.946   2.883   2.949  2.1074  2.9644  0.3706
 5342SOL     OW27484   3.345   1.726   2.195 -0.4277  0.6908 -0.1727
 5342SOL    HW127485   3.317   1.756   2.282 -0.6916 -1.7152  0.5612
 5342SOL    HW227486   3.258   1.719   2.155 -0.1753  1.0596 -0.7801
 5343SOL     OW27487   1.735   4.398   5.694 -0.0132 -0.7233  0.7403
 5343SOL    HW127488   1.659   4.355   5.655 -0.0263 -1.3224  1.4404
 5343SOL    HW227489   1.774   4.319   5.730  1.1492 -0.8666 -0.8221
 5344SOL     OW27490   0.315   1.389  11.924 -0.4060 -0.0755  0.2823
 5344SOL    HW127491   0.280   1.374  11.836  0.9651  1.0765 -0.4513
 5344SOL    HW227492   0.410   1.388  11.918 -0.4103 -1.2242  0.3667
 5345SOL     OW27493   0.692   1.792   7.750  0.6156  0.5232 -0.6042
 5345SOL    HW127494   0.722   1.856   7.686  1.6508  1.0988  0.4522
 5345SOL    HW227495   0.764   1.787   7.813 -0.1777  0.7959  0.3282
 5346SOL     OW27496   3.585   4.142   7.828 -0.0993 -0.1531  0.6276
 5346SOL    HW127497   3.667   4.156   7.875  0.0855  0.7782  0.0286
 5346SOL    HW227498   3.611   4.062   7.783  0.0637 -0.5193  1.3696
 5347SOL     OW27499   2.242   4.066   3.532  0.7842 -0.5490 -0.7905
 5347SOL    HW127500   2.192   3.985   3.526 -0.5686  0.1961  0.4919
 5347SOL    HW227501   2.211   4.100   3.616  0.7897 -0.2606 -0.9030
 5348SOL     OW27502   0.753   0.445  10.109  0.0111  0.0857 -0.2056
 5348SOL    HW127503   0.795   0.517  10.156 -2.6413  1.8506 -0.5329
 5348SOL    HW227504   0.832   0.406  10.072 -0.4578  0.0073 -1.1252
 5349SOL     OW27505   1.595   3.260   5.055 -0.1230  0.3631  0.2885
 5349SOL    HW127506   1.633   3.180   5.019 -1.0669 -1.1510  2.6449
 5349SOL    HW227507   1.572   3.297   4.970  1.5362  1.6366  0.4014
 5350SOL     OW27508   4.720   3.490   2.941  0.1747 -0.4809 -0.3568
 5350SOL    HW127509   0.080   3.442   2.957  0.4620 -0.5557 -2.0556
 5350SOL    HW227510   4.662   3.463   3.012 -0.6420  1.0032 -0.4606
 5351SOL     OW27511   2.491   3.925   8.022  0.2232  0.4232  0.3851
 5351SOL    HW127512   2.547   3.864   8.069 -2.3532 -1.2793  1.2291
 5351SOL    HW227513   2.562   3.976   7.982 -0.5894 -0.2375 -1.8967
 5352SOL     OW27514   3.416   4.695   6.200 -0.3117  0.3842  0.2954
 5352SOL    HW127515   3.374   4.609   6.198 -0.5886  0.5196  0.3410
 5352SOL    HW227516   3.388   0.013   6.118  1.8311 -1.1045 -1.1587
 5353SOL     OW27517   0.827   4.425   9.307 -0.1439  0.2237 -0.3518
 5353SOL    HW127518   0.800   4.396   9.393 -0.1459  2.8681  0.5390
 5353SOL    HW227519   0.739   4.458   9.287 -0.7611 -0.4368  1.2558
 5354SOL     OW27520   4.624   0.829   5.000  0.0017 -0.4302 -0.2272
 5354SOL    HW127521   4.600   0.826   5.093  1.4547  0.6154  0.1901
 5354SOL    HW227522   4.579   0.750   4.970 -3.6947  1.6050 -0.0079
 5355SOL     OW27523   2.816   3.737   4.154  0.6029  0.4020 -0.3907
 5355SOL    HW127524   2.782   3.660   4.108  0.3669 -0.4815  1.2532
 5355SOL    HW227525   2.848   3.784   4.077  1.0055 -0.7637 -0.9344
 5356SOL     OW27526   2.483   1.722   1.380 -0.1622  0.0828 -0.6876
 5356SOL    HW127527   2.546   1.660   1.417 -0.9618  0.7658  1.7864
 5356SOL    HW227528   2.446   1.670   1.308 -0.5187 -1.5088  0.6269
 5357SOL     OW27529   2.589   2.760  10.774  0.0474 -0.2129  0.0856
 5357SOL    HW127530   2.530   2.792  10.705  0.3572  1.1811  0.4672
 5357SOL    HW227531   2.613   2.677  10.734  0.1911  0.4717 -1.2480
 5358SOL     OW27532   1.711   4.664  11.263 -0.7655  0.0685 -0.0059
 5358SOL    HW127533   1.692   0.037  11.258 -0.2610  0.1415 -0.5388
 5358SOL    HW227534   1.624   4.624  11.266 -1.6732  2.3213  3.3836
 5359SOL     OW27535   0.923   3.340   2.702  0.4767 -0.4766  0.5274
 5359SOL    HW127536   0.947   3.389   2.624  1.9656 -1.4692  0.3600
 5359SOL    HW227537   0.983   3.364   2.773  0.7192  0.0313  0.1484
 5360SOL     OW27538   3.620   0.812   3.303 -0.1976 -0.1835  0.0130
 5360SOL    HW127539   3.541   0.784   3.349 -0.7879  2.3342  0.4994
 5360SOL    HW227540   3.614   0.907   3.299 -0.6041 -0.2201 -0.2493
 5361SOL     OW27541   2.831   3.159   8.631  0.2071 -0.0664 -0.2302
 5361SOL    HW127542   2.815   3.236   8.685  0.7724 -0.1699  0.0904
 5361SOL    HW227543   2.866   3.092   8.690  2.1527  0.3070 -0.9567
 5362SOL     OW27544   2.440   3.724   0.839 -0.0413 -0.1146 -0.2216
 5362SOL    HW127545   2.445   3.629   0.842  0.9994 -0.0826 -0.9625
 5362SOL    HW227546   2.407   3.739   0.927 -1.0651 -1.7383 -0.3395
 5363SOL     OW27547   4.564   2.210   6.264 -0.6421  0.2091 -0.5896
 5363SOL    HW127548   4.474   2.200   6.293 -1.0216 -0.2289 -1.9019
 5363SOL    HW227549   4.610   2.259   6.331 -0.4098  1.8457 -1.9400
 5364SOL     OW27550   3.302   2.467  10.747  0.0480  0.0817 -0.1864
 5364SOL    HW127551   3.340   2.476  10.835 -0.3356  0.4600 -0.0614
 5364SOL    HW227552   3.273   2.376  10.738  0.9128 -0.1852 -0.2607
 5365SOL     OW27553   0.397   2.814   7.376  0.5487 -0.3913  0.1956
 5365SOL    HW127554   0.421   2.747   7.312  1.3057 -1.3279  1.4684
 5365SOL    HW227555   0.335   2.877   7.339 -1.9678 -1.6915  2.2089
 5366SOL     OW27556   4.488   3.679   4.120 -0.5749  0.2229 -0.1729
 5366SOL    HW127557   4.527   3.592   4.125 -1.8061 -0.4746 -2.8718
 5366SOL    HW227558   4.427   3.679   4.194 -0.7677  0.1414 -0.3327
 5367SOL     OW27559   3.007   0.077   7.215 -0.2839  0.2179 -0.1922
 5367SOL    HW127560   3.043   0.136   7.281  0.0376 -0.6644  0.4233
 5367SOL    HW227561   2.928   0.050   7.261 -0.6784  0.9447 -0.4480
 5368SOL     OW27562   1.875   1.203   7.386 -0.1208 -0.0511 -0.0537
 5368SOL    HW127563   1.784   1.186   7.362 -0.5030 -0.0543  1.4292
 5368SOL    HW227564   1.888   1.137   7.453  1.2145 -0.0125 -0.2711
 5369SOL     OW27565   1.893   0.017  16.500 -0.1597  0.1159  0.0058
 5369SOL    HW127566   1.807   4.697  16.497  0.1895 -0.5977 -0.1216
 5369SOL    HW227567   1.879   0.096  16.448 -0.7372 -0.6545 -0.9999
 5370SOL     OW27568   2.054   3.863   2.869 -0.3807  0.1153  0.2434
 5370SOL    HW127569   2.132   3.826   2.827 -0.6882 -0.4985  0.2221
 5370SOL    HW227570   2.086   3.844   2.957  1.4992  0.8976 -0.2492
 5371SOL     OW27571   1.225   2.645   8.192 -0.6176  0.0549  0.3548
 5371SOL    HW127572   1.304   2.682   8.230 -1.0401  2.1383 -0.7709
 5371SOL    HW227573   1.256   2.556   8.173  2.8739  1.2822  0.5121
 5372SOL     OW27574   3.609   3.887   3.170 -0.1438 -0.1451  0.7253
 5372SOL    HW127575   3.697   3.848   3.171 -0.9172 -1.8699  1.1952
 5372SOL    HW227576   3.552   3.823   3.212  1.5952 -1.2032  1.4870
 5373SOL     OW27577   1.934   3.649   4.497  0.5479  0.3074 -0.0176
 5373SOL    HW127578   1.876   3.606   4.435 -1.1197 -1.6580  2.9019
 5373SOL    HW227579   1.865   3.707   4.531  0.8390 -0.8216  2.5163
 5374SOL     OW27580   3.332   1.736  12.008 -0.2808 -0.4278 -0.4785
 5374SOL    HW127581   3.307   1.712  12.097 -0.2611 -1.4272 -0.7463
 5374SOL    HW227582   3.264   1.796  11.976  0.7998  1.0980  0.0529
 5375SOL     OW27583   1.698   3.690  16.751  0.1658 -0.2249  0.0685
 5375SOL    HW127584   1.743   3.770  16.780  0.5546  0.1052 -1.4634
 5375SOL    HW227585   1.607   3.717  16.744  0.6362  1.9387  2.0027
 5376SOL     OW27586   1.670   3.201  10.715  0.3167 -0.6727  0.0422
 5376SOL    HW127587   1.717   3.129  10.757 -0.8874 -1.0748  0.6796
 5376SOL    HW227588   1.708   3.209  10.628  1.6070 -2.9004  0.3876
 5377SOL     OW27589   2.110   1.868   7.174 -0.7161 -0.3880 -0.0318
 5377SOL    HW127590   2.060   1.793   7.205 -0.5015 -1.6213 -2.6555
 5377SOL    HW227591   2.200   1.836   7.169 -0.2966  0.5318  1.7913
 5378SOL     OW27592   1.703   2.156   9.790  0.3313 -0.1573 -0.5032
 5378SOL    HW127593   1.666   2.243   9.805  0.0139 -0.2191 -0.9508
 5378SOL    HW227594   1.680   2.100   9.864  1.9496 -0.4211 -0.1888
 5379SOL     OW27595   1.857   3.743   2.579 -0.4585 -0.4183  0.2382
 5379SOL    HW127596   1.817   3.667   2.537 -1.3717  0.2224 -0.0400
 5379SOL    HW227597   1.949   3.725   2.558 -1.1292 -4.6712  0.9305
 5380SOL     OW27598   3.813   3.123  16.068 -0.2813  0.2029  0.1325
 5380SOL    HW127599   3.792   3.216  16.058 -1.0595  0.0175  0.0243
 5380SOL    HW227600   3.803   3.090  15.979  1.5824 -1.9831  0.7530
 5381SOL     OW27601   3.059   3.439  14.757  0.3873  0.0549 -0.4605
 5381SOL    HW127602   3.013   3.497  14.696 -0.6014 -0.4710 -0.2063
 5381SOL    HW227603   3.026   3.476  14.839  1.0045 -1.1842  0.3458
 5382SOL     OW27604   3.538   0.491   1.152  0.9920 -0.2295  0.3222
 5382SOL    HW127605   3.608   0.464   1.092 -0.2174 -1.5023 -0.5220
 5382SOL    HW227606   3.497   0.406   1.166 -0.2352  0.7545  2.6535
 5383SOL     OW27607   2.897   2.769   3.034  0.4699  0.6993  0.2745
 5383SOL    HW127608   2.927   2.838   2.974 -1.7957  0.2188 -1.4306
 5383SOL    HW227609   2.809   2.759   2.997  0.5483  1.7327 -0.2035
 5384SOL     OW27610   3.013   0.135  15.795 -0.0375 -0.3085 -0.0353
 5384SOL    HW127611   3.086   0.188  15.824 -1.4584  0.8978  1.3455
 5384SOL    HW227612   3.050   0.048  15.810  1.4569 -0.0242 -2.1711
 5385SOL     OW27613   0.623   3.508   3.173  0.1367  0.2406 -0.1849
 5385SOL    HW127614   0.550   3.518   3.235  0.1607  0.5993 -0.2169
 5385SOL    HW227615   0.588   3.429   3.131  1.0066  0.7990 -1.9377
 5386SOL     OW27616   0.057   3.385   5.362  0.4658  0.4339 -0.0665
 5386SOL    HW127617   0.079   3.295   5.339  2.3745  0.8436  0.1427
 5386SOL    HW227618   0.122   3.429   5.306  1.3276 -0.4896  0.2221
 5387SOL     OW27619   2.871   3.588  14.146 -0.5675  0.8834  0.3860
 5387SOL    HW127620   2.803   3.521  14.141  0.9371 -0.6372  0.1677
 5387SOL    HW227621   2.933   3.550  14.209 -2.4367 -2.4131  0.2773
 5388SOL     OW27622   1.089   2.217  14.789  0.2525  0.3863  0.3143
 5388SOL    HW127623   1.154   2.284  14.770  0.3330 -0.0373 -0.8655
 5388SOL    HW227624   1.071   2.240  14.880 -0.7466 -0.0490  0.2340
 5389SOL     OW27625   3.818   0.634   7.323  0.0374 -0.1523 -0.0613
 5389SOL    HW127626   3.735   0.641   7.276  0.2387 -0.3955 -0.4544
 5389SOL    HW227627   3.813   0.539   7.330 -0.6128 -0.2341 -1.6606
 5390SOL     OW27628   0.699   1.873  14.162  0.4055  0.4127  0.4018
 5390SOL    HW127629   0.790   1.899  14.151  0.7852 -0.7529  0.6934
 5390SOL    HW227630   0.661   1.958  14.182 -0.6321 -0.2497  1.3084
 5391SOL     OW27631   0.366   4.606   4.752 -0.5994  0.0575 -0.3255
 5391SOL    HW127632   0.419   4.643   4.681 -1.0170  1.8342  0.2899
 5391SOL    HW227633   0.395   4.515   4.754 -1.8239 -0.3334 -0.4455
 5392SOL     OW27634   2.832   2.474  12.394 -0.5983 -0.0693  0.0380
 5392SOL    HW127635   2.871   2.409  12.336 -0.9069  0.1604 -0.4205
 5392SOL    HW227636   2.837   2.427  12.477 -0.1303 -0.4499 -0.2048
 5393SOL     OW27637   3.560   3.304   2.890 -0.1646  0.3693  0.0472
 5393SOL    HW127638   3.519   3.364   2.952  1.0596  0.2394  0.9851
 5393SOL    HW227639   3.569   3.228   2.948  0.5946 -0.3662 -1.0318
 5394SOL     OW27640   1.571   0.774  12.748  0.1660  0.4343 -0.2712
 5394SOL    HW127641   1.607   0.854  12.786  0.2386  0.0291  0.5200
 5394SOL    HW227642   1.616   0.763  12.665  0.2713 -0.0165 -0.1580
 5395SOL     OW27643   2.908   2.989   4.437 -0.0130  0.4072 -0.3996
 5395SOL    HW127644   2.833   2.930   4.437 -1.3426  2.1330 -1.0483
 5395SOL    HW227645   2.977   2.946   4.488 -1.0914 -1.2713 -0.3595
 5396SOL     OW27646   2.913   0.633   3.203 -0.4849 -0.4212  0.2898
 5396SOL    HW127647   2.890   0.550   3.245  0.4831 -1.1245 -0.5702
 5396SOL    HW227648   2.984   0.612   3.141 -0.5349 -1.4048  0.5697
 5397SOL     OW27649   2.706   1.536   3.518  0.5319 -0.4327  0.5256
 5397SOL    HW127650   2.792   1.572   3.498  0.1654  0.3053  0.2713
 5397SOL    HW227651   2.679   1.607   3.576  1.0790 -1.8303  2.5227
 5398SOL     OW27652   0.497   2.107   2.515  0.6485  0.5821  0.1193
 5398SOL    HW127653   0.491   2.012   2.509 -0.6556  0.4761  3.1328
 5398SOL    HW227654   0.454   2.145   2.438 -1.9729 -1.3062  0.6194
 5399SOL     OW27655   1.337   3.009   5.563 -0.4407  0.4592  0.1340
 5399SOL    HW127656   1.355   3.094   5.522 -1.4767  1.0638  0.9631
 5399SOL    HW227657   1.368   3.023   5.652 -0.1031 -2.8679  0.5477
 5400SOL     OW27658   3.937   0.370  10.890  0.6057  0.2746 -0.2390
 5400SOL    HW127659   3.857   0.328  10.923  0.6190  1.2517  1.0673
 5400SOL    HW227660   3.985   0.365  10.973  0.8483  1.2398 -0.3228
 5401SOL     OW27661   0.431   0.179   7.411  0.8771 -0.4139  0.1506
 5401SOL    HW127662   0.414   0.209   7.501 -1.6179  0.0464 -0.4636
 5401SOL    HW227663   0.407   0.086   7.419  1.0006 -0.2851  2.1914
 5402SOL     OW27664   3.776   1.853   5.156  0.3150  0.3966  0.1340
 5402SOL    HW127665   3.842   1.787   5.133 -1.5536 -0.9130 -1.4545
 5402SOL    HW227666   3.754   1.883   5.068  2.0411 -2.3785 -1.2408
 5403SOL     OW27667   0.353   1.881  10.927 -0.1061  0.2251  0.0286
 5403SOL    HW127668   0.385   1.966  10.957 -3.0934  0.5790  2.2933
 5403SOL    HW227669   0.265   1.880  10.966  1.0462 -0.9334  2.5425
 5404SOL     OW27670   4.685   1.502  14.812 -0.3765 -0.1088  0.2871
 5404SOL    HW127671   0.030   1.437  14.836  0.6998  0.7796 -0.2469
 5404SOL    HW227672   0.009   1.572  14.859 -1.5404  0.4254  0.6153
 5405SOL     OW27673   2.595   1.500   6.044  0.3979  0.4641  0.9224
 5405SOL    HW127674   2.570   1.435   6.110 -1.9169  0.0805 -0.3126
 5405SOL    HW227675   2.657   1.449   5.994  0.2287  1.8816 -0.7529
 5406SOL     OW27676   2.957   2.678   5.268  0.2475 -0.2707  0.0422
 5406SOL    HW127677   3.049   2.664   5.290  0.3852  1.5881  0.5877
 5406SOL    HW227678   2.949   2.751   5.207  0.4444 -0.0535  0.2765
 5407SOL     OW27679   3.886   1.532  14.074 -0.6533 -0.6363 -0.4493
 5407SOL    HW127680   3.823   1.501  14.139  0.7271 -1.1234  0.6459
 5407SOL    HW227681   3.853   1.478  14.002  0.7421 -1.7709 -0.2257
 5408SOL     OW27682   4.139   2.596   3.071  0.0512 -0.4264  0.6449
 5408SOL    HW127683   4.092   2.677   3.053 -0.5012 -1.0419 -0.6799
 5408SOL    HW227684   4.067   2.563   3.125 -0.6987  0.3269  0.1007
 5409SOL     OW27685   2.856   0.427   6.619 -0.2979 -0.1338  0.5844
 5409SOL    HW127686   2.908   0.385   6.551  0.4776  2.0248 -0.1783
 5409SOL    HW227687   2.914   0.443   6.694  0.5546 -0.4068 -0.0122
 5410SOL     OW27688   4.589   3.882  13.871  0.3081 -0.1717  0.8304
 5410SOL    HW127689   4.518   3.818  13.863 -2.5485  2.7723  2.4499
 5410SOL    HW227690   4.658   3.816  13.861  0.9257  0.5430  0.3870
 5411SOL     OW27691   3.889   4.522  13.881  0.4975 -0.1530 -0.2899
 5411SOL    HW127692   3.952   4.558  13.943  0.2185 -0.4747  0.1827
 5411SOL    HW227693   3.820   4.509  13.947 -1.6742  0.0190 -2.5198
 5412SOL     OW27694   1.169   3.984   6.855 -0.0180 -0.1916 -0.4794
 5412SOL    HW127695   1.191   3.929   6.779 -0.9852 -2.0909  0.6346
 5412SOL    HW227696   1.180   3.928   6.931 -0.4499  2.5457  1.6029
 5413SOL     OW27697   3.741   3.385  16.148 -0.7246 -0.1085 -0.2495
 5413SOL    HW127698   3.664   3.426  16.108  0.2809  0.1583 -1.9386
 5413SOL    HW227699   3.696   3.350  16.225  1.2674  0.3927  1.1370
 5414SOL     OW27700   1.516   2.517   3.858 -0.6636  0.2912  0.2639
 5414SOL    HW127701   1.574   2.586   3.824 -0.5826  0.7184  1.2686
 5414SOL    HW227702   1.452   2.528   3.787  0.1776  1.9953 -0.2314
 5415SOL     OW27703   2.991   3.540  15.309  0.4094 -0.0433 -0.1059
 5415SOL    HW127704   3.067   3.483  15.315  0.2942 -0.0250  1.6267
 5415SOL    HW227705   2.932   3.484  15.359  0.3315  0.8914  0.8594
 5416SOL     OW27706   2.739   2.377   5.347  0.8620  0.5667  0.1411
 5416SOL    HW127707   2.655   2.340   5.372  0.2397  0.1340 -2.5675
 5416SOL    HW227708   2.785   2.401   5.428  0.8200  1.5797 -0.1367
 5417SOL     OW27709   1.054   0.771   5.693 -0.2085 -0.4940 -0.5680
 5417SOL    HW127710   1.120   0.820   5.742 -1.6326  1.1060 -0.2069
 5417SOL    HW227711   1.024   0.842   5.636  2.2111  0.4241 -0.6970
 5418SOL     OW27712   1.903   3.992   6.735 -0.3440 -0.1332  0.2571
 5418SOL    HW127713   1.993   3.960   6.744 -0.3384 -0.1529  0.1309
 5418SOL    HW227714   1.901   4.063   6.799 -2.0615  0.7988 -0.8027
 5419SOL     OW27715   3.929   1.910   0.272  0.7496 -0.1740 -0.1099
 5419SOL    HW127716   4.022   1.923   0.251  0.3650  1.7354 -0.5743
 5419SOL    HW227717   3.933   1.890   0.366 -0.7657  0.0352 -0.0022
 5420SOL     OW27718   2.256   0.920  16.346 -0.6246  0.2396  0.5168
 5420SOL    HW127719   2.289   0.830  16.340  1.9537  1.1763  0.4559
 5420SOL    HW227720   2.314   0.958  16.280 -0.7393 -1.2159 -0.4268
 5421SOL     OW27721   0.341   2.139  15.006  0.1103  0.2998  0.6711
 5421SOL    HW127722   0.413   2.090  15.046 -1.0186 -1.4949  0.4994
 5421SOL    HW227723   0.266   2.087  15.035 -1.0609  1.0142 -1.0721
 5422SOL     OW27724   2.065   1.730   6.024  0.1393  0.1560  0.2130
 5422SOL    HW127725   2.148   1.689   6.000  0.1581 -0.0101  0.5510
 5422SOL    HW227726   2.090   1.815   6.060 -0.4706  1.3098 -2.0880
 5423SOL     OW27727   1.318   1.642   2.547 -0.6196  0.0106  0.4723
 5423SOL    HW127728   1.408   1.609   2.543 -1.5069 -2.2362 -0.9368
 5423SOL    HW227729   1.308   1.690   2.465 -0.3510 -0.0739  0.3908
 5424SOL     OW27730   0.558   4.384   4.126  1.2714 -0.1422  0.3097
 5424SOL    HW127731   0.587   4.423   4.043  0.2887  1.6583  0.8072
 5424SOL    HW227732   0.512   4.460   4.162  0.7863 -1.4974  2.5162
 5425SOL     OW27733   4.112   1.423   5.494 -0.6357 -0.2686 -0.6257
 5425SOL    HW127734   4.069   1.383   5.570  0.4895 -3.4204 -1.6482
 5425SOL    HW227735   4.119   1.517   5.515  3.8703 -0.9704  1.0810
 5426SOL     OW27736   1.941   1.252   3.115  0.1010 -0.0512 -0.3515
 5426SOL    HW127737   1.986   1.168   3.123 -2.1094 -1.2524 -0.4470
 5426SOL    HW227738   1.892   1.246   3.197  0.5256 -1.0390 -0.1689
 5427SOL     OW27739   1.165   4.469  12.745 -0.9654 -0.0106  0.1628
 5427SOL    HW127740   1.193   4.560  12.756 -2.2803  0.1730  1.8500
 5427SOL    HW227741   1.176   4.441  12.836  1.7443 -0.6838 -0.3444
 5428SOL     OW27742   1.130   2.141   1.857 -0.4390  0.1457 -0.0304
 5428SOL    HW127743   1.075   2.213   1.826  0.7565  0.8451 -0.5316
 5428SOL    HW227744   1.131   2.164   1.950  1.2936 -1.8631  0.4373
 5429SOL     OW27745   3.312   0.386   7.257  0.0772  0.3103  0.1553
 5429SOL    HW127746   3.371   0.427   7.320 -0.7830  2.5182 -0.4575
 5429SOL    HW227747   3.279   0.312   7.307  0.4662  0.9964  1.4322
 5430SOL     OW27748   4.479   0.694   6.040 -0.0904 -0.2317 -0.2159
 5430SOL    HW127749   4.507   0.603   6.038 -0.5708 -0.3431 -1.5119
 5430SOL    HW227750   4.562   0.726   6.074 -0.4878  1.8786 -1.2094
 5431SOL     OW27751   1.266   3.300   5.547  0.1372 -0.0626 -0.1634
 5431SOL    HW127752   1.184   3.325   5.588  0.8344  1.5616  0.2171
 5431SOL    HW227753   1.241   3.294   5.454 -0.8211  1.3209  0.0031
 5432SOL     OW27754   0.952   3.750   4.734  0.0800 -0.3012  0.0529
 5432SOL    HW127755   0.899   3.739   4.813 -0.6483  1.9522 -0.1495
 5432SOL    HW227756   0.901   3.814   4.685 -0.8258 -0.2889  1.0031
 5433SOL     OW27757   1.432   1.764   5.646 -0.0597 -0.2702 -0.2222
 5433SOL    HW127758   1.440   1.838   5.706 -1.9758 -2.2046  2.4060
 5433SOL    HW227759   1.492   1.779   5.573 -0.7263 -0.0723 -0.7331
 5434SOL     OW27760   4.663   1.794   5.618  0.3719  0.0673  0.4060
 5434SOL    HW127761   4.575   1.831   5.625 -0.4030 -2.0959  2.2270
 5434SOL    HW227762   4.649   1.708   5.657 -0.0809 -1.0235 -2.1314
 5435SOL     OW27763   0.600   4.451  17.184  0.7607 -0.1368 -0.2827
 5435SOL    HW127764   0.544   4.374  17.195  0.3201  0.0340 -1.3508
 5435SOL    HW227765   0.655   4.431  17.109 -1.8857  0.6119 -2.4138
 5436SOL     OW27766   4.454   3.624  13.837  0.0495 -0.5220 -1.0134
 5436SOL    HW127767   4.397   3.566  13.887  0.0026  1.1526  0.8720
 5436SOL    HW227768   4.500   3.553  13.792  1.0603 -0.7198  0.3401
 5437SOL     OW27769   3.653   3.059  10.298 -0.7216 -0.3225  0.2098
 5437SOL    HW127770   3.704   3.001  10.241  0.3758 -0.2732  1.1410
 5437SOL    HW227771   3.671   3.036  10.389  0.8844  0.9298  0.2140
 5438SOL     OW27772   3.148   3.262  15.107 -0.2544 -1.0217 -0.3976
 5438SOL    HW127773   3.233   3.270  15.062 -0.2485  2.4619  0.2226
 5438SOL    HW227774   3.170   3.305  15.190 -1.4175  0.6364 -0.9624
 5439SOL     OW27775   3.956   0.655  10.489 -0.1515 -0.1537 -0.0476
 5439SOL    HW127776   3.978   0.599  10.564  0.8282 -1.0292 -0.9786
 5439SOL    HW227777   4.005   0.614  10.417  1.1578  1.8020 -0.2853
 5440SOL     OW27778   4.189   3.672  14.150  0.1753  0.0634 -0.3644
 5440SOL    HW127779   4.202   3.604  14.216  1.0497  2.5164  1.9922
 5440SOL    HW227780   4.199   3.623  14.068 -0.0205  0.3288 -0.5463
 5441SOL     OW27781   3.753   1.438   6.469 -0.3537  0.0378 -0.5521
 5441SOL    HW127782   3.686   1.372   6.485 -0.3663 -0.6080 -3.1089
 5441SOL    HW227783   3.823   1.405   6.525 -1.4135  0.9886  1.3095
 5442SOL     OW27784   2.491   4.565   3.996 -0.3785  0.2404 -0.5788
 5442SOL    HW127785   2.566   4.505   3.995 -0.1486  0.6199 -4.0223
 5442SOL    HW227786   2.438   4.526   4.066  0.3691  0.8982  0.3486
 5443SOL     OW27787   4.514   0.243   5.811  0.1742  0.3374 -0.0473
 5443SOL    HW127788   4.558   0.312   5.761  0.1409  1.4099  1.3672
 5443SOL    HW227789   4.560   0.169   5.772  0.7989  0.0207  1.2857
 5444SOL     OW27790   4.011   3.684   6.394  0.5564  0.7536  0.0445
 5444SOL    HW127791   4.047   3.710   6.478  0.8368 -0.6191  0.3581
 5444SOL    HW227792   4.096   3.697   6.351  1.5970  1.3640  2.3287
 5445SOL     OW27793   0.501   0.649   5.058  0.0510  0.4585 -0.0356
 5445SOL    HW127794   0.409   0.668   5.041 -0.0453  0.4627  0.4684
 5445SOL    HW227795   0.540   0.735   5.069  1.0733  0.0078 -0.0753
 5446SOL     OW27796   0.979   0.679   8.722  0.8151 -0.0046  0.4598
 5446SOL    HW127797   0.978   0.596   8.676  1.2213 -0.8057  1.8996
 5446SOL    HW227798   0.908   0.719   8.671  0.5351 -1.8711 -0.5822
 5447SOL     OW27799   2.659   2.817  10.391 -0.2219  0.3017 -0.0127
 5447SOL    HW127800   2.745   2.798  10.430 -0.1513  1.8216  0.6044
 5447SOL    HW227801   2.626   2.886  10.449 -1.7783 -0.3956 -0.0682
 5448SOL     OW27802   0.469   1.438  13.616  0.2172  0.3012  0.6795
 5448SOL    HW127803   0.402   1.503  13.593  0.8511  1.1020  1.0896
 5448SOL    HW227804   0.461   1.429  13.711  1.2399  0.2866  0.7637
 5449SOL     OW27805   1.267   3.542   4.678 -0.0570  0.5138  0.1933
 5449SOL    HW127806   1.172   3.553   4.689 -0.3119 -0.5273 -0.8923
 5449SOL    HW227807   1.289   3.509   4.765 -0.3898 -0.5161 -0.1205
 5450SOL     OW27808   1.540   2.124   6.841 -0.2648  0.3259  0.4301
 5450SOL    HW127809   1.468   2.087   6.789  1.0392 -1.2889 -0.2572
 5450SOL    HW227810   1.525   2.218   6.850  1.6163  0.7638 -0.8622
 5451SOL     OW27811   2.650   3.161   5.324  0.2763 -0.2777 -0.0982
 5451SOL    HW127812   2.663   3.241   5.374  0.5484 -0.2295 -0.2430
 5451SOL    HW227813   2.630   3.107   5.401  1.1203  0.1510  0.4195
 5452SOL     OW27814   4.202   3.163   6.233  0.0727  0.7957  0.8362
 5452SOL    HW127815   4.217   3.154   6.139  2.7425 -1.5259  1.4727
 5452SOL    HW227816   4.173   3.253   6.245  2.3609  1.7464 -0.8331
 5453SOL     OW27817   0.618   0.543   2.565  0.0757  0.1823  0.0391
 5453SOL    HW127818   0.564   0.556   2.643  1.0431  0.8120  0.6148
 5453SOL    HW227819   0.569   0.470   2.528 -0.3692 -0.3498  1.6522
 5454SOL     OW27820   2.748   0.926   6.765 -0.0230 -0.4447  0.3416
 5454SOL    HW127821   2.701   0.935   6.848 -1.6582 -1.3982 -0.4937
 5454SOL    HW227822   2.676   0.930   6.702 -0.1120 -1.3519  0.3952
 5455SOL     OW27823   2.156   4.026  14.528 -0.1141  0.1444  0.1835
 5455SOL    HW127824   2.090   4.069  14.473  0.0832 -0.5819 -0.6262
 5455SOL    HW227825   2.169   4.083  14.604 -1.1453 -0.7407  1.0129
 5456SOL     OW27826   2.141   1.548   3.295 -0.3980  0.6266  0.8092
 5456SOL    HW127827   2.167   1.460   3.323  1.6666  0.6711 -1.0573
 5456SOL    HW227828   2.154   1.598   3.376  0.1877  0.3775  0.8722
 5457SOL     OW27829   0.622   3.789   3.097 -0.8449 -0.1665 -0.0821
 5457SOL    HW127830   0.537   3.769   3.059 -1.4217  0.2943  0.9755
 5457SOL    HW227831   0.659   3.709   3.134 -2.3195  0.0514  1.8501
 5458SOL     OW27832   4.094   3.663  10.264  0.1280  0.0764  0.4244
 5458SOL    HW127833   4.021   3.725  10.273 -0.5406 -0.5091 -1.0661
 5458SOL    HW227834   4.098   3.620  10.350 -1.5449 -0.4045  0.2601
 5459SOL     OW27835   1.489   1.126   2.113 -0.1102 -0.0505 -0.6022
 5459SOL    HW127836   1.460   1.083   2.194 -0.1660  0.1687 -0.5050
 5459SOL    HW227837   1.432   1.204   2.121  0.7455  0.6302 -1.1537
 5460SOL     OW27838   2.129   1.260   1.776  0.3185 -0.0682 -0.3775
 5460SOL    HW127839   2.097   1.318   1.846 -0.9040 -0.0279 -0.9671
 5460SOL    HW227840   2.180   1.198   1.828  0.6344 -0.8390 -1.6068
 5461SOL     OW27841   0.332   0.110   1.160  0.2496 -0.3045  0.7328
 5461SOL    HW127842   0.379   0.184   1.121  0.2464 -0.4319  0.4887
 5461SOL    HW227843   0.369   0.108   1.249  0.1531  0.0277  0.7816
 5462SOL     OW27844   4.570   1.169  12.091 -0.3508 -0.2642  0.3405
 5462SOL    HW127845   4.491   1.223  12.101  0.1383  0.0475  2.4477
 5462SOL    HW227846   4.555   1.140  12.001  0.9306 -1.2426  0.4399
 5463SOL     OW27847   4.231   1.530  14.304  0.5142 -0.3614 -0.4980
 5463SOL    HW127848   4.327   1.532  14.296  0.6043 -0.3379  0.5769
 5463SOL    HW227849   4.222   1.516  14.399  1.8523 -1.0253 -0.4615
 5464SOL     OW27850   3.504   2.711   6.137  0.3458  0.4310  0.1781
 5464SOL    HW127851   3.463   2.797   6.135  0.9597  0.6996 -0.9111
 5464SOL    HW227852   3.430   2.651   6.145  0.2537  0.7400  1.6658
 5465SOL     OW27853   4.223   1.537  17.460  0.5501 -0.1884 -0.1401
 5465SOL    HW127854   4.185   1.508  17.543  1.9944 -0.2797  0.4814
 5465SOL    HW227855   4.289   1.470  17.445 -0.2967 -1.0826  0.0825
 5466SOL     OW27856   4.436   4.475   9.869 -0.0259  0.0605 -0.7465
 5466SOL    HW127857   4.397   4.436   9.790  1.9176 -1.6360 -0.8590
 5466SOL    HW227858   4.474   4.556   9.836  0.3790 -0.0701 -0.6001
 5467SOL     OW27859   1.064   4.117  13.530 -0.1200 -0.7702  0.2663
 5467SOL    HW127860   1.004   4.110  13.456 -0.3451  1.7827  0.2052
 5467SOL    HW227861   1.025   4.190  13.577  1.9087  2.3105 -2.8638
 5468SOL     OW27862   4.026   3.257  13.810 -0.2973  0.0196  0.0130
 5468SOL    HW127863   4.071   3.243  13.894  1.5358 -0.1935 -1.0139
 5468SOL    HW227864   4.084   3.304  13.751  0.7201 -0.6138  0.5077
 5469SOL     OW27865   4.395   3.817  10.663 -0.2601  0.0272  0.2768
 5469SOL    HW127866   4.319   3.850  10.711 -0.1369 -0.0794  0.5420
 5469SOL    HW227867   4.460   3.828  10.732  1.2569  0.8860 -1.2902
 5470SOL     OW27868   4.050   0.490   9.181  0.2628 -0.1619 -0.0740
 5470SOL    HW127869   3.975   0.439   9.152  0.7676 -0.7775 -0.2898
 5470SOL    HW227870   4.052   0.474   9.275  2.1290  0.3318 -0.0325
 5471SOL     OW27871   1.847   0.988   6.583  0.3117  0.3618  0.0571
 5471SOL    HW127872   1.807   1.060   6.535 -1.6734  1.1170  2.8553
 5471SOL    HW227873   1.835   1.018   6.673  0.3113  0.1950  0.1135
 5472SOL     OW27874   0.095   2.183  13.778 -0.3579  0.6881 -0.0221
 5472SOL    HW127875   0.055   2.108  13.733  0.4265 -0.6246  1.4659
 5472SOL    HW227876   0.037   2.198  13.853  1.2344  1.1750  1.0964
 5473SOL     OW27877   4.543   1.568   3.183 -0.0908  0.2418 -0.0473
 5473SOL    HW127878   4.513   1.487   3.141 -1.1302 -0.3946  1.8752
 5473SOL    HW227879   4.638   1.562   3.176 -0.0873  1.3057 -0.8525
 5474SOL     OW27880   0.718   4.270  11.523 -0.2342 -0.2151 -0.9342
 5474SOL    HW127881   0.648   4.210  11.547  0.3290  0.0605  1.3710
 5474SOL    HW227882   0.666   4.350  11.535 -0.5500 -0.4171 -0.9646
 5475SOL     OW27883   2.732   0.951   1.686 -0.0737  0.0999  0.4742
 5475SOL    HW127884   2.778   0.982   1.764  1.3821 -2.4288  0.6343
 5475SOL    HW227885   2.778   0.993   1.613 -0.9710 -0.4938 -0.4267
 5476SOL     OW27886   3.669   2.397  10.901 -0.6483  0.3727 -0.8359
 5476SOL    HW127887   3.586   2.351  10.889  0.1651 -1.6607  1.3068
 5476SOL    HW227888   3.688   2.362  10.988  0.6059  2.5169 -0.2553
 5477SOL     OW27889   0.147   4.251   7.885 -0.3479  1.0000 -0.1022
 5477SOL    HW127890   0.218   4.188   7.877 -1.5286 -0.0622 -1.9971
 5477SOL    HW227891   0.076   4.197   7.919 -0.8830  1.2209 -0.8913
 5478SOL     OW27892   0.544   3.466   6.401  0.3259  0.3165  0.5311
 5478SOL    HW127893   0.471   3.432   6.350  1.4458 -0.6053 -0.4432
 5478SOL    HW227894   0.527   3.560   6.393 -2.5434 -0.3896 -1.5682
 5479SOL     OW27895   2.592   0.995   7.418 -0.1456  0.3446 -0.2091
 5479SOL    HW127896   2.512   0.999   7.365 -1.4698  1.6007  1.9183
 5479SOL    HW227897   2.632   0.929   7.361 -1.1111 -0.9005  0.5557
 5480SOL     OW27898   4.052   2.853  14.648  0.2983 -0.1798 -0.0468
 5480SOL    HW127899   4.027   2.908  14.574  0.1182  0.2259  0.3151
 5480SOL    HW227900   4.146   2.870  14.648  0.4238 -0.9068 -0.5271
 5481SOL     OW27901   4.333   3.327   8.573 -0.2695 -0.0178  0.3663
 5481SOL    HW127902   4.250   3.347   8.531  1.3468  2.7515 -1.5692
 5481SOL    HW227903   4.303   3.269   8.643 -1.1440 -0.0286 -0.0220
 5482SOL     OW27904   2.313   1.516   1.666 -0.2764 -0.2652 -0.4360
 5482SOL    HW127905   2.361   1.499   1.747 -0.4147 -0.7867 -0.4628
 5482SOL    HW227906   2.285   1.426   1.650 -0.3220 -0.1439 -1.0272
 5483SOL     OW27907   2.353   3.603   5.248  0.1069  0.5165  0.3641
 5483SOL    HW127908   2.442   3.601   5.282  1.0697  1.1993 -2.1146
 5483SOL    HW227909   2.371   3.573   5.159  0.3731  0.1503  0.5405
 5484SOL     OW27910   1.815   0.853   4.298  0.5717 -0.0091 -0.3726
 5484SOL    HW127911   1.790   0.946   4.305 -1.3801 -0.5620  0.1275
 5484SOL    HW227912   1.786   0.816   4.381 -3.6190 -2.4276 -2.9355
 5485SOL     OW27913   3.198   2.011   1.846 -0.3177 -0.2130  0.1252
 5485SOL    HW127914   3.128   2.076   1.850 -0.0603 -0.1188  3.0052
 5485SOL    HW227915   3.240   2.031   1.929  1.4802  1.1296 -1.1191
 5486SOL     OW27916   0.246   4.447   7.606 -0.0238 -0.1277 -0.2984
 5486SOL    HW127917   0.171   4.451   7.665 -0.6580 -1.9025 -0.9887
 5486SOL    HW227918   0.308   4.380   7.634  0.5497  0.3725 -0.3735
 5487SOL     OW27919   2.695   3.577   5.199  0.4846 -0.1607 -0.1367
 5487SOL    HW127920   2.645   3.531   5.132 -1.7529  1.7117  0.2616
 5487SOL    HW227921   2.663   3.535   5.279 -1.1608  0.2031 -0.6073
 5488SOL     OW27922   3.880   0.254   0.454 -0.1141 -0.6142  0.3412
 5488SOL    HW127923   3.793   0.291   0.440  0.6482  0.5938 -1.2168
 5488SOL    HW227924   3.921   0.317   0.395 -1.8380 -0.0732 -0.2656
 5489SOL     OW27925   2.491   1.450   1.853  0.6392  0.1073  0.2311
 5489SOL    HW127926   2.548   1.511   1.902  0.1536  0.8208 -0.0848
 5489SOL    HW227927   2.534   1.365   1.858  2.6684  1.2659  2.7955
 5490SOL     OW27928   1.721   0.316  11.773  0.5343  0.1467 -0.3005
 5490SOL    HW127929   1.657   0.256  11.811  1.0765 -1.8050 -2.4671
 5490SOL    HW227930   1.660   0.378  11.732  0.9236  1.6481  1.4073
 5491SOL     OW27931   2.644   1.726   3.698  0.5090  0.2528  0.0402
 5491SOL    HW127932   2.720   1.775   3.727  1.5681 -1.1712 -0.3579
 5491SOL    HW227933   2.579   1.795   3.684 -1.1071 -0.6503  2.9767
 5492SOL     OW27934   1.143   0.494  17.349 -0.4832  0.3756 -0.7880
 5492SOL    HW127935   1.145   0.480  17.255 -2.6907 -1.6862 -0.5385
 5492SOL    HW227936   1.104   0.582  17.343 -0.8262  0.3742  1.2135
 5493SOL     OW27937   0.537   1.235   8.075  0.2061  0.2761 -0.1609
 5493SOL    HW127938   0.527   1.327   8.049  0.0584  0.5645  0.9098
 5493SOL    HW227939   0.475   1.198   8.011  1.0748 -0.4078 -0.6028
 5494SOL     OW27940   2.896   4.111   7.530 -0.5454  0.3752  0.1779
 5494SOL    HW127941   2.879   4.145   7.618 -1.3722 -2.4555  1.1223
 5494SOL    HW227942   2.987   4.141   7.529 -1.6044  3.5680 -0.9295
 5495SOL     OW27943   1.591   0.619   9.924 -0.5065 -0.2631  0.1206
 5495SOL    HW127944   1.618   0.700   9.881  0.5269 -0.6730 -0.0048
 5495SOL    HW227945   1.640   0.621  10.006  2.1834  0.0246 -1.4980
 5496SOL     OW27946   1.509   1.276   1.664  0.1213 -0.0005 -0.2775
 5496SOL    HW127947   1.533   1.212   1.597 -1.0759 -0.1535 -0.5543
 5496SOL    HW227948   1.589   1.328   1.674  0.1817 -0.4649  1.7418
 5497SOL     OW27949   3.701   3.660  13.761 -0.0284 -0.0913  0.0646
 5497SOL    HW127950   3.690   3.730  13.697  2.1087  0.3036  0.1093
 5497SOL    HW227951   3.634   3.595  13.742  0.7326 -1.3565  1.6888
 5498SOL     OW27952   3.047   0.533   2.971  0.0587  0.3343 -0.1898
 5498SOL    HW127953   2.963   0.502   2.938 -0.1971  2.6330 -1.6463
 5498SOL    HW227954   3.105   0.459   2.951 -1.0186 -0.9364  1.3585
 5499SOL     OW27955   3.849   0.394   7.669  0.7248 -0.6223  0.5678
 5499SOL    HW127956   3.850   0.372   7.762 -0.0433 -2.3113  0.1811
 5499SOL    HW227957   3.758   0.377   7.645  0.1513  0.3948  2.0697
 5500SOL     OW27958   2.429   0.102  11.830 -0.3169 -0.0122  0.0887
 5500SOL    HW127959   2.343   0.065  11.850  0.2682 -0.9725  0.8394
 5500SOL    HW227960   2.457   0.081  11.741 -2.0406  0.5774 -0.5928
 5501SOL     OW27961   0.597   4.354   9.072  0.0550  0.1177 -0.0267
 5501SOL    HW127962   0.557   4.287   9.017 -0.2987 -0.3937  0.8531
 5501SOL    HW227963   0.666   4.382   9.013  1.1346 -0.0642  1.1577
 5502SOL     OW27964   4.005   2.472   2.515 -0.4708 -0.1502 -0.9454
 5502SOL    HW127965   4.056   2.542   2.556 -1.5336  1.0517 -1.6479
 5502SOL    HW227966   3.969   2.531   2.449 -1.9931  0.9796  0.8818
 5503SOL     OW27967   2.950   0.899  13.193  0.0947  0.0875 -0.7796
 5503SOL    HW127968   2.995   0.978  13.223  0.2083 -0.9637  1.7907
 5503SOL    HW227969   2.980   0.890  13.102  1.5987 -1.1105 -0.1622
 5504SOL     OW27970   0.488   1.118   9.148  0.3254 -0.3373  0.1688
 5504SOL    HW127971   0.549   1.104   9.221  1.4283  1.2990 -0.4406
 5504SOL    HW227972   0.506   1.209   9.124  0.6066 -0.1108  1.1934
 5505SOL     OW27973   3.722   2.460  13.874 -0.0663 -0.0483  0.0789
 5505SOL    HW127974   3.754   2.544  13.842  0.4056  0.1501  1.0796
 5505SOL    HW227975   3.632   2.459  13.840 -0.5240 -1.9687  1.3810
 5506SOL     OW27976   0.629   0.427   1.537 -0.1229  0.2924  0.5952
 5506SOL    HW127977   0.543   0.446   1.498 -0.3073 -1.2401  0.2677
 5506SOL    HW227978   0.608   0.360   1.602 -1.7328  1.6522  1.4729
 5507SOL     OW27979   4.645   0.554   6.805 -0.6597  0.5148  0.6729
 5507SOL    HW127980   4.687   0.470   6.823  0.3136  1.2959  2.0101
 5507SOL    HW227981   4.713   0.583   6.745  0.2982 -3.1179 -0.0228
 5508SOL     OW27982   0.298   4.529   3.593 -0.3506  0.3827  0.0212
 5508SOL    HW127983   0.260   4.588   3.527 -1.3462 -1.0063 -0.6431
 5508SOL    HW227984   0.222   4.487   3.633 -0.2960 -0.5773 -0.8941
 5509SOL     OW27985   3.932   4.297   5.118 -0.5670  0.3934 -0.1181
 5509SOL    HW127986   3.999   4.314   5.184  0.4430 -0.0117 -1.0437
 5509SOL    HW227987   3.912   4.385   5.087 -0.7873  0.5924  0.5895
 5510SOL     OW27988   0.642   0.740   3.834  0.1153  0.1130 -0.5452
 5510SOL    HW127989   0.635   0.658   3.882 -0.0065  0.3747 -0.1156
 5510SOL    HW227990   0.582   0.792   3.888 -0.9813 -1.0474 -0.6446
 5511SOL     OW27991   2.674   3.338   0.264  0.0149  0.3747  0.5269
 5511SOL    HW127992   2.646   3.364   0.176  1.0094  0.9508  0.3811
 5511SOL    HW227993   2.619   3.394   0.318 -0.2600  0.5886  0.0181
 5512SOL     OW27994   0.810   3.297   2.062 -0.1769 -0.2800  0.2848
 5512SOL    HW127995   0.765   3.301   1.977  0.3770 -2.2085 -0.1112
 5512SOL    HW227996   0.865   3.375   2.054  0.4665 -0.9262 -1.6140
 5513SOL     OW27997   4.686   0.248   7.976  0.1401 -0.2005 -0.1477
 5513SOL    HW127998   4.683   0.206   8.062 -2.5923 -2.1555 -1.1577
 5513SOL    HW227999   0.057   0.272   7.976  0.2466 -0.6416  1.6789
 5514SOL     OW28000   4.670   2.671   4.938  0.2129  0.3427  0.2609
 5514SOL    HW128001   4.614   2.744   4.913  0.1964  0.4300  0.5550
 5514SOL    HW228002   4.655   2.617   4.860 -1.4812  0.9659  0.1592
 5515SOL     OW28003   3.697   1.671   3.287 -0.9580  0.7374 -0.4019
 5515SOL    HW128004   3.632   1.654   3.218 -0.8965  2.3638 -0.8598
 5515SOL    HW228005   3.774   1.626   3.252 -2.6534 -2.3078 -0.2519
 5516SOL     OW28006   4.422   0.395   8.024  0.3740 -0.6428 -0.1370
 5516SOL    HW128007   4.389   0.341   8.096  0.6953  0.4201  0.8215
 5516SOL    HW228008   4.517   0.378   8.021  0.9512  1.9509  2.4391
 5517SOL     OW28009   4.081   2.074  13.037 -0.0260  0.1274 -0.3141
 5517SOL    HW128010   3.990   2.055  13.061 -0.0756  1.0748  0.2380
 5517SOL    HW228011   4.114   2.096  13.124  0.5451 -0.7929 -0.2957
 5518SOL     OW28012   3.827   2.202  17.067  0.5200 -0.2893 -0.7835
 5518SOL    HW128013   3.906   2.155  17.038  0.7417 -1.3543  1.5529
 5518SOL    HW228014   3.770   2.194  16.991  0.1200 -2.2557 -0.2624
 5519SOL     OW28015   1.185   0.508   5.294  0.2194  0.7860 -0.9472
 5519SOL    HW128016   1.176   0.511   5.390 -0.0120  1.1991 -0.9825
 5519SOL    HW228017   1.261   0.450   5.295  1.0566  1.9170  2.2733
 5520SOL     OW28018   2.345   1.382  14.146 -0.1457 -0.0788  0.1323
 5520SOL    HW128019   2.367   1.474  14.134  0.6890 -0.0139  2.1365
 5520SOL    HW228020   2.364   1.348  14.059 -1.7331  1.9264 -0.9850
 5521SOL     OW28021   2.809   3.806  12.456 -0.2136  0.3243 -0.3313
 5521SOL    HW128022   2.853   3.889  12.474  1.5278 -0.3695 -1.3648
 5521SOL    HW228023   2.853   3.747  12.519 -0.2191  0.6406 -0.0315
 5522SOL     OW28024   0.188   3.101   6.536 -0.2539 -0.3148 -0.2594
 5522SOL    HW128025   0.250   3.150   6.589  1.1437 -0.8066 -1.4428
 5522SOL    HW228026   0.120   3.083   6.601  1.7242 -2.4573  1.1707
 5523SOL     OW28027   1.970   2.461   5.875 -0.8448  0.4004  0.1670
 5523SOL    HW128028   2.038   2.426   5.933  1.0859  1.7972 -1.2391
 5523SOL    HW228029   2.029   2.461   5.799  1.1207 -2.9082  1.6903
 5524SOL     OW28030   4.106   4.169   3.996  0.1932  0.0986 -1.0495
 5524SOL    HW128031   4.192   4.135   3.969 -0.0915 -2.2718  1.0074
 5524SOL    HW228032   4.048   4.098   3.968  0.5919 -0.6949  0.1468
 5525SOL     OW28033   4.638   2.851  12.848  0.1260  0.3604  0.1698
 5525SOL    HW128034   4.624   2.757  12.838 -0.5801  0.6756 -1.7944
 5525SOL    HW228035   4.553   2.884  12.876 -0.3800  1.1427 -2.2820
 5526SOL     OW28036   4.252   0.578   5.150 -0.7321  0.0795  0.3061
 5526SOL    HW128037   4.340   0.557   5.119  0.8325  3.9078  2.1110
 5526SOL    HW228038   4.212   0.627   5.079 -3.0401 -2.1745  0.0584
 5527SOL     OW28039   4.589   1.302   8.486 -0.2703  0.2686 -0.0033
 5527SOL    HW128040   4.572   1.227   8.544 -0.1131  0.4608  0.2891
 5527SOL    HW228041   4.585   1.256   8.402 -0.7185 -3.1154  1.8774
 5528SOL     OW28042   1.314   0.915   7.372 -0.1159  0.9040  0.0301
 5528SOL    HW128043   1.401   0.886   7.401  0.1547 -1.2533 -2.9335
 5528SOL    HW228044   1.349   0.966   7.299  0.5871  1.9342  1.1007
 5529SOL     OW28045   1.479   2.504   5.425 -0.3619 -0.1381  0.5777
 5529SOL    HW128046   1.473   2.597   5.451  2.4876 -0.3055  1.8244
 5529SOL    HW228047   1.388   2.475   5.423  0.0535 -1.3835  0.0385
 5530SOL     OW28048   4.372   1.749   4.082 -0.8637 -0.2356 -0.1138
 5530SOL    HW128049   4.399   1.673   4.030  0.3397  1.9406 -2.6551
 5530SOL    HW228050   4.306   1.710   4.140 -2.4542 -1.2183 -2.5678
 5531SOL     OW28051   2.362   3.074   2.938 -0.1569  0.2927  0.2611
 5531SOL    HW128052   2.300   3.147   2.943  0.1294  0.6072 -0.6522
 5531SOL    HW228053   2.443   3.119   2.961 -0.6103  1.4564 -0.4350
 5532SOL     OW28054   2.835   0.242  13.696 -0.3309  0.3401 -0.2132
 5532SOL    HW128055   2.750   0.208  13.722  1.2138 -2.3676  1.2623
 5532SOL    HW228056   2.854   0.176  13.629 -1.0002  0.0235 -0.0883
 5533SOL     OW28057   0.115   2.724   5.371  0.1437  0.4350 -0.5015
 5533SOL    HW128058   0.137   2.802   5.321  1.9304 -0.3569 -0.9141
 5533SOL    HW228059   0.038   2.695   5.321 -1.2384  0.9652  1.3006
 5534SOL     OW28060   0.720   3.116   1.569  0.5966  0.3580 -0.4710
 5534SOL    HW128061   0.805   3.094   1.607 -0.3479 -0.6950  1.0614
 5534SOL    HW228062   0.677   3.167   1.637  0.0161 -0.2018 -0.4182
 5535SOL     OW28063   1.249   1.827   2.354 -0.1022  0.3764  0.1295
 5535SOL    HW128064   1.321   1.836   2.292  0.9082  3.0754  1.7163
 5535SOL    HW228065   1.186   1.828   2.281 -0.8018 -0.2769  0.7258
 5536SOL     OW28066   1.478   0.712   2.923  0.3724  0.3660  0.2228
 5536SOL    HW128067   1.409   0.751   2.869  1.4555  0.0519 -1.3909
 5536SOL    HW228068   1.534   0.664   2.863  1.8309 -1.5798  3.1154
 5537SOL     OW28069   4.700   4.675   7.963 -0.5972 -0.2208 -0.2694
 5537SOL    HW128070   4.711   4.711   8.051 -0.1061 -0.1305 -0.3690
 5537SOL    HW228071   4.679   0.034   7.914  0.6918  0.6333  0.5598
 5538SOL     OW28072   2.070   4.301   2.555  0.2375  0.8103  0.7688
 5538SOL    HW128073   2.093   4.218   2.598 -1.0160  1.4836  2.7087
 5538SOL    HW228074   2.153   4.338   2.526  0.8746 -1.7556 -0.6582
 5539SOL     OW28075   3.550   0.926   2.892 -0.0204  0.2687  0.8409
 5539SOL    HW128076   3.620   0.973   2.847 -0.5619 -0.8189 -1.1505
 5539SOL    HW228077   3.483   0.918   2.825 -0.1642 -1.2990  1.1648
 5540SOL     OW28078   2.421   1.525   0.149  0.1299 -0.4167  0.0539
 5540SOL    HW128079   2.480   1.515   0.224  1.3841  1.7532 -0.6572
 5540SOL    HW228080   2.487   1.518   0.080  1.4317 -2.8386  1.5578
 5541SOL     OW28081   3.073   0.834   2.670  0.1385 -0.1565  0.1836
 5541SOL    HW128082   3.055   0.886   2.592 -0.8312  2.2362  2.0305
 5541SOL    HW228083   3.023   0.874   2.740 -2.7117 -2.6139 -0.4450
 5542SOL     OW28084   2.316   1.870  12.265  0.0853 -0.0013  0.1773
 5542SOL    HW128085   2.351   1.854  12.178  2.7746 -0.0284  1.2612
 5542SOL    HW228086   2.359   1.799  12.312 -0.6148 -1.2811 -1.1161
 5543SOL     OW28087   2.816   1.897   3.809 -0.2160  0.4019  0.2042
 5543SOL    HW128088   2.778   1.890   3.897 -0.6547 -3.2233 -0.2550
 5543SOL    HW228089   2.825   1.991   3.793  2.3712 -0.0173 -0.7895
 5544SOL     OW28090   2.716   0.462   7.861 -0.1657 -0.0372  0.3485
 5544SOL    HW128091   2.709   0.541   7.807  1.6038  0.0425  0.2520
 5544SOL    HW228092   2.639   0.472   7.918  1.0437  0.6595  1.8574
 5545SOL     OW28093   2.391   0.111   2.901  0.2402  0.0168  0.5825
 5545SOL    HW128094   2.320   0.122   2.964 -1.2800 -0.4096 -1.0567
 5545SOL    HW228095   2.355   0.070   2.823  0.6519  1.2441 -0.2492
 5546SOL     OW28096   2.071   2.768  13.215 -0.4257 -0.0919  0.3625
 5546SOL    HW128097   2.073   2.681  13.175 -1.6968  0.0922 -0.0856
 5546SOL    HW228098   2.164   2.776  13.239 -0.0819  0.5479 -1.2454
 5547SOL     OW28099   1.659   0.952   3.510 -0.1407 -1.1126 -0.6487
 5547SOL    HW128100   1.721   1.013   3.548 -0.4675 -0.7096 -0.7609
 5547SOL    HW228101   1.706   0.870   3.524  2.1299  0.7749  2.5625
 5548SOL     OW28102   2.255   1.275   4.249  0.0483 -0.2559 -0.5078
 5548SOL    HW128103   2.331   1.271   4.307 -1.6599 -1.5352  1.6424
 5548SOL    HW228104   2.212   1.354   4.284  0.7342 -0.2498  0.3257
 5549SOL     OW28105   0.910   1.568   5.324 -0.0913 -0.3810  0.0635
 5549SOL    HW128106   0.827   1.541   5.363  0.8972  0.7059  2.8979
 5549SOL    HW228107   0.892   1.619   5.245 -1.5178  0.7698  1.1481
 5550SOL     OW28108   0.156   3.459  15.908  0.4590 -0.4908 -0.1343
 5550SOL    HW128109   0.234   3.479  15.856  0.2161  1.3620  0.2001
 5550SOL    HW228110   0.186   3.443  15.998 -0.8873  1.4896  0.6778
 5551SOL     OW28111   0.408   4.040   6.021 -0.3376  0.8072 -0.3484
 5551SOL    HW128112   0.497   4.053   5.989  0.1689 -3.7974 -0.7666
 5551SOL    HW228113   0.387   3.959   5.974 -1.6234  0.4707  0.8169
 5552SOL     OW28114   3.702   3.912  15.834 -0.1186  0.0209 -0.5743
 5552SOL    HW128115   3.710   3.940  15.743  2.6832 -1.0931 -0.6543
 5552SOL    HW228116   3.651   3.985  15.871  1.6216  0.8325  0.1951
 5553SOL     OW28117   2.680   3.467   3.251  0.4176 -0.2016 -0.2267
 5553SOL    HW128118   2.734   3.426   3.183  0.6699 -0.2423 -0.0002
 5553SOL    HW228119   2.603   3.503   3.207 -1.2501 -1.9534  1.2867
 5554SOL     OW28120   3.877   0.032   9.356 -0.5663 -0.2093 -0.0517
 5554SOL    HW128121   3.917   0.063   9.275  0.5475 -2.0184 -0.2178
 5554SOL    HW228122   3.963   0.008   9.392 -0.0329 -0.9213 -1.7935
 5555SOL     OW28123   4.561   2.912   3.735  0.4683  0.7294 -0.1838
 5555SOL    HW128124   4.577   2.913   3.829 -0.8187  1.1441  0.0319
 5555SOL    HW228125   4.590   2.820   3.733  0.7974  0.8286  0.1666
 5556SOL     OW28126   2.726   4.009   3.588  0.3945 -0.3592 -0.1994
 5556SOL    HW128127   2.769   4.059   3.657  0.9862  2.5367 -2.6393
 5556SOL    HW228128   2.676   3.946   3.639  1.7079 -0.6947  0.6683
 5557SOL     OW28129   2.525   1.363   9.342  0.3516  0.0376  0.3989
 5557SOL    HW128130   2.492   1.304   9.410 -1.5851 -0.2640 -0.7964
 5557SOL    HW228131   2.515   1.296   9.274 -0.7870  0.4700  0.1364
 5558SOL     OW28132   2.653   3.362   4.456  0.8097 -0.2119 -0.1950
 5558SOL    HW128133   2.602   3.429   4.502  1.7056 -0.0359  0.5353
 5558SOL    HW228134   2.741   3.399   4.452  1.2807 -1.5069 -1.7780
 5559SOL     OW28135   2.399   3.818   3.419  0.7397 -0.0921  0.1452
 5559SOL    HW128136   2.351   3.874   3.480 -2.4024 -3.6464  0.9521
 5559SOL    HW228137   2.380   3.734   3.460 -0.4375  0.3191  0.4539
 5560SOL     OW28138   4.439   2.850   2.331  0.1330 -0.1446 -0.1789
 5560SOL    HW128139   4.456   2.775   2.275  1.2279  0.0335 -0.0887
 5560SOL    HW228140   4.508   2.907   2.298  0.6066 -0.7541 -0.2323
 5561SOL     OW28141   3.230   0.012   5.338  0.5099 -0.0668  0.6194
 5561SOL    HW128142   3.204   0.101   5.314 -2.7097 -0.1753  3.7589
 5561SOL    HW228143   3.262   4.688   5.260 -1.5658 -1.1703  0.4003
 5562SOL     OW28144   2.592   3.980   5.659 -0.3726 -0.4282 -0.0424
 5562SOL    HW128145   2.548   3.929   5.726 -0.7312  0.4130  0.3712
 5562SOL    HW228146   2.516   4.028   5.624 -0.1560 -0.6397 -0.8035
 5563SOL     OW28147   1.267   3.799  16.649 -0.2305 -0.2392 -0.6875
 5563SOL    HW128148   1.226   3.713  16.647 -0.6811 -0.0414  0.0744
 5563SOL    HW228149   1.229   3.836  16.569 -4.2840  0.5859  1.5979
 5564SOL     OW28150   1.213   4.135  17.348 -0.0657 -0.3910 -0.6155
 5564SOL    HW128151   1.200   4.099  17.436  1.7207  0.4407 -0.0080
 5564SOL    HW228152   1.279   4.202  17.362 -0.1523 -0.3921 -0.1898
 5565SOL     OW28153   0.578   2.949   7.585  0.5885  0.3045 -0.0898
 5565SOL    HW128154   0.578   2.892   7.661 -0.5838  0.6413  0.1587
 5565SOL    HW228155   0.535   2.900   7.515  0.5395 -0.1334  0.2474
 5566SOL     OW28156   0.104   2.071   2.461 -0.5652 -0.0045  0.5362
 5566SOL    HW128157   0.142   1.986   2.438  0.7192  0.7311 -0.0605
 5566SOL    HW228158   0.030   2.085   2.403 -0.8964  3.1025  1.7069
 5567SOL     OW28159   1.348   2.025   3.013 -0.5300 -0.1564  0.2367
 5567SOL    HW128160   1.352   2.120   3.027 -0.5977 -0.4183  2.1205
 5567SOL    HW228161   1.430   1.991   3.049  1.3401  2.5442 -1.5331
 5568SOL     OW28162   1.765   4.496   3.238 -0.3151 -0.5427  0.0427
 5568SOL    HW128163   1.764   4.574   3.295  2.4527  0.6524 -1.5517
 5568SOL    HW228164   1.772   4.420   3.296  0.1381 -0.3275  0.2700
 5569SOL     OW28165   2.966   4.051   5.379 -0.2091  0.0401  0.2158
 5569SOL    HW128166   2.878   4.066   5.343  0.3995 -0.3080 -1.4134
 5569SOL    HW228167   2.971   3.957   5.393  0.4297 -0.0289 -0.4539
 5570SOL     OW28168   3.401   0.940   0.167 -0.2532  0.0974 -0.3686
 5570SOL    HW128169   3.311   0.912   0.184 -0.7579  1.0762 -1.4504
 5570SOL    HW228170   3.420   0.898   0.083 -1.6330 -0.7271 -0.2722
 5571SOL     OW28171   1.365   2.724   4.247  0.4073  0.0141  0.5313
 5571SOL    HW128172   1.419   2.779   4.191  0.3139  1.3519  1.7565
 5571SOL    HW228173   1.361   2.779   4.325  2.9655 -0.5348  1.0493
 5572SOL     OW28174   2.556   2.538  16.640  0.5469  0.1060 -0.3156
 5572SOL    HW128175   2.567   2.629  16.669 -2.3314  0.2347  0.4090
 5572SOL    HW228176   2.505   2.547  16.560  0.9264 -0.7701 -0.6473
 5573SOL     OW28177   3.134   0.613   8.514  0.1981  1.0538  0.3168
 5573SOL    HW128178   3.046   0.591   8.485  0.2042 -1.6074  2.3476
 5573SOL    HW228179   3.109   0.679   8.580 -0.5152  0.6172  0.4770
 5574SOL     OW28180   0.325   1.343   6.142 -0.5788  0.1145  0.6882
 5574SOL    HW128181   0.414   1.354   6.107 -0.7853 -0.8893 -0.1436
 5574SOL    HW228182   0.303   1.265   6.091 -1.7816  1.0771 -0.2757
 5575SOL     OW28183   0.683   3.587   7.047  0.2976  0.5387 -0.2261
 5575SOL    HW128184   0.634   3.569   7.127 -2.0243 -1.0153 -1.9954
 5575SOL    HW228185   0.634   3.536   6.982  0.0546  0.7223 -0.1889
 5576SOL     OW28186   2.258   1.071   9.946 -0.2165  0.1051  0.1525
 5576SOL    HW128187   2.179   1.070  10.001 -0.8478  0.5632 -0.7384
 5576SOL    HW228188   2.272   0.980   9.971  0.7117  0.7693  2.0457
 5577SOL     OW28189   1.264   0.598   3.622  0.4185 -0.6419 -0.1294
 5577SOL    HW128190   1.239   0.595   3.530 -1.6076 -1.5727  0.4430
 5577SOL    HW228191   1.224   0.674   3.663  1.3671  0.6649 -1.6144
 5578SOL     OW28192   2.632   2.248  13.465  0.5777  0.0415 -0.0108
 5578SOL    HW128193   2.682   2.307  13.522  0.9154 -1.3535  1.1521
 5578SOL    HW228194   2.604   2.307  13.396 -0.3897  0.9677  1.1628
 5579SOL     OW28195   3.605   0.187   5.637  0.0906  0.2183  0.4520
 5579SOL    HW128196   3.550   0.260   5.610 -1.4042 -1.4208 -1.0113
 5579SOL    HW228197   3.662   0.230   5.700  1.6757  0.0284 -0.8591
 5580SOL     OW28198   2.232   1.087   3.497 -0.0899  0.1378  0.2001
 5580SOL    HW128199   2.321   1.054   3.484 -1.0719 -2.5567  0.2104
 5580SOL    HW228200   2.234   1.091   3.593  0.8735 -1.3050  0.2299
 5581SOL     OW28201   3.721   0.568   6.977 -0.1664  0.1502 -0.2424
 5581SOL    HW128202   3.692   0.595   7.064  0.8724  2.0279 -0.4713
 5581SOL    HW228203   3.814   0.546   6.985 -0.5256 -1.5211 -0.7071
 5582SOL     OW28204   0.320   0.423  17.027  0.3283 -0.1422 -0.2094
 5582SOL    HW128205   0.266   0.364  16.973  1.1016 -1.0703  0.0326
 5582SOL    HW228206   0.341   0.498  16.973 -3.1701  0.4248 -0.8321
 5583SOL     OW28207   1.772   1.256  13.060 -0.2161 -0.6454 -0.2068
 5583SOL    HW128208   1.743   1.245  13.151 -0.5217 -0.8793 -0.3296
 5583SOL    HW228209   1.713   1.328  13.039  1.4209  0.6150 -0.4644
 5584SOL     OW28210   2.791   0.847   2.434  0.0766 -0.6091 -0.4417
 5584SOL    HW128211   2.842   0.921   2.470 -0.0224 -0.8438  0.1893
 5584SOL    HW228212   2.723   0.830   2.499 -0.2589  0.0371 -0.6295
 5585SOL     OW28213   0.835   0.292   8.300  0.1218  0.5829  0.4508
 5585SOL    HW128214   0.828   0.261   8.390 -0.2610 -0.2812  0.1164
 5585SOL    HW228215   0.760   0.244   8.266  0.9819  0.1277 -0.7937
 5586SOL     OW28216   2.966   0.959   7.090  0.2365 -0.1374 -0.0091
 5586SOL    HW128217   2.880   0.997   7.071 -0.9197 -3.1808 -0.7885
 5586SOL    HW228218   3.031   1.029   7.078  1.1097 -1.1202 -0.9622
 5587SOL     OW28219   0.313   0.429   5.109  0.1440  0.1595  0.2826
 5587SOL    HW128220   0.269   0.511   5.087  3.9056  1.2563 -3.3996
 5587SOL    HW228221   0.406   0.448   5.124 -0.0346  0.5842  0.8643
 5588SOL     OW28222   2.120   0.556  14.037  0.3333 -0.1330  0.1095
 5588SOL    HW128223   2.106   0.468  14.073 -0.8692 -0.2526 -0.6507
 5588SOL    HW228224   2.080   0.619  14.096 -3.5596 -1.7894 -0.7994
 5589SOL     OW28225   0.728   3.740   8.193  0.1007  0.9081 -0.0369
 5589SOL    HW128226   0.815   3.762   8.160  0.6214 -0.1002  0.6872
 5589SOL    HW228227   0.730   3.796   8.272 -0.9880  1.0595 -0.1117
 5590SOL     OW28228   2.867   3.064  16.873 -0.2794 -0.6932 -0.0941
 5590SOL    HW128229   2.806   3.104  16.935  0.3156 -0.9529  0.6559
 5590SOL    HW228230   2.808   3.055  16.798 -2.3269  0.0139  1.4233
 5591SOL     OW28231   2.377   3.916   4.462 -0.1177  0.3158 -0.2311
 5591SOL    HW128232   2.356   3.856   4.391  1.9625 -0.4264 -0.2481
 5591SOL    HW228233   2.436   3.867   4.521 -0.2723 -0.1945 -0.4993
 5592SOL     OW28234   3.452   2.191   2.710 -0.2599 -0.8129 -0.1431
 5592SOL    HW128235   3.431   2.282   2.733 -0.2688 -1.0548  0.8090
 5592SOL    HW228236   3.545   2.199   2.734 -0.2799 -0.2694 -0.2401
 5593SOL     OW28237   3.301   0.798  12.395  0.0639  0.0892  0.7471
 5593SOL    HW128238   3.333   0.883  12.427  2.0498 -0.2925 -0.2195
 5593SOL    HW228239   3.361   0.733  12.430 -1.4888 -1.5912  0.2964
 5594SOL     OW28240   1.501   2.325  10.446 -0.3276 -0.3640  0.1285
 5594SOL    HW128241   1.488   2.232  10.427 -1.0153 -0.3323  0.4602
 5594SOL    HW228242   1.459   2.364  10.370 -1.9791 -0.4685  1.0015
 5595SOL     OW28243   1.982   2.955   8.939 -1.1124 -0.4854  0.0803
 5595SOL    HW128244   1.923   2.973   9.013 -1.1952  2.7708 -0.7910
 5595SOL    HW228245   1.966   3.024   8.874  1.4520 -0.8738 -0.9331
 5596SOL     OW28246   0.212   2.209  15.741  0.6544  0.1399  0.0611
 5596SOL    HW128247   0.259   2.193  15.660  0.8663  1.2055 -0.0284
 5596SOL    HW228248   0.282   2.250  15.793 -0.4378  1.8097  0.2485
 5597SOL     OW28249   1.787   1.531   2.113  0.3873  0.2356  0.2528
 5597SOL    HW128250   1.844   1.565   2.044 -0.5008 -0.8917 -1.0540
 5597SOL    HW228251   1.834   1.449   2.126 -0.1260 -0.3832 -1.7462
 5598SOL     OW28252   3.549   2.797  13.965  0.0431 -0.4173 -0.7598
 5598SOL    HW128253   3.498   2.811  13.885 -0.9140  0.3177 -0.0195
 5598SOL    HW228254   3.634   2.813  13.923 -0.4228  0.5343 -1.3555
 5599SOL     OW28255   4.405   3.782  13.565  0.3401 -0.2685  0.7016
 5599SOL    HW128256   4.390   3.714  13.631 -1.2841 -0.0245  0.5788
 5599SOL    HW228257   4.358   3.859  13.596 -0.4298  0.3039 -1.8845
 5600SOL     OW28258   4.448   4.210   5.381 -0.3769  0.3127 -0.0054
 5600SOL    HW128259   4.412   4.281   5.434  2.4376  1.0633  0.9243
 5600SOL    HW228260   4.447   4.242   5.291 -3.1453 -2.2865 -0.8796
 5601SOL     OW28261   3.549   0.356   1.707 -0.3562 -0.5212 -0.9989
 5601SOL    HW128262   3.518   0.333   1.619 -1.6672 -1.5168 -0.2828
 5601SOL    HW228263   3.594   0.437   1.684 -1.4018  0.7776  1.5731
 5602SOL     OW28264   1.415   3.910   0.546  0.5628 -0.2597  0.0850
 5602SOL    HW128265   1.426   3.911   0.451  0.0665 -1.5984  0.0180
 5602SOL    HW228266   1.455   3.829   0.578 -1.5048 -1.0228  0.7381
 5603SOL     OW28267   4.502   0.413  12.695 -0.3274 -0.7988  0.1358
 5603SOL    HW128268   4.574   0.350  12.701 -0.6493 -1.2861 -1.1907
 5603SOL    HW228269   4.549   0.493  12.718  0.4374 -0.8081 -1.3896
 5604SOL     OW28270   2.528   1.414   7.768 -0.2977 -0.5265  0.2805
 5604SOL    HW128271   2.600   1.365   7.810  0.7418  0.0064 -0.8659
 5604SOL    HW228272   2.475   1.424   7.847 -0.6645  1.7093 -0.2715
 5605SOL     OW28273   0.656   1.539   5.011 -0.3732  0.1672  0.2935
 5605SOL    HW128274   0.696   1.615   5.053  1.6040 -0.2175 -0.8834
 5605SOL    HW228275   0.594   1.576   4.948  0.7486  1.0631 -0.3046
 5606SOL     OW28276   4.608   3.666  11.636  0.0079  0.3700  0.6182
 5606SOL    HW128277   4.587   3.706  11.720 -2.6784  0.0681  0.1035
 5606SOL    HW228278   4.564   3.722  11.572  0.2679  1.3825  1.3407
 5607SOL     OW28279   3.611   0.883  11.519  0.0200 -0.3592  0.2247
 5607SOL    HW128280   3.657   0.904  11.437  0.6234 -0.6925  0.4818
 5607SOL    HW228281   3.568   0.968  11.530  1.9015  0.7422 -0.7302
 5608SOL     OW28282   0.233   0.093   7.053  0.4531  0.1046 -0.2147
 5608SOL    HW128283   0.245   0.172   7.105  0.5317 -0.0626  0.0195
 5608SOL    HW228284   0.162   0.120   6.994 -0.0935  1.4446  1.0539
 5609SOL     OW28285   4.425   0.693   8.780 -0.1707 -0.2327 -0.2385
 5609SOL    HW128286   4.380   0.627   8.834  0.6315 -0.8961 -0.3745
 5609SOL    HW228287   4.467   0.752   8.842  0.3272  0.7304 -1.5090
 5610SOL     OW28288   0.352   1.102   2.589 -0.2943  0.0055  0.0253
 5610SOL    HW128289   0.268   1.089   2.543 -0.1105 -2.7103  0.4579
 5610SOL    HW228290   0.420   1.068   2.531  1.0637  2.1207  0.4172
 5611SOL     OW28291   3.745   3.951  14.034  0.4270  0.2810  0.2468
 5611SOL    HW128292   3.800   3.909  13.967 -2.3565 -0.1670 -1.7421
 5611SOL    HW228293   3.811   3.936  14.102  0.1127 -1.5264  0.1453
 5612SOL     OW28294   0.842   0.130   9.258  0.4874 -0.4717  0.6589
 5612SOL    HW128295   0.904   0.058   9.267  0.8404 -0.5239 -2.4587
 5612SOL    HW228296   0.897   0.206   9.275 -0.0949  0.3879 -1.2797
 5613SOL     OW28297   0.410   2.754  12.397 -0.1790  0.7017 -0.0566
 5613SOL    HW128298   0.435   2.791  12.481 -1.1037 -0.5390  0.7607
 5613SOL    HW228299   0.321   2.725  12.419  0.0635 -0.0828 -0.1198
 5614SOL     OW28300   3.745   1.397   5.386  0.6544 -0.4157 -0.2610
 5614SOL    HW128301   3.818   1.335   5.380  1.0702  0.2312 -1.9750
 5614SOL    HW228302   3.674   1.350   5.431  1.0864 -1.1215 -0.3094
 5615SOL     OW28303   4.692   3.565  10.146 -0.0279  0.0745 -0.2272
 5615SOL    HW128304   4.600   3.576  10.169  0.4997  0.5066  1.6477
 5615SOL    HW228305   4.690   3.617  10.065  1.0206  1.1592  0.4546
 5616SOL     OW28306   3.778   2.959   0.541  0.5987  0.9779  0.0505
 5616SOL    HW128307   3.728   3.005   0.474 -0.4943  0.4085  0.4680
 5616SOL    HW228308   3.767   2.864   0.528 -0.9778  0.9660  1.4375
 5617SOL     OW28309   3.861   1.126  13.782  0.3963  0.2872 -0.2796
 5617SOL    HW128310   3.828   1.037  13.794 -1.0813  0.9710  0.7707
 5617SOL    HW228311   3.949   1.105  13.752  0.1782  2.7959 -2.7286
 5618SOL     OW28312   1.158   1.230   6.610  0.4868  0.0902 -0.4603
 5618SOL    HW128313   1.157   1.316   6.567 -1.5017  1.0587  1.5039
 5618SOL    HW228314   1.175   1.174   6.534 -2.1098 -1.9462  0.4643
 5619SOL     OW28315   4.619   3.250   2.622 -0.7622 -0.1040  0.6411
 5619SOL    HW128316   4.574   3.301   2.554 -0.7760 -0.9715  0.0088
 5619SOL    HW228317   4.672   3.323   2.653 -0.1033 -0.5121  0.4709
 5620SOL     OW28318   4.249   3.803  11.431 -0.3484  0.5399  0.3427
 5620SOL    HW128319   4.203   3.766  11.356 -0.0056  2.7195 -0.9546
 5620SOL    HW228320   4.227   3.744  11.502  0.3311  0.3277  0.3783
 5621SOL     OW28321   3.434   3.867   4.643 -0.1526  0.1883 -0.5997
 5621SOL    HW128322   3.520   3.852   4.681 -0.2763 -3.4385 -1.6893
 5621SOL    HW228323   3.416   3.778   4.610  1.1855 -0.0569 -0.6380
 5622SOL     OW28324   1.645   3.791  11.700 -0.0916 -0.2586 -0.0005
 5622SOL    HW128325   1.578   3.833  11.647 -0.4958 -3.1652 -1.7568
 5622SOL    HW228326   1.686   3.862  11.750  0.1824 -0.8729  0.6467
 5623SOL     OW28327   3.085   0.115   2.423 -0.2888 -0.2558  0.6423
 5623SOL    HW128328   3.025   0.189   2.419 -0.0268 -0.0200  1.1453
 5623SOL    HW228329   3.039   0.050   2.369 -1.5591  0.5313  0.7715
 5624SOL     OW28330   0.039   4.604  13.271 -0.0937  0.2549  0.2643
 5624SOL    HW128331   4.688   4.546  13.248  0.0112  0.6295 -1.0256
 5624SOL    HW228332   0.123   4.558  13.267  0.0075  0.2988  1.7757
 5625SOL     OW28333   3.733   0.048   3.514  0.7156 -0.7429 -0.1172
 5625SOL    HW128334   3.733   4.715   3.594 -1.4806  0.1409  0.4859
 5625SOL    HW228335   3.751   0.138   3.541  1.6261 -1.4068  1.5282
 5626SOL     OW28336   4.457   2.968   8.137 -0.3736  0.5358 -0.3839
 5626SOL    HW128337   4.549   2.988   8.117  0.0616  1.6608  2.7617
 5626SOL    HW228338   4.433   2.917   8.060  2.1667  0.0598 -0.8904
 5627SOL     OW28339   0.838   0.680   4.498 -0.3508  0.2496 -0.7611
 5627SOL    HW128340   0.931   0.698   4.504  0.1292 -2.0465 -1.2032
 5627SOL    HW228341   0.838   0.605   4.558 -0.4467  1.3581  0.6078
 5628SOL     OW28342   2.973   2.088   9.559 -0.1041 -0.0394 -0.4549
 5628SOL    HW128343   2.995   2.134   9.478  0.1083 -1.5833 -1.2887
 5628SOL    HW228344   3.027   2.009   9.543 -1.7396 -1.3771  0.7142
 5629SOL     OW28345   4.000   1.966   4.624  0.6056  0.6131  0.3440
 5629SOL    HW128346   4.008   2.061   4.634 -1.1210  1.2464 -4.0312
 5629SOL    HW228347   3.952   1.947   4.704 -4.3927  2.3185 -2.2145
 5630SOL     OW28348   2.620   4.315   7.964  0.3811  0.3998 -0.1714
 5630SOL    HW128349   2.525   4.322   7.968  0.3682  0.0669  0.1574
 5630SOL    HW228350   2.634   4.385   7.900  1.9498 -0.7719 -1.1061
 5631SOL     OW28351   2.881   2.977   8.814  0.3423 -0.6373  0.6212
 5631SOL    HW128352   2.799   2.931   8.799  0.0200 -0.2551  1.1923
 5631SOL    HW228353   2.931   2.896   8.819  1.8816  0.1843 -1.2983
 5632SOL     OW28354   3.344   0.782  10.829  0.0072 -0.7852 -0.5557
 5632SOL    HW128355   3.291   0.805  10.752  0.8005 -0.0929 -0.8847
 5632SOL    HW228356   3.429   0.809  10.796  0.5384 -0.0303  1.4694
 5633SOL     OW28357   3.742   2.713   8.075  0.1256  0.0534  0.4683
 5633SOL    HW128358   3.688   2.641   8.042 -0.4011  0.8656 -0.4492
 5633SOL    HW228359   3.805   2.659   8.122  2.4304  0.2337 -2.4742
 5634SOL     OW28360   2.129   2.188   7.850 -0.6039 -0.1702  0.0888
 5634SOL    HW128361   2.173   2.113   7.811  2.4081  2.3689 -1.4182
 5634SOL    HW228362   2.199   2.229   7.903  0.6900  0.4827 -2.1284
 5635SOL     OW28363   0.738   2.770   2.631  0.0033 -0.0560 -0.2007
 5635SOL    HW128364   0.732   2.692   2.576  0.9917 -0.8242  0.7645
 5635SOL    HW228365   0.801   2.739   2.696 -0.2475  0.2294  0.1807
 5636SOL     OW28366   1.746   3.722   3.708  0.2286  0.0020  0.3819
 5636SOL    HW128367   1.795   3.639   3.701  1.5703  0.7398  0.9745
 5636SOL    HW228368   1.673   3.720   3.646 -0.1758  2.5231  0.7938
 5637SOL     OW28369   0.516   3.576   7.283 -0.5299 -0.3362 -0.0264
 5637SOL    HW128370   0.541   3.655   7.332  1.1312 -1.4298  0.9010
 5637SOL    HW228371   0.423   3.593   7.270 -0.3851  2.1359  2.1196
 5638SOL     OW28372   1.950   1.934   7.986  0.0265  0.0624  0.2115
 5638SOL    HW128373   1.919   1.851   8.024 -1.3346  1.3061  1.8135
 5638SOL    HW228374   1.992   1.899   7.908 -2.5775 -0.5630 -0.9159
 5639SOL     OW28375   1.379   1.667   6.114 -0.1151  0.1891 -0.3708
 5639SOL    HW128376   1.406   1.758   6.124 -1.2325  0.4700  0.0891
 5639SOL    HW228377   1.461   1.619   6.102  0.7767  0.9003  2.8557
 5640SOL     OW28378   2.854   2.580  11.419 -0.3545 -0.3991  0.3223
 5640SOL    HW128379   2.909   2.654  11.445 -0.1783  0.1535 -1.6370
 5640SOL    HW228380   2.848   2.596  11.325  1.2304  0.5214  0.3761
 5641SOL     OW28381   0.556   1.864   2.401  0.1294 -0.2535  0.1000
 5641SOL    HW128382   0.632   1.818   2.365 -0.1965  0.9528 -2.1084
 5641SOL    HW228383   0.568   1.846   2.494  0.9856 -0.0256  0.0370
 5642SOL     OW28384   1.516   3.556   3.858 -0.1760  0.0176 -0.0834
 5642SOL    HW128385   1.512   3.642   3.816 -1.3355 -0.8496 -1.7356
 5642SOL    HW228386   1.578   3.509   3.803 -0.3337 -0.3418  0.0444
 5643SOL     OW28387   3.914   3.323  16.350 -0.1055  0.0500  0.7075
 5643SOL    HW128388   3.892   3.348  16.260 -3.2546 -0.9502  1.1801
 5643SOL    HW228389   3.895   3.410  16.386 -0.6881  0.1325  0.2077
 5644SOL     OW28390   0.315   3.829   3.723  0.0751  0.0236 -0.3075
 5644SOL    HW128391   0.327   3.812   3.629 -0.6374 -1.6286 -0.0982
 5644SOL    HW228392   0.404   3.847   3.752  0.9002  0.0867 -2.8032
 5645SOL     OW28393   3.790   2.358  10.646 -0.4057 -0.1007 -0.3871
 5645SOL    HW128394   3.763   2.375  10.736 -1.8277  0.2540 -0.8651
 5645SOL    HW228395   3.884   2.344  10.656 -0.3156 -0.6348 -1.9723
 5646SOL     OW28396   1.337   2.661   5.875  0.7071 -0.2344  0.5248
 5646SOL    HW128397   1.316   2.606   5.799  2.7071 -1.2842  0.7292
 5646SOL    HW228398   1.432   2.645   5.878  0.5681 -0.6029  2.9416
 5647SOL     OW28399   4.244   1.398   7.617 -0.3672 -0.7213  0.4996
 5647SOL    HW128400   4.200   1.316   7.639 -0.5353 -1.0460 -1.0455
 5647SOL    HW228401   4.236   1.450   7.697 -0.4524  0.1056 -0.0429
 5648SOL     OW28402   4.461   2.442  10.002  0.1426  0.6693  0.4712
 5648SOL    HW128403   4.420   2.525   9.976  0.8577  0.6900 -0.5828
 5648SOL    HW228404   4.528   2.435   9.933 -1.5978  0.8517 -1.2400
 5649SOL     OW28405   0.178   2.129  16.949 -0.0186 -0.4883 -0.0385
 5649SOL    HW128406   0.096   2.171  16.921  1.6885  1.8402 -1.5331
 5649SOL    HW228407   0.139   2.055  16.995  0.2904 -0.6602 -0.0538
 5650SOL     OW28408   0.881   4.476   7.620 -0.0047  0.8112  0.0651
 5650SOL    HW128409   0.940   4.411   7.580 -0.7435  0.4671 -0.4559
 5650SOL    HW228410   0.932   4.555   7.602 -0.7090  1.3661  0.5005
 5651SOL     OW28411   3.021   0.568   2.619  0.0837  0.6096 -0.3860
 5651SOL    HW128412   3.017   0.662   2.638 -0.8336  0.6812 -0.9311
 5651SOL    HW228413   2.991   0.539   2.705  0.1711 -4.2934 -2.0510
 5652SOL     OW28414   2.876   4.641   9.004  0.4258 -0.0560  0.2792
 5652SOL    HW128415   2.841   4.685   9.082  3.3388  1.8972  0.4674
 5652SOL    HW228416   2.819   4.671   8.934  0.1502 -2.4477 -0.5338
 5653SOL     OW28417   4.371   0.329   0.764 -0.0641 -0.0353  0.1295
 5653SOL    HW128418   4.353   0.378   0.684 -1.8271 -0.6980  0.1281
 5653SOL    HW228419   4.298   0.267   0.765 -0.7964  0.8099 -1.6178
 5654SOL     OW28420   4.555   1.044   8.575 -0.5041  0.1427  0.4321
 5654SOL    HW128421   4.509   0.960   8.582  0.6675 -0.2249  3.5382
 5654SOL    HW228422   4.619   1.023   8.507  1.3052  0.2343  2.1089
 5655SOL     OW28423   3.674   3.108   3.954  0.6969 -0.1848 -0.2980
 5655SOL    HW128424   3.731   3.181   3.930 -0.4706  1.5949  2.4531
 5655SOL    HW228425   3.743   3.042   3.965 -0.3214 -0.9815  1.2730
 5656SOL     OW28426   0.030   1.694   2.859 -0.0468  0.3175 -0.2445
 5656SOL    HW128427   4.711   1.658   2.780  0.0474 -0.6971  0.1690
 5656SOL    HW228428   4.715   1.782   2.849 -0.1794  0.3003  0.0711
 5657SOL     OW28429   2.214   0.722   3.558 -0.8396  0.2266 -0.5100
 5657SOL    HW128430   2.125   0.757   3.558 -1.0623 -0.3188  2.7128
 5657SOL    HW228431   2.246   0.749   3.644  2.9086 -2.1742 -1.1548
 5658SOL     OW28432   0.474   0.167   1.645 -0.4235  0.1179  0.0805
 5658SOL    HW128433   0.441   0.220   1.718  2.9631  0.1389  1.5734
 5658SOL    HW228434   0.553   0.124   1.676 -1.0741  0.0840  1.6737
 5659SOL     OW28435   2.065   3.453  11.036 -0.6529  0.2008 -0.2022
 5659SOL    HW128436   2.081   3.517  10.966  1.5438  0.1254  0.2517
 5659SOL    HW228437   1.982   3.417  11.003 -1.1092  0.1494  1.0304
 5660SOL     OW28438   0.667   0.299   4.573 -0.3175 -0.0004  0.2547
 5660SOL    HW128439   0.602   0.355   4.531 -2.0392 -2.3393 -0.2060
 5660SOL    HW228440   0.625   0.284   4.658 -0.6774  2.9234  0.6093
 5661SOL     OW28441   3.999   2.427   0.851 -0.7313 -0.0688  0.4628
 5661SOL    HW128442   3.969   2.338   0.869  0.6051 -0.3758  1.1447
 5661SOL    HW228443   4.093   2.412   0.839 -0.7448  0.2605 -0.0836
 5662SOL     OW28444   1.493   0.610   8.040 -0.5236 -1.0091 -0.1755
 5662SOL    HW128445   1.427   0.578   8.102  1.0632 -0.8136  1.6165
 5662SOL    HW228446   1.449   0.685   8.000  2.7464  0.1469 -1.6160
 5663SOL     OW28447   2.797   3.111  11.430 -0.1564 -0.4235 -0.4955
 5663SOL    HW128448   2.831   3.134  11.516  1.6402 -0.6953 -1.1390
 5663SOL    HW228449   2.729   3.178  11.417  1.8821  1.5246 -1.1102
 5664SOL     OW28450   2.727   4.446   5.835 -0.2045  0.0912 -0.6830
 5664SOL    HW128451   2.649   4.419   5.787 -0.1121  0.3355 -0.9741
 5664SOL    HW228452   2.725   4.541   5.823 -0.7938  0.0245 -1.0562
 5665SOL     OW28453   2.419   0.464   5.436 -0.3251 -0.1858 -0.6552
 5665SOL    HW128454   2.497   0.469   5.381  0.5233 -2.3747  0.3477
 5665SOL    HW228455   2.461   0.484   5.520  0.4819 -0.1241 -1.0813
 5666SOL     OW28456   1.745   1.506   3.432 -0.0736  0.8120  0.0365
 5666SOL    HW128457   1.698   1.570   3.486  4.0255  1.7473  2.5152
 5666SOL    HW228458   1.672   1.477   3.377  0.4244  0.4544 -0.4365
 5667SOL     OW28459   0.954   2.014   7.252  0.8564 -0.4210  0.1569
 5667SOL    HW128460   0.903   2.075   7.199 -0.5869 -2.7508 -1.1196
 5667SOL    HW228461   0.907   2.020   7.336 -0.9123  1.5744 -0.9838
 5668SOL     OW28462   2.383   1.269   9.798  0.6656  0.1568 -0.3452
 5668SOL    HW128463   2.339   1.209   9.858  1.5953 -0.6382 -0.4545
 5668SOL    HW228464   2.426   1.334   9.853 -0.8845  0.8625  0.0344
 5669SOL     OW28465   2.129   4.327  11.047  0.0331 -0.4227  0.1150
 5669SOL    HW128466   2.165   4.301  11.132  2.6858 -0.0906 -0.9011
 5669SOL    HW228467   2.178   4.266  10.992 -1.0069 -2.0551  0.9893
 5670SOL     OW28468   1.232   0.671   7.448  0.1554 -0.0954 -0.3361
 5670SOL    HW128469   1.254   0.760   7.421 -0.7260 -0.0295 -0.8711
 5670SOL    HW228470   1.309   0.638   7.494 -0.7003 -0.3847  0.8785
 5671SOL     OW28471   0.870   1.587   5.729 -0.1286  0.0478 -0.1602
 5671SOL    HW128472   0.855   1.506   5.681 -0.5042 -1.1837  2.0141
 5671SOL    HW228473   0.790   1.636   5.711  0.5077  1.5190  0.9940
 5672SOL     OW28474   0.086   0.460  16.722 -0.1924 -0.2335 -0.1487
 5672SOL    HW128475   0.002   0.503  16.733 -0.6141 -1.1736  0.2656
 5672SOL    HW228476   0.061   0.375  16.685 -1.0968 -1.0611  2.4009
 5673SOL     OW28477   4.533   3.514   6.093  0.0589  0.3139 -0.6728
 5673SOL    HW128478   4.534   3.609   6.094  1.1390  0.2786  1.9001
 5673SOL    HW228479   4.444   3.493   6.063 -0.6412  1.6689  0.4787
 5674SOL     OW28480   3.175   4.183   7.515 -0.2879  0.2888 -0.1568
 5674SOL    HW128481   3.261   4.199   7.475  0.1270  0.2750  0.7265
 5674SOL    HW228482   3.166   4.273   7.548  0.5635 -1.1215  3.8786
 5675SOL     OW28483   3.647   0.310   6.877 -0.2135  0.2695  0.3026
 5675SOL    HW128484   3.695   0.378   6.926 -1.0359 -0.7756  2.5709
 5675SOL    HW228485   3.616   0.254   6.948 -0.2706 -0.4479 -0.2968
 5676SOL     OW28486   2.612   0.640   4.633  0.9889 -0.1196 -0.2324
 5676SOL    HW128487   2.541   0.702   4.645  0.2591 -1.4997  2.5646
 5676SOL    HW228488   2.623   0.609   4.724  0.7928 -0.9297 -0.4871
 5677SOL     OW28489   4.098   1.022   7.347 -0.6346  0.1234 -0.2533
 5677SOL    HW128490   4.065   0.961   7.282  0.0357  0.6209 -1.0644
 5677SOL    HW228491   4.193   1.016   7.343 -0.6866  1.0023 -3.0265
 5678SOL     OW28492   1.312   1.549   7.855  0.2013  0.1867 -0.0800
 5678SOL    HW128493   1.395   1.547   7.903 -0.6230 -0.3109  1.3196
 5678SOL    HW228494   1.260   1.607   7.910  0.0495  0.7680 -0.8350
 5679SOL     OW28495   1.766   4.372   9.456  0.1284 -0.2844  0.1666
 5679SOL    HW128496   1.843   4.406   9.502  1.2494 -2.4321 -0.1048
 5679SOL    HW228497   1.752   4.291   9.506  0.3517  0.6377  1.7275
 5680SOL     OW28498   3.860   3.463   2.978 -0.8534 -0.3374 -0.0094
 5680SOL    HW128499   3.881   3.450   2.885 -0.2431 -0.6510  0.1741
 5680SOL    HW228500   3.928   3.414   3.024 -0.7459  0.9672  1.2037
 5681SOL     OW28501   2.407   4.681  11.292  0.2106  0.2237 -0.2110
 5681SOL    HW128502   2.372   0.025  11.232  0.6588  0.5459 -0.1212
 5681SOL    HW228503   2.447   4.623  11.227  0.5564  1.5438 -1.1677
 5682SOL     OW28504   3.818   2.585   0.048 -0.4977  0.2992  0.3162
 5682SOL    HW128505   3.865   2.667   0.031 -0.1478 -0.2097 -1.0882
 5682SOL    HW228506   3.782   2.574  17.647  0.6611  0.5259 -0.1867
 5683SOL     OW28507   3.398   2.237  16.524  0.1789  0.1638  0.2176
 5683SOL    HW128508   3.313   2.196  16.541  0.3768 -1.1221 -1.9521
 5683SOL    HW228509   3.406   2.258  16.432  2.0048 -0.5411  0.2196
 5684SOL     OW28510   4.237   1.633   2.253  0.3306 -0.0214  0.1059
 5684SOL    HW128511   4.179   1.702   2.285 -3.0006 -4.0109  2.7041
 5684SOL    HW228512   4.262   1.680   2.173  3.1875  1.1141  1.6650
 5685SOL     OW28513   4.543   2.225   8.062  0.2713 -0.0068 -0.0164
 5685SOL    HW128514   4.607   2.159   8.088 -0.1134 -0.2403  0.3262
 5685SOL    HW228515   4.606   2.296   8.071  0.4224 -0.2663  0.9791
 5686SOL     OW28516   3.455   3.827  14.682 -0.0103 -0.9568 -0.5277
 5686SOL    HW128517   3.385   3.768  14.711 -0.0153 -1.0907 -0.8115
 5686SOL    HW228518   3.421   3.867  14.602  0.4032  1.4957  0.5283
 5687SOL     OW28519   2.427   4.526   7.472 -0.5021  0.4927 -0.3854
 5687SOL    HW128520   2.443   4.569   7.556 -0.1184 -1.5398  0.5841
 5687SOL    HW228521   2.458   4.438   7.493 -2.4567  0.0823  0.7643
 5688SOL     OW28522   0.731   3.441   2.841  0.1790 -0.0215  0.1366
 5688SOL    HW128523   0.784   3.402   2.771 -0.0908  2.4154 -1.4043
 5688SOL    HW228524   0.748   3.374   2.908 -1.3124  1.2565  1.7816
 5689SOL     OW28525   2.397   0.208   2.246 -0.0624 -0.4778  0.4118
 5689SOL    HW128526   2.426   0.128   2.202  2.0399  0.0409  0.8532
 5689SOL    HW228527   2.469   0.214   2.309  0.2010  0.1866  0.0470
 5690SOL     OW28528   0.997   4.613   7.360  0.0789  0.1604  0.4838
 5690SOL    HW128529   1.068   4.637   7.420  1.6169  0.1566 -1.3617
 5690SOL    HW228530   1.042   4.639   7.280 -1.0741  0.5281 -0.0443
 5691SOL     OW28531   4.590   3.886   3.992  0.4022  0.5132  0.5087
 5691SOL    HW128532   4.544   3.841   4.063 -1.2487 -0.4633 -1.2025
 5691SOL    HW228533   4.668   3.834   4.009 -0.1917 -0.8522 -0.9694
 5692SOL     OW28534   1.892   0.264  12.617  0.2847 -0.3635 -0.2243
 5692SOL    HW128535   1.802   0.296  12.620 -0.4242 -2.2293 -1.8472
 5692SOL    HW228536   1.893   0.229  12.528 -1.8848 -0.2495 -0.2817
 5693SOL     OW28537   4.555   4.487   6.996 -0.8040  0.0356  0.0850
 5693SOL    HW128538   4.548   4.557   7.061  4.3555  0.8939 -0.2840
 5693SOL    HW228539   4.514   4.536   6.923 -0.3783  2.5421  1.5162
 5694SOL     OW28540   1.938   1.945   1.774  0.1017 -0.3753 -0.4942
 5694SOL    HW128541   1.931   1.962   1.868 -1.0848 -1.0482 -0.4616
 5694SOL    HW228542   1.887   2.012   1.728  0.1248  1.1795  1.7626
 5695SOL     OW28543   3.611   1.683   3.870  0.1203  0.1107  0.8049
 5695SOL    HW128544   3.610   1.773   3.836  1.4273 -0.0945  0.2339
 5695SOL    HW228545   3.617   1.636   3.787  0.5750  2.5337 -0.5314
 5696SOL     OW28546   1.642   4.071  10.777 -0.1407  0.3265  0.1236
 5696SOL    HW128547   1.672   4.101  10.862  1.1828  0.4849 -0.4020
 5696SOL    HW228548   1.721   4.069  10.723 -0.5694 -0.7418 -0.4836
 5697SOL     OW28549   3.967   3.822   8.004  0.1687  0.2351 -0.4137
 5697SOL    HW128550   3.933   3.907   7.974 -1.3695  0.0831  0.8680
 5697SOL    HW228551   3.968   3.768   7.925 -0.1287  1.7949 -1.4794
 5698SOL     OW28552   2.707   2.921   1.926 -0.6083 -0.1392 -0.0357
 5698SOL    HW128553   2.643   2.853   1.909 -0.3279 -0.1804 -0.8892
 5698SOL    HW228554   2.780   2.901   1.868 -1.3058  2.5615 -1.8404
 5699SOL     OW28555   2.519   0.682   3.836 -0.3536 -0.3471  0.1524
 5699SOL    HW128556   2.487   0.652   3.921 -1.0312 -0.9654 -0.3289
 5699SOL    HW228557   2.524   0.602   3.785  0.9015 -0.2623  0.1227
 5700SOL     OW28558   3.865   1.106   3.685  0.2212  0.3375  0.2680
 5700SOL    HW128559   3.941   1.145   3.643 -0.1321  0.8344  0.0863
 5700SOL    HW228560   3.844   1.168   3.756  0.5620 -1.0477  1.5802
 5701SOL     OW28561   2.306   1.299   0.009  0.0530  0.4214 -0.0606
 5701SOL    HW128562   2.214   1.309   0.035  0.3125 -1.4238  1.5968
 5701SOL    HW228563   2.348   1.357   0.072 -0.8136 -1.1741  1.9741
 5702SOL     OW28564   2.701   3.821  17.202 -0.4734 -1.0886  0.1668
 5702SOL    HW128565   2.747   3.743  17.235  1.2735 -0.0803  0.1098
 5702SOL    HW228566   2.699   3.800  17.109  0.1124 -0.4461  0.0096
 5703SOL     OW28567   0.848   0.249   6.845  0.7970  0.1630 -0.0625
 5703SOL    HW128568   0.894   0.311   6.789 -1.3122  2.3295  0.6088
 5703SOL    HW228569   0.879   0.278   6.931  1.3688  1.0314 -0.5736
 5704SOL     OW28570   1.115   3.965   8.366  0.8232  0.5867  0.3584
 5704SOL    HW128571   1.063   3.954   8.287  0.1160 -1.1828  1.0554
 5704SOL    HW228572   1.094   4.055   8.390  0.8050  0.0577  2.3691
 5705SOL     OW28573   3.344   3.382  16.950 -0.1932  0.3293 -0.1654
 5705SOL    HW128574   3.313   3.464  16.987 -3.0611 -0.8973  0.1739
 5705SOL    HW228575   3.294   3.376  16.868  0.4286 -0.4983 -0.4883
 5706SOL     OW28576   3.757   1.761  10.683  0.5012  0.1169 -0.8647
 5706SOL    HW128577   3.749   1.790  10.774  0.8508 -0.8992 -0.5105
 5706SOL    HW228578   3.778   1.844  10.641 -0.5509  1.0789  0.5120
 5707SOL     OW28579   4.359   0.932   7.573 -0.1638  0.3831  0.2844
 5707SOL    HW128580   4.373   0.980   7.491 -3.0234 -0.7580 -0.8902
 5707SOL    HW228581   4.293   0.985   7.618  1.1229  1.9724  0.2587
 5708SOL     OW28582   4.489   3.297  15.316 -0.1099  0.5246  0.2124
 5708SOL    HW128583   4.575   3.316  15.279 -0.2462 -0.8552 -0.7732
 5708SOL    HW228584   4.491   3.365  15.384  0.6499  0.6398  0.0788
 5709SOL     OW28585   1.020   3.066   6.491  0.1809  0.3327 -0.6452
 5709SOL    HW128586   1.112   3.081   6.469  0.0623 -1.8443 -2.5430
 5709SOL    HW228587   1.009   3.106   6.578 -2.9949  2.0005 -1.8027
 5710SOL     OW28588   4.426   1.910   5.566 -0.2108 -0.0919  0.0083
 5710SOL    HW128589   4.358   1.913   5.634  0.5291  0.9507  0.7213
 5710SOL    HW228590   4.403   1.988   5.514  0.5624 -0.2344 -0.5363
 5711SOL     OW28591   0.622   1.117  10.870 -0.1727 -0.3027 -0.0723
 5711SOL    HW128592   0.545   1.129  10.925 -0.5760 -0.6980 -0.5394
 5711SOL    HW228593   0.582   1.062  10.802 -0.8449  0.9492 -0.6777
 5712SOL     OW28594   2.060   4.230   9.456 -0.4086 -0.2285 -0.0575
 5712SOL    HW128595   1.975   4.219   9.413 -0.9426  1.3355  0.5848
 5712SOL    HW228596   2.109   4.156   9.420  2.3337  1.3137  0.5018
 5713SOL     OW28597   1.944   3.356  17.523  0.0734 -0.4493 -0.6968
 5713SOL    HW128598   1.946   3.411  17.445 -0.2441 -0.5969 -0.8103
 5713SOL    HW228599   2.002   3.408  17.579 -0.2529 -1.6538  0.7358
 5714SOL     OW28600   1.661   0.879   7.822  0.4974 -0.4499 -0.0837
 5714SOL    HW128601   1.694   0.954   7.872 -1.2544  0.3474 -0.0974
 5714SOL    HW228602   1.738   0.838   7.782  1.1443  1.0685 -0.4084
 5715SOL     OW28603   0.160   0.226  11.152  0.5608 -0.0842  0.9532
 5715SOL    HW128604   0.129   0.154  11.206  0.4645 -2.0052 -1.6839
 5715SOL    HW228605   0.159   0.295  11.218  0.5858 -0.6316  1.5194
 5716SOL     OW28606   0.184   1.133   4.080 -0.3503  0.0873  0.5092
 5716SOL    HW128607   0.106   1.081   4.097 -0.2796 -0.6238 -1.3415
 5716SOL    HW228608   0.146   1.167   4.000  1.1526  2.4946  0.8116
 5717SOL     OW28609   2.802   2.970   9.314  0.2027 -0.1015  0.2767
 5717SOL    HW128610   2.738   2.966   9.243 -0.0729 -0.7972  0.5709
 5717SOL    HW228611   2.878   2.988   9.259 -0.0525 -2.9088 -0.9584
 5718SOL     OW28612   0.519   0.944   5.052  0.2356  0.6358  0.7838
 5718SOL    HW128613   0.458   0.936   5.126  2.5049 -0.0045  2.5927
 5718SOL    HW228614   0.495   1.034   5.030 -0.3246  0.5313  0.9773
 5719SOL     OW28615   0.445   4.340  11.353  0.4532 -0.0986  0.3703
 5719SOL    HW128616   0.419   4.432  11.353  1.1252  0.1010 -0.6535
 5719SOL    HW228617   0.458   4.324  11.446 -1.7961 -0.8395  0.5671
 5720SOL     OW28618   0.397   2.839   3.158 -0.0664 -0.0970  0.0623
 5720SOL    HW128619   0.398   2.899   3.083  0.5337 -0.5318 -0.2700
 5720SOL    HW228620   0.424   2.758   3.115 -0.8005  0.5730 -1.6774
 5721SOL     OW28621   3.768   2.180   3.958 -0.2611  0.0328 -0.5366
 5721SOL    HW128622   3.720   2.175   3.875 -0.8023  0.8583 -0.2772
 5721SOL    HW228623   3.696   2.206   4.016  0.9566  0.1532  0.9197
 5722SOL     OW28624   1.917   3.268   6.048 -1.1366  0.0325 -0.1021
 5722SOL    HW128625   1.893   3.200   5.984  0.4032 -0.8219  0.2280
 5722SOL    HW228626   1.888   3.228   6.130 -0.6060  0.1262  0.1298
 5723SOL     OW28627   2.921   0.763  16.096 -0.3187  1.0578  0.0231
 5723SOL    HW128628   2.894   0.738  16.185 -0.8810  1.6596  0.0162
 5723SOL    HW228629   2.859   0.833  16.078 -0.7664  0.6411 -0.0618
 5724SOL     OW28630   4.035   2.688   8.287 -0.0041  0.8227 -0.3177
 5724SOL    HW128631   4.089   2.619   8.326 -2.3351  0.1329  1.7360
 5724SOL    HW228632   4.032   2.658   8.197  1.2178 -1.1236  0.3090
 5725SOL     OW28633   2.944   4.163   7.798  0.4396  0.4574  0.8469
 5725SOL    HW128634   2.966   4.236   7.857  0.2190  1.6363 -0.5211
 5725SOL    HW228635   3.029   4.121   7.787 -0.0245 -0.7623  1.9223
 5726SOL     OW28636   0.338   1.954   4.076 -0.1462  0.5512 -0.3610
 5726SOL    HW128637   0.398   1.885   4.102  0.7768  0.7038 -2.0298
 5726SOL    HW228638   0.323   1.937   3.983  2.0545 -0.2350 -0.5595
 5727SOL     OW28639   1.512   4.699   8.783  0.0891 -0.3943  0.4699
 5727SOL    HW128640   1.458   0.053   8.808  2.2449  1.5638 -0.6570
 5727SOL    HW228641   1.534   4.671   8.872  0.8323 -0.6127  0.2200
 5728SOL     OW28642   2.928   3.843   5.952 -0.0560 -0.0627 -0.1501
 5728SOL    HW128643   2.847   3.867   5.997  0.9389 -0.3404  1.7826
 5728SOL    HW228644   2.931   3.908   5.882  2.1256 -1.8000 -1.6605
 5729SOL     OW28645   3.766   0.915  11.810 -0.3999  0.5250 -0.1128
 5729SOL    HW128646   3.763   0.865  11.729  1.2686 -1.7954  1.2533
 5729SOL    HW228647   3.679   0.951  11.824 -1.7209 -1.1693 -4.0421
 5730SOL     OW28648   3.988   0.728  13.826  0.3732  0.2092  0.2695
 5730SOL    HW128649   4.048   0.780  13.878  0.0589  1.7463 -0.9129
 5730SOL    HW228650   4.030   0.741  13.741 -2.1068  0.8701 -0.8758
 5731SOL     OW28651   4.073   4.098   7.558 -0.0841 -0.1047  0.1340
 5731SOL    HW128652   4.018   4.173   7.536  1.0925  0.0472 -2.2735
 5731SOL    HW228653   4.158   4.131   7.528  0.6713 -1.6600  0.5662
 5732SOL     OW28654   0.036   2.356  13.247 -0.3557 -0.4580 -0.4356
 5732SOL    HW128655   4.675   2.315  13.219  1.2426 -3.0706 -1.3185
 5732SOL    HW228656   0.062   2.308  13.325 -0.5309 -1.0205 -0.7227
 5733SOL     OW28657   3.678   4.449  15.344 -0.1381 -0.6183 -0.1361
 5733SOL    HW128658   3.639   4.457  15.432 -1.7303 -0.3084 -0.8574
 5733SOL    HW228659   3.629   4.519  15.301  0.2006  0.0435  0.5453
 5734SOL     OW28660   4.673   0.546   3.310 -0.1876  0.5751  0.1386
 5734SOL    HW128661   0.031   0.593   3.336  0.2508  0.0349 -0.2301
 5734SOL    HW228662   4.650   0.573   3.221  1.1068  1.4171  0.0559
 5735SOL     OW28663   0.697   0.230   7.800 -0.0786  0.7113 -0.2213
 5735SOL    HW128664   0.731   0.185   7.723 -1.8460 -0.6929 -0.1928
 5735SOL    HW228665   0.782   0.243   7.841  1.0642 -2.9976 -1.5018
 5736SOL     OW28666   2.629   2.042  13.967 -0.2206  0.1995 -0.4432
 5736SOL    HW128667   2.603   1.950  13.959 -3.9864  1.3408 -1.4072
 5736SOL    HW228668   2.547   2.086  13.988  0.0637  0.3701  0.3186
 5737SOL     OW28669   1.317   2.236   8.498 -0.2502  0.3006 -0.2706
 5737SOL    HW128670   1.301   2.331   8.499 -1.7053  0.0380  0.5830
 5737SOL    HW228671   1.397   2.223   8.448 -0.8733  0.6749 -1.3567
 5738SOL     OW28672   1.882   0.747  10.562 -0.3175 -0.3433 -0.0848
 5738SOL    HW128673   1.861   0.717  10.473 -2.5029  0.8283  0.0334
 5738SOL    HW228674   1.888   0.841  10.545 -0.5115 -0.0572  1.4791
 5739SOL     OW28675   3.189   0.568   7.986  0.0926  0.9910 -0.9514
 5739SOL    HW128676   3.122   0.575   8.053  1.1982  1.0994  0.1376
 5739SOL    HW228677   3.213   0.476   7.993 -2.0095  0.4520 -0.9300
 5740SOL     OW28678   1.865   1.409   9.547 -0.0100 -0.3138 -0.0847
 5740SOL    HW128679   1.887   1.413   9.454  0.2816 -3.3065 -0.1575
 5740SOL    HW228680   1.926   1.472   9.584 -0.3906  0.7152 -1.1905
 5741SOL     OW28681   1.345   3.938   6.076 -0.3517 -0.4761 -0.1342
 5741SOL    HW128682   1.316   3.887   6.001 -0.2486 -2.5697  1.2694
 5741SOL    HW228683   1.319   4.026   6.047  3.0537  0.4044 -0.5290
 5742SOL     OW28684   1.761   0.113   7.063  0.0956 -0.0388  0.2607
 5742SOL    HW128685   1.750   0.192   7.116  2.4963 -0.2229  1.0348
 5742SOL    HW228686   1.832   0.147   7.008 -0.0614 -2.5408 -1.5055
 5743SOL     OW28687   0.617   0.464  14.887  0.1181 -0.0463  0.0513
 5743SOL    HW128688   0.698   0.415  14.875 -0.4983 -0.1908 -3.5913
 5743SOL    HW228689   0.643   0.524  14.956  0.5098  0.0677 -0.1955
 5744SOL     OW28690   2.592   0.305   9.820  0.1117 -0.2015 -0.2765
 5744SOL    HW128691   2.622   0.271   9.735  1.9808  1.7694 -0.3973
 5744SOL    HW228692   2.595   0.225   9.872  0.4467  0.3833  0.5858
 5745SOL     OW28693   0.595   0.516   9.277  0.4414  0.1537  0.3716
 5745SOL    HW128694   0.583   0.430   9.317 -1.5116 -0.4455 -1.4873
 5745SOL    HW228695   0.527   0.567   9.322 -1.0677 -1.0863 -0.4904
 5746SOL     OW28696   2.322   1.679   7.787  0.4806 -0.1572  0.0414
 5746SOL    HW128697   2.349   1.761   7.827 -2.2316  0.6992  0.1628
 5746SOL    HW228698   2.394   1.622   7.814  1.4809  1.1000 -0.0196
 5747SOL     OW28699   4.262   4.257  13.894 -0.3728  0.7328  0.3622
 5747SOL    HW128700   4.290   4.168  13.914 -2.2388 -0.0116 -0.3095
 5747SOL    HW228701   4.169   4.241  13.879  0.0557 -0.3906 -1.1752
 5748SOL     OW28702   1.582   0.556   8.445 -0.6951 -0.5515 -0.2949
 5748SOL    HW128703   1.574   0.544   8.539  2.1335 -0.4130 -0.0385
 5748SOL    HW228704   1.495   0.588   8.424 -0.1456 -0.0500 -1.8728
 5749SOL     OW28705   1.434   4.279   2.585  0.0362 -1.2442 -0.1121
 5749SOL    HW128706   1.483   4.312   2.660 -1.6365  1.8980 -0.4067
 5749SOL    HW228707   1.405   4.193   2.616 -0.6378 -0.7234  0.6939
 5750SOL     OW28708   2.034   3.409  12.087  0.1679 -0.4965 -0.3513
 5750SOL    HW128709   1.944   3.426  12.115  0.0085 -0.4674 -0.8887
 5750SOL    HW228710   2.019   3.364  12.004 -1.0074 -0.0241 -0.4025
 5751SOL     OW28711   2.032   1.893  13.947  0.1645  0.0929  0.2214
 5751SOL    HW128712   2.075   1.815  13.914  0.2587  0.2373  0.0047
 5751SOL    HW228713   2.100   1.957  13.965  1.7208 -2.0104  1.7796
 5752SOL     OW28714   1.440   3.070  15.867  0.1815  0.1625 -0.3125
 5752SOL    HW128715   1.377   3.091  15.798 -1.8890  1.2467  1.9065
 5752SOL    HW228716   1.478   2.989  15.833  0.1235 -1.1514  2.7861
 5753SOL     OW28717   3.142   2.245   2.207 -0.7642 -0.6127  0.0220
 5753SOL    HW128718   3.056   2.240   2.165 -0.8533 -2.6578  0.4229
 5753SOL    HW228719   3.174   2.158   2.181  0.0817 -0.6077  1.0598
 5754SOL     OW28720   4.651   2.406   7.855  0.2736  0.6495 -0.4602
 5754SOL    HW128721   4.628   2.320   7.821 -1.5611  1.3277 -0.9102
 5754SOL    HW228722   4.602   2.460   7.793 -1.1640  0.1992  0.2868
 5755SOL     OW28723   1.970   0.748   4.956  0.0849 -0.2948  0.5639
 5755SOL    HW128724   1.958   0.691   4.881  1.4478  0.0085  0.1233
 5755SOL    HW228725   1.922   0.823   4.919 -0.4926  0.0049  1.9226
 5756SOL     OW28726   0.439   4.357   1.104 -0.0350  0.1257  0.4944
 5756SOL    HW128727   0.368   4.422   1.114 -0.9538 -0.2755 -3.5042
 5756SOL    HW228728   0.445   4.347   1.009 -2.0030 -1.5967  0.5520
 5757SOL     OW28729   2.859   0.289   8.027 -0.2089 -0.1787 -0.4233
 5757SOL    HW128730   2.799   0.327   7.962 -0.3802 -1.9181 -1.3168
 5757SOL    HW228731   2.878   0.203   7.988  1.8382 -0.0003  0.1766
 5758SOL     OW28732   2.659   3.275   6.010  0.7259 -0.0283  0.0886
 5758SOL    HW128733   2.675   3.369   6.005  0.9748  0.1071  3.2984
 5758SOL    HW228734   2.703   3.249   5.929  0.4047 -0.5888  0.0980
 5759SOL     OW28735   2.795   0.704  16.859 -0.3562  0.6908 -0.3473
 5759SOL    HW128736   2.716   0.663  16.895  0.6212  1.1784  2.3810
 5759SOL    HW228737   2.872   0.663  16.898 -1.9390  0.0600  2.1293
 5760SOL     OW28738   0.425   0.980   0.904 -0.0671  0.2496  0.0406
 5760SOL    HW128739   0.383   0.927   0.972  1.5792 -1.2042 -0.0931
 5760SOL    HW228740   0.374   1.061   0.912  1.0614  1.0897 -1.3612
 5761SOL     OW28741   2.661   3.474   1.710 -0.0038  0.5003 -0.3520
 5761SOL    HW128742   2.676   3.384   1.739  2.8448  0.6532 -1.2768
 5761SOL    HW228743   2.566   3.485   1.717  0.1803  2.2239 -0.5900
 5762SOL     OW28744   3.953   3.403  15.532  0.0230 -0.4058  0.1427
 5762SOL    HW128745   3.917   3.422  15.619  1.4940 -1.4187  0.9696
 5762SOL    HW228746   4.045   3.429  15.543 -0.5143  1.4868  0.1764
 5763SOL     OW28747   3.977   4.446  16.444 -0.1679 -0.2812 -0.4210
 5763SOL    HW128748   3.983   4.534  16.407  0.1493  0.1137  0.5716
 5763SOL    HW228749   3.889   4.430  16.480 -0.3723 -1.6506 -1.5395
 5764SOL     OW28750   2.951   0.641  14.911  0.3925 -0.4099  0.3418
 5764SOL    HW128751   2.870   0.686  14.890  0.0074 -1.3640 -0.2047
 5764SOL    HW228752   3.019   0.696  14.872  2.2913 -2.3293  0.9456
 5765SOL     OW28753   1.402   3.426   5.231 -0.0877  0.1479  0.2237
 5765SOL    HW128754   1.353   3.363   5.285  1.4723 -1.8583 -0.7146
 5765SOL    HW228755   1.455   3.368   5.177 -1.3570 -1.0822  0.3025
 5766SOL     OW28756   0.209   3.804  11.360  0.6179 -0.5604  0.6884
 5766SOL    HW128757   0.158   3.867  11.410 -1.3383  0.5101 -2.6452
 5766SOL    HW228758   0.297   3.841  11.368  0.8246 -1.4656  2.7056
 5767SOL     OW28759   0.287   0.484  15.235  0.3588  0.5263  0.1742
 5767SOL    HW128760   0.242   0.563  15.204 -0.9885  0.0223  0.8175
 5767SOL    HW228761   0.258   0.422  15.168 -1.1481  0.2253  1.0888
 5768SOL     OW28762   1.787   3.636   7.073 -0.1246 -0.5112 -0.3769
 5768SOL    HW128763   1.815   3.727   7.085  0.1467 -0.4163 -1.6361
 5768SOL    HW228764   1.761   3.598   7.157 -1.0067  2.3138  0.6313
 5769SOL     OW28765   2.433   4.466   8.638 -0.5256  0.1933  0.1233
 5769SOL    HW128766   2.475   4.496   8.719 -1.2429  0.8523  0.2554
 5769SOL    HW228767   2.498   4.409   8.598 -2.9452 -0.4126 -2.8791
 5770SOL     OW28768   0.387   0.167  12.375 -0.7613  0.3340  0.0243
 5770SOL    HW128769   0.396   0.262  12.362  3.3674 -0.0695 -0.0727
 5770SOL    HW228770   0.456   0.160  12.441  0.6992  2.5311 -1.2378
 5771SOL     OW28771   0.095   0.601   5.236  0.1377  0.3760  0.7629
 5771SOL    HW128772   0.018   0.634   5.282 -0.1637  1.0352 -0.2269
 5771SOL    HW228773   0.104   0.519   5.286 -1.4616 -0.4157 -0.2555
 5772SOL     OW28774   3.644   4.684   4.261  0.4541 -0.6691  0.7643
 5772SOL    HW128775   3.608   4.654   4.344  2.9779  0.6699  2.3317
 5772SOL    HW228776   3.732   4.702   4.293  0.4211  3.1905 -1.2743
 5773SOL     OW28777   1.392   3.121   5.832 -0.2444  0.6806 -0.9153
 5773SOL    HW128778   1.368   3.052   5.893 -0.5751  1.6876  0.0827
 5773SOL    HW228779   1.455   3.174   5.879  0.3103 -0.9274  0.1497
 5774SOL     OW28780   4.277   1.240  10.302  0.0231  0.3511 -0.9109
 5774SOL    HW128781   4.195   1.248  10.253 -0.3089 -4.1279 -1.0386
 5774SOL    HW228782   4.270   1.147  10.324  1.4285  0.3079 -0.6699
 5775SOL     OW28783   2.163   3.112   2.268 -0.0010  0.0515  0.9757
 5775SOL    HW128784   2.186   3.066   2.187  0.3935 -0.3147  1.2958
 5775SOL    HW228785   2.230   3.181   2.266 -1.2427  1.2485  0.7408
 5776SOL     OW28786   0.392   3.474  13.877  0.5027 -0.0126  0.1809
 5776SOL    HW128787   0.468   3.424  13.850 -0.2153 -0.3843 -1.1285
 5776SOL    HW228788   0.425   3.500  13.963 -2.3220  1.2613  0.8775
 5777SOL     OW28789   0.499   0.231  14.922  0.0807  0.2279 -0.4341
 5777SOL    HW128790   0.535   0.315  14.892  1.6715 -0.5542 -0.6709
 5777SOL    HW228791   0.428   0.248  14.985  0.1236  0.1960 -0.3773
 5778SOL     OW28792   2.679   3.597  13.824 -0.0968 -0.1803 -0.5952
 5778SOL    HW128793   2.586   3.578  13.839 -0.2895  1.1042 -0.2237
 5778SOL    HW228794   2.709   3.521  13.773 -0.6223  1.4992 -3.3715
 5779SOL     OW28795   1.376   0.279   2.666 -0.3846 -0.0752 -0.9153
 5779SOL    HW128796   1.304   0.252   2.608 -0.4082 -1.4670 -0.2262
 5779SOL    HW228797   1.443   0.309   2.605  2.3436  1.0566  2.6563
 5780SOL     OW28798   3.854   0.475   2.770 -0.0468 -0.4798 -0.1423
 5780SOL    HW128799   3.883   0.548   2.716 -3.9827 -0.1926 -1.8411
 5780SOL    HW228800   3.892   0.520   2.846  1.0146  1.2640 -1.7321
 5781SOL     OW28801   1.342   4.383   8.562 -1.0922 -0.0261 -0.3893
 5781SOL    HW128802   1.413   4.390   8.625  0.6224  0.0539 -2.3633
 5781SOL    HW228803   1.357   4.462   8.510  1.7108 -0.5509 -0.3290
 5782SOL     OW28804   2.861   0.921  16.708 -0.5528  0.4130 -0.5809
 5782SOL    HW128805   2.794   0.975  16.750 -1.0402  0.3001 -1.2196
 5782SOL    HW228806   2.846   0.833  16.742  5.0643 -0.1815  0.2595
 5783SOL     OW28807   0.971   4.435   2.198  0.3101  0.1882 -0.2040
 5783SOL    HW128808   0.897   4.448   2.257 -0.7950 -0.4068 -1.4516
 5783SOL    HW228809   1.036   4.494   2.236 -0.4549  1.0761 -0.2726
 5784SOL     OW28810   4.566   1.000  11.889 -0.3213  0.7607  0.3171
 5784SOL    HW128811   4.632   0.942  11.927 -2.2257 -1.1495  0.6709
 5784SOL    HW228812   4.588   0.994  11.796  0.9821  1.7169  0.5668
 5785SOL     OW28813   0.468   3.288   0.163 -0.1292  0.1803  0.6487
 5785SOL    HW128814   0.398   3.224   0.159  0.1967 -0.0950 -0.5356
 5785SOL    HW228815   0.539   3.241   0.207  0.6097  0.0117 -0.7298
 5786SOL     OW28816   1.950   1.771   6.460 -0.0134  0.0123  0.4336
 5786SOL    HW128817   1.867   1.759   6.506 -0.5847 -0.1180 -0.6388
 5786SOL    HW228818   1.951   1.866   6.448  1.1390 -0.0998 -0.4003
 5787SOL     OW28819   3.140   0.136   2.081 -0.5774 -0.0806 -0.1599
 5787SOL    HW128820   3.051   0.148   2.046 -1.2043 -1.5401  0.9790
 5787SOL    HW228821   3.181   0.100   2.003 -2.8895  1.6643 -2.2216
 5788SOL     OW28822   3.106   2.661   5.850  0.0292 -0.1474 -0.7513
 5788SOL    HW128823   3.068   2.736   5.896 -0.7435 -0.4590 -0.8833
 5788SOL    HW228824   3.195   2.663   5.885 -0.6671 -1.6164  1.0777
 5789SOL     OW28825   2.353   1.844   9.508 -0.2586 -0.6170 -0.0279
 5789SOL    HW128826   2.423   1.866   9.570  0.8937 -1.9565 -0.8473
 5789SOL    HW228827   2.343   1.750   9.527 -0.9712 -1.1803 -3.2703
 5790SOL     OW28828   0.675   2.408  16.631  0.5182 -0.3917 -0.1283
 5790SOL    HW128829   0.621   2.338  16.595 -0.7426  1.1054 -1.1387
 5790SOL    HW228830   0.661   2.396  16.724 -0.4995 -1.1912 -0.3945
 5791SOL     OW28831   1.606   4.629   6.706 -0.3257 -0.0274 -0.5646
 5791SOL    HW128832   1.682   4.572   6.715  0.6404  1.1782 -1.1404
 5791SOL    HW228833   1.556   4.574   6.645  1.1029 -1.5760 -0.3271
 5792SOL     OW28834   4.289   0.542  14.013  0.0432 -0.0583 -0.6497
 5792SOL    HW128835   4.277   0.465  13.958  3.2909 -1.4382  0.5530
 5792SOL    HW228836   4.362   0.590  13.975 -0.3940 -1.1121 -2.8087
 5793SOL     OW28837   0.353   2.889   6.676 -0.0570 -0.4406 -0.0795
 5793SOL    HW128838   0.343   2.799   6.707  2.6460 -0.7981 -0.2060
 5793SOL    HW228839   0.270   2.907   6.632  1.6740  1.3361 -2.6221
 5794SOL     OW28840   1.553   3.438   8.311 -0.7247  0.3926 -0.2171
 5794SOL    HW128841   1.490   3.475   8.249 -1.2192 -0.2827 -0.1230
 5794SOL    HW228842   1.593   3.524   8.323 -1.7228  0.8931 -0.4734
 5795SOL     OW28843   1.161   2.537   6.068  0.0322 -0.2996 -0.1504
 5795SOL    HW128844   1.179   2.607   6.131 -0.5398 -1.0046  0.8069
 5795SOL    HW228845   1.206   2.564   5.988  4.0153  0.6175  2.3592
 5796SOL     OW28846   0.358   1.474   8.851 -0.1399 -0.2577  0.7222
 5796SOL    HW128847   0.396   1.546   8.801  1.0427 -0.4658  1.3053
 5796SOL    HW228848   0.270   1.475   8.814  0.4190 -3.1672 -0.6576
 5797SOL     OW28849   2.626   3.819   7.210  0.5038 -0.6186 -0.4682
 5797SOL    HW128850   2.546   3.849   7.253  1.7862  0.0227  1.4700
 5797SOL    HW228851   2.680   3.898   7.210  0.6621 -0.7266 -1.0405
 5798SOL     OW28852   4.335   0.819  15.668  0.4478  0.7563 -0.1601
 5798SOL    HW128853   4.306   0.894  15.616 -1.0028  1.1130  1.1749
 5798SOL    HW228854   4.367   0.762  15.598  0.3811  1.1394 -0.5047
 5799SOL     OW28855   1.710   3.661   9.251 -0.3422 -0.3577  0.4188
 5799SOL    HW128856   1.653   3.682   9.325 -0.5838 -0.2079  0.1890
 5799SOL    HW228857   1.779   3.722   9.275 -1.6099  1.8218 -1.5041
 5800SOL     OW28858   0.670   4.643   4.831  0.0561  0.1752 -0.1795
 5800SOL    HW128859   0.627   0.005   4.809  0.8585  0.6961  0.1768
 5800SOL    HW228860   0.688   4.647   4.925 -0.1737  0.5685 -0.1524
 5801SOL     OW28861   0.473   3.080   4.266 -0.0513 -0.0895  0.1611
 5801SOL    HW128862   0.483   3.171   4.295 -1.2818  0.6407 -1.7072
 5801SOL    HW228863   0.553   3.063   4.216 -1.7149  1.0495 -2.8680
 5802SOL     OW28864   1.531   0.846  13.363 -0.1647  0.2471  0.3197
 5802SOL    HW128865   1.507   0.773  13.420  0.2406  0.3765  0.6581
 5802SOL    HW228866   1.579   0.902  13.424 -1.2651  1.4130  0.1025
 5803SOL     OW28867   3.049   2.447  10.935  0.1532 -0.1236  0.0054
 5803SOL    HW128868   3.020   2.536  10.916  1.4760  0.6124  1.4182
 5803SOL    HW228869   2.991   2.387  10.887  0.7957  0.4227 -1.4718
 5804SOL     OW28870   2.489   1.338   5.045 -0.7012 -0.6481 -0.8911
 5804SOL    HW128871   2.482   1.379   4.959  0.9617 -0.1141 -0.7703
 5804SOL    HW228872   2.415   1.370   5.096  1.1185  1.7689  0.2269
 5805SOL     OW28873   2.360   4.480   5.503  0.2842 -0.3629 -0.0546
 5805SOL    HW128874   2.380   4.463   5.411 -2.8279  0.5422 -0.8932
 5805SOL    HW228875   2.299   4.409   5.523 -0.7941  1.0705  1.7109
 5806SOL     OW28876   2.257   4.078   4.116  0.0419 -0.4568 -0.4346
 5806SOL    HW128877   2.320   4.145   4.143  2.5243 -2.7429 -0.4880
 5806SOL    HW228878   2.288   4.064   4.026  0.0968 -1.4840 -0.2636
 5807SOL     OW28879   0.372   2.154   8.574 -0.3228 -0.2978  0.2035
 5807SOL    HW128880   0.366   2.145   8.669  1.1732  0.2554  0.3466
 5807SOL    HW228881   0.377   2.064   8.541  0.5994 -0.6482  1.2851
 5808SOL     OW28882   4.510   4.249   3.845  0.2704  0.0117 -0.4077
 5808SOL    HW128883   4.543   4.314   3.783  1.5822 -0.0615  0.2135
 5808SOL    HW228884   4.594   4.213   3.873  0.6620 -0.0781 -1.6939
 5809SOL     OW28885   1.952   0.869   5.673  0.2058 -0.2045  0.0704
 5809SOL    HW128886   1.858   0.872   5.690  0.7215  0.2703  2.7164
 5809SOL    HW228887   1.960   0.781   5.635  2.7662  0.4614 -0.9126
 5810SOL     OW28888   2.538   2.600  17.590  0.4496  0.1102  0.6209
 5810SOL    HW128889   2.454   2.643  17.605  0.6534  0.7235 -0.0001
 5810SOL    HW228890   2.572   2.658  17.521 -2.2545 -1.7802 -2.3068
 5811SOL     OW28891   3.535   1.290   6.586 -0.2632 -0.0365  0.0987
 5811SOL    HW128892   3.570   1.210   6.545 -1.0596  1.0019 -2.6400
 5811SOL    HW228893   3.461   1.310   6.529 -1.1222 -0.1838  1.1705
 5812SOL     OW28894   1.797   1.561   7.746  0.3847  0.5895 -0.0433
 5812SOL    HW128895   1.777   1.518   7.662 -0.2448 -1.1109  0.9697
 5812SOL    HW228896   1.890   1.543   7.753 -0.0004 -1.1872  0.6640
 5813SOL     OW28897   3.622   3.834  17.563  0.1504 -0.2972 -0.5317
 5813SOL    HW128898   3.533   3.858  17.590  0.4445 -0.8775  0.9097
 5813SOL    HW228899   3.653   3.817  17.651 -0.4556 -2.7853 -0.7928
 5814SOL     OW28900   1.882   0.340   1.896  0.0537 -0.4978  0.0419
 5814SOL    HW128901   1.867   0.402   1.824  0.4217  0.0574  0.4529
 5814SOL    HW228902   1.817   0.377   1.956  0.8967  1.5444 -0.3132
 5815SOL     OW28903   4.343   3.671   1.766 -0.0192  0.0935  0.1059
 5815SOL    HW128904   4.376   3.713   1.846 -0.5355 -0.9091  0.8392
 5815SOL    HW228905   4.258   3.715   1.763 -0.5317 -0.7849  1.3875
 5816SOL     OW28906   3.528   3.086   6.789  1.2011  0.1235 -0.1254
 5816SOL    HW128907   3.440   3.113   6.816  1.4107  0.4454  0.2373
 5816SOL    HW228908   3.558   3.164   6.742  0.5119 -0.0283 -0.8249
 5817SOL     OW28909   2.742   4.526  10.266  0.3976  0.2133  0.2653
 5817SOL    HW128910   2.804   4.598  10.276 -0.6739  1.2651 -0.5877
 5817SOL    HW228911   2.678   4.558  10.329  1.6117 -0.5756  1.8776
 5818SOL     OW28912   2.392   0.493  10.132 -0.3750 -0.1331  0.2764
 5818SOL    HW128913   2.303   0.517  10.106 -1.1794 -1.2313  1.9907
 5818SOL    HW228914   2.433   0.502  10.046  2.5891 -3.2596  1.3906
 5819SOL     OW28915   0.331   4.397   6.880  0.4725 -0.5703  0.6650
 5819SOL    HW128916   0.374   4.451   6.946  0.4749  0.3002 -0.0479
 5819SOL    HW228917   0.384   4.318   6.890 -0.4904 -1.2043  0.7452
 5820SOL     OW28918   2.355   0.322   8.959  0.9291  0.1280 -0.7616
 5820SOL    HW128919   2.291   0.392   8.966  0.2395 -0.5096 -0.6605
 5820SOL    HW228920   2.306   0.254   8.913  0.3542  1.2543 -1.8085
 5821SOL     OW28921   3.633   3.785   5.020 -0.1929  0.0877 -0.0537
 5821SOL    HW128922   3.601   3.727   4.951  0.1636 -0.0265 -0.1251
 5821SOL    HW228923   3.560   3.847   5.027  0.3397  0.9162 -1.7453
 5822SOL     OW28924   0.265   1.301   3.596  0.5006  0.1597 -0.7249
 5822SOL    HW128925   0.276   1.357   3.519  1.9133  0.3356 -0.3915
 5822SOL    HW228926   0.210   1.352   3.656  2.1218  1.2253 -0.1525
 5823SOL     OW28927   1.924   0.847   5.350  0.0310  0.7280  0.0247
 5823SOL    HW128928   1.968   0.803   5.278 -0.1427 -1.4742  1.2662
 5823SOL    HW228929   2.001   0.888   5.390 -0.6546  1.3222  0.7364
 5824SOL     OW28930   1.128   1.556   0.933 -0.4625  0.1795  0.4466
 5824SOL    HW128931   1.045   1.563   0.979 -0.9226  1.9983 -0.6541
 5824SOL    HW228932   1.100   1.540   0.843  1.6842 -0.4102 -0.1129
 5825SOL     OW28933   0.400   1.502   3.016 -0.0798  0.0618  0.6153
 5825SOL    HW128934   0.385   1.514   2.923 -1.3370 -0.0481  0.8099
 5825SOL    HW228935   0.493   1.478   3.014  0.0539  0.6350  0.0868
 5826SOL     OW28936   1.468   1.539   9.191  0.0411 -0.3198  0.0563
 5826SOL    HW128937   1.469   1.505   9.101  0.7732 -0.3757  0.0884
 5826SOL    HW228938   1.444   1.459   9.239 -1.1194  0.5165  0.8800
 5827SOL     OW28939   0.347   2.058   6.365  0.1969 -0.7710 -0.0579
 5827SOL    HW128940   0.260   2.018   6.358 -0.1459 -0.0063 -0.2090
 5827SOL    HW228941   0.313   2.147   6.374  0.5980 -0.9451  3.0873
 5828SOL     OW28942   2.143   4.366   9.678 -0.1906 -0.0602 -0.0624
 5828SOL    HW128943   2.110   4.316   9.603 -1.0785  0.4515 -0.0145
 5828SOL    HW228944   2.064   4.372   9.731 -0.0470 -1.2191  0.2998
 5829SOL     OW28945   2.617   4.393   3.615 -0.1063 -0.2811 -0.0503
 5829SOL    HW128946   2.709   4.411   3.633 -0.0007 -0.7783 -0.1020
 5829SOL    HW228947   2.596   4.312   3.661  0.0429  0.0608  0.6101
 5830SOL     OW28948   0.356   3.133   2.667  0.0436  0.4850  0.8745
 5830SOL    HW128949   0.402   3.141   2.584 -1.4211 -1.1473 -0.1016
 5830SOL    HW228950   0.380   3.214   2.711  0.4893  0.0312  1.4648
 5831SOL     OW28951   0.110   3.160   6.090 -0.3539 -0.2751 -0.0459
 5831SOL    HW128952   0.054   3.196   6.020  1.0191  0.5266 -0.7330
 5831SOL    HW228953   0.073   3.207   6.165  0.0520 -1.0137  0.6082
 5832SOL     OW28954   2.732   1.056   4.206 -0.1870 -0.6136 -1.3025
 5832SOL    HW128955   2.813   1.027   4.247  0.5345  2.6628 -0.3492
 5832SOL    HW228956   2.758   1.143   4.174 -1.5776  0.2126 -0.1584
 5833SOL     OW28957   2.883   4.434   5.352  0.1155  0.0079 -0.1559
 5833SOL    HW128958   2.799   4.402   5.319  0.4532 -1.2724  0.2202
 5833SOL    HW228959   2.893   4.516   5.305 -0.7634  0.5657  0.6390
 5834SOL     OW28960   2.017   2.181   2.658  0.0936 -0.3936  0.3804
 5834SOL    HW128961   2.099   2.153   2.699  0.6237 -0.6307 -0.8616
 5834SOL    HW228962   2.044   2.202   2.569 -2.2851  2.3679  0.2821
 5835SOL     OW28963   1.724   4.278   7.978 -0.1948 -0.1364 -0.1422
 5835SOL    HW128964   1.746   4.186   7.961 -2.3546 -0.5937 -0.4144
 5835SOL    HW228965   1.773   4.293   8.059 -0.7695 -0.0107  0.1785
 5836SOL     OW28966   2.709   2.879  11.368 -0.7389 -0.8916 -0.8071
 5836SOL    HW128967   2.664   2.846  11.446  1.6149 -0.0817  0.8796
 5836SOL    HW228968   2.733   2.967  11.397 -0.9523 -0.1999 -2.7355
 5837SOL     OW28969   1.322   0.434  16.250 -0.9153 -0.4740 -0.8064
 5837SOL    HW128970   1.302   0.508  16.307 -0.0423  0.2876 -1.4806
 5837SOL    HW228971   1.234   0.412  16.217 -0.4505 -2.5469 -0.6613
 5838SOL     OW28972   3.764   4.410   6.463 -0.2340 -0.1207  0.4113
 5838SOL    HW128973   3.684   4.460   6.477 -0.5958 -0.4738 -0.3686
 5838SOL    HW228974   3.816   4.459   6.527  1.7304  0.7841 -1.8754
 5839SOL     OW28975   0.598   1.035   3.495  0.4094  0.0476 -0.2247
 5839SOL    HW128976   0.662   1.098   3.529 -3.1110  3.1428  0.6123
 5839SOL    HW228977   0.632   1.022   3.406 -3.5455 -2.0791 -1.4208
 5840SOL     OW28978   4.687   0.758   0.976  0.2604  0.2147  0.5047
 5840SOL    HW128979   0.004   0.840   0.945 -2.6375  1.9538  1.5201
 5840SOL    HW228980   4.693   0.705   0.896 -3.2376  0.0774  0.3163
 5841SOL     OW28981   0.814   4.273   3.907  0.1776 -0.1940  0.2600
 5841SOL    HW128982   0.815   4.369   3.903  0.5375 -0.2396 -0.7586
 5841SOL    HW228983   0.858   4.250   3.825  1.4006 -0.0098  0.8608
 5842SOL     OW28984   2.498   3.227   2.461  0.1608 -0.0632 -0.1078
 5842SOL    HW128985   2.474   3.315   2.488 -3.4656 -2.0286  3.0231
 5842SOL    HW228986   2.433   3.172   2.506  0.5213 -0.5055 -0.1260
 5843SOL     OW28987   0.909   1.770  13.389 -0.7861  1.0056 -0.3769
 5843SOL    HW128988   0.987   1.821  13.411 -1.1420  0.9016  1.1279
 5843SOL    HW228989   0.846   1.836  13.358  0.5053  1.9503 -0.9995
 5844SOL     OW28990   2.949   3.108  11.204 -0.4012  0.0881  0.6915
 5844SOL    HW128991   2.878   3.117  11.140  0.7125  0.8895 -0.4193
 5844SOL    HW228992   2.890   3.127  11.278 -1.0220 -0.7686  0.4162
 5845SOL     OW28993   2.357   2.298   2.748 -0.1646 -0.3650  0.0202
 5845SOL    HW128994   2.447   2.283   2.721 -1.1531 -1.0987 -2.9479
 5845SOL    HW228995   2.319   2.347   2.674  0.4377  1.1517  0.7251
 5846SOL     OW28996   4.299   1.798   7.423 -0.8673 -0.1391  0.6112
 5846SOL    HW128997   4.233   1.829   7.361  1.0474  4.0596  0.6913
 5846SOL    HW228998   4.316   1.718   7.373  0.9405  0.4510  0.2958
 5847SOL     OW28999   0.191   1.647   9.713 -0.0886 -0.1197 -0.0823
 5847SOL    HW129000   0.265   1.594   9.683  1.0962  0.6941  1.4010
 5847SOL    HW229001   0.154   1.646   9.625  2.0576 -1.5148 -0.9679
 5848SOL     OW29002   3.250   2.227   6.689 -0.1738 -0.1929 -0.5271
 5848SOL    HW129003   3.234   2.142   6.730  2.9706  0.4168  1.9507
 5848SOL    HW229004   3.273   2.205   6.599  1.2294 -0.2659 -0.1408
 5849SOL     OW29005   3.803   3.755  17.376  0.3356 -0.3052 -0.7794
 5849SOL    HW129006   3.855   3.830  17.347 -0.7549  1.1875  1.1679
 5849SOL    HW229007   3.749   3.792  17.444  1.4671 -0.3783  0.1607
 5850SOL     OW29008   0.231   4.573  14.892  0.1697  0.3323  0.2350
 5850SOL    HW129009   0.184   4.620  14.962  0.7368  0.4011  0.5747
 5850SOL    HW229010   0.310   4.625  14.909 -0.3467  0.3599  2.5915
 5851SOL     OW29011   4.128   4.432  16.869  0.2135  0.6572  0.0529
 5851SOL    HW129012   4.143   4.526  16.882 -1.9955  1.1730 -1.3114
 5851SOL    HW229013   4.091   4.401  16.952 -1.6220  2.1000 -0.2416
 5852SOL     OW29014   0.921   3.658   8.790 -0.1887 -0.2513 -0.0941
 5852SOL    HW129015   0.887   3.635   8.704  2.5350 -1.1356 -0.9440
 5852SOL    HW229016   0.997   3.712   8.765 -0.6349  0.5223  0.2145
 5853SOL     OW29017   0.032   4.140   3.867  0.3945 -0.2601 -0.1468
 5853SOL    HW129018   0.035   4.073   3.935 -2.0456 -1.4735 -1.2473
 5853SOL    HW229019   0.113   4.112   3.825  1.0245  1.0355  0.2019
 5854SOL     OW29020   3.518   4.025   5.721 -0.1017  0.1524 -0.0166
 5854SOL    HW129021   3.613   4.035   5.715 -0.2457  1.6812  0.1987
 5854SOL    HW229022   3.488   4.077   5.795  2.6343 -0.0078  1.2068
 5855SOL     OW29023   2.259   4.154   7.807 -0.4643  0.5027 -0.0107
 5855SOL    HW129024   2.262   4.078   7.749  0.7725  1.5340 -1.2858
 5855SOL    HW229025   2.187   4.125   7.863  0.5853 -1.4254  0.3077
 5856SOL     OW29026   3.243   0.416   8.676  0.5042 -0.6503  0.5406
 5856SOL    HW129027   3.190   0.474   8.622  2.3707 -0.3330 -0.9657
 5856SOL    HW229028   3.203   0.331   8.656 -2.0273  1.1040 -1.8495
 5857SOL     OW29029   3.952   3.595   9.795  0.6912 -0.2246  0.3124
 5857SOL    HW129030   4.007   3.537   9.847 -0.4588 -2.7571 -1.3011
 5857SOL    HW229031   3.970   3.561   9.708  1.0292 -0.2705  0.4012
 5858SOL     OW29032   3.551   0.136   0.210 -0.0051 -0.3002 -0.1978
 5858SOL    HW129033   3.619   0.079   0.245 -0.8504 -0.6823  0.8017
 5858SOL    HW229034   3.479   0.078   0.189 -0.2393  0.4393 -1.4072
 5859SOL     OW29035   2.218   4.237  10.384 -0.2544 -0.0271 -0.1189
 5859SOL    HW129036   2.305   4.246  10.424  1.8464 -3.0258 -3.9717
 5859SOL    HW229037   2.238   4.217  10.293  1.2232  1.5857 -0.1511
 5860SOL     OW29038   0.826   4.570   1.831 -0.4972  0.3120 -0.5978
 5860SOL    HW129039   0.840   4.500   1.767 -1.0457  0.2629 -0.6647
 5860SOL    HW229040   0.843   4.644   1.773  3.2907  0.8935  1.2780
 5861SOL     OW29041   1.313   1.655   6.477  0.0449 -0.5410  0.0278
 5861SOL    HW129042   1.228   1.618   6.453  0.1405 -1.2914  0.8328
 5861SOL    HW229043   1.366   1.575   6.471 -1.0074 -1.1846 -0.8024
 5862SOL     OW29044   1.294   2.664   2.744 -0.0814  0.1369 -0.3016
 5862SOL    HW129045   1.364   2.614   2.787  0.4158  1.6214  0.6347
 5862SOL    HW229046   1.336   2.693   2.663  0.6641 -0.9710 -0.3277
 5863SOL     OW29047   1.773   4.047   9.868 -0.1094  0.7331 -0.2552
 5863SOL    HW129048   1.766   4.101   9.947  0.3609  0.3275  0.0587
 5863SOL    HW229049   1.778   3.959   9.905 -0.3232  1.0141  0.4603
 5864SOL     OW29050   0.755   2.796   3.731 -1.0008  0.1174 -0.0967
 5864SOL    HW129051   0.793   2.873   3.688 -0.4322  1.6245  3.0895
 5864SOL    HW229052   0.743   2.733   3.660 -1.2323  1.4701 -1.2690
 5865SOL     OW29053   3.478   2.197   0.941  0.3983  0.3010  1.2056
 5865SOL    HW129054   3.538   2.143   0.891  1.1991  2.1507  0.1971
 5865SOL    HW229055   3.415   2.129   0.967 -0.7598  0.1471 -2.0665
 5866SOL     OW29056   3.464   3.019   7.612 -0.3520  0.5217 -0.4793
 5866SOL    HW129057   3.488   3.039   7.521  0.5461 -0.7136 -0.5104
 5866SOL    HW229058   3.370   2.997   7.612 -0.3897  0.6846 -1.7255
 5867SOL     OW29059   3.755   3.087   4.679  0.8494  0.0983  0.3108
 5867SOL    HW129060   3.795   3.171   4.705  1.2073  0.1927 -0.5471
 5867SOL    HW229061   3.709   3.124   4.604  2.2019  0.3182 -0.4139
 5868SOL     OW29062   0.760   3.052   8.366  0.6763  0.0284  0.0810
 5868SOL    HW129063   0.841   3.101   8.383  0.9867 -0.9285  1.3649
 5868SOL    HW229064   0.699   3.124   8.350  0.2403 -0.2739  0.3899
 5869SOL     OW29065   1.944   2.460   4.650 -0.0522  0.4359  0.3581
 5869SOL    HW129066   1.882   2.402   4.693  1.3554 -1.3594 -0.0426
 5869SOL    HW229067   1.874   2.519   4.621 -1.7938 -2.1844 -0.7276
 5870SOL     OW29068   3.831   1.271   6.822 -0.4738  0.6136 -0.5882
 5870SOL    HW129069   3.777   1.194   6.806 -0.3977  0.3556  0.3957
 5870SOL    HW229070   3.862   1.299   6.736  1.1954  0.5738  0.0137
 5871SOL     OW29071   4.491   3.319   3.628  0.2290  0.1219 -0.0488
 5871SOL    HW129072   4.400   3.347   3.624  0.7576  1.3388 -3.2850
 5871SOL    HW229073   4.516   3.356   3.713  1.5200 -2.6912  0.8138
 5872SOL     OW29074   2.512   3.808   4.702 -0.6059  0.7694 -0.2049
 5872SOL    HW129075   2.526   3.797   4.796  0.1420 -0.7302 -0.4862
 5872SOL    HW229076   2.490   3.901   4.706 -0.3792  0.7655  1.2412
 5873SOL     OW29077   1.640   1.256   5.420 -0.0557 -0.0930  0.2313
 5873SOL    HW129078   1.695   1.324   5.458 -0.2853  0.7542 -0.9610
 5873SOL    HW229079   1.562   1.273   5.474  0.3027  2.6028 -0.0987
 5874SOL     OW29080   2.024   0.103   5.929  0.3633 -0.3109  0.2677
 5874SOL    HW129081   1.946   0.071   5.884 -0.7894  2.2386  0.5044
 5874SOL    HW229082   2.044   0.028   5.986 -1.4758  0.1198  1.4868
 5875SOL     OW29083   3.921   0.924   4.560 -0.5374 -0.4601 -0.6444
 5875SOL    HW129084   3.918   0.995   4.496 -0.1563 -0.0550 -0.2125
 5875SOL    HW229085   3.847   0.871   4.531 -0.2100 -0.3801 -1.6574
 5876SOL     OW29086   0.935   4.644  10.401 -0.0975  0.2754 -0.1248
 5876SOL    HW129087   0.931   4.548  10.405 -0.0280  0.3538  1.7822
 5876SOL    HW229088   0.844   4.666  10.422 -0.4310 -1.0184 -0.1566
 5877SOL     OW29089   4.498   2.949   4.991 -0.0645 -0.0086  0.5257
 5877SOL    HW129090   4.408   2.915   4.988  0.0337 -0.2063 -0.2174
 5877SOL    HW229091   4.488   3.001   5.071  1.8337 -0.8329  1.2887
 5878SOL     OW29092   0.061   1.710  17.165  0.1017 -0.4883  0.5822
 5878SOL    HW129093   0.036   1.756  17.245  0.4731  1.0947 -0.2131
 5878SOL    HW229094   0.009   1.631  17.156 -1.0921  0.3531  0.1580
 5879SOL     OW29095   2.625   0.583   6.760  0.1223 -0.4590  0.1218
 5879SOL    HW129096   2.660   0.531   6.687 -0.1180  0.3459 -0.5555
 5879SOL    HW229097   2.538   0.604   6.727  0.6076  0.2416 -0.7140
 5880SOL     OW29098   2.185   1.788   1.815  0.1661 -0.0943  0.0131
 5880SOL    HW129099   2.110   1.847   1.804 -0.1361 -0.1583  1.6947
 5880SOL    HW229100   2.192   1.770   1.722 -0.1525 -1.4412  0.2502
 5881SOL     OW29101   4.663   0.041   2.419  0.2287 -0.9024  0.2979
 5881SOL    HW129102   4.642   4.695   2.483 -0.5104 -2.4048 -1.5049
 5881SOL    HW229103   4.623   0.014   2.336  0.1653  0.0212  0.0211
 5882SOL     OW29104   3.461   3.712   3.272  0.0940 -0.1629  0.8608
 5882SOL    HW129105   3.375   3.673   3.288  0.3963 -1.3404 -0.3808
 5882SOL    HW229106   3.496   3.719   3.360  1.0144  2.2630  0.3025
 5883SOL     OW29107   3.100   0.108   8.914 -0.0631 -0.0928  0.4941
 5883SOL    HW129108   3.019   0.067   8.884 -0.4491  1.3251 -0.4154
 5883SOL    HW229109   3.154   0.034   8.942 -1.4349 -1.3926 -0.3209
 5884SOL     OW29110   3.966   3.724   7.111 -0.0249 -0.0542 -0.3356
 5884SOL    HW129111   3.923   3.672   7.179 -0.6720  1.3300  0.3034
 5884SOL    HW229112   3.962   3.676   7.028  2.5837 -0.9283  0.0547
 5885SOL     OW29113   0.831   3.098   7.853 -0.2103 -0.4556  0.4150
 5885SOL    HW129114   0.910   3.101   7.907  0.0358 -1.0322  0.0799
 5885SOL    HW229115   0.770   3.058   7.914 -1.5823  1.4153  0.2688
 5886SOL     OW29116   2.620   3.375  10.758  0.4164 -0.5354  0.0283
 5886SOL    HW129117   2.625   3.458  10.711 -2.1217 -0.4788 -0.1312
 5886SOL    HW229118   2.607   3.396  10.851 -0.2495  0.5192 -0.3061
 5887SOL     OW29119   3.835   1.866   3.660  0.4099 -0.4657  0.2871
 5887SOL    HW129120   3.741   1.885   3.662  0.1535 -1.7078 -0.0873
 5887SOL    HW229121   3.868   1.931   3.722  0.8891  0.2896 -0.7622
 5888SOL     OW29122   1.236   1.160   3.581  0.3571  0.1200 -0.2142
 5888SOL    HW129123   1.190   1.179   3.663 -0.7871 -1.4751 -0.4864
 5888SOL    HW229124   1.245   1.065   3.587 -0.0667  0.0608 -0.4784
 5889SOL     OW29125   0.634   1.964   5.396 -0.5911  0.5991 -0.0642
 5889SOL    HW129126   0.699   1.996   5.458 -0.5079 -0.4984  0.4272
 5889SOL    HW229127   0.562   1.926   5.448 -0.4558  0.1344 -0.2173
 5890SOL     OW29128   3.173   0.187   9.240 -0.5673  0.2520 -0.2157
 5890SOL    HW129129   3.257   0.206   9.197  0.0049  0.4863  1.0172
 5890SOL    HW229130   3.131   0.121   9.185 -3.7311  2.3136 -0.2641
 5891SOL     OW29131   3.149   4.690   3.295  0.3536  0.1560  0.4910
 5891SOL    HW129132   3.128   0.049   3.247  2.8366  0.5378  0.0164
 5891SOL    HW229133   3.086   4.694   3.367  0.6462  1.7963  0.6517
 5892SOL     OW29134   0.602   3.335   9.086  0.0989  0.5929 -0.1910
 5892SOL    HW129135   0.695   3.314   9.087  0.5175  2.5089  2.0055
 5892SOL    HW229136   0.583   3.368   9.174  0.7299  0.3144  0.0469
 5893SOL     OW29137   0.791   3.520   5.178 -0.4014 -0.0264  0.2350
 5893SOL    HW129138   0.730   3.535   5.251 -3.3275  0.6307 -2.3326
 5893SOL    HW229139   0.808   3.426   5.183  0.6975  0.1703  0.0561
 5894SOL     OW29140   3.438   1.927   1.049 -0.4051 -0.0102  0.0693
 5894SOL    HW129141   3.376   1.933   0.976  0.1135 -1.3229 -0.4754
 5894SOL    HW229142   3.473   1.839   1.037 -0.6701 -0.0651 -0.3194
 5895SOL     OW29143   2.320   1.826   9.178  0.0644 -0.6335  0.1927
 5895SOL    HW129144   2.314   1.883   9.255 -0.1331 -0.9366  0.4004
 5895SOL    HW229145   2.350   1.744   9.218 -0.2917  0.8071  3.3566
 5896SOL     OW29146   1.366   3.438   5.897  0.3874 -0.4592 -0.6782
 5896SOL    HW129147   1.283   3.485   5.900  0.5371 -0.2416 -0.0060
 5896SOL    HW229148   1.373   3.395   5.982  0.3831  1.1748  0.1445
 5897SOL     OW29149   4.238   2.481   2.199 -0.3286  0.2693  0.2695
 5897SOL    HW129150   4.193   2.560   2.230 -2.7660 -1.0050 -0.0151
 5897SOL    HW229151   4.274   2.510   2.115 -0.9209 -0.3029 -0.1778
 5898SOL     OW29152   4.660   4.150   9.350  0.0142  0.0890  0.3288
 5898SOL    HW129153   4.699   4.086   9.290 -3.5243 -1.6087 -0.1324
 5898SOL    HW229154   4.719   4.155   9.425  1.3501 -0.5197 -0.6858
 5899SOL     OW29155   1.623   3.046  14.764 -0.1264 -0.1959  0.4812
 5899SOL    HW129156   1.664   3.092  14.692 -0.4276 -1.5595 -0.5627
 5899SOL    HW229157   1.619   3.120  14.824  0.3231  0.9853 -0.9524
 5900SOL     OW29158   1.058   1.554   9.606 -0.0501  0.2493  0.4809
 5900SOL    HW129159   1.085   1.479   9.553  2.3108 -0.1589  2.2989
 5900SOL    HW229160   0.962   1.553   9.615  0.0317 -0.7272  1.2365
 5901SOL     OW29161   3.916   1.431   8.099  0.8031 -0.3262 -0.4229
 5901SOL    HW129162   3.952   1.398   8.017 -0.8049  2.2381 -2.1383
 5901SOL    HW229163   3.822   1.444   8.086  0.8312  0.3532  0.0211
 5902SOL     OW29164   3.364   0.572  11.846 -0.0035  0.2908  0.0839
 5902SOL    HW129165   3.369   0.642  11.782  1.6196  0.1777  0.0717
 5902SOL    HW229166   3.347   0.495  11.791 -0.5154  0.8576 -0.5516
 5903SOL     OW29167   1.889   0.979  10.922 -0.6271 -0.6040 -0.0080
 5903SOL    HW129168   1.936   0.897  10.909 -0.7150 -0.2748 -2.4388
 5903SOL    HW229169   1.951   1.031  10.973 -0.1188 -1.2869  0.0680
 5904SOL     OW29170   2.042   3.893   4.376  0.2933  0.0044 -0.3397
 5904SOL    HW129171   2.021   3.805   4.408  0.9843 -0.4165 -1.0322
 5904SOL    HW229172   1.986   3.901   4.299 -0.3069  1.6088  0.2705
 5905SOL     OW29173   1.674   0.829   5.064 -0.5345  0.5639  0.2793
 5905SOL    HW129174   1.610   0.874   5.008 -1.7470  3.0663  3.6939
 5905SOL    HW229175   1.689   0.896   5.130 -1.3894  0.5227  0.5209
 5906SOL     OW29176   3.852   0.910   3.524  0.6944  0.4895  0.3434
 5906SOL    HW129177   3.849   0.994   3.570  0.9201  0.8916 -0.3820
 5906SOL    HW229178   3.847   0.934   3.432  0.5192  0.7426  0.4181
 5907SOL     OW29179   2.518   4.611   6.249  0.2919  0.7085  0.2427
 5907SOL    HW129180   2.555   4.651   6.328 -1.0766  0.1929  1.1338
 5907SOL    HW229181   2.429   4.643   6.256  0.0452 -0.5123  2.5123
 5908SOL     OW29182   0.391   2.702   8.370 -0.3409 -0.2794 -0.4524
 5908SOL    HW129183   0.326   2.670   8.306  1.3261 -1.5959 -1.4956
 5908SOL    HW229184   0.474   2.669   8.335 -0.5408 -1.0001 -0.2429
 5909SOL     OW29185   4.687   3.626   7.079 -0.4882  0.5281 -0.2893
 5909SOL    HW129186   0.035   3.560   7.084  0.2528  1.4989  2.3176
 5909SOL    HW229187   4.608   3.574   7.065  0.4418 -0.8163 -0.5566
 5910SOL     OW29188   4.284   1.254  12.133 -0.5031 -0.1801 -0.1871
 5910SOL    HW129189   4.234   1.172  12.134 -2.5619  1.1021 -0.6149
 5910SOL    HW229190   4.213   1.313  12.158 -0.6567  0.0013 -1.0626
 5911SOL     OW29191   0.238   3.561   4.566 -0.5862 -0.0986 -0.7961
 5911SOL    HW129192   0.190   3.616   4.627 -0.4677 -0.9181  0.0358
 5911SOL    HW229193   0.169   3.532   4.505 -0.3661 -0.2719 -0.9625
 5912SOL     OW29194   2.481   2.543  16.195 -0.1882  0.1557  0.1908
 5912SOL    HW129195   2.445   2.631  16.185  0.5150  0.4304  0.1466
 5912SOL    HW229196   2.553   2.551  16.256  0.1112  2.9487 -0.5305
 5913SOL     OW29197   2.549   0.300  11.488 -0.2344 -0.3614  0.5745
 5913SOL    HW129198   2.536   0.253  11.570  2.0551 -0.4969  0.8573
 5913SOL    HW229199   2.468   0.348  11.472 -0.8135 -1.8536 -0.9924
 5914SOL     OW29200   0.550   0.438  11.221  0.6493  0.3240  0.2178
 5914SOL    HW129201   0.621   0.424  11.283  0.8227 -0.6809 -0.2176
 5914SOL    HW229202   0.496   0.498  11.273 -0.4298 -1.1138  0.7666
 5915SOL     OW29203   2.652   0.757   7.891 -0.5286  0.2840 -0.0940
 5915SOL    HW129204   2.746   0.756   7.874 -0.1745 -1.3034  2.0838
 5915SOL    HW229205   2.637   0.844   7.930  0.3247 -0.4579  1.8664
 5916SOL     OW29206   2.780   2.562   3.443  0.5564  0.6755 -0.7897
 5916SOL    HW129207   2.742   2.536   3.359  0.9931 -1.8656 -0.1887
 5916SOL    HW229208   2.742   2.500   3.505 -2.1556  0.6832 -2.4813
 5917SOL     OW29209   1.153   3.774  16.998  0.2605 -0.5530 -0.0310
 5917SOL    HW129210   1.074   3.806  16.955  0.8621  1.0574  0.0416
 5917SOL    HW229211   1.124   3.691  17.037 -2.2300 -0.6278 -2.0930
 5918SOL     OW29212   4.346   4.513   1.503  0.0182  0.8238 -0.2732
 5918SOL    HW129213   4.346   4.572   1.428 -1.7394  3.6182  1.9133
 5918SOL    HW229214   4.424   4.462   1.485 -0.8399 -1.0079  1.1141
 5919SOL     OW29215   4.682   0.858  13.159  0.0147  0.0987 -0.1211
 5919SOL    HW129216   4.600   0.904  13.141  0.1651  0.1199 -0.7780
 5919SOL    HW229217   4.680   0.803  13.080 -1.2306 -0.4513  0.2900
 5920SOL     OW29218   0.799   0.652   7.261  0.1876 -0.3461 -0.1016
 5920SOL    HW129219   0.847   0.666   7.343  0.3144 -2.4550  0.1866
 5920SOL    HW229220   0.868   0.676   7.199 -0.3315 -0.6448 -0.7898
 5921SOL     OW29221   2.909   2.908   1.727 -0.2036 -0.2279  0.4436
 5921SOL    HW129222   2.995   2.944   1.747  0.6161 -2.5595  1.1117
 5921SOL    HW229223   2.876   2.957   1.652 -0.8612 -0.5281  0.5330
 5922SOL     OW29224   1.093   3.088   1.204 -0.3340 -0.7144  0.0345
 5922SOL    HW129225   1.043   3.011   1.230 -0.6581  0.2056  2.1732
 5922SOL    HW229226   1.143   3.105   1.284 -0.7662 -0.7559  0.3121
 5923SOL     OW29227   0.777   0.818   6.924  0.6667  0.1990 -0.2836
 5923SOL    HW129228   0.712   0.770   6.976 -1.3850  0.2922 -2.7337
 5923SOL    HW229229   0.759   0.909   6.949 -2.1598 -0.5661  0.4902
 5924SOL     OW29230   0.374   4.383   2.241 -0.5585  0.1843 -0.4546
 5924SOL    HW129231   0.437   4.316   2.269 -1.2729  0.2658  1.3320
 5924SOL    HW229232   0.402   4.458   2.293  2.2257  0.2806 -2.0774
 5925SOL     OW29233   0.471   0.291   2.468  0.1607  0.0070 -0.6093
 5925SOL    HW129234   0.515   0.211   2.496 -2.9969 -1.4432  0.2344
 5925SOL    HW229235   0.457   0.281   2.374 -1.1798 -2.8798 -0.1269
 5926SOL     OW29236   3.162   3.475   4.377 -0.1955  0.0457 -0.2549
 5926SOL    HW129237   3.168   3.382   4.399 -0.0364  0.2879  0.7413
 5926SOL    HW229238   3.179   3.482   4.283  0.5013  1.7333 -0.0019
 5927SOL     OW29239   2.041   2.848   5.510  0.5835 -0.0630 -0.3151
 5927SOL    HW129240   2.022   2.937   5.540  0.6841 -0.3895  0.7290
 5927SOL    HW229241   2.066   2.801   5.589 -0.9903  1.4109  1.0671
 5928SOL     OW29242   4.470   2.086   1.603  0.0608 -0.6826 -0.4080
 5928SOL    HW129243   4.540   2.060   1.541 -0.0686 -0.9149 -0.4590
 5928SOL    HW229244   4.427   2.003   1.626 -0.6594 -0.5910 -1.4205
 5929SOL     OW29245   0.799   0.774   1.888 -1.0230 -0.0122 -0.2857
 5929SOL    HW129246   0.784   0.694   1.838  1.5623 -0.3601 -0.5208
 5929SOL    HW229247   0.710   0.800   1.911 -1.9856 -2.8167 -0.8483
 5930SOL     OW29248   1.483   3.262   6.398  0.2888  0.3339  0.8730
 5930SOL    HW129249   1.501   3.350   6.432 -0.3229  0.7187  0.1927
 5930SOL    HW229250   1.484   3.273   6.302 -0.8803 -1.2617  0.6942
 5931SOL     OW29251   0.541   1.368   7.196 -0.7430 -0.5753 -0.1176
 5931SOL    HW129252   0.602   1.301   7.227 -0.0555  0.8732  1.7221
 5931SOL    HW229253   0.526   1.417   7.277  0.1873  0.2963 -0.4650
 5932SOL     OW29254   3.802   1.547  17.558 -0.3194 -0.1889 -0.4834
 5932SOL    HW129255   3.785   1.506  17.473  1.8594  2.4165 -2.1634
 5932SOL    HW229256   3.871   1.485  17.583 -0.3426  0.2096  0.5757
 5933SOL     OW29257   1.784   2.705   1.379  0.4937 -0.9379  0.1150
 5933SOL    HW129258   1.689   2.712   1.375  0.4787  0.0836  2.9202
 5933SOL    HW229259   1.789   2.629   1.436 -0.6693  0.0935  1.5703
 5934SOL     OW29260   0.052   4.388   5.443 -0.3104  0.3003  0.1390
 5934SOL    HW129261   0.136   4.349   5.468 -1.5453 -2.0218  0.6725
 5934SOL    HW229262   4.719   4.346   5.510  1.8693 -1.1631  0.9909
 5935SOL     OW29263   0.545   2.466   2.759 -0.5672 -0.3932 -0.1769
 5935SOL    HW129264   0.593   2.387   2.784 -0.7738 -0.5984 -0.4271
 5935SOL    HW229265   0.516   2.444   2.671  0.5505  0.1191 -0.6725
 5936SOL     OW29266   3.394   2.239   3.168  0.7533 -0.5132 -0.3001
 5936SOL    HW129267   3.301   2.260   3.158  1.0805  0.3755 -1.4292
 5936SOL    HW229268   3.427   2.306   3.108 -2.0006  0.8052 -0.3290
 5937SOL     OW29269   0.639   4.042  12.990 -0.0880  0.1201 -0.0755
 5937SOL    HW129270   0.702   4.073  12.925  0.1715  0.6617  0.4298
 5937SOL    HW229271   0.678   3.979  13.052 -1.1919  1.7950  2.3261
 5938SOL     OW29272   2.412   0.964  16.126  0.1620 -0.1132 -0.3698
 5938SOL    HW129273   2.435   1.040  16.072  1.1524  0.9051  1.4573
 5938SOL    HW229274   2.491   0.911  16.136 -0.4547 -0.8066  0.7528
 5939SOL     OW29275   1.138   2.708  11.487  0.3380 -0.7477 -0.1152
 5939SOL    HW129276   1.135   2.783  11.429 -1.4766 -0.4148  0.4102
 5939SOL    HW229277   1.050   2.674  11.471  1.0242 -2.7718  0.4391
 5940SOL     OW29278   2.001   0.360  16.672 -0.1790 -0.1777  0.3091
 5940SOL    HW129279   1.983   0.334  16.762  0.0818 -0.0884  0.3865
 5940SOL    HW229280   2.047   0.441  16.692  1.4244 -0.9710 -0.1716
 5941SOL     OW29281   0.292   1.551  15.883 -0.4367 -0.3821  0.2990
 5941SOL    HW129282   0.258   1.606  15.954  1.1539 -0.1973  0.9259
 5941SOL    HW229283   0.382   1.536  15.913  0.5667  0.0693 -2.4790
 5942SOL     OW29284   3.285   1.896   6.339  0.5719 -0.1681 -0.3661
 5942SOL    HW129285   3.216   1.927   6.398 -0.3781  0.1350 -1.6215
 5942SOL    HW229286   3.354   1.865   6.398 -0.1676 -1.7179 -0.3101
 5943SOL     OW29287   1.268   3.692   3.000 -0.0522 -0.3827 -0.4650
 5943SOL    HW129288   1.358   3.716   3.024  0.6170 -2.7366 -0.6571
 5943SOL    HW229289   1.270   3.700   2.904 -1.5607  1.0068 -0.3824
 5944SOL     OW29290   3.341   0.844   2.323 -0.3204  0.1700  0.0499
 5944SOL    HW129291   3.369   0.860   2.233 -1.2941 -1.7933 -0.5990
 5944SOL    HW229292   3.358   0.751   2.337  0.0950  0.3613  0.8130
 5945SOL     OW29293   0.280   4.102   3.760  0.7510  0.1599  0.0953
 5945SOL    HW129294   0.287   4.008   3.740  2.5991  0.5987 -1.2756
 5945SOL    HW229295   0.275   4.136   3.671  0.3042  1.5742  0.6656
 5946SOL     OW29296   0.372   0.040   0.796 -0.6023  0.2849 -0.2198
 5946SOL    HW129297   0.285   0.000   0.785  0.3347 -1.9555  0.4669
 5946SOL    HW229298   0.403   0.002   0.878 -2.2397  0.6360  0.5514
 5947SOL     OW29299   3.387   1.406   4.041  0.0061  0.2145 -0.0574
 5947SOL    HW129300   3.371   1.498   4.058 -1.6583  0.0619 -0.7942
 5947SOL    HW229301   3.366   1.400   3.948  2.3901  0.7196 -0.6285
 5948SOL     OW29302   0.012   3.779   4.536 -0.5944  0.1577  0.1463
 5948SOL    HW129303   4.641   3.757   4.550  0.0699 -0.7616  3.1473
 5948SOL    HW229304   0.014   3.796   4.442  0.9783 -1.3521 -0.0977
 5949SOL     OW29305   0.255   1.578   6.026 -0.6082 -0.0522  0.4268
 5949SOL    HW129306   0.271   1.502   6.082 -2.4660 -1.0163 -0.3541
 5949SOL    HW229307   0.189   1.629   6.074 -1.3856  0.7880 -1.5535
 5950SOL     OW29308   3.470   1.140   3.574  0.0273 -0.4261  0.0809
 5950SOL    HW129309   3.433   1.223   3.540  0.1206 -0.1196  0.7403
 5950SOL    HW229310   3.512   1.105   3.496  1.1894  0.3216  0.3676
 5951SOL     OW29311   3.251   3.308  12.577 -0.2281  0.1537 -0.3323
 5951SOL    HW129312   3.346   3.302  12.589 -0.5046 -2.7963  0.3212
 5951SOL    HW229313   3.217   3.311  12.667 -0.7711  0.0616 -0.5322
 5952SOL     OW29314   1.275   4.049  17.096  0.1323  0.3308  0.2723
 5952SOL    HW129315   1.249   4.080  17.183 -0.8901  2.2410 -0.7146
 5952SOL    HW229316   1.283   3.953  17.097 -2.3058  0.1299  0.7416
 5953SOL     OW29317   1.667   3.912   5.041  0.2509 -0.1744 -0.2353
 5953SOL    HW129318   1.664   3.821   5.070 -0.4440 -0.4475 -1.1448
 5953SOL    HW229319   1.727   3.916   4.966 -0.7652 -1.0429 -1.0999
 5954SOL     OW29320   1.297   2.476   7.433 -0.1546 -0.0837 -0.5190
 5954SOL    HW129321   1.248   2.546   7.389  0.5044  0.6880 -0.0079
 5954SOL    HW229322   1.231   2.446   7.495  1.4425  0.0029  1.2017
 5955SOL     OW29323   3.458   2.157   3.595  0.2208  0.1379  0.5550
 5955SOL    HW129324   3.509   2.200   3.527  0.8819 -2.1985 -0.4298
 5955SOL    HW229325   3.372   2.169   3.554  1.1037 -1.7747 -1.8843
 5956SOL     OW29326   1.389   3.174  10.607  0.8391 -0.2856 -0.2071
 5956SOL    HW129327   1.354   3.174  10.696 -0.4779  1.6235 -0.7311
 5956SOL    HW229328   1.482   3.188  10.619  1.0086 -0.7687 -0.9528
 5957SOL     OW29329   4.136   4.708   2.975 -0.4083 -0.4134  0.8161
 5957SOL    HW129330   4.158   4.676   2.888 -0.7230 -0.3661  0.7179
 5957SOL    HW229331   4.113   0.074   2.941  2.0598  0.0576  0.3912
 5958SOL     OW29332   2.869   2.589   0.768  0.0694  0.0664 -0.0631
 5958SOL    HW129333   2.959   2.586   0.734 -0.0056 -0.2455 -0.2334
 5958SOL    HW229334   2.850   2.495   0.764  1.2604 -0.1463 -0.8701
 5959SOL     OW29335   1.010   2.432   8.161 -0.0595  0.3855 -0.5418
 5959SOL    HW129336   0.964   2.395   8.236 -0.3021 -0.6978 -1.2283
 5959SOL    HW229337   1.085   2.373   8.151  0.6814  1.2096  0.0334
 5960SOL     OW29338   1.764   0.339   4.695 -0.4645  0.0059  0.2530
 5960SOL    HW129339   1.672   0.365   4.704 -0.4239 -0.0947  0.9464
 5960SOL    HW229340   1.771   0.261   4.749  1.5651 -0.3726 -0.5754
 5961SOL     OW29341   4.162   4.034  14.624 -0.4271 -0.7819  0.4948
 5961SOL    HW129342   4.177   4.088  14.547  0.5780 -3.0015 -0.8673
 5961SOL    HW229343   4.068   4.019  14.611 -0.7792  1.7177  0.3190
 5962SOL     OW29344   2.837   0.201  10.689 -0.3506  0.3662  0.1325
 5962SOL    HW129345   2.791   0.276  10.651  1.1958  0.9273 -0.6319
 5962SOL    HW229346   2.910   0.245  10.732  0.4589 -1.6047  0.7346
 5963SOL     OW29347   3.025   2.451   8.601  0.6074 -0.5827  0.7284
 5963SOL    HW129348   3.090   2.385   8.577  0.2018 -0.8070  0.2298
 5963SOL    HW229349   2.953   2.395   8.572  0.1538 -0.9682  2.5956
 5964SOL     OW29350   4.187   3.569  15.552  0.2090  0.1888 -0.1251
 5964SOL    HW129351   4.210   3.657  15.523  1.2507  0.4227  1.4046
 5964SOL    HW229352   4.261   3.541  15.606 -1.3964 -2.4171  0.7467
 5965SOL     OW29353   1.748   2.143   8.204 -0.0136 -0.1844 -0.5518
 5965SOL    HW129354   1.833   2.177   8.178  0.9129 -2.5233 -0.6043
 5965SOL    HW229355   1.693   2.215   8.173  0.1548 -0.5537 -1.7252
 5966SOL     OW29356   0.624   0.929   4.229 -0.4829 -0.7280 -0.4173
 5966SOL    HW129357   0.564   0.998   4.201  0.1332 -0.4637 -1.0882
 5966SOL    HW229358   0.629   0.950   4.322  2.8597 -1.0629 -0.5373
 5967SOL     OW29359   4.504   4.240   2.841 -0.8597 -0.1988 -0.2924
 5967SOL    HW129360   4.535   4.154   2.814  1.5521  0.7234 -0.4051
 5967SOL    HW229361   4.429   4.215   2.895 -0.3367 -1.8078 -0.3190
 5968SOL     OW29362   3.841   4.513  11.980  0.1361 -0.8792 -0.0869
 5968SOL    HW129363   3.919   4.543  11.934  1.4927 -0.8892  2.2348
 5968SOL    HW229364   3.861   4.420  11.984 -2.5791 -1.4540  0.4791
 5969SOL     OW29365   2.043   0.190   7.879  0.7384  0.5081  0.0022
 5969SOL    HW129366   2.015   0.099   7.890 -0.5718  0.8003 -0.8560
 5969SOL    HW229367   1.959   0.237   7.884 -0.8294 -2.2513 -0.5248
 5970SOL     OW29368   1.120   0.522   9.400  0.6050  0.8385  0.1926
 5970SOL    HW129369   1.158   0.558   9.480  2.7223  2.2378 -1.4182
 5970SOL    HW229370   1.026   0.540   9.408  0.1862  0.4340 -3.7792
 5971SOL     OW29371   4.247   3.231   4.956  0.6338  0.1679 -0.0171
 5971SOL    HW129372   4.227   3.139   4.971  0.6514  0.4200  1.5783
 5971SOL    HW229373   4.157   3.253   4.933  0.2356  0.2020  1.5542
 5972SOL     OW29374   3.717   4.689  14.107 -0.0853 -0.6646  0.3311
 5972SOL    HW129375   3.689   4.633  14.180  1.0384 -2.8518 -0.9167
 5972SOL    HW229376   3.646   4.669  14.046 -0.9405 -0.3646  1.2277
 5973SOL     OW29377   4.423   3.681   2.512 -0.0930 -0.1828  0.3734
 5973SOL    HW129378   4.430   3.762   2.562 -2.4011 -1.1186  2.2113
 5973SOL    HW229379   4.389   3.717   2.430 -2.0043 -1.4331  0.6327
 5974SOL     OW29380   0.094   0.203   2.297 -0.4909 -0.0694  0.1780
 5974SOL    HW129381   0.040   0.138   2.342 -1.9399  2.0759  1.5422
 5974SOL    HW229382   0.129   0.159   2.220  1.9251 -0.0712  1.2664
 5975SOL     OW29383   3.727   1.873  10.950 -0.1073  0.0840 -0.3901
 5975SOL    HW129384   3.718   1.817  11.027  0.4870 -0.6991 -0.8944
 5975SOL    HW229385   3.662   1.937  10.980 -1.4420 -1.1118 -0.7361
 5976SOL     OW29386   1.611   3.022   1.883  0.3944  0.1828  0.5065
 5976SOL    HW129387   1.676   3.016   1.814  0.5350 -1.6476  0.8024
 5976SOL    HW229388   1.589   2.929   1.895  0.4071  0.0284 -0.6740
 5977SOL     OW29389   0.230   2.234  11.660  0.6281 -0.0464  0.2136
 5977SOL    HW129390   0.308   2.179  11.661 -1.1336 -2.5447 -0.7522
 5977SOL    HW229391   0.256   2.291  11.732  1.1542  0.3355 -0.2750
 5978SOL     OW29392   0.061   3.995   4.737 -0.3724  0.5188  0.0800
 5978SOL    HW129393   0.009   3.957   4.808  0.8348 -1.6895 -0.2461
 5978SOL    HW229394   0.044   3.932   4.667 -1.7254  2.1020 -1.0378
 5979SOL     OW29395   4.632   4.679   3.256  0.0952 -0.2533 -0.0147
 5979SOL    HW129396   4.610   0.046   3.287  1.1601  0.4959 -1.4120
 5979SOL    HW229397   4.544   4.644   3.241 -0.8085  2.3060 -0.6902
 5980SOL     OW29398   1.269   0.654  15.670  0.5430  0.1450 -0.1411
 5980SOL    HW129399   1.312   0.694  15.745 -0.8086  0.2069  0.5974
 5980SOL    HW229400   1.199   0.605  15.713  1.7985  0.8569  2.6765
 5981SOL     OW29401   1.969   2.726   3.974  0.2782 -0.1038 -0.8103
 5981SOL    HW129402   1.948   2.668   4.047 -0.4228  0.5298 -0.5097
 5981SOL    HW229403   1.893   2.711   3.917 -0.3037 -1.2309  0.2730
 5982SOL     OW29404   3.085   4.037   0.886  0.4612 -0.5052 -0.3837
 5982SOL    HW129405   3.168   4.050   0.932  0.7036 -1.8974 -0.4217
 5982SOL    HW229406   3.028   4.020   0.960  1.3332 -0.3648  0.3264
 5983SOL     OW29407   4.292   1.266   8.538 -0.3289  0.0442  0.1206
 5983SOL    HW129408   4.265   1.339   8.482  0.3206 -0.5466 -0.9744
 5983SOL    HW229409   4.320   1.309   8.618  1.3228 -1.2026  0.2134
 5984SOL     OW29410   3.525   0.652   3.975  0.1390 -0.4451 -0.7434
 5984SOL    HW129411   3.548   0.741   3.947 -1.0118 -0.1401 -0.6963
 5984SOL    HW229412   3.522   0.599   3.895  0.7329  1.1217 -1.8037
 5985SOL     OW29413   2.284   2.416   4.333  0.1394 -0.0884 -0.2510
 5985SOL    HW129414   2.267   2.323   4.315 -2.6935  0.7561 -1.8336
 5985SOL    HW229415   2.308   2.404   4.425  0.3605  0.0731 -0.2891
 5986SOL     OW29416   2.176   4.316   3.408  0.2197  0.0662  0.0249
 5986SOL    HW129417   2.132   4.295   3.326  1.5776  1.2870 -1.0168
 5986SOL    HW229418   2.179   4.230   3.448 -0.9287 -0.2603 -0.5947
 5987SOL     OW29419   1.147   4.627   7.606 -0.1548 -0.2899  0.2562
 5987SOL    HW129420   1.148   4.717   7.574  0.0945 -0.7133 -0.9183
 5987SOL    HW229421   1.226   4.592   7.567  0.3566  0.0349  0.9991
 5988SOL     OW29422   1.148   1.252   2.007 -0.3247 -0.0063  0.0604
 5988SOL    HW129423   1.200   1.248   2.087  1.3734  3.3310 -0.8627
 5988SOL    HW229424   1.185   1.331   1.967 -1.2210  0.6960  0.6250
 5989SOL     OW29425   1.875   3.184   6.849 -0.4896 -0.0061 -0.4505
 5989SOL    HW129426   1.900   3.125   6.778 -2.6230  0.5572 -1.6786
 5989SOL    HW229427   1.817   3.247   6.804  0.0077  0.7972  0.0389
 5990SOL     OW29428   4.615   1.937   4.606 -0.0685  0.0658  0.1739
 5990SOL    HW129429   4.538   1.881   4.596  0.1876 -0.0938 -0.9757
 5990SOL    HW229430   4.667   1.880   4.663  0.3958  0.1221 -0.1874
 5991SOL     OW29431   2.593   2.810   4.100  0.6371  0.0634  0.1668
 5991SOL    HW129432   2.575   2.716   4.101  0.8602  0.0078 -1.2637
 5991SOL    HW229433   2.657   2.824   4.031  0.1007  1.4171 -0.0590
 5992SOL     OW29434   1.908   1.686   3.876 -0.2985 -0.0324 -0.5123
 5992SOL    HW129435   1.979   1.668   3.938 -1.2042  2.0512  1.1190
 5992SOL    HW229436   1.899   1.598   3.840 -0.4290  0.0497 -0.6801
 5993SOL     OW29437   4.351   0.284   7.205 -0.1850 -0.0637 -0.5412
 5993SOL    HW129438   4.379   0.375   7.216 -1.7969  0.0045  2.8697
 5993SOL    HW229439   4.313   0.273   7.292  0.3127 -0.7944 -0.4158
 5994SOL     OW29440   4.482   2.817  15.364 -0.3793  0.2868 -0.0349
 5994SOL    HW129441   4.553   2.822  15.301  0.3341 -0.6047  0.6848
 5994SOL    HW229442   4.452   2.907  15.354  0.3667  0.5731  0.3391
 5995SOL     OW29443   3.954   2.857   1.140 -0.5704  0.7680 -0.6714
 5995SOL    HW129444   3.934   2.810   1.059  0.3256  0.0266 -0.4529
 5995SOL    HW229445   3.868   2.896   1.156  0.3494  1.5816  2.2246
 5996SOL     OW29446   4.229   0.481   2.674 -0.0947 -0.2209 -0.3456
 5996SOL    HW129447   4.305   0.426   2.657  0.1242  0.2158 -0.7600
 5996SOL    HW229448   4.264   0.530   2.749  1.5900  1.2304 -2.1042
 5997SOL     OW29449   0.514   0.838   7.535 -0.1923  0.0128  0.4375
 5997SOL    HW129450   0.550   0.900   7.471 -1.4678 -0.1814 -0.4519
 5997SOL    HW229451   0.421   0.840   7.514 -0.6563 -0.3167  2.4060
 5998SOL     OW29452   1.786   3.940  11.861  0.3961 -0.2128  0.2009
 5998SOL    HW129453   1.841   3.869  11.893  2.5328  0.5529 -1.7189
 5998SOL    HW229454   1.837   4.010  11.902 -0.6431 -0.9565  2.7209
 5999SOL     OW29455   1.332   2.376   4.852  0.7611  0.1452  0.4404
 5999SOL    HW129456   1.339   2.462   4.892 -0.4423  0.1317  0.6895
 5999SOL    HW229457   1.335   2.395   4.759 -0.9996  0.2714  0.4143
 6000SOL     OW29458   1.466   1.286  13.213  0.5690 -0.5903  0.0414
 6000SOL    HW129459   1.550   1.263  13.253  0.9854  1.3175  0.2497
 6000SOL    HW229460   1.445   1.370  13.255  3.9738  0.0238  0.5309
 6001SOL     OW29461   0.027   0.801  12.023  0.0863  0.0408 -0.0815
 6001SOL    HW129462   4.715   0.740  12.088  1.2321 -0.6560 -0.1449
 6001SOL    HW229463   0.014   0.760  11.937  0.4520 -0.7203  0.2210
 6002SOL     OW29464   3.198   3.744   4.143 -0.0533  0.1531 -1.0907
 6002SOL    HW129465   3.136   3.767   4.212  1.4268 -2.2617  1.0426
 6002SOL    HW229466   3.159   3.659   4.122 -0.4186  0.0223  0.1517
 6003SOL     OW29467   0.321   3.520   6.627  0.1789  0.3864  0.2545
 6003SOL    HW129468   0.364   3.438   6.653 -0.1084  0.6494  1.5703
 6003SOL    HW229469   0.231   3.489   6.620  0.6933 -0.8260 -0.9501
 6004SOL     OW29470   0.208   0.178   0.434 -0.3133  0.1345  0.1471
 6004SOL    HW129471   0.195   0.083   0.439  1.4752 -0.1654 -0.8036
 6004SOL    HW229472   0.160   0.194   0.352  1.8873 -0.1925 -1.2094
 6005SOL     OW29473   4.589   1.860  15.197  0.0190  0.2374  0.2092
 6005SOL    HW129474   4.650   1.787  15.189 -0.8862 -0.5336  0.3639
 6005SOL    HW229475   4.623   1.937  15.152  1.3694 -0.0155  0.8134
 6006SOL     OW29476   3.834   1.920   5.438  0.1139  0.1799 -0.1212
 6006SOL    HW129477   3.836   2.003   5.389  1.2903  0.7778  0.9429
 6006SOL    HW229478   3.803   1.860   5.370 -0.3671 -1.7174  1.7701
 6007SOL     OW29479   0.145   1.524   2.180 -0.5354 -0.6488  0.1524
 6007SOL    HW129480   0.185   1.572   2.108  1.0162 -2.2663 -0.0718
 6007SOL    HW229481   0.077   1.476   2.132 -0.4666 -1.1913  0.5980
 6008SOL     OW29482   2.961   1.275   5.294  0.1108 -0.0054 -0.1406
 6008SOL    HW129483   3.029   1.342   5.307 -1.4713  1.4212  0.8022
 6008SOL    HW229484   2.971   1.249   5.202  1.6079 -1.1546  0.3521
 6009SOL     OW29485   2.306   0.833   1.867  0.6179 -0.5945  0.1998
 6009SOL    HW129486   2.215   0.803   1.860  0.9850 -1.2216 -1.6696
 6009SOL    HW229487   2.347   0.769   1.925 -2.9837 -2.0876  1.1475
 6010SOL     OW29488   4.222   3.498   5.106 -0.4424  0.1268 -0.1159
 6010SOL    HW129489   4.220   3.413   5.062 -0.3574 -1.2113  2.4603
 6010SOL    HW229490   4.186   3.552   5.036 -3.4681  0.8731  1.9999
 6011SOL     OW29491   3.317   1.300   5.898  0.2810  0.2473 -0.0388
 6011SOL    HW129492   3.229   1.299   5.859 -1.4378 -0.8789  3.8491
 6011SOL    HW229493   3.336   1.207   5.906  0.4887  0.2689 -0.2865
 6012SOL     OW29494   0.605   0.040   6.688  0.2443  0.3607  0.2847
 6012SOL    HW129495   0.683   0.096   6.685  0.2296  0.1730 -4.8120
 6012SOL    HW229496   0.650   4.684   6.722 -0.6982  0.6345  2.1424
 6013SOL     OW29497   2.286   1.271  10.710  0.7165 -0.4308 -0.0294
 6013SOL    HW129498   2.374   1.300  10.734  1.1553 -0.3436 -1.7087
 6013SOL    HW229499   2.237   1.344  10.747 -0.5136  0.6229 -3.6857
 6014SOL     OW29500   2.887   1.614   4.009  0.4969  0.5022 -0.0675
 6014SOL    HW129501   2.922   1.615   4.098 -1.8358  1.6598  0.8375
 6014SOL    HW229502   2.792   1.618   4.023  0.1407 -2.2243 -1.6813
 6015SOL     OW29503   0.942   0.397   3.275  0.6864  0.1902 -0.3499
 6015SOL    HW129504   0.995   0.366   3.202 -1.3317 -0.2554 -1.6332
 6015SOL    HW229505   0.936   0.490   3.255 -0.7809  0.6880  2.4278
 6016SOL     OW29506   2.248   0.556   8.931 -0.1767  0.4285  0.3314
 6016SOL    HW129507   2.210   0.588   9.013  0.9553 -0.6268  1.2754
 6016SOL    HW229508   2.199   0.619   8.878 -0.2215  2.3041  2.6373
 6017SOL     OW29509   1.908   2.392   2.808  0.2952 -0.1624  0.7157
 6017SOL    HW129510   1.953   2.316   2.772  2.5712  0.4648  2.2966
 6017SOL    HW229511   1.987   2.446   2.810  0.5960 -0.4060 -3.3323
 6018SOL     OW29512   3.483   3.009   6.076 -0.2761  0.9629  0.4690
 6018SOL    HW129513   3.520   3.037   5.992 -2.4536  0.2203 -0.7297
 6018SOL    HW229514   3.495   3.081   6.138  2.6692 -0.4342  1.5241
 6019SOL     OW29515   1.125   3.696   3.235  0.4444 -0.1197  0.1569
 6019SOL    HW129516   1.166   3.703   3.149 -1.9914 -0.6131 -1.0460
 6019SOL    HW229517   1.068   3.620   3.226 -0.5108  0.7489 -1.1964
 6020SOL     OW29518   2.676   2.886   6.519 -0.4008  0.2000  0.0953
 6020SOL    HW129519   2.678   2.880   6.614 -1.5250  2.2296  0.2428
 6020SOL    HW229520   2.728   2.818   6.476  0.8288  0.8394  0.5775
 6021SOL     OW29521   4.503   1.925   7.127  0.6963  0.1567  0.1729
 6021SOL    HW129522   4.546   1.979   7.193 -0.4133  1.2443  0.0035
 6021SOL    HW229523   4.412   1.948   7.143  0.7005  0.4478 -0.2183
 6022SOL     OW29524   0.787   4.010   2.539  0.3556 -0.0581 -0.5242
 6022SOL    HW129525   0.735   4.002   2.619  1.9801  1.0603  0.6495
 6022SOL    HW229526   0.775   4.103   2.518  0.2385  0.2025  0.6818
 6023SOL     OW29527   3.247   1.415   8.309  0.3046  0.2198 -0.4882
 6023SOL    HW129528   3.337   1.389   8.286  0.2308 -0.2924 -0.2045
 6023SOL    HW229529   3.258   1.439   8.401  2.6341 -0.3622 -0.6016
 6024SOL     OW29530   2.742   0.775   3.014  0.3581 -0.0001 -0.1324
 6024SOL    HW129531   2.651   0.754   2.994 -0.1393  3.9545 -1.9922
 6024SOL    HW229532   2.791   0.696   3.036 -0.1124 -0.2333  0.0925
 6025SOL     OW29533   1.362   3.062   5.144 -0.2516 -0.6188  0.1080
 6025SOL    HW129534   1.364   2.986   5.085  0.4776 -0.4668 -0.0662
 6025SOL    HW229535   1.447   3.106   5.141 -0.3570 -0.4206  0.0531
 6026SOL     OW29536   4.205   1.510  14.570 -0.2212 -0.2544 -0.2425
 6026SOL    HW129537   4.257   1.576  14.616 -1.8060  1.0799 -0.3748
 6026SOL    HW229538   4.127   1.501  14.625 -0.3722 -2.5519 -0.8310
 6027SOL     OW29539   3.587   0.055   4.955  0.4854  0.0452 -0.1938
 6027SOL    HW129540   3.579   4.718   5.030  0.7122  0.1933 -0.0547
 6027SOL    HW229541   3.652   0.112   4.996 -2.3211  2.8676  0.3375
 6028SOL     OW29542   1.331   4.651   2.570 -0.2801 -0.3356 -0.0389
 6028SOL    HW129543   1.424   4.669   2.583  0.3571 -1.1073 -3.4762
 6028SOL    HW229544   1.310   4.709   2.497  2.7063  1.2248  0.3067
 6029SOL     OW29545   1.401   0.516   3.880  0.3692  0.8124  0.5080
 6029SOL    HW129546   1.354   0.444   3.838  2.5675 -0.1035 -0.4063
 6029SOL    HW229547   1.418   0.571   3.804 -0.7937  2.4142  1.4171
 6030SOL     OW29548   3.033   3.175   9.355 -0.0691 -0.5241 -0.4373
 6030SOL    HW129549   3.124   3.188   9.380 -1.0200  1.5054  1.9394
 6030SOL    HW229550   3.039   3.133   9.269 -1.0656 -3.2473  0.7839
 6031SOL     OW29551   1.233   2.535   8.486 -0.4859 -0.1146  0.3438
 6031SOL    HW129552   1.259   2.627   8.474  0.5127 -0.5410 -0.7320
 6031SOL    HW229553   1.140   2.549   8.468 -0.4663 -0.6557 -0.1845
 6032SOL     OW29554   2.882   1.812   2.037  0.1070 -0.4767  0.1481
 6032SOL    HW129555   2.809   1.750   2.031 -0.0901 -0.0946 -1.3401
 6032SOL    HW229556   2.856   1.875   1.970  0.4502  1.4814  1.8778
 6033SOL     OW29557   2.665   0.087  11.284  0.1455 -0.0614  0.0428
 6033SOL    HW129558   2.587   0.031  11.284 -1.0881  1.6506  0.1321
 6033SOL    HW229559   2.723   0.061  11.213 -2.2738  0.0352 -1.9616
 6034SOL     OW29560   3.558   2.942  15.902 -0.3491  0.4886  0.1068
 6034SOL    HW129561   3.647   2.905  15.898 -0.8166 -0.5689 -0.4243
 6034SOL    HW229562   3.589   3.032  15.893 -2.0391  1.1466  0.8706
 6035SOL     OW29563   0.978   2.377   5.309  0.5221 -0.1309 -0.0764
 6035SOL    HW129564   0.891   2.371   5.348  0.8048 -1.0754  0.4027
 6035SOL    HW229565   0.976   2.471   5.291  0.8800 -0.5531 -2.3073
 6036SOL     OW29566   3.249   2.455   0.371 -0.3023  0.0272 -0.2468
 6036SOL    HW129567   3.178   2.514   0.346  1.6128  2.8476  1.0752
 6036SOL    HW229568   3.240   2.395   0.297 -0.5107  0.0563 -0.2456
 6037SOL     OW29569   2.366   4.115   9.187 -0.2159 -0.1431 -0.1114
 6037SOL    HW129570   2.431   4.137   9.254 -1.9297  4.2633  0.1373
 6037SOL    HW229571   2.319   4.195   9.164 -0.0161 -0.4216 -1.4591
 6038SOL     OW29572   2.232   3.170   3.244 -0.0923  0.3667  0.1403
 6038SOL    HW129573   2.204   3.082   3.271  2.0974 -0.1839  0.5546
 6038SOL    HW229574   2.213   3.168   3.151  0.4425 -1.0650  0.0565
 6039SOL     OW29575   3.453   4.685   6.811  0.7088 -0.3849  0.6776
 6039SOL    HW129576   3.381   0.016   6.775  0.9154 -1.0244 -0.6543
 6039SOL    HW229577   3.428   4.696   6.903 -1.0908  1.9085 -0.0820
 6040SOL     OW29578   4.174   1.298   1.678 -0.5040 -0.4381 -0.1246
 6040SOL    HW129579   4.215   1.308   1.592 -1.2784  0.0076 -0.4417
 6040SOL    HW229580   4.248   1.263   1.728 -1.5178 -1.4907  0.6385
 6041SOL     OW29581   4.036   0.484  14.684 -0.0272 -0.3308  0.1029
 6041SOL    HW129582   4.057   0.453  14.595  1.2336 -0.5081  0.4647
 6041SOL    HW229583   4.089   0.564  14.689  0.5920 -0.6858 -0.7492
 6042SOL     OW29584   0.208   0.782  10.257  0.5720 -0.6894 -0.0410
 6042SOL    HW129585   0.219   0.731  10.177 -0.3506 -0.0649 -0.5590
 6042SOL    HW229586   0.115   0.803  10.248 -0.0974 -2.2544  3.0367
 6043SOL     OW29587   1.987   2.527   0.453 -0.3747  0.4740 -0.0191
 6043SOL    HW129588   1.911   2.584   0.457  0.7607  2.0348 -0.4150
 6043SOL    HW229589   1.955   2.454   0.400  0.2973 -0.0043  0.2327
 6044SOL     OW29590   0.115   3.188  11.787  0.4624  0.3690  0.5212
 6044SOL    HW129591   0.206   3.157  11.782 -0.2483 -1.4290 -1.2654
 6044SOL    HW229592   0.127   3.280  11.764  1.3258  0.2007  0.2871
 6045SOL     OW29593   1.432   4.375   2.309 -0.1935 -0.0080 -1.2223
 6045SOL    HW129594   1.468   4.298   2.355  0.3439 -0.0388 -1.6917
 6045SOL    HW229595   1.411   4.340   2.223  3.4243 -2.0207 -1.3168
 6046SOL     OW29596   1.770   0.273   3.862  0.2245 -0.7125  0.2603
 6046SOL    HW129597   1.814   0.193   3.891  0.7427  0.2822  2.2647
 6046SOL    HW229598   1.746   0.314   3.945 -1.3007 -0.2860 -0.3992
 6047SOL     OW29599   3.485   2.733  10.402 -0.5054  0.2288 -0.0838
 6047SOL    HW129600   3.534   2.814  10.413  1.1144 -0.7635  0.0507
 6047SOL    HW229601   3.424   2.752  10.331  0.2597 -0.5760 -0.9520
 6048SOL     OW29602   0.852   1.874   3.831 -0.4502  0.5505 -0.0450
 6048SOL    HW129603   0.784   1.942   3.830  0.3994  1.3897 -0.9476
 6048SOL    HW229604   0.839   1.835   3.745 -1.6060 -0.5456  0.6330
 6049SOL     OW29605   1.053   0.634   0.227 -0.4949  0.3226  0.2692
 6049SOL    HW129606   1.012   0.561   0.182  1.8748 -0.2924 -0.9283
 6049SOL    HW229607   0.982   0.698   0.231 -0.2845  0.4692  1.6731
 6050SOL     OW29608   0.317   1.496   4.129  0.0533 -0.9389  0.3221
 6050SOL    HW129609   0.244   1.536   4.081  1.5246  1.4191  0.0558
 6050SOL    HW229610   0.395   1.536   4.090 -1.8001  0.7373 -1.7003
 6051SOL     OW29611   2.145   1.261   4.917 -0.7519 -0.2284  0.2713
 6051SOL    HW129612   2.081   1.331   4.929  1.4182  1.1884  3.6355
 6051SOL    HW229613   2.091   1.187   4.943  0.4099 -0.7308  1.2964
 6052SOL     OW29614   2.868   2.657  11.163  0.4978 -0.2310 -0.0719
 6052SOL    HW129615   2.777   2.640  11.138  0.1220  1.1414  0.4003
 6052SOL    HW229616   2.886   2.721  11.095 -2.3633  1.4452  0.7731
 6053SOL     OW29617   2.043   4.531  17.429  0.0616  0.1792  0.2667
 6053SOL    HW129618   2.102   4.475  17.479 -0.9230 -0.9851  0.1077
 6053SOL    HW229619   2.039   4.491  17.342 -1.2606  1.2994 -0.1797
 6054SOL     OW29620   1.333   3.618   8.839  0.4207 -0.2199  0.0176
 6054SOL    HW129621   1.274   3.668   8.895 -0.1028 -1.8081  0.9003
 6054SOL    HW229622   1.412   3.612   8.892  0.3822 -1.8010 -0.0856
 6055SOL     OW29623   2.553   3.845   3.210 -0.3924 -0.3376 -0.5112
 6055SOL    HW129624   2.544   3.762   3.163 -0.6129 -1.3788  1.3447
 6055SOL    HW229625   2.494   3.823   3.283 -0.5089 -0.0091 -0.5088
 6056SOL     OW29626   2.637   4.674   9.588  0.0265  0.6281  0.0056
 6056SOL    HW129627   2.546   4.651   9.610  0.8021 -2.0103  0.4550
 6056SOL    HW229628   2.676   4.663   9.674  0.9801  1.7395 -0.2790
 6057SOL     OW29629   4.292   2.721   5.314  0.5406  0.1415  0.4260
 6057SOL    HW129630   4.366   2.679   5.357  1.4588  1.4582  0.0939
 6057SOL    HW229631   4.285   2.666   5.236  1.1930 -0.2315  0.6364
 6058SOL     OW29632   1.274   1.763  14.754  0.5074 -0.3921 -0.0081
 6058SOL    HW129633   1.262   1.669  14.749  0.1087 -0.3864  0.8863
 6058SOL    HW229634   1.227   1.784  14.835 -3.5124 -0.5937 -2.2753
 6059SOL     OW29635   3.127   1.498   5.305 -0.5135 -0.6480 -0.5750
 6059SOL    HW129636   3.187   1.568   5.332 -0.9721 -0.3876 -0.2220
 6059SOL    HW229637   3.041   1.539   5.318  0.7311  1.7056  0.2531
 6060SOL     OW29638   1.597   1.840  16.523 -0.1657  0.0992  0.4323
 6060SOL    HW129639   1.508   1.873  16.534  0.1723  0.6065  1.7628
 6060SOL    HW229640   1.573   1.753  16.492 -2.9388  0.0673  2.6964
 6061SOL     OW29641   2.884   2.859  16.415 -0.8181 -0.0191  0.4206
 6061SOL    HW129642   2.936   2.883  16.492 -2.8539 -2.2421  2.5115
 6061SOL    HW229643   2.910   2.923  16.349  0.6993  0.9114  1.9358
 6062SOL     OW29644   3.882   0.160   2.748 -0.1389  0.4722 -0.6523
 6062SOL    HW129645   3.978   0.157   2.750 -0.1883 -0.0764  0.5329
 6062SOL    HW229646   3.876   0.255   2.755  1.5600  0.6353 -1.3286
 6063SOL     OW29647   2.673   1.885   4.347  0.3009  0.2826  0.6947
 6063SOL    HW129648   2.699   1.806   4.393  1.9986 -0.4629 -1.4989
 6063SOL    HW229649   2.589   1.906   4.387  0.0656 -2.2740  1.5015
 6064SOL     OW29650   2.904   0.113  12.773 -0.8291  0.2230  0.2725
 6064SOL    HW129651   2.891   0.112  12.868 -1.0169  2.7959  0.2700
 6064SOL    HW229652   2.811   0.112  12.752 -0.8330  3.2704  0.1487
 6065SOL     OW29653   1.473   4.545  11.261 -0.7477 -0.2940  0.0967
 6065SOL    HW129654   1.399   4.538  11.322 -1.6180  1.1837 -0.8030
 6065SOL    HW229655   1.452   4.484  11.190  1.0810 -0.5655 -0.2153
 6066SOL     OW29656   4.281   2.441   0.864  0.2216  0.4223  0.0656
 6066SOL    HW129657   4.272   2.377   0.793 -1.1042 -0.2684  0.8678
 6066SOL    HW229658   4.286   2.382   0.938  2.3384 -0.6456 -0.9343
 6067SOL     OW29659   4.677   3.785   6.642  0.3260  0.3473 -0.3306
 6067SOL    HW129660   4.650   3.790   6.733  0.2914  0.7636 -0.3643
 6067SOL    HW229661   0.046   3.819   6.645  0.0611  1.1875 -2.0156
 6068SOL     OW29662   2.260   1.200   7.283  0.1282 -0.5937  0.4610
 6068SOL    HW129663   2.215   1.259   7.222 -2.2789 -1.5963  1.2562
 6068SOL    HW229664   2.260   1.249   7.365 -2.7902  0.1324  0.0490
 6069SOL     OW29665   1.330   2.746   7.950 -0.1752  0.5184 -0.8428
 6069SOL    HW129666   1.361   2.761   7.860 -0.9286  2.2370 -0.8221
 6069SOL    HW229667   1.360   2.823   7.998  1.6581 -0.3311 -0.6360
 6070SOL     OW29668   3.529   3.525  16.087 -0.0394 -0.6042 -0.6308
 6070SOL    HW129669   3.437   3.505  16.071 -0.0388 -0.6062 -0.6319
 6070SOL    HW229670   3.525   3.591  16.157  0.2560  0.2325 -1.3995
 6071SOL     OW29671   3.384   0.273   6.653  0.2064 -0.0135  0.3629
 6071SOL    HW129672   3.369   0.211   6.725  3.1183 -3.0982 -1.6460
 6071SOL    HW229673   3.480   0.277   6.651  0.1791  0.2148 -0.3784
 6072SOL     OW29674   2.700   0.916  12.901  0.3027  0.1724 -0.0569
 6072SOL    HW129675   2.779   0.969  12.914 -0.9403  1.9171  0.4411
 6072SOL    HW229676   2.707   0.856  12.975 -0.1524  1.9166  1.3956
 6073SOL     OW29677   1.445   4.319   3.477 -0.2550 -0.3771 -0.7927
 6073SOL    HW129678   1.521   4.321   3.535 -1.1204 -1.1481  0.3498
 6073SOL    HW229679   1.367   4.331   3.530 -0.1990 -1.3212 -0.5062
 6074SOL     OW29680   2.374   1.296   0.765 -0.1550  0.2320  0.0905
 6074SOL    HW129681   2.326   1.322   0.843  0.8484  0.8060  0.5186
 6074SOL    HW229682   2.461   1.332   0.781  0.3294 -0.9221  0.0882
 6075SOL     OW29683   3.938   0.586   2.993 -0.4398  0.0174  0.4180
 6075SOL    HW129684   3.923   0.650   3.063 -4.4837  0.0329 -0.4697
 6075SOL    HW229685   4.017   0.538   3.020  0.0824  1.0214  0.6944
 6076SOL     OW29686   0.902   0.415  13.222  0.3983  0.1603 -0.4726
 6076SOL    HW129687   0.854   0.493  13.248  2.1809  0.8900  0.6284
 6076SOL    HW229688   0.986   0.433  13.264  0.0283 -0.4702  0.5410
 6077SOL     OW29689   0.768   3.183  13.596 -0.1029  0.1816  0.3942
 6077SOL    HW129690   0.739   3.273  13.583 -2.8323 -0.9055 -0.9623
 6077SOL    HW229691   0.774   3.184  13.691  0.5193  1.4228  0.3396
 6078SOL     OW29692   2.839   3.401   3.039 -0.5556  0.1508 -0.1217
 6078SOL    HW129693   2.911   3.408   2.976 -1.1522 -1.0407 -0.9274
 6078SOL    HW229694   2.783   3.334   3.001  1.2446 -1.4243 -0.0247
 6079SOL     OW29695   3.662   2.603   9.061 -0.4075 -0.3308  0.0662
 6079SOL    HW129696   3.697   2.629   8.976 -0.7033  2.0254  0.6504
 6079SOL    HW229697   3.568   2.589   9.045 -0.1582 -1.8597 -0.0413
 6080SOL     OW29698   3.423   0.333   1.468  0.4895 -0.0038 -0.2715
 6080SOL    HW129699   3.387   0.330   1.379  0.7812  1.2810 -0.4246
 6080SOL    HW229700   3.359   0.289   1.524  0.8122  2.0898  1.7234
 6081SOL     OW29701   3.944   1.595   4.339 -0.3320  0.5273 -0.0195
 6081SOL    HW129702   3.911   1.558   4.258  0.9370 -1.0230  0.1528
 6081SOL    HW229703   3.860   1.613   4.381 -1.7838  0.1077 -2.7718
 6082SOL     OW29704   0.881   3.463   4.227 -0.2943 -0.2907 -0.0031
 6082SOL    HW129705   0.810   3.506   4.179  0.2972  0.6911  0.0016
 6082SOL    HW229706   0.863   3.369   4.219  2.3047 -0.6573 -1.6573
 6083SOL     OW29707   0.347   3.691   1.225  0.8314  0.1714 -0.2815
 6083SOL    HW129708   0.321   3.600   1.237 -0.5954  0.5499 -0.5126
 6083SOL    HW229709   0.325   3.709   1.134  0.2252  0.2403 -0.1220
 6084SOL     OW29710   3.331   2.376   1.205  0.1997  0.6527  0.5125
 6084SOL    HW129711   3.320   2.459   1.158 -0.2448  0.5124  0.3651
 6084SOL    HW229712   3.426   2.374   1.212  0.0492  1.4494  3.0183
 6085SOL     OW29713   2.550   4.347   2.014  0.5875 -0.0521 -0.6527
 6085SOL    HW129714   2.472   4.397   1.990  1.4811  0.6784 -2.0270
 6085SOL    HW229715   2.515   4.262   2.039 -0.4945  0.0509 -1.8088
 6086SOL     OW29716   1.085   2.130   8.368 -0.0412 -0.0012  0.6077
 6086SOL    HW129717   1.143   2.189   8.416  1.1451 -0.1474 -0.6626
 6086SOL    HW229718   1.019   2.190   8.332  2.4703  1.0416 -2.2613
 6087SOL     OW29719   1.650   3.189   2.243  0.4332  0.1610  0.0406
 6087SOL    HW129720   1.605   3.108   2.268  0.8382 -0.5579 -1.5301
 6087SOL    HW229721   1.737   3.151   2.256  0.1299 -0.9494 -1.0258
 6088SOL     OW29722   1.154   4.212   6.259  0.3126 -0.8838 -0.2558
 6088SOL    HW129723   1.249   4.223   6.263  0.2789 -1.1152  1.1008
 6088SOL    HW229724   1.129   4.272   6.189  2.8471  1.6272  1.0114
 6089SOL     OW29725   4.397   2.546   6.318 -0.0200  0.1098 -0.1115
 6089SOL    HW129726   4.363   2.623   6.274  2.3472  1.4601  0.4375
 6089SOL    HW229727   4.327   2.481   6.307  0.9163 -0.7147 -1.2128
 6090SOL     OW29728   0.009   3.853   6.182  0.0610 -0.5228 -0.2094
 6090SOL    HW129729   0.046   3.786   6.240  3.9156  1.0843 -0.8488
 6090SOL    HW229730   0.070   3.924   6.198  1.0226 -0.8604 -2.3534
 6091SOL     OW29731   0.273   2.423  10.817  0.3053 -0.7154  0.4702
 6091SOL    HW129732   0.263   2.481  10.742 -1.4695  0.7514  1.8412
 6091SOL    HW229733   0.219   2.478  10.873 -1.8559 -0.3153 -2.0116
 6092SOL     OW29734   1.790   3.324   1.196  0.0169  0.1673 -0.1819
 6092SOL    HW129735   1.699   3.321   1.166 -0.2875  0.2840  0.7193
 6092SOL    HW229736   1.790   3.253   1.260  0.1357 -0.6021 -1.0369
 6093SOL     OW29737   2.883   3.685   2.931 -0.3047 -0.3778  0.1642
 6093SOL    HW129738   2.841   3.741   2.866 -0.4542  0.2287  0.7758
 6093SOL    HW229739   2.828   3.607   2.923  0.1126 -0.7249  0.7334
 6094SOL     OW29740   2.829   0.866   8.271 -0.1093 -0.4428  0.2857
 6094SOL    HW129741   2.911   0.878   8.223 -0.1741  0.6341  0.4381
 6094SOL    HW229742   2.789   0.950   8.247  0.0560  0.1201  2.0274
 6095SOL     OW29743   3.817   2.754   3.196  0.2892  0.1182  0.2333
 6095SOL    HW129744   3.868   2.726   3.272  1.0222  0.7401 -0.0236
 6095SOL    HW229745   3.810   2.849   3.210 -1.3688  0.5382 -3.3559
 6096SOL     OW29746   4.580   0.422  17.097 -0.0016 -0.2973  0.0690
 6096SOL    HW129747   4.673   0.425  17.117 -0.4467 -0.8782  2.1564
 6096SOL    HW229748   4.550   0.345  17.144 -1.8457 -0.8447 -1.9901
 6097SOL     OW29749   3.098   1.645  14.804  0.8213  0.3453  0.5297
 6097SOL    HW129750   3.137   1.711  14.746  0.1780 -0.2249 -0.5566
 6097SOL    HW229751   3.019   1.622  14.755 -1.6256  0.9959  4.2326
 6098SOL     OW29752   3.238   3.256  14.407  0.0616 -0.3386  0.0913
 6098SOL    HW129753   3.217   3.234  14.498 -0.4903 -0.8714 -0.1635
 6098SOL    HW229754   3.303   3.321  14.432 -0.1536  0.6381 -1.8595
 6099SOL     OW29755   4.367   1.716  11.345  0.3720  0.5503  0.1428
 6099SOL    HW129756   4.296   1.715  11.281  0.9530 -1.4466 -0.4852
 6099SOL    HW229757   4.359   1.628  11.383  0.2953  0.3590 -0.3137
 6100SOL     OW29758   4.444   2.673   7.766 -0.2132  0.2743  0.2392
 6100SOL    HW129759   4.375   2.701   7.827  0.5325  5.0457 -1.0788
 6100SOL    HW229760   4.514   2.723   7.807  0.9430 -1.9879  0.9797
 6101SOL     OW29761   2.571   2.398   3.538  0.5295 -0.1000  0.3304
 6101SOL    HW129762   2.598   2.321   3.588  1.4670 -1.3133 -2.0532
 6101SOL    HW229763   2.506   2.436   3.597 -0.4491 -2.4063  0.7371
 6102SOL     OW29764   1.319   0.921   2.815 -0.3227 -0.4559  0.4315
 6102SOL    HW129765   1.324   1.015   2.795 -1.8261 -0.1050  1.6926
 6102SOL    HW229766   1.273   0.919   2.899 -1.3500 -1.5061 -0.1769
 6103SOL     OW29767   4.077   3.274  10.835  0.5190 -0.4905  0.1034
 6103SOL    HW129768   4.026   3.351  10.808 -0.9085 -1.5142 -0.1091
 6103SOL    HW229769   4.157   3.323  10.856  0.9743 -0.0280 -2.7379
 6104SOL     OW29770   0.750   4.719   7.318 -0.1987  0.1660  0.5326
 6104SOL    HW129771   0.837   4.680   7.324 -0.9326 -1.1812  2.6850
 6104SOL    HW229772   0.754   0.021   7.225  0.7104 -1.5055  0.1532
 6105SOL     OW29773   0.369   4.601  17.122  0.2091 -0.5275  0.1323
 6105SOL    HW129774   0.445   4.555  17.156  0.2104  0.2339  1.1434
 6105SOL    HW229775   0.358   4.674  17.183 -0.4971 -0.7265  0.2329
 6106SOL     OW29776   2.549   1.038   7.674  0.3655  0.2097  0.7144
 6106SOL    HW129777   2.572   1.012   7.585 -0.4250  0.7704  0.3532
 6106SOL    HW229778   2.635   1.075   7.697  0.4475 -0.5128  1.6055
 6107SOL     OW29779   2.627   0.665   6.468  0.2879 -1.0685 -0.2814
 6107SOL    HW129780   2.713   0.672   6.508  1.3719 -0.2815 -2.7322
 6107SOL    HW229781   2.592   0.745   6.507 -0.5280 -1.0789 -0.9869
 6108SOL     OW29782   2.122   4.469  10.297  0.1232  0.0249 -0.6391
 6108SOL    HW129783   2.147   4.386  10.339 -0.2708  0.0476 -0.3626
 6108SOL    HW229784   2.207   4.514  10.300  0.5809 -0.8829  0.5988
 6109SOL     OW29785   1.441   3.333   4.348  0.0195  0.3107  0.1360
 6109SOL    HW129786   1.363   3.353   4.295 -1.4482  2.5263  3.1656
 6109SOL    HW229787   1.508   3.397   4.323  0.6964 -0.3942  0.1305
 6110SOL     OW29788   0.488   2.020   0.376 -0.2232  0.3099  0.0748
 6110SOL    HW129789   0.563   2.065   0.338 -1.3579  0.4606 -1.9677
 6110SOL    HW229790   0.441   2.099   0.403  1.6419  1.0614  1.0794
 6111SOL     OW29791   1.574   1.079  12.819 -0.2783 -0.6285  1.0239
 6111SOL    HW129792   1.656   1.125  12.798  0.1905 -1.5568  0.8156
 6111SOL    HW229793   1.524   1.096  12.740  0.1259 -0.9249  0.7032
 6112SOL     OW29794   0.099   2.168   7.025  0.4379 -0.1084  0.1578
 6112SOL    HW129795   0.158   2.150   7.098 -0.0220 -0.3851  0.4646
 6112SOL    HW229796   0.103   2.081   6.985  0.2214 -0.0760  0.0653
 6113SOL     OW29797   2.606   4.645   7.206 -0.3365 -0.3414  0.4454
 6113SOL    HW129798   2.700   4.654   7.216 -0.5782  2.4435 -0.0543
 6113SOL    HW229799   2.582   4.679   7.292 -1.3437  1.8473 -0.7205
 6114SOL     OW29800   2.263   3.678   6.032 -0.1142 -0.0127  0.0487
 6114SOL    HW129801   2.286   3.613   5.966 -0.5875  0.3856 -0.5119
 6114SOL    HW229802   2.184   3.713   5.991 -1.0859 -0.8560  1.2189
 6115SOL     OW29803   1.754   2.283   7.300 -0.7250  0.0072 -0.5402
 6115SOL    HW129804   1.664   2.255   7.288 -0.5545 -0.4937 -0.6463
 6115SOL    HW229805   1.749   2.366   7.346 -1.3458  0.3491 -1.2285
 6116SOL     OW29806   1.473   1.612   4.990 -0.0728  0.1718 -0.0723
 6116SOL    HW129807   1.515   1.686   5.034  0.4401  1.2117 -2.3191
 6116SOL    HW229808   1.494   1.542   5.052 -0.4338 -1.0522 -1.3344
 6117SOL     OW29809   0.389   3.641   4.347  0.7649  0.0150 -0.4338
 6117SOL    HW129810   0.330   3.617   4.418  0.8221  0.9049 -0.0867
 6117SOL    HW229811   0.466   3.681   4.387  0.4373 -0.0644  0.2721
 6118SOL     OW29812   2.217   3.806   4.127  0.8165 -0.2051  0.4913
 6118SOL    HW129813   2.138   3.803   4.181 -0.3203  2.9623 -0.9999
 6118SOL    HW229814   2.230   3.901   4.120 -0.2556 -0.1549 -0.8977
 6119SOL     OW29815   3.072   2.235   6.402  0.1336  0.0793  0.0828
 6119SOL    HW129816   3.075   2.144   6.430 -1.7678  0.0285  0.1177
 6119SOL    HW229817   2.983   2.236   6.367  0.0868 -0.2721  0.1962
 6120SOL     OW29818   2.529   3.790  12.381 -0.6330  0.2666  0.3172
 6120SOL    HW129819   2.573   3.767  12.299  0.0439  1.5584  0.3091
 6120SOL    HW229820   2.605   3.830  12.424 -1.8307  2.4727  0.3700
 6121SOL     OW29821   4.364   0.223   8.205  0.3586 -0.3100  0.0111
 6121SOL    HW129822   4.313   0.144   8.217  1.3993 -0.9101  0.4886
 6121SOL    HW229823   4.411   0.225   8.288  1.5623  3.5635 -0.7503
 6122SOL     OW29824   0.610   2.913   6.941  0.0402 -0.2860 -0.1290
 6122SOL    HW129825   0.684   2.948   6.891  0.6672  0.0486  1.0260
 6122SOL    HW229826   0.647   2.931   7.028 -0.7853  0.2245  0.1162
 6123SOL     OW29827   3.037   3.098  12.770  0.1649 -0.4403 -0.3652
 6123SOL    HW129828   3.080   3.059  12.846 -0.6920  0.4522  0.5700
 6123SOL    HW229829   3.035   3.187  12.805 -1.1368 -0.7054  0.2377
 6124SOL     OW29830   3.196   0.865  14.284 -0.2682  0.1261 -0.1288
 6124SOL    HW129831   3.117   0.853  14.231 -0.3954  0.2482  0.0317
 6124SOL    HW229832   3.236   0.947  14.255  0.4475  0.1307  0.8726
 6125SOL     OW29833   1.036   0.677   1.159  0.8987 -0.1170  0.2446
 6125SOL    HW129834   0.946   0.644   1.165  0.6800  0.2941 -0.7766
 6125SOL    HW229835   1.022   0.747   1.096 -1.3436 -0.0502  0.8139
 6126SOL     OW29836   4.489   1.926  16.910 -0.0896 -0.1332  0.0223
 6126SOL    HW129837   4.574   1.899  16.943  0.4347  0.2922 -0.9855
 6126SOL    HW229838   4.505   1.937  16.816 -4.1016 -0.7346 -0.7285
 6127SOL     OW29839   2.490   0.625   8.781  0.2131  0.0341 -0.0013
 6127SOL    HW129840   2.447   0.584   8.855  2.4674 -3.0523 -0.4190
 6127SOL    HW229841   2.563   0.659   8.834 -0.8342  0.3232  1.2398
 6128SOL     OW29842   2.367   4.688   5.664 -0.1015  0.3030 -0.5150
 6128SOL    HW129843   2.389   4.640   5.584 -2.1691  0.1508 -0.9967
 6128SOL    HW229844   2.372   4.620   5.731  1.8342  0.0893 -0.8560
 6129SOL     OW29845   1.674   0.062   7.760  0.1217  0.6364 -0.1456
 6129SOL    HW129846   1.615   0.029   7.828  0.2822  0.2562 -0.1926
 6129SOL    HW229847   1.701   0.143   7.803  0.9288 -0.1258  0.7919
 6130SOL     OW29848   0.026   1.477   6.300  0.3222  0.4702 -0.0117
 6130SOL    HW129849   0.097   1.541   6.306 -0.3545  1.2788 -0.8035
 6130SOL    HW229850   4.690   1.491   6.376 -2.1956 -0.8487 -1.6598
 6131SOL     OW29851   4.409   0.478   6.403 -0.2006  0.3205 -0.2562
 6131SOL    HW129852   4.491   0.526   6.406 -0.4612  0.7859 -0.4934
 6131SOL    HW229853   4.434   0.391   6.433 -0.7021  0.4270  0.4853
 6132SOL     OW29854   3.512   2.895   0.706  0.1245 -0.2060  0.0031
 6132SOL    HW129855   3.564   2.959   0.657 -1.1497  1.6104  1.0432
 6132SOL    HW229856   3.440   2.877   0.646  1.5138  2.2695 -2.3798
 6133SOL     OW29857   2.552   1.574  14.167 -0.4497 -0.3904  0.2887
 6133SOL    HW129858   2.603   1.561  14.247 -0.6967  2.5655  0.9187
 6133SOL    HW229859   2.602   1.521  14.104 -0.1604  1.5815 -1.1328
 6134SOL     OW29860   1.235   3.108   8.884  0.2147 -0.1123  0.1951
 6134SOL    HW129861   1.224   3.103   8.789  0.5350 -0.1482  0.1598
 6134SOL    HW229862   1.330   3.097   8.886  0.4870  2.0222 -0.8866
 6135SOL     OW29863   2.788   2.766   6.246  0.6975  0.4849 -0.4232
 6135SOL    HW129864   2.869   2.743   6.291 -0.7960  0.9770  2.5138
 6135SOL    HW229865   2.801   2.860   6.234  1.1036  0.0616 -3.2482
 6136SOL     OW29866   2.354   2.978   3.948  0.9222  0.1494 -0.1123
 6136SOL    HW129867   2.351   2.950   4.039 -0.0952  2.9162  0.7243
 6136SOL    HW229868   2.327   2.896   3.908  1.0830 -0.1943  0.4916
 6137SOL     OW29869   2.448   3.341   8.267  0.4674  0.6590 -0.2921
 6137SOL    HW129870   2.371   3.392   8.292 -0.7171 -0.0102 -2.5525
 6137SOL    HW229871   2.454   3.363   8.174 -0.3553  2.2438  0.0333
 6138SOL     OW29872   1.871   0.646  13.675  0.0876 -0.2680 -0.0937
 6138SOL    HW129873   1.870   0.684  13.587 -1.3265 -2.2363 -0.9422
 6138SOL    HW229874   1.966   0.644  13.687  0.0775 -0.4763 -0.0474
 6139SOL     OW29875   3.878   2.520   7.241  0.1417  0.2479  0.0953
 6139SOL    HW129876   3.933   2.462   7.188 -0.0227  1.1302 -1.0315
 6139SOL    HW229877   3.798   2.466   7.240 -0.7699  1.6186 -1.3305
 6140SOL     OW29878   1.395   1.777   9.296  0.2421 -0.1636  0.7817
 6140SOL    HW129879   1.314   1.751   9.341 -0.6824 -1.2872 -1.5010
 6140SOL    HW229880   1.425   1.698   9.250 -0.9586  0.1697 -0.5752
 6141SOL     OW29881   2.387   3.635  12.869  0.3307 -0.0164  0.1613
 6141SOL    HW129882   2.365   3.725  12.848 -1.8030 -0.2647  1.3353
 6141SOL    HW229883   2.400   3.588  12.787 -0.0909 -2.8088  1.6708
 6142SOL     OW29884   2.446   0.947   9.603  0.6721 -0.6004 -0.2098
 6142SOL    HW129885   2.505   0.873   9.620  0.5804 -0.1088  2.3080
 6142SOL    HW229886   2.377   0.909   9.658 -3.1251  1.4449 -3.6022
 6143SOL     OW29887   1.599   4.177   3.269  0.1281  0.5327 -0.6470
 6143SOL    HW129888   1.558   4.090   3.266 -1.7183  1.4767 -2.4013
 6143SOL    HW229889   1.557   4.210   3.348  2.0332 -0.6606  0.8793
 6144SOL     OW29890   4.161   1.696   8.096  0.4204 -0.1068  0.4270
 6144SOL    HW129891   4.208   1.624   8.055  0.1822  0.7744 -1.4004
 6144SOL    HW229892   4.220   1.768   8.072 -2.4267  1.8632 -0.5751
 6145SOL     OW29893   1.924   3.253  15.690  0.0657  0.4717 -0.3691
 6145SOL    HW129894   1.929   3.344  15.719  0.0767 -0.0313  1.2276
 6145SOL    HW229895   1.837   3.222  15.715  1.1522 -1.9924  0.3939
 6146SOL     OW29896   3.773   0.462  14.784  0.1597 -0.0302  0.3729
 6146SOL    HW129897   3.860   0.427  14.761 -0.1523 -1.0231  0.6863
 6146SOL    HW229898   3.735   0.481  14.698 -1.4844 -1.1711  0.8534
 6147SOL     OW29899   2.738   1.021   4.762  0.7088 -0.5915  0.6918
 6147SOL    HW129900   2.829   0.992   4.750  1.8399  2.6916  1.0601
 6147SOL    HW229901   2.705   0.953   4.820 -0.1314 -0.3951  0.4406
 6148SOL     OW29902   2.282   1.193   6.334  0.3484 -0.2815  0.8420
 6148SOL    HW129903   2.337   1.239   6.271 -0.4504  1.5877  1.4868
 6148SOL    HW229904   2.243   1.116   6.294  0.3277  1.4542 -2.4818
 6149SOL     OW29905   2.553   4.332   3.206 -0.1463 -0.4843  0.4226
 6149SOL    HW129906   2.548   4.241   3.236  0.4658 -0.4853  0.5191
 6149SOL    HW229907   2.483   4.370   3.259  1.4869  1.1594  1.3755
 6150SOL     OW29908   3.976   2.004   2.810  0.6166  0.1440  0.4932
 6150SOL    HW129909   3.955   1.953   2.888 -1.8447  0.7969  0.2363
 6150SOL    HW229910   3.958   2.089   2.852 -0.0903  0.0580  0.3494
 6151SOL     OW29911   4.370   3.605   5.290 -0.1529 -0.3445 -0.4565
 6151SOL    HW129912   4.323   3.565   5.217 -0.5639 -1.1975  0.2892
 6151SOL    HW229913   4.426   3.535   5.323 -2.0887 -1.4669  0.4325
 6152SOL     OW29914   4.091   3.215   8.446 -0.1224 -0.0272 -0.2725
 6152SOL    HW129915   4.108   3.122   8.431 -1.2954 -0.1659 -0.6843
 6152SOL    HW229916   4.049   3.241   8.364 -0.7469  1.0513  0.3911
 6153SOL     OW29917   2.262   3.135  16.332 -0.0843 -0.3726 -0.0919
 6153SOL    HW129918   2.345   3.092  16.311 -0.4816 -2.0746  1.8544
 6153SOL    HW229919   2.240   3.181  16.251 -2.4435 -0.4749  0.4945
 6154SOL     OW29920   1.410   3.441  10.083 -0.3197 -0.2555 -0.0488
 6154SOL    HW129921   1.355   3.448  10.161 -0.1169 -2.0143  0.2709
 6154SOL    HW229922   1.352   3.389  10.028  0.3297 -1.1200  0.0785
 6155SOL     OW29923   2.433   3.420   2.926 -0.2065  0.3404  0.0768
 6155SOL    HW129924   2.353   3.368   2.922 -0.3911  0.4394  2.5251
 6155SOL    HW229925   2.503   3.360   2.953 -2.6018 -1.9607  1.1112
 6156SOL     OW29926   3.201   4.242  11.977 -0.2159 -0.2061 -0.1623
 6156SOL    HW129927   3.148   4.169  12.009 -0.2553 -0.4489 -0.7853
 6156SOL    HW229928   3.129   4.287  11.933 -0.4487 -1.4982 -1.0697
 6157SOL     OW29929   2.056   2.360  15.677  0.4044 -0.0241  0.0951
 6157SOL    HW129930   2.027   2.274  15.647  1.3485 -0.6025  0.8340
 6157SOL    HW229931   1.989   2.415  15.638  1.1887  1.1451  0.4065
 6158SOL     OW29932   3.995   2.056   0.648 -0.2509 -0.7727 -0.1961
 6158SOL    HW129933   3.979   1.971   0.607 -0.9102 -1.0371  0.6073
 6158SOL    HW229934   4.061   2.082   0.583 -0.8467 -0.3695 -0.6453
 6159SOL     OW29935   3.505   1.932   0.091  0.1260 -0.2668 -0.3259
 6159SOL    HW129936   3.461   2.015   0.074 -0.4938 -0.3821  0.7238
 6159SOL    HW229937   3.553   1.960   0.169  0.4541 -0.5340 -0.4309
 6160SOL     OW29938   3.161   2.981   5.713 -0.0831  0.1196  0.1505
 6160SOL    HW129939   3.066   2.972   5.719 -0.2243  0.5815 -1.5101
 6160SOL    HW229940   3.181   3.006   5.803  2.0772 -2.2741  0.3402
 6161SOL     OW29941   2.983   0.833   4.060 -0.2526 -0.1772  0.1337
 6161SOL    HW129942   3.037   0.757   4.037  1.8018  1.5741 -0.7315
 6161SOL    HW229943   2.928   0.834   3.982 -0.5386  0.4810  0.3436
 6162SOL     OW29944   2.397   2.543   4.595 -0.2376  0.2846 -0.7788
 6162SOL    HW129945   2.348   2.598   4.533  2.2347  3.3194 -0.0817
 6162SOL    HW229946   2.327   2.497   4.641 -0.5014  0.9392 -0.5180
 6163SOL     OW29947   0.034   2.991   5.584  0.3212 -0.1267 -0.0133
 6163SOL    HW129948   4.684   3.033   5.632 -0.1852  1.1455 -1.8540
 6163SOL    HW229949   0.009   2.898   5.578  0.6809 -0.2045 -0.2996
 6164SOL     OW29950   0.890   2.788   1.819  0.3731  0.0005  0.3726
 6164SOL    HW129951   0.977   2.750   1.832  0.8513  1.2420  0.8329
 6164SOL    HW229952   0.905   2.878   1.790 -1.0986  0.7587  1.9626
 6165SOL     OW29953   3.304   3.499   2.457 -0.0440 -0.2628 -0.1415
 6165SOL    HW129954   3.275   3.512   2.547  1.4679 -0.3407  0.3642
 6165SOL    HW229955   3.373   3.565   2.451  0.2058 -0.5345 -0.3019
 6166SOL     OW29956   3.021   0.042  14.436  1.2305  0.1104 -0.3373
 6166SOL    HW129957   3.010   0.038  14.531 -3.6171 -0.3753 -0.9176
 6166SOL    HW229958   2.968   0.120  14.421 -0.4887 -0.9001  0.5386
 6167SOL     OW29959   0.960   2.791   0.426  0.0008  0.2048 -0.4908
 6167SOL    HW129960   0.906   2.854   0.472 -0.7026  0.0640 -1.1216
 6167SOL    HW229961   0.899   2.760   0.358 -1.5980  0.0793  1.0076
 6168SOL     OW29962   4.011   2.072  15.316 -0.1831 -0.2245  0.4877
 6168SOL    HW129963   4.047   1.995  15.273  0.1672 -0.9782  2.1263
 6168SOL    HW229964   3.936   2.095  15.261 -0.0514 -0.7573  0.0837
 6169SOL     OW29965   4.595   2.628   2.914  0.4000  0.4050 -0.4276
 6169SOL    HW129966   4.550   2.687   2.974  2.0281  1.6166 -0.4081
 6169SOL    HW229967   4.600   2.544   2.959 -0.2509  1.1274  0.9712
 6170SOL     OW29968   2.020   0.755   0.708 -0.5935 -0.7411  0.1914
 6170SOL    HW129969   2.111   0.736   0.686 -1.1052 -0.4673 -2.2061
 6170SOL    HW229970   2.016   0.848   0.684  0.2642 -0.6111  0.5610
 6171SOL     OW29971   3.768   0.059   3.237 -0.5083  0.1437 -0.5343
 6171SOL    HW129972   3.748   0.011   3.317  1.7694 -0.1923 -0.1843
 6171SOL    HW229973   3.860   0.084   3.244 -0.6039  0.7265 -1.3400
 6172SOL     OW29974   0.172   1.728   4.244  0.4966 -0.1611 -0.2223
 6172SOL    HW129975   0.115   1.680   4.304  2.9422 -1.8680  0.7310
 6172SOL    HW229976   0.258   1.730   4.285  0.2862 -2.0853  0.2991
 6173SOL     OW29977   3.193   1.747  13.413 -0.9952  0.3590 -0.3125
 6173SOL    HW129978   3.126   1.814  13.397 -0.6579 -0.0131 -3.3046
 6173SOL    HW229979   3.254   1.774  13.344 -0.6463  0.9161  0.2165
 6174SOL     OW29980   1.675   0.261   8.767  0.0087 -0.2156  0.5095
 6174SOL    HW129981   1.606   0.316   8.731  1.4608  0.1431 -1.7567
 6174SOL    HW229982   1.648   0.271   8.858 -0.3499  0.7826  0.2940
 6175SOL     OW29983   3.756   0.898   6.521 -0.6112  0.1643 -0.0939
 6175SOL    HW129984   3.712   0.820   6.486 -0.5359  0.3745 -0.6673
 6175SOL    HW229985   3.816   0.851   6.578 -1.9785 -1.8254 -0.2746
 6176SOL     OW29986   3.937   2.162   5.901 -0.5873  0.2051 -0.3194
 6176SOL    HW129987   3.924   2.247   5.858  2.4453  0.6596 -0.3297
 6176SOL    HW229988   3.895   2.105   5.837 -1.1314  1.7121 -1.2979
 6177SOL     OW29989   0.309   1.630  11.624  0.7767  0.1824 -0.4093
 6177SOL    HW129990   0.267   1.547  11.645  0.0221  0.8144  0.6341
 6177SOL    HW229991   0.335   1.603  11.536 -0.5165 -1.7453 -0.1866
 6178SOL     OW29992   0.575   4.282   6.315 -0.1286 -0.4008  0.1437
 6178SOL    HW129993   0.574   4.328   6.399 -1.3382 -0.4409  0.1633
 6178SOL    HW229994   0.603   4.343   6.247  0.6681  1.0656  1.8007
 6179SOL     OW29995   1.776   0.950  17.047 -0.3462  0.2923  0.3528
 6179SOL    HW129996   1.764   0.910  17.133  1.1694  2.3747  1.5401
 6179SOL    HW229997   1.870   0.965  17.037 -0.0800 -2.6519 -1.5727
 6180SOL     OW29998   1.361   2.193   5.903 -0.6889  0.3824  0.0808
 6180SOL    HW129999   1.406   2.240   5.973  0.4121 -0.2761 -0.1825
 6180SOL    HW230000   1.375   2.255   5.832  0.8143  0.8676  0.8192
 6181SOL     OW30001   2.892   0.304   6.055 -0.0166 -0.0456 -0.0157
 6181SOL    HW130002   2.805   0.271   6.079 -0.1598  1.1515  1.1195
 6181SOL    HW230003   2.908   0.367   6.125  0.0340 -1.6583  1.3931
 6182SOL     OW30004   2.176   3.802   5.284 -0.3247  0.1665 -0.7144
 6182SOL    HW130005   2.118   3.800   5.208 -0.2117 -1.5742 -0.7557
 6182SOL    HW230006   2.226   3.720   5.279 -2.0426 -0.7942 -1.9694
 6183SOL     OW30007   3.141   0.816   0.710  0.2318  0.4607 -0.0072
 6183SOL    HW130008   3.202   0.742   0.704 -0.9925 -0.4495 -1.3548
 6183SOL    HW230009   3.083   0.792   0.783 -1.3917  0.4509 -1.2907
 6184SOL     OW30010   4.109   2.981   8.072  0.0296 -0.4147 -0.4428
 6184SOL    HW130011   4.129   3.050   8.009 -3.8273  2.2606  1.3164
 6184SOL    HW230012   4.053   2.923   8.020  1.5886 -1.3953 -1.0378
 6185SOL     OW30013   0.342   1.816  14.926 -0.1692  0.0760 -0.2213
 6185SOL    HW130014   0.367   1.780  15.011  0.4901  1.6296  0.2390
 6185SOL    HW230015   0.422   1.819  14.873 -1.4772 -1.3049 -2.2576
 6186SOL     OW30016   0.371   0.213   9.140  0.0551  0.2288  0.3411
 6186SOL    HW130017   0.405   0.224   9.051 -0.0401  1.1073  0.4208
 6186SOL    HW230018   0.451   0.205   9.193  1.7728  3.2811 -1.8119
 6187SOL     OW30019   1.125   4.030  17.619  0.0460  0.2576  0.0474
 6187SOL    HW130020   1.035   4.061  17.633 -0.6293 -1.6714 -0.0489
 6187SOL    HW230021   1.109   3.936  17.611  0.5162  0.1558  0.3145
 6188SOL     OW30022   2.167   2.795   3.643  0.1066  0.5536 -0.2148
 6188SOL    HW130023   2.187   2.713   3.597  0.8543 -0.5440  2.0572
 6188SOL    HW230024   2.180   2.778   3.736 -0.6311  0.3113 -0.1553
 6189SOL     OW30025   4.070   1.108   5.573 -0.0426 -0.1321  0.7834
 6189SOL    HW130026   4.111   1.174   5.629  0.1990 -1.5331  2.2580
 6189SOL    HW230027   4.114   1.029   5.604 -0.8503 -0.8165  0.1873
 6190SOL     OW30028   2.929   1.401   8.570 -0.2855  0.0025 -0.0028
 6190SOL    HW130029   3.005   1.456   8.589  0.9555 -0.4479 -3.6429
 6190SOL    HW230030   2.859   1.465   8.552  1.3040  1.8271  0.2983
 6191SOL     OW30031   0.802   4.304   5.001 -0.2352 -0.3501  0.0870
 6191SOL    HW130032   0.747   4.376   5.030  1.5611  1.2579 -0.4443
 6191SOL    HW230033   0.748   4.229   5.025  0.5292 -0.4797  1.4019
 6192SOL     OW30034   3.629   2.269   1.751  0.3643 -0.2119 -0.0385
 6192SOL    HW130035   3.695   2.237   1.690 -0.3290 -2.0137  0.1538
 6192SOL    HW230036   3.560   2.204   1.742  0.5846 -0.3387 -0.8284
 6193SOL     OW30037   3.555   0.486   8.906  0.1203  0.6529  0.5626
 6193SOL    HW130038   3.553   0.408   8.850 -0.3270  1.0143  0.0794
 6193SOL    HW230039   3.506   0.551   8.856 -0.0439  0.6319  0.6963
 6194SOL     OW30040   1.453   2.680  14.257  0.1686  0.4622  0.3522
 6194SOL    HW130041   1.530   2.737  14.263  0.5686 -0.2036  1.6200
 6194SOL    HW230042   1.404   2.707  14.335 -0.8366  0.4705 -0.2918
 6195SOL     OW30043   3.176   1.188   3.026 -0.2829  0.1484  0.0174
 6195SOL    HW130044   3.206   1.157   2.941  1.3931  1.4364  0.1322
 6195SOL    HW230045   3.210   1.119   3.083  0.4410 -0.7241 -1.4955
 6196SOL     OW30046   4.434   3.764   8.623  0.2989 -0.4391 -0.3662
 6196SOL    HW130047   4.494   3.690   8.631  0.9187  0.0827 -0.0906
 6196SOL    HW230048   4.490   3.835   8.655  1.0287 -1.0984 -0.1867
 6197SOL     OW30049   2.424   2.018   5.485  0.0898  0.0273 -0.6367
 6197SOL    HW130050   2.457   2.087   5.429 -2.5046  1.7838  0.0079
 6197SOL    HW230051   2.405   1.949   5.421  0.8826 -0.2053 -0.6286
 6198SOL     OW30052   2.409   1.478   6.554  0.0104  0.0217  0.1591
 6198SOL    HW130053   2.345   1.418   6.592 -2.1988  1.8554 -0.7280
 6198SOL    HW230054   2.387   1.551   6.611 -1.3024 -0.4767  0.2894
 6199SOL     OW30055   2.205   2.706   6.182 -0.2029 -0.2144 -0.2151
 6199SOL    HW130056   2.239   2.656   6.107  1.6431  1.9426 -0.8367
 6199SOL    HW230057   2.111   2.693   6.183 -0.1984 -0.2001  0.1267
 6200SOL     OW30058   1.254   1.354   1.554  0.1472 -0.0908  0.8041
 6200SOL    HW130059   1.333   1.346   1.606  0.7645  1.6458  0.1473
 6200SOL    HW230060   1.245   1.274   1.502 -0.1227  0.2153  0.3693
 6201SOL     OW30061   1.245   2.148   3.289  0.2135  0.1543  0.1362
 6201SOL    HW130062   1.208   2.079   3.234 -1.8961  0.1897  1.5066
 6201SOL    HW230063   1.193   2.135   3.368  0.4951 -1.4303  0.0639
 6202SOL     OW30064   0.705   3.792   6.114 -0.4224  0.5223 -0.3166
 6202SOL    HW130065   0.618   3.769   6.084 -0.6608  0.3028  0.5371
 6202SOL    HW230066   0.685   3.798   6.208 -0.0011  0.4448 -0.2186
 6203SOL     OW30067   1.800   3.440  16.717  0.2737  0.3035  0.6508
 6203SOL    HW130068   1.747   3.519  16.733 -2.3113 -1.3408  0.1580
 6203SOL    HW230069   1.781   3.419  16.626 -0.3137  2.5192  0.2628
 6204SOL     OW30070   2.328   1.097   1.999  0.1497  0.8019 -0.0796
 6204SOL    HW130071   2.325   1.005   1.974 -0.1963  0.8902 -0.3670
 6204SOL    HW230072   2.311   1.087   2.092  0.2907 -1.0765 -0.2692
 6205SOL     OW30073   1.312   0.476   8.198 -0.1850 -0.2950 -0.1516
 6205SOL    HW130074   1.225   0.436   8.194 -0.1994 -0.2678 -0.1163
 6205SOL    HW230075   1.304   0.522   8.282 -0.2255  0.7531 -0.7259
 6206SOL     OW30076   0.700   1.957   8.123 -0.8822  0.6488  0.3215
 6206SOL    HW130077   0.712   1.885   8.185  1.0878 -1.1909 -2.2113
 6206SOL    HW230078   0.613   1.988   8.149 -0.7526  0.7073  0.6820
 6207SOL     OW30079   1.844   2.302  16.422 -0.1662 -0.0290  0.2376
 6207SOL    HW130080   1.831   2.218  16.378  3.2114 -0.7340  0.5721
 6207SOL    HW230081   1.814   2.266  16.506 -0.3988 -0.7392 -0.1518
 6208SOL     OW30082   2.926   2.652   7.017 -0.8276  0.2249 -0.0529
 6208SOL    HW130083   2.985   2.590   7.061 -1.3008  1.8432  2.8627
 6208SOL    HW230084   2.927   2.730   7.073 -0.1014  1.1659 -1.3973
 6209SOL     OW30085   4.143   4.001  10.414  0.4498 -0.3060 -0.1204
 6209SOL    HW130086   4.099   3.921  10.445  0.2499 -0.5037 -0.9015
 6209SOL    HW230087   4.108   4.024  10.328  3.3018  0.6340 -0.9995
 6210SOL     OW30088   2.038   4.126   3.770  0.4114 -0.5934 -0.2827
 6210SOL    HW130089   2.013   4.153   3.858  0.0283  1.9248 -1.1771
 6210SOL    HW230090   1.959   4.149   3.722  0.3527  0.2949  0.2399
 6211SOL     OW30091   1.870   1.729   5.380 -0.3516 -0.5603  0.4115
 6211SOL    HW130092   1.874   1.796   5.312  1.9790  0.2473  1.3490
 6211SOL    HW230093   1.915   1.774   5.451  1.0203 -0.2501 -0.6667
 6212SOL     OW30094   2.442   1.693   0.764  0.3111 -0.1525 -0.0678
 6212SOL    HW130095   2.467   1.602   0.749 -1.4395 -0.6536  0.0414
 6212SOL    HW230096   2.360   1.692   0.813 -0.6414  2.6151 -1.5762
 6213SOL     OW30097   3.099   1.812   4.847  0.2834  0.1026  0.3232
 6213SOL    HW130098   3.146   1.813   4.763  0.0966 -0.0686  0.2168
 6213SOL    HW230099   3.051   1.731   4.830  1.9808 -1.0377  1.0882
 6214SOL     OW30100   2.817   0.284  14.020 -0.2699 -0.0900  0.0480
 6214SOL    HW130101   2.843   0.247  13.936  1.5435  0.8684  0.1736
 6214SOL    HW230102   2.722   0.291  14.022 -0.1669  1.4191 -0.3348
 6215SOL     OW30103   1.655   1.241   5.804 -0.2220  0.1110  0.3085
 6215SOL    HW130104   1.729   1.230   5.745  0.0599  0.7731  0.5341
 6215SOL    HW230105   1.606   1.177   5.752  2.5621  0.9597 -3.3239
 6216SOL     OW30106   4.678   2.280  15.671 -0.3216  0.2180 -0.2672
 6216SOL    HW130107   4.677   2.344  15.600  0.7128  1.5786  0.9459
 6216SOL    HW230108   0.048   2.256  15.690 -0.7092 -1.5177 -0.6226
 6217SOL     OW30109   4.344   3.003   5.531 -0.2259 -0.5583  0.3859
 6217SOL    HW130110   4.374   3.027   5.443  1.7618  1.0086  1.4806
 6217SOL    HW230111   4.350   3.086   5.579 -1.2415  0.3308 -1.0077
 6218SOL     OW30112   0.453   3.698  16.929  0.2919 -0.5702 -0.1726
 6218SOL    HW130113   0.457   3.626  16.865  2.8194 -2.1287  1.7357
 6218SOL    HW230114   0.422   3.767  16.871 -1.0572 -0.3876  0.7556
 6219SOL     OW30115   1.494   3.310  16.311 -0.0426 -0.5882 -0.1132
 6219SOL    HW130116   1.508   3.270  16.397 -2.0708 -1.2738 -0.1101
 6219SOL    HW230117   1.551   3.250  16.262  0.5506 -0.5902  0.5758
 6220SOL     OW30118   2.200   2.826   5.190  0.2189  0.2538 -0.1647
 6220SOL    HW130119   2.120   2.805   5.238  0.9917 -1.7663  0.2437
 6220SOL    HW230120   2.228   2.904   5.239 -0.3662  0.8124 -0.7142
 6221SOL     OW30121   4.444   2.371  16.188  0.3911 -0.1864  0.0718
 6221SOL    HW130122   4.371   2.428  16.212 -0.4272 -1.4488  0.5699
 6221SOL    HW230123   4.487   2.411  16.112 -1.0053 -0.3812 -0.8090
 6222SOL     OW30124   1.435   3.633   6.695 -0.1603 -0.6000  0.2023
 6222SOL    HW130125   1.445   3.547   6.653 -3.2541 -0.8615  0.0179
 6222SOL    HW230126   1.513   3.654   6.747 -0.2159  1.0650 -0.3905
 6223SOL     OW30127   3.208   0.264  11.399  0.9325 -0.1156  0.1347
 6223SOL    HW130128   3.255   0.193  11.443  2.3162  0.6418 -0.1467
 6223SOL    HW230129   3.248   0.262  11.312  1.9974 -0.0094  0.6207
 6224SOL     OW30130   3.224   1.040   8.795 -0.1275  0.0908 -0.1767
 6224SOL    HW130131   3.234   1.135   8.804  5.0028 -0.2062 -2.7570
 6224SOL    HW230132   3.279   1.016   8.869  0.9837 -1.0208 -1.3543
 6225SOL     OW30133   4.607   1.160   3.229  0.1105 -0.1712  0.3243
 6225SOL    HW130134   4.598   1.130   3.138  0.0704 -2.2386  1.0123
 6225SOL    HW230135   4.698   1.142   3.252  0.5914  0.4207 -1.1170
 6226SOL     OW30136   3.955   4.674   2.583 -0.1347 -0.5872  0.2241
 6226SOL    HW130137   3.902   4.667   2.503 -0.5364  2.1649  0.2513
 6226SOL    HW230138   3.911   0.022   2.632 -2.4259 -2.4286  0.7884
 6227SOL     OW30139   0.850   0.562  17.013  0.6965 -0.1836  0.1996
 6227SOL    HW130140   0.782   0.547  16.947 -0.9049 -1.0601  2.0423
 6227SOL    HW230141   0.832   0.655  17.031 -1.1967 -0.0794 -2.0880
 6228SOL     OW30142   3.466   2.563   4.495  0.2274 -0.3839  0.5071
 6228SOL    HW130143   3.536   2.498   4.492  0.0166 -0.7278  3.0494
 6228SOL    HW230144   3.403   2.516   4.441  0.8571  0.4855 -0.9850
 6229SOL     OW30145   3.376   0.868   7.182  0.1456 -0.0717 -0.4844
 6229SOL    HW130146   3.327   0.789   7.204  0.1544 -0.0145 -0.2635
 6229SOL    HW230147   3.323   0.901   7.109  1.9821 -0.1246 -1.8455
 6230SOL     OW30148   2.733   3.205   3.719 -0.5350 -0.4213  0.3619
 6230SOL    HW130149   2.733   3.256   3.638  0.6282 -2.0962 -0.6824
 6230SOL    HW230150   2.644   3.171   3.722 -1.1828  1.0856 -1.6658
 6231SOL     OW30151   1.461   3.141   6.948 -0.5202 -0.4339 -0.1208
 6231SOL    HW130152   1.442   3.067   6.889 -3.5206  0.6278 -0.5021
 6231SOL    HW230153   1.395   3.119   7.014 -0.5346  0.2427  0.0876
 6232SOL     OW30154   2.075   4.627  10.076  0.1163 -0.3893  0.6749
 6232SOL    HW130155   2.091   4.575  10.155 -0.0298 -0.7958  0.4395
 6232SOL    HW230156   2.009   4.688  10.109 -1.0981 -0.8874 -0.8585
 6233SOL     OW30157   1.059   0.149  10.455 -0.1901 -0.4287  0.3877
 6233SOL    HW130158   1.023   0.061  10.454 -0.3724 -0.3855  2.9140
 6233SOL    HW230159   0.981   0.194  10.489  2.2973  1.4742  3.6246
 6234SOL     OW30160   0.258   2.666  13.148  0.0083 -0.6225  0.5042
 6234SOL    HW130161   0.312   2.745  13.146 -1.3847  0.2769 -1.3139
 6234SOL    HW230162   0.307   2.604  13.094  2.9645  1.4684  0.7947
 6235SOL     OW30163   2.154   2.823   4.920  0.1866  0.3669  0.4130
 6235SOL    HW130164   2.192   2.819   5.007 -1.0481  1.5733  1.0081
 6235SOL    HW230165   2.176   2.911   4.890  1.2375 -0.1988 -0.4872
 6236SOL     OW30166   3.295   3.859   5.615 -0.1111  0.7631  0.2788
 6236SOL    HW130167   3.358   3.916   5.659  0.7289  1.1533 -1.4267
 6236SOL    HW230168   3.216   3.904   5.645 -0.0774 -0.4474  2.1710
 6237SOL     OW30169   4.712   3.507   2.636 -0.0648  0.0507 -0.4074
 6237SOL    HW130170   4.703   3.528   2.729 -1.3746 -1.0386 -0.2955
 6237SOL    HW230171   0.077   3.541   2.614  0.5169 -0.2097  1.4881
 6238SOL     OW30172   1.808   0.074   8.513  0.5232 -0.0752  0.1430
 6238SOL    HW130173   1.769   0.118   8.589  2.3638 -0.0153  1.0532
 6238SOL    HW230174   1.877   0.135   8.486 -0.3939  0.6842 -0.4976
 6239SOL     OW30175   3.209   4.067   7.750 -0.1891 -0.0931 -0.3678
 6239SOL    HW130176   3.296   4.090   7.782 -0.6214  1.0381  0.0351
 6239SOL    HW230177   3.208   4.078   7.655 -0.5929  0.5265 -0.2927
 6240SOL     OW30178   4.043   3.061  12.971 -0.4760  0.3285 -0.4119
 6240SOL    HW130179   4.038   3.001  12.896 -1.8259  0.2675 -0.2608
 6240SOL    HW230180   4.100   3.002  13.021  0.1277  1.1667 -0.1114
 6241SOL     OW30181   0.748   3.992  13.506  0.3100 -0.5136  0.1846
 6241SOL    HW130182   0.695   3.922  13.470  1.5077 -1.3899  0.1506
 6241SOL    HW230183   0.730   4.069  13.452  2.0113  0.9785  1.7334
 6242SOL     OW30184   2.756   1.912   8.647  0.1015  0.6246 -0.2242
 6242SOL    HW130185   2.676   1.934   8.696  1.6627  0.5496  2.3562
 6242SOL    HW230186   2.824   1.926   8.713 -0.5766  0.4864  0.5132
 6243SOL     OW30187   4.377   1.868  17.327  0.0883  0.2056  0.3687
 6243SOL    HW130188   4.450   1.814  17.356 -0.3187 -0.9537 -0.7898
 6243SOL    HW230189   4.315   1.803  17.293  1.4582 -0.4062 -0.9339
 6244SOL     OW30190   4.271   2.666   8.675  0.5942  0.0132 -0.0813
 6244SOL    HW130191   4.257   2.760   8.681  1.4476  0.2294 -1.5889
 6244SOL    HW230192   4.184   2.632   8.696  0.5720  0.4189  0.4786
 6245SOL     OW30193   4.679   4.140   8.561 -0.2123 -0.4314 -0.3510
 6245SOL    HW130194   4.650   4.211   8.617 -0.0110  0.5975 -1.5661
 6245SOL    HW230195   0.050   4.133   8.586 -0.2928 -1.1242 -0.2462
 6246SOL     OW30196   3.230   4.714  13.024  0.5189  0.0636  0.4443
 6246SOL    HW130197   3.256   0.082  12.999  0.7341 -0.4401 -1.1031
 6246SOL    HW230198   3.200   4.697  12.935 -1.7185 -1.1329  1.4304
 6247SOL     OW30199   4.147   0.002   4.009  0.3257  0.0567 -0.2430
 6247SOL    HW130200   4.226   4.672   3.993 -0.5060 -0.8337 -1.5214
 6247SOL    HW230201   4.113   0.012   3.920  0.1830 -0.1178 -0.2077
 6248SOL     OW30202   3.706   0.665   9.247 -0.3484 -0.1336  0.6017
 6248SOL    HW130203   3.735   0.688   9.159  0.7565  0.0832  1.0188
 6248SOL    HW230204   3.632   0.608   9.227 -0.8383  0.5158  0.5540
 6249SOL     OW30205   1.360   4.148  13.474  0.1886 -0.3698  0.1859
 6249SOL    HW130206   1.266   4.159  13.482 -0.2640 -1.2565 -4.3001
 6249SOL    HW230207   1.390   4.239  13.474 -0.2860 -0.2129  1.2226
 6250SOL     OW30208   2.425   1.694   4.707  0.6481  0.2819 -0.4173
 6250SOL    HW130209   2.334   1.682   4.680  0.0865  1.0209  1.1303
 6250SOL    HW230210   2.426   1.787   4.685 -1.6934  1.1418  3.1626
 6251SOL     OW30211   2.172   4.094   4.491  0.0326 -0.1651 -1.0358
 6251SOL    HW130212   2.113   4.029   4.455 -0.7897 -1.4585  2.6174
 6251SOL    HW230213   2.254   4.044   4.494 -0.4659 -0.8045  1.7994
 6252SOL     OW30214   2.827   0.612   9.236  0.0546 -0.1156  0.2371
 6252SOL    HW130215   2.881   0.621   9.157  0.2332 -0.4369  0.3202
 6252SOL    HW230216   2.902   0.591   9.292 -0.0817 -0.3177  0.3402
 6253SOL     OW30217   0.490   0.071  15.796  0.3939 -0.0798  0.0241
 6253SOL    HW130218   0.495   0.163  15.820 -1.5446 -0.1123  0.5934
 6253SOL    HW230219   0.482   0.039  15.886  2.7135 -2.2058 -0.5459
 6254SOL     OW30220   0.661   4.325  16.594  0.3022 -0.1944  0.4978
 6254SOL    HW130221   0.646   4.285  16.680  1.4382 -2.0487 -0.1796
 6254SOL    HW230222   0.728   4.389  16.621 -0.5190  0.5193  0.8456
 6255SOL     OW30223   1.076   4.310   4.969  0.1844 -0.3456  0.0744
 6255SOL    HW130224   1.070   4.282   4.878 -2.2500 -0.2990  0.2164
 6255SOL    HW230225   0.989   4.291   5.004 -0.4992  0.4962 -1.1956
 6256SOL     OW30226   0.614   1.362  10.641  0.1215  0.0070  0.7189
 6256SOL    HW130227   0.681   1.371  10.708  1.8919  0.7665 -1.1423
 6256SOL    HW230228   0.541   1.311  10.674 -0.8386  1.0631  0.2322
 6257SOL     OW30229   3.875   0.811   2.826 -0.6866  0.7853  0.1979
 6257SOL    HW130230   3.868   0.729   2.874  0.8001  1.6785  1.9477
 6257SOL    HW230231   3.941   0.784   2.762  0.7945  2.2460  1.1138
 6258SOL     OW30232   2.994   0.852   6.779  0.0232  0.1958  0.2171
 6258SOL    HW130233   2.900   0.869   6.767  0.1570 -2.0831 -4.0854
 6258SOL    HW230234   2.998   0.757   6.792  0.7674  0.2826  0.5805
 6259SOL     OW30235   1.644   2.796   6.957 -0.2919  0.0083 -0.5938
 6259SOL    HW130236   1.710   2.750   6.905 -1.4488 -0.7999 -1.3369
 6259SOL    HW230237   1.681   2.881   6.983 -2.3025  0.3944  1.0059
 6260SOL     OW30238   3.487   0.502   7.428 -0.3173 -0.3487  0.0346
 6260SOL    HW130239   3.564   0.456   7.462 -0.5126 -0.8803 -0.2394
 6260SOL    HW230240   3.447   0.536   7.508  0.4328 -0.6012  0.5147
 6261SOL     OW30241   0.424   2.704  15.217  0.5689  0.4082 -0.5223
 6261SOL    HW130242   0.486   2.652  15.268 -0.7754  0.0674  0.7968
 6261SOL    HW230243   0.481   2.722  15.143  1.6859  2.1717  0.7655
 6262SOL     OW30244   4.062   0.514  10.709 -0.4355  0.1419  0.3864
 6262SOL    HW130245   4.017   0.459  10.773  1.2159  1.0857  2.3394
 6262SOL    HW230246   4.133   0.461  10.674 -0.6686 -0.2402  0.4904
 6263SOL     OW30247   1.317   1.330   2.198  0.5914 -0.2878  0.1206
 6263SOL    HW130248   1.295   1.351   2.289  1.6849  3.8898 -0.5698
 6263SOL    HW230249   1.377   1.403   2.182 -0.8535  1.1702  1.3470
 6264SOL     OW30250   3.187   4.297   4.609 -0.0783 -0.4777 -0.5855
 6264SOL    HW130251   3.121   4.264   4.669  0.3178 -1.1366 -0.5207
 6264SOL    HW230252   3.237   4.216   4.599 -1.6348 -1.3009 -1.6912
 6265SOL     OW30253   0.210   2.545   8.244 -0.0447 -0.3779 -0.1832
 6265SOL    HW130254   0.164   2.492   8.179 -3.0748 -0.6555  2.2154
 6265SOL    HW230255   0.218   2.510   8.332  0.4838 -0.3270 -0.2130
 6266SOL     OW30256   1.672   0.258   8.149 -0.1264  0.1150 -0.1310
 6266SOL    HW130257   1.759   0.232   8.179 -0.4822  0.5945  1.3107
 6266SOL    HW230258   1.680   0.353   8.157 -0.7567  0.1944 -0.4166
 6267SOL     OW30259   0.674   0.557   2.928  0.0455 -0.4395 -0.1932
 6267SOL    HW130260   0.621   0.478   2.916  0.2095 -0.3573 -1.4922
 6267SOL    HW230261   0.751   0.547   2.872 -0.3146 -1.8802 -0.4345
 6268SOL     OW30262   2.999   0.574   6.827  0.6260  0.3774 -0.2031
 6268SOL    HW130263   3.009   0.570   6.922  2.2354  0.2065 -0.3745
 6268SOL    HW230264   3.071   0.518   6.798 -1.4269 -2.7843  0.8876
 6269SOL     OW30265   0.875   0.706   6.455 -0.0874  0.4557 -0.6886
 6269SOL    HW130266   0.816   0.638   6.424  0.5784  0.9315 -2.9526
 6269SOL    HW230267   0.934   0.706   6.380 -1.5314  1.5089 -1.8129
 6270SOL     OW30268   1.140   2.213   6.518  0.1843  0.0323  0.1251
 6270SOL    HW130269   1.057   2.209   6.564 -0.1334 -1.4879 -0.5878
 6270SOL    HW230270   1.176   2.282   6.574  1.7740  0.5309 -1.5130
 6271SOL     OW30271   1.506   0.897  11.401 -0.3581 -0.1047 -0.3706
 6271SOL    HW130272   1.451   0.974  11.392 -0.4239 -0.0821  0.2508
 6271SOL    HW230273   1.505   0.862  11.311 -1.2950 -2.8799  0.7196
 6272SOL     OW30274   0.277   0.174  16.645 -0.4310  0.1604  0.1118
 6272SOL    HW130275   0.302   0.125  16.723 -2.1685  0.2427  0.7201
 6272SOL    HW230276   0.363   0.197  16.608 -0.2176 -1.0328 -0.1335
 6273SOL     OW30277   3.221   2.752  11.528  0.6588 -0.5143  0.1445
 6273SOL    HW130278   3.177   2.830  11.493  1.0951 -0.6509 -0.7081
 6273SOL    HW230279   3.270   2.800  11.595  0.3119 -1.4042  1.0256
 6274SOL     OW30280   3.851   1.903  17.253  0.4880  0.0699  0.2212
 6274SOL    HW130281   3.859   1.948  17.337  0.3984  0.0050  0.2649
 6274SOL    HW230282   3.914   1.833  17.271  1.1661  0.5361 -0.3546
 6275SOL     OW30283   3.290   1.587   5.053 -0.3944  0.6062 -0.0244
 6275SOL    HW130284   3.351   1.651   5.017  0.0871  0.4244  0.4540
 6275SOL    HW230285   3.288   1.626   5.141  1.0025 -1.1469  0.7832
 6276SOL     OW30286   0.506   3.567  17.172 -0.3643 -0.2145  0.5319
 6276SOL    HW130287   0.473   3.616  17.097  0.8593  1.1075  0.8619
 6276SOL    HW230288   0.466   3.480  17.172 -1.9599  0.5242 -0.0425
 6277SOL     OW30289   1.009   1.241   8.875  0.1865 -0.3742 -0.7778
 6277SOL    HW130290   1.068   1.288   8.935 -1.2260  1.5027 -0.8649
 6277SOL    HW230291   1.048   1.254   8.788 -2.7044  0.6110 -1.9258
 6278SOL     OW30292   2.974   0.500   8.140 -0.2600 -0.1605 -0.4544
 6278SOL    HW130293   2.938   0.418   8.105  2.0987 -0.9453 -1.0622
 6278SOL    HW230294   2.893   0.549   8.154 -0.7182 -0.3650 -2.4749
 6279SOL     OW30295   1.805   0.601   5.214 -0.1152  0.0955  0.0867
 6279SOL    HW130296   1.711   0.597   5.233 -0.3985  1.7497 -0.9406
 6279SOL    HW230297   1.792   0.661   5.140 -0.8333 -0.0398  0.0996
 6280SOL     OW30298   3.888   3.963   3.551  0.4622 -0.1756 -0.5162
 6280SOL    HW130299   3.936   4.015   3.486  2.2299 -2.0914 -0.7525
 6280SOL    HW230300   3.948   3.891   3.571 -0.5594 -0.9557 -0.2638
 6281SOL     OW30301   4.555   3.439   3.848  0.3703  0.4168  0.5541
 6281SOL    HW130302   4.534   3.533   3.850 -1.6528 -0.0316  0.0477
 6281SOL    HW230303   4.620   3.421   3.916  2.4944  1.0859 -1.3175
 6282SOL     OW30304   0.395   4.252   7.313 -0.7100  0.9257 -0.0638
 6282SOL    HW130305   0.450   4.220   7.385  1.1697 -1.2526 -2.4477
 6282SOL    HW230306   0.448   4.317   7.266 -0.5329 -1.4631 -3.1833
 6283SOL     OW30307   4.598   0.002  17.388  1.1558  0.2512 -0.6317
 6283SOL    HW130308   4.646   0.008  17.471 -0.6237 -0.4891  0.4428
 6283SOL    HW230309   4.514   4.698  17.426  0.2942  1.1866 -1.9028
 6284SOL     OW30310   2.444   2.645   4.282 -0.1521  0.8998 -0.4234
 6284SOL    HW130311   2.388   2.694   4.342 -0.9241 -0.9807  0.4144
 6284SOL    HW230312   2.399   2.560   4.280 -2.1949  1.9660  0.6812
 6285SOL     OW30313   2.791   3.850   8.556 -0.1387  0.2481  0.3437
 6285SOL    HW130314   2.758   3.904   8.629 -0.0280 -2.9933  2.7864
 6285SOL    HW230315   2.714   3.849   8.499 -1.7699 -1.4491  2.5819
 6286SOL     OW30316   4.190   0.898   8.367  0.4791 -0.0808 -0.0568
 6286SOL    HW130317   4.186   0.922   8.274  2.1757 -1.2783 -0.4327
 6286SOL    HW230318   4.248   0.960   8.410 -0.4150  0.4140  0.4293
 6287SOL     OW30319   1.377   2.298   3.018  0.2107 -0.1791  0.2855
 6287SOL    HW130320   1.347   2.389   3.022  1.2153  0.0901  1.5832
 6287SOL    HW230321   1.360   2.278   2.926 -3.3845  2.1014  0.4741
 6288SOL     OW30322   3.216   3.016   3.949 -0.2482 -0.0987 -0.6430
 6288SOL    HW130323   3.174   2.963   3.881  0.3229 -0.3818 -0.7715
 6288SOL    HW230324   3.139   3.038   4.001 -0.1358 -0.7478 -0.2146
 6289SOL     OW30325   3.229   0.044  10.490  0.6146 -0.2035  0.1307
 6289SOL    HW130326   3.254   0.137  10.490 -0.5849  0.1017  2.0586
 6289SOL    HW230327   3.309   4.720  10.514  1.0808 -0.2765 -1.5184
 6290SOL     OW30328   2.106   0.266   4.385 -0.2670 -0.2428 -0.1721
 6290SOL    HW130329   2.142   0.304   4.306  0.0977  0.4120  0.3094
 6290SOL    HW230330   2.169   0.300   4.448  1.1829  0.0378 -1.7965
 6291SOL     OW30331   3.924   1.253   7.336 -0.2371  0.2177 -0.3532
 6291SOL    HW130332   3.975   1.313   7.281  0.9771  1.8757  2.5854
 6291SOL    HW230333   3.993   1.188   7.338 -0.1893  0.3102  1.4324
 6292SOL     OW30334   1.821   2.355   1.425  0.0156  0.2034  0.0562
 6292SOL    HW130335   1.806   2.408   1.503  0.1789  0.2222  0.0749
 6292SOL    HW230336   1.908   2.320   1.446 -0.2760 -0.3426  0.3528
 6293SOL     OW30337   0.116   2.863   3.019 -0.6294 -0.6736  0.1532
 6293SOL    HW130338   0.076   2.798   2.962  1.8561 -1.2266 -0.9660
 6293SOL    HW230339   0.190   2.889   2.965 -0.6046  0.1636  0.5760
 6294SOL     OW30340   3.591   4.270   4.631  0.0202  0.2987  0.8185
 6294SOL    HW130341   3.586   4.219   4.550  1.4201  0.9816  0.3130
 6294SOL    HW230342   3.527   4.225   4.686  1.4036 -0.4109  1.8311
 6295SOL     OW30343   0.987   1.135   6.241  0.3765  0.0722  0.0385
 6295SOL    HW130344   1.070   1.115   6.285 -0.6492 -0.1811  1.8698
 6295SOL    HW230345   1.002   1.073   6.170 -0.3104  0.7742 -0.7144
 6296SOL     OW30346   1.549   1.681   6.359  0.4447 -0.3146  0.4145
 6296SOL    HW130347   1.470   1.695   6.410  1.1922  0.4726  1.3486
 6296SOL    HW230348   1.557   1.586   6.365 -1.0576 -0.5194 -0.9414
 6297SOL     OW30349   0.849   0.189   6.557  0.0808 -0.2750 -0.0328
 6297SOL    HW130350   0.911   0.120   6.584  0.0496  0.7323  2.5816
 6297SOL    HW230351   0.885   0.265   6.602 -0.2415  0.9938 -1.9029
 6298SOL     OW30352   1.723   0.935  10.081  0.4805 -0.0886 -0.3584
 6298SOL    HW130353   1.749   0.843  10.067 -0.2433 -0.7738  2.8218
 6298SOL    HW230354   1.722   0.931  10.176  0.4423 -2.2184 -0.4269
 6299SOL     OW30355   1.405   4.011   8.478  0.6620  0.4103 -0.2949
 6299SOL    HW130356   1.433   3.935   8.426  1.2067  0.4664 -0.0888
 6299SOL    HW230357   1.314   4.026   8.455 -0.0585  0.4318  2.6554
 6300SOL     OW30358   0.414   2.101   3.318 -0.2020 -0.3461  0.3522
 6300SOL    HW130359   0.366   2.025   3.352 -1.0196 -0.3393 -0.7840
 6300SOL    HW230360   0.351   2.133   3.253  0.4444  1.3279  0.5473
 6301SOL     OW30361   0.029   1.496  17.520  0.0996  0.1383 -0.1693
 6301SOL    HW130362   0.116   1.457  17.524 -0.1931 -0.5368 -0.4410
 6301SOL    HW230363   4.706   1.414  17.543  0.7750 -0.3637 -0.6690
 6302SOL     OW30364   3.961   3.437   6.065 -0.1803  0.0743 -0.2956
 6302SOL    HW130365   3.911   3.415   5.987  1.5145 -1.8429 -0.8488
 6302SOL    HW230366   3.898   3.407   6.131 -1.4648 -1.2336 -2.1048
 6303SOL     OW30367   0.084   4.178   2.544  0.5164 -0.0103  0.0507
 6303SOL    HW130368   0.140   4.109   2.510  1.1599  0.7480 -0.4086
 6303SOL    HW230369   0.093   4.174   2.640 -0.1183 -0.3552  0.0924
 6304SOL     OW30370   4.661   2.427   7.208  0.3836 -0.2139  0.2199
 6304SOL    HW130371   4.716   2.407   7.132  0.4519 -1.4276  0.5889
 6304SOL    HW230372   4.603   2.499   7.182  2.0004  1.4130  1.1054
 6305SOL     OW30373   2.432   3.633   8.162 -0.1209 -0.8420 -0.3724
 6305SOL    HW130374   2.417   3.576   8.087  1.0220 -0.3114 -1.0061
 6305SOL    HW230375   2.349   3.622   8.210 -0.1703 -1.8695 -0.7067
 6306SOL     OW30376   0.895   0.380   0.711 -0.0035  0.2457 -0.0835
 6306SOL    HW130377   0.988   0.375   0.688  0.0775 -2.2152  0.8494
 6306SOL    HW230378   0.879   0.474   0.712 -2.8313 -0.2217 -1.8414
 6307SOL     OW30379   3.959   1.316   6.578 -0.3636  0.2068  0.0534
 6307SOL    HW130380   4.002   1.350   6.500 -0.6578  0.1784 -0.1222
 6307SOL    HW230381   4.008   1.234   6.585 -0.1267  0.3009 -0.5474
 6308SOL     OW30382   0.467   2.866  13.337 -0.2328  0.9343 -0.3674
 6308SOL    HW130383   0.429   2.879  13.250 -0.0379  0.8979 -0.4566
 6308SOL    HW230384   0.387   2.871  13.390  0.7414  0.6224  1.1323
 6309SOL     OW30385   0.148   0.098   6.400 -0.1725 -0.6643 -0.1093
 6309SOL    HW130386   0.225   0.063   6.446  0.9272  1.4813 -0.3262
 6309SOL    HW230387   0.107   0.146   6.472  0.3272 -0.3553 -0.0267
 6310SOL     OW30388   4.476   0.889   4.263  0.2105 -0.1275 -0.2099
 6310SOL    HW130389   4.402   0.945   4.237  0.9198 -0.1454 -2.3151
 6310SOL    HW230390   4.451   0.833   4.336 -0.4054 -1.2625 -1.2844
 6311SOL     OW30391   1.748   3.002   7.656  0.2806 -0.2792 -0.4628
 6311SOL    HW130392   1.670   3.050   7.683  1.2786  0.9730  0.2130
 6311SOL    HW230393   1.794   2.987   7.739 -0.1011  1.2381  0.0270
 6312SOL     OW30394   4.337   1.205   7.101  0.2273 -0.0626 -0.1845
 6312SOL    HW130395   4.311   1.116   7.078  2.9278 -0.5597 -1.4032
 6312SOL    HW230396   4.255   1.244   7.073 -0.3102 -0.5835  0.6859
 6313SOL     OW30397   2.181   1.385   9.628 -0.0022 -0.3160  0.5540
 6313SOL    HW130398   2.244   1.355   9.694  1.2687  1.1602  0.0223
 6313SOL    HW230399   2.140   1.306   9.595  1.5193 -0.0949 -1.8886
 6314SOL     OW30400   1.995   3.374  12.517  0.4330 -0.0506 -0.1491
 6314SOL    HW130401   1.993   3.460  12.559 -0.4953 -1.5492  2.7822
 6314SOL    HW230402   2.049   3.400  12.441  1.1814  1.5229  0.9171
 6315SOL     OW30403   0.308   3.767   8.860  0.0145  0.6714 -0.3732
 6315SOL    HW130404   0.263   3.748   8.943 -1.2855 -0.3292 -1.3077
 6315SOL    HW230405   0.247   3.808   8.799  1.8432 -0.0281 -2.6627
 6316SOL     OW30406   1.667   0.537   6.482  0.2213 -0.1623  0.0012
 6316SOL    HW130407   1.677   0.629   6.504  0.6539 -0.5558  1.4420
 6316SOL    HW230408   1.644   0.549   6.390 -1.1358 -1.9462  0.0997
 6317SOL     OW30409   2.044   0.227   8.509  0.2226 -0.6757  0.2575
 6317SOL    HW130410   2.069   0.310   8.551 -2.2769  0.1098  0.1811
 6317SOL    HW230411   2.110   0.175   8.555 -0.7992 -2.9588 -0.8724
 6318SOL     OW30412   2.978   1.182   3.301  0.0868 -0.1887 -0.4190
 6318SOL    HW130413   3.016   1.269   3.286 -2.1308  1.0920  1.5081
 6318SOL    HW230414   2.998   1.132   3.221 -1.0059 -2.3830  0.6776
 6319SOL     OW30415   4.393   2.143  15.088  0.4078 -0.1406 -0.3456
 6319SOL    HW130416   4.406   2.063  15.036  0.5564  0.5205 -1.3394
 6319SOL    HW230417   4.408   2.207  15.018 -2.8619  0.3235 -0.5820
 6320SOL     OW30418   2.707   1.992   9.450  0.6976 -0.6861  0.0239
 6320SOL    HW130419   2.665   2.020   9.531  0.7618  1.0589 -0.5469
 6320SOL    HW230420   2.790   2.036   9.469  1.1952 -1.9630  0.8374
 6321SOL     OW30421   0.379   3.855   4.923  0.6156  0.0868  0.0714
 6321SOL    HW130422   0.435   3.777   4.926  0.8312  0.3475  3.0500
 6321SOL    HW230423   0.407   3.895   5.005  0.0119  0.9043 -0.1237
 6322SOL     OW30424   0.579   2.597   6.789 -0.0981  0.2312  0.3733
 6322SOL    HW130425   0.509   2.555   6.738 -0.6822 -1.2386  2.3591
 6322SOL    HW230426   0.656   2.543   6.769  0.1823  0.8836 -0.2930
 6323SOL     OW30427   0.239   3.619   2.646 -0.4430 -0.2983  0.7724
 6323SOL    HW130428   0.275   3.705   2.623 -2.0667  0.6200  1.6536
 6323SOL    HW230429   0.293   3.596   2.722  1.9419 -1.2749 -1.2274
 6324SOL     OW30430   2.555   2.966  17.437 -0.6121 -0.1219  0.1060
 6324SOL    HW130431   2.496   3.012  17.377 -0.1260 -1.9121 -1.7353
 6324SOL    HW230432   2.512   2.978  17.522  1.0072  5.2022  0.1584
 6325SOL     OW30433   4.578   1.380   9.581  0.4389 -0.0303  0.5013
 6325SOL    HW130434   4.671   1.396   9.564  1.0094 -0.6818  3.0087
 6325SOL    HW230435   4.549   1.464   9.615 -1.2255 -2.0350  4.0037
 6326SOL     OW30436   0.708   1.762   5.215  0.1617 -0.5426 -0.7015
 6326SOL    HW130437   0.640   1.768   5.282  1.7288  0.5300  0.7913
 6326SOL    HW230438   0.774   1.821   5.250  0.4170 -0.6249 -1.0534
 6327SOL     OW30439   0.079   2.500   9.153 -0.0742  0.1464 -0.2285
 6327SOL    HW130440   0.049   2.523   9.065 -2.5846 -1.3468  0.2170
 6327SOL    HW230441   0.049   2.409   9.160 -0.0280 -0.0216 -2.1972
 6328SOL     OW30442   3.815   1.214   7.571  0.2912  0.1252 -0.1142
 6328SOL    HW130443   3.794   1.125   7.544  1.2228  0.5606 -2.3075
 6328SOL    HW230444   3.836   1.254   7.486  2.2456  2.2182  1.3463
 6329SOL     OW30445   2.743   3.438   7.965 -0.1782  0.3696  0.2903
 6329SOL    HW130446   2.771   3.410   8.053  0.2070 -1.5373 -0.4448
 6329SOL    HW230447   2.650   3.430   7.987 -0.0410  0.1279  0.7948
 6330SOL     OW30448   3.674   1.480   8.001 -0.1297  0.3727 -0.1070
 6330SOL    HW130449   3.712   1.549   7.947  0.7106  0.4765  0.6141
 6330SOL    HW230450   3.636   1.418   7.939 -3.0400 -0.0931  2.1386
 6331SOL     OW30451   4.461   1.773   1.408  0.3663 -0.5412  0.0164
 6331SOL    HW130452   4.528   1.735   1.351  0.0475 -0.7328 -0.2316
 6331SOL    HW230453   4.387   1.755   1.350  1.8001  0.3525 -2.0805
 6332SOL     OW30454   0.254   1.378   9.766 -0.0012 -0.1574 -0.5159
 6332SOL    HW130455   0.339   1.413   9.794  1.1010 -1.7766 -1.8459
 6332SOL    HW230456   0.197   1.427   9.826  2.9094 -0.3241  2.4225
 6333SOL     OW30457   3.793   1.706   7.890  0.2582  1.2096  0.5132
 6333SOL    HW130458   3.885   1.715   7.867  0.2843 -1.5129 -0.3835
 6333SOL    HW230459   3.771   1.799   7.880 -0.6990  1.1290  1.8142
 6334SOL     OW30460   2.169   2.474   2.831  0.0534  0.3389 -0.4382
 6334SOL    HW130461   2.226   2.550   2.834 -1.2278  1.3696 -1.9877
 6334SOL    HW230462   2.230   2.403   2.811 -0.5075 -0.3854  0.3740
 6335SOL     OW30463   2.647   2.148   9.665 -0.1970  0.5903 -0.4991
 6335SOL    HW130464   2.714   2.182   9.725  0.2952 -0.1556 -0.6219
 6335SOL    HW230465   2.581   2.217   9.660  0.3829  1.3589  2.1337
 6336SOL     OW30466   3.588   1.186   0.528 -0.3529  0.3966 -0.1253
 6336SOL    HW130467   3.583   1.099   0.487 -0.6006 -0.1207  1.0114
 6336SOL    HW230468   3.561   1.236   0.451 -1.1704  1.8062  1.0772
 6337SOL     OW30469   4.569   0.563  11.006  0.8652  0.2202 -0.1055
 6337SOL    HW130470   4.649   0.602  11.041  1.5107 -0.1602 -1.1388
 6337SOL    HW230471   4.581   0.472  11.036 -1.3376 -0.2917 -0.7682
 6338SOL     OW30472   0.265   0.415   8.340  0.1070 -0.3638  0.0500
 6338SOL    HW130473   0.355   0.398   8.314  0.2716  0.3345  0.1730
 6338SOL    HW230474   0.253   0.508   8.320  0.7221  0.6827  4.4387
 6339SOL     OW30475   4.164   4.594   1.693 -0.3335  0.4355  0.1807
 6339SOL    HW130476   4.175   4.687   1.715 -0.1192  0.8449 -1.6183
 6339SOL    HW230477   4.240   4.582   1.636  0.4005  2.1879  0.7839
 6340SOL     OW30478   2.073   0.091   3.507 -0.7081 -0.4420  0.0096
 6340SOL    HW130479   2.129   0.079   3.584 -1.0297 -0.9385  0.1661
 6340SOL    HW230480   2.121   0.046   3.438  0.1747  0.0491  0.3100
 6341SOL     OW30481   4.291   2.139  16.691 -0.5174 -0.7872 -0.0614
 6341SOL    HW130482   4.364   2.076  16.690  0.8489  0.7893  1.0007
 6341SOL    HW230483   4.314   2.216  16.639 -1.9557 -0.1573  0.2431
 6342SOL     OW30484   4.085   3.124   3.284  0.4750  0.3280 -0.0183
 6342SOL    HW130485   4.110   3.082   3.202 -1.1687  0.6467 -0.6884
 6342SOL    HW230486   4.146   3.084   3.346 -1.5578 -3.0004 -0.1127
 6343SOL     OW30487   1.403   1.297   4.778 -0.7102  0.5839 -0.2305
 6343SOL    HW130488   1.316   1.268   4.808  0.0497 -0.6738  0.8017
 6343SOL    HW230489   1.380   1.387   4.757 -2.8471  0.3383  0.9872
 6344SOL     OW30490   2.454   3.452   7.149  0.1654 -0.7773  0.1506
 6344SOL    HW130491   2.386   3.511   7.116  1.8302  0.9197 -0.1957
 6344SOL    HW230492   2.495   3.501   7.219  0.4196  1.7910 -1.8119
 6345SOL     OW30493   2.529   3.121   4.544 -0.3683  0.3223 -0.2223
 6345SOL    HW130494   2.450   3.174   4.535 -2.6638 -2.7807  1.6421
 6345SOL    HW230495   2.593   3.181   4.505  0.4120 -0.3615  0.0041
 6346SOL     OW30496   2.332   1.631  15.422 -0.5327  0.0103 -0.4173
 6346SOL    HW130497   2.261   1.627  15.359 -2.5370  0.8814  1.7688
 6346SOL    HW230498   2.403   1.613  15.361 -1.9360 -3.9256 -0.8786
 6347SOL     OW30499   2.115   1.802   2.724  0.1987 -0.0436  0.0485
 6347SOL    HW130500   2.116   1.830   2.633  2.0823  3.4422  1.1541
 6347SOL    HW230501   2.153   1.878   2.768  0.7027 -0.2357 -0.0536
 6348SOL     OW30502   0.215   3.207   3.283  0.0730  0.2440  0.2336
 6348SOL    HW130503   0.154   3.141   3.315 -0.5318  0.5277 -0.3262
 6348SOL    HW230504   0.294   3.154   3.280 -0.1678 -0.0353 -1.6434
 6349SOL     OW30505   1.789   2.349   6.313  0.7133  0.4068 -0.2458
 6349SOL    HW130506   1.862   2.411   6.313  0.4228  0.7284 -3.7196
 6349SOL    HW230507   1.799   2.298   6.233 -2.2607  0.6740 -0.7892
 6350SOL     OW30508   1.314   4.301   0.701  0.2332 -0.5084 -0.1839
 6350SOL    HW130509   1.369   4.222   0.703  0.1555 -0.5579 -0.0255
 6350SOL    HW230510   1.315   4.310   0.796 -0.7653 -0.0598 -0.2228
 6351SOL     OW30511   0.319   4.409   5.502  0.1305 -0.0165  0.0733
 6351SOL    HW130512   0.287   4.498   5.485 -0.4325 -0.1975  0.2107
 6351SOL    HW230513   0.367   4.394   5.420  0.2232 -2.0309  0.4947
 6352SOL     OW30514   0.770   0.192   8.563  0.2220  0.3821 -0.2148
 6352SOL    HW130515   0.821   0.126   8.610 -1.0368  0.1842  0.8978
 6352SOL    HW230516   0.686   0.188   8.609  0.4565 -1.4777  0.0522
 6353SOL     OW30517   3.451   4.522   0.366  0.3116  0.6506 -0.3493
 6353SOL    HW130518   3.541   4.499   0.339 -0.3049 -3.4576  1.0997
 6353SOL    HW230519   3.449   4.612   0.397 -3.1065  0.3220  0.3092
 6354SOL     OW30520   2.135   1.025  15.059  0.0453 -0.0192 -0.1154
 6354SOL    HW130521   2.211   0.988  15.104  0.1229  0.7472  0.3867
 6354SOL    HW230522   2.119   0.978  14.978 -0.5201  1.1507 -0.6864
 6355SOL     OW30523   2.786   2.520   4.557  0.4315  0.2858 -0.1232
 6355SOL    HW130524   2.789   2.523   4.653  1.1233 -1.2720 -0.0989
 6355SOL    HW230525   2.845   2.453   4.525 -0.7639 -0.6016 -0.4802
 6356SOL     OW30526   0.377   3.996   9.275 -0.0689 -0.6612  0.4519
 6356SOL    HW130527   0.313   3.929   9.252  1.0221 -1.4229 -0.2790
 6356SOL    HW230528   0.451   3.955   9.232 -1.0568 -1.2475 -0.6840
 6357SOL     OW30529   4.587   2.953   5.295  0.4041  0.3953  0.1220
 6357SOL    HW130530   4.677   2.947   5.264  0.8715  3.9247  0.8637
 6357SOL    HW230531   4.580   2.869   5.341 -0.7506 -1.0558 -2.7170
 6358SOL     OW30532   1.233   2.403   6.669  0.1027  0.1190  0.2587
 6358SOL    HW130533   1.185   2.476   6.707  0.4762  1.1561 -1.2569
 6358SOL    HW230534   1.317   2.401   6.713  0.0334  2.0555  0.4645
 6359SOL     OW30535   2.868   0.048   2.028  0.0474 -0.4192 -0.3608
 6359SOL    HW130536   2.844   0.103   1.953  0.6054  3.2699  2.2116
 6359SOL    HW230537   2.808   4.694   2.022  1.2347 -1.6380  3.4631
 6360SOL     OW30538   2.718   3.064  15.584 -0.3078 -0.0800  0.3594
 6360SOL    HW130539   2.706   3.116  15.504 -0.8871  0.4015  0.7621
 6360SOL    HW230540   2.770   2.990  15.553  1.4818  0.7191  1.4536
 6361SOL     OW30541   2.033   1.080   0.126 -0.2120 -0.2075 -0.3952
 6361SOL    HW130542   2.091   1.112   0.195 -0.0648 -0.8162 -0.2331
 6361SOL    HW230543   2.001   1.165   0.096  2.1591  1.0051  0.5471
 6362SOL     OW30544   1.466   0.597   2.661 -0.1043  0.0371 -0.1349
 6362SOL    HW130545   1.490   0.526   2.601 -0.0420  0.2416 -0.3514
 6362SOL    HW230546   1.371   0.602   2.654  0.1215  1.6313 -2.0598
 6363SOL     OW30547   3.277   3.150   6.930 -0.0364  0.1929  0.0441
 6363SOL    HW130548   3.184   3.132   6.942 -0.2858  2.4845  1.5494
 6363SOL    HW230549   3.293   3.140   7.024 -0.8159 -0.9861  0.0517
 6364SOL     OW30550   2.489   1.412   4.751  0.1542 -0.2393 -0.1744
 6364SOL    HW130551   2.472   1.502   4.778 -0.1377 -0.0564 -0.9710
 6364SOL    HW230552   2.583   1.398   4.763 -0.1298 -2.1090 -0.1104
 6365SOL     OW30553   2.881   1.622   5.356 -0.1185 -0.0699 -0.2173
 6365SOL    HW130554   2.940   1.688   5.394 -0.2568 -0.6377  0.9899
 6365SOL    HW230555   2.807   1.629   5.416  1.5537  0.1856  1.8213
 6366SOL     OW30556   2.533   1.177   2.430  0.5072  0.7952  0.0374
 6366SOL    HW130557   2.485   1.162   2.512  1.7215 -3.7643 -0.0517
 6366SOL    HW230558   2.526   1.101   2.372 -0.8290  1.4851 -0.6900
 6367SOL     OW30559   4.136   3.686  11.202  0.2018  0.4583  0.3529
 6367SOL    HW130560   4.079   3.613  11.176 -0.5221 -0.1368  3.6432
 6367SOL    HW230561   4.220   3.642  11.216 -1.3503 -3.1838 -1.8233
 6368SOL     OW30562   2.716   4.531   6.769  0.3917 -0.2869 -0.2102
 6368SOL    HW130563   2.807   4.500   6.766  1.0411  1.4283  1.7388
 6368SOL    HW230564   2.721   4.609   6.713  1.0937 -0.3222 -0.2033
 6369SOL     OW30565   3.877   2.180   1.913 -0.1507 -1.0182  0.0706
 6369SOL    HW130566   3.938   2.248   1.884 -0.5415 -0.5975  0.2278
 6369SOL    HW230567   3.795   2.229   1.910 -0.5812 -1.8113 -0.9151
 6370SOL     OW30568   4.022   1.907  16.330 -0.9084  0.4556 -0.0429
 6370SOL    HW130569   3.932   1.902  16.300 -1.2444 -1.8868  1.3955
 6370SOL    HW230570   4.024   1.995  16.367 -0.2801  0.3977  0.0668
 6371SOL     OW30571   1.901   2.720   1.890  0.1060  0.0098  0.6685
 6371SOL    HW130572   1.925   2.732   1.798  0.5416 -2.3808  0.4574
 6371SOL    HW230573   1.923   2.804   1.929 -1.8827  0.9144 -0.1602
 6372SOL     OW30574   0.717   2.119   3.804  0.1995 -0.5026  0.1147
 6372SOL    HW130575   0.743   2.186   3.741  0.9228 -1.3531 -0.4929
 6372SOL    HW230576   0.630   2.097   3.770 -0.0434 -1.5963  1.4215
 6373SOL     OW30577   2.449   2.213   1.754 -0.1828 -0.3768 -0.7878
 6373SOL    HW130578   2.492   2.231   1.670  1.3226 -0.0522  0.0472
 6373SOL    HW230579   2.508   2.147   1.790 -1.2529  0.6805  2.9048
 6374SOL     OW30580   2.867   1.822   7.308  0.1897 -0.6829 -0.0751
 6374SOL    HW130581   2.882   1.791   7.219 -3.8738  2.5304 -1.9254
 6374SOL    HW230582   2.771   1.816   7.312  0.0664  0.8522 -0.7558
 6375SOL     OW30583   3.395   3.802   0.972 -0.6805  0.4814  0.1043
 6375SOL    HW130584   3.310   3.784   1.012 -1.4547  1.5631 -1.0622
 6375SOL    HW230585   3.390   3.894   0.947 -0.1526  0.9870  1.8294
 6376SOL     OW30586   1.016   0.471  14.188  0.2075  0.2519 -1.2904
 6376SOL    HW130587   1.103   0.450  14.223 -1.2851  0.5161  2.5560
 6376SOL    HW230588   1.025   0.563  14.166  0.5635  0.8678  1.4010
 6377SOL     OW30589   0.158   0.154   3.542 -0.3882  0.2355  0.2863
 6377SOL    HW130590   0.135   0.222   3.605 -2.3069  0.0442 -0.2184
 6377SOL    HW230591   0.228   0.193   3.489 -0.6659  0.8471  0.3664
 6378SOL     OW30592   4.579   3.874  12.128  0.5498  0.5032 -0.5164
 6378SOL    HW130593   4.500   3.894  12.178  0.9799  0.2090  0.2738
 6378SOL    HW230594   4.617   3.802  12.177 -0.1423  0.2516 -0.3587
 6379SOL     OW30595   3.905   3.748  13.919  0.1106  0.4877 -0.1068
 6379SOL    HW130596   3.972   3.703  13.868 -0.1634  0.5489 -0.5254
 6379SOL    HW230597   3.825   3.718  13.875  1.4413 -0.4449 -1.8914
 6380SOL     OW30598   2.656   3.149  16.324 -0.6742  0.4674  0.2469
 6380SOL    HW130599   2.750   3.133  16.311 -0.5719  0.6322  0.7640
 6380SOL    HW230600   2.653   3.225  16.267 -1.1776  2.1744  2.5384
 6381SOL     OW30601   3.110   3.070   1.829  0.5370 -0.2977 -0.1378
 6381SOL    HW130602   3.199   3.098   1.852 -0.4711  1.2502  1.9041
 6381SOL    HW230603   3.056   3.143   1.859 -0.5631 -0.7395 -1.0335
 6382SOL     OW30604   1.293   4.488   6.872 -0.1989 -0.8934  0.5932
 6382SOL    HW130605   1.378   4.473   6.915 -0.8790 -0.9469  1.9222
 6382SOL    HW230606   1.274   4.399   6.840  2.1448 -0.2456 -2.5689
 6383SOL     OW30607   3.832   3.058   5.614  0.1129 -0.1998  0.4800
 6383SOL    HW130608   3.758   3.106   5.577 -0.7071 -0.5972  1.6216
 6383SOL    HW230609   3.804   2.971   5.583  2.1446 -0.2678 -1.1791
 6384SOL     OW30610   4.146   1.602   9.383  0.2608 -0.1367 -0.0808
 6384SOL    HW130611   4.218   1.539   9.385 -1.1538 -1.7574  0.2405
 6384SOL    HW230612   4.089   1.555   9.444 -1.2181  1.0144 -0.5623
 6385SOL     OW30613   1.512   0.624  13.131 -0.2679 -0.3373  0.2051
 6385SOL    HW130614   1.500   0.582  13.046 -0.9384  0.8228 -0.2820
 6385SOL    HW230615   1.604   0.613  13.154 -0.7025 -1.9215  1.1369
 6386SOL     OW30616   2.254   0.797   9.689  0.5413  0.5435  0.5578
 6386SOL    HW130617   2.268   0.718   9.637 -0.7982 -0.3884  1.6051
 6386SOL    HW230618   2.177   0.829   9.644 -1.1938 -2.8746  1.0625
 6387SOL     OW30619   0.838   3.113  10.087 -0.0880  0.1145 -0.0809
 6387SOL    HW130620   0.848   3.087  10.178 -0.3451 -1.4349 -0.5057
 6387SOL    HW230621   0.755   3.158  10.099 -0.1491  0.3203 -1.2588
 6388SOL     OW30622   1.721   0.630  10.956  0.0160  0.1057 -0.0215
 6388SOL    HW130623   1.635   0.635  10.913 -1.0945  1.5295  2.3661
 6388SOL    HW230624   1.775   0.613  10.879 -0.5047  0.0361 -0.3739
 6389SOL     OW30625   1.873   2.208   7.775 -0.2367 -0.2309 -0.3270
 6389SOL    HW130626   1.896   2.280   7.716  0.5825 -0.7202 -0.6112
 6389SOL    HW230627   1.957   2.200   7.820  0.2812 -0.8657 -1.3951
 6390SOL     OW30628   3.067   3.398   2.859 -0.0255 -0.1380  0.0313
 6390SOL    HW130629   3.134   3.462   2.833  1.3970 -1.9812 -0.8640
 6390SOL    HW230630   3.125   3.350   2.919 -0.2115  1.7959  1.7190
 6391SOL     OW30631   2.558   0.117   7.437 -0.2012 -0.5933 -0.4874
 6391SOL    HW130632   2.514   0.120   7.522 -1.9054 -0.8555 -1.3667
 6391SOL    HW230633   2.495   0.142   7.370 -0.1777 -0.6882 -0.5436
 6392SOL     OW30634   0.898   3.677  10.897  0.6474 -0.2398 -0.3327
 6392SOL    HW130635   0.909   3.595  10.849 -1.1527 -0.7412  0.1044
 6392SOL    HW230636   0.971   3.674  10.959  0.3112  1.2316  0.1545
 6393SOL     OW30637   1.620   4.252  12.328  0.1620  0.5959  0.8676
 6393SOL    HW130638   1.553   4.191  12.297  0.0966  1.8458 -1.4452
 6393SOL    HW230639   1.592   4.341  12.307  2.0228  1.1457  0.7343
 6394SOL     OW30640   0.886   3.123  13.339 -0.4002  0.7367  0.3436
 6394SOL    HW130641   0.978   3.097  13.345 -0.3256  0.4029 -2.2524
 6394SOL    HW230642   0.844   3.109  13.424 -1.7691  2.5455 -0.0201
 6395SOL     OW30643   0.500   0.367   5.416  0.5194 -0.1880  0.6007
 6395SOL    HW130644   0.433   0.432   5.435  0.0919 -0.0388 -1.5012
 6395SOL    HW230645   0.532   0.384   5.327 -1.5112  3.1069  0.5073
 6396SOL     OW30646   0.091   0.259  17.401  0.0282  0.3404 -0.4815
 6396SOL    HW130647   4.717   0.252  17.407  0.0187  1.2886  0.4380
 6396SOL    HW230648   0.098   0.311  17.320  0.1367  0.1791 -0.5756
 6397SOL     OW30649   3.472   1.236   4.595  0.4497  0.2045  0.0734
 6397SOL    HW130650   3.446   1.147   4.574  0.2660  0.1215  0.6640
 6397SOL    HW230651   3.495   1.272   4.509  0.0190  0.7825  0.1980
 6398SOL     OW30652   0.087   3.501  11.894 -0.1338  0.1584  0.1202
 6398SOL    HW130653   0.061   3.415  11.928 -0.8823  1.3876  2.6762
 6398SOL    HW230654   0.006   3.550  11.907 -1.3251 -1.9219  0.5863
 6399SOL     OW30655   2.642   4.525  10.536 -0.1069 -0.6762  0.4586
 6399SOL    HW130656   2.550   4.507  10.555 -0.1023 -2.5283 -1.2915
 6399SOL    HW230657   2.660   4.586  10.608  0.6166  0.0910 -0.3686
 6400SOL     OW30658   1.927   1.023  16.661 -0.1424  0.0781  0.2264
 6400SOL    HW130659   2.005   0.985  16.620 -1.5885 -1.0866 -1.4096
 6400SOL    HW230660   1.874   1.063  16.592  1.2685  1.0516 -0.3145
 6401SOL     OW30661   4.228   3.738  10.003  0.9159  0.5314  1.2927
 6401SOL    HW130662   4.167   3.737  10.077  2.1254 -0.2179  2.2826
 6401SOL    HW230663   4.307   3.721  10.054  2.0260  0.9503 -0.2635
 6402SOL     OW30664   1.848   1.937   5.223 -0.2487  0.2884  0.1234
 6402SOL    HW130665   1.929   1.974   5.188  0.2156 -1.2324 -0.4178
 6402SOL    HW230666   1.796   2.017   5.225  0.7317  0.9226  0.1376
 6403SOL     OW30667   2.937   4.347   1.439 -0.6778  0.1243  0.4105
 6403SOL    HW130668   2.910   4.260   1.411 -1.8203  0.3364  0.8380
 6403SOL    HW230669   2.901   4.352   1.527 -2.6768 -0.0956 -0.3831
 6404SOL     OW30670   4.712   0.189   1.170 -0.0473 -0.2315 -0.5870
 6404SOL    HW130671   4.694   0.186   1.075  2.2050 -1.5307 -0.9740
 6404SOL    HW230672   0.086   0.190   1.164 -0.1110  1.6241 -1.4455
 6405SOL     OW30673   0.458   4.310   0.851 -0.0586  0.5987 -0.0583
 6405SOL    HW130674   0.493   4.359   0.777  0.9587  0.4315  0.3112
 6405SOL    HW230675   0.538   4.264   0.877  0.0628  1.8457  1.8036
 6406SOL     OW30676   2.559   0.733  16.723 -0.0471 -0.1665  0.1612
 6406SOL    HW130677   2.643   0.762  16.760 -0.9045  1.0240  1.2078
 6406SOL    HW230678   2.496   0.736  16.795 -1.4451 -2.4167 -0.9916
 6407SOL     OW30679   3.877   2.642   7.748  0.0140  0.0403  0.0241
 6407SOL    HW130680   3.832   2.610   7.669  1.0548  0.7190 -0.8450
 6407SOL    HW230681   3.824   2.602   7.817 -0.0624  1.2996  0.6900
 6408SOL     OW30682   1.187   2.320  11.326 -0.1854  0.0935  0.4705
 6408SOL    HW130683   1.105   2.308  11.374 -0.6659  0.0558 -0.3547
 6408SOL    HW230684   1.163   2.375  11.251 -4.4508 -0.1527  1.6497
 6409SOL     OW30685   2.019   1.150   9.812 -0.2991 -0.2097  0.6296
 6409SOL    HW130686   1.988   1.097   9.886  0.3767 -1.0775  0.2958
 6409SOL    HW230687   2.112   1.128   9.818  0.1306  1.1410 -1.1789
 6410SOL     OW30688   0.578   2.475  16.932  0.6144  0.2276 -0.3465
 6410SOL    HW130689   0.600   2.561  16.894  3.0219  0.5903  1.7899
 6410SOL    HW230690   0.483   2.471  16.933  0.5094  2.7321  1.2220
 6411SOL     OW30691   4.419   2.148  17.063 -0.0816  0.1345  0.0317
 6411SOL    HW130692   4.441   2.069  17.014 -0.0916  1.0991 -1.5171
 6411SOL    HW230693   4.370   2.116  17.138 -1.4380 -0.9179 -1.2970
 6412SOL     OW30694   1.041   1.496   1.596  0.1073 -0.6543  0.1210
 6412SOL    HW130695   1.120   1.443   1.599 -1.2865 -2.7581 -0.8075
 6412SOL    HW230696   1.077   1.584   1.612 -0.5816 -0.8454  2.8187
 6413SOL     OW30697   4.412   1.658   6.262  0.4627 -0.4267  0.1424
 6413SOL    HW130698   4.384   1.735   6.212 -0.4465  1.5763  3.7594
 6413SOL    HW230699   4.326   1.625   6.290  0.3013  0.8257  1.0861
 6414SOL     OW30700   1.119   1.202   4.866  0.3807  0.8554  0.7851
 6414SOL    HW130701   1.073   1.122   4.893  0.7494  0.6788  0.8938
 6414SOL    HW230702   1.039   1.243   4.832  0.7575  0.3646 -0.6867
 6415SOL     OW30703   2.257   3.144   8.254  0.1470 -0.5693 -0.4415
 6415SOL    HW130704   2.302   3.073   8.208 -0.6223 -0.8322 -0.7834
 6415SOL    HW230705   2.328   3.200   8.286 -0.4291  1.0680 -2.0402
 6416SOL     OW30706   3.358   2.849   8.799 -0.6191  0.4260  0.4428
 6416SOL    HW130707   3.309   2.831   8.719 -0.2482 -2.7777  0.9285
 6416SOL    HW230708   3.337   2.942   8.806 -0.1502  0.4987  0.8977
 6417SOL     OW30709   0.238   1.148   2.067 -0.5982 -0.4600  0.2055
 6417SOL    HW130710   0.163   1.200   2.095 -0.7917 -0.2894 -0.6318
 6417SOL    HW230711   0.306   1.208   2.098 -1.0748  1.4163 -2.3802
 6418SOL     OW30712   2.798   1.022   7.963 -0.4556  0.2832  0.0798
 6418SOL    HW130713   2.891   1.040   7.974  0.0097 -1.6079 -0.6843
 6418SOL    HW230714   2.784   1.056   7.875  0.5415 -1.3265 -0.7017
 6419SOL     OW30715   3.373   0.780   8.487  0.0992  0.0626  0.3066
 6419SOL    HW130716   3.324   0.711   8.443 -1.0215  1.1973 -0.2300
 6419SOL    HW230717   3.460   0.767   8.448  0.1974  1.7459 -0.0651
 6420SOL     OW30718   1.908   4.396  12.340 -0.2268 -0.0051 -0.0957
 6420SOL    HW130719   1.855   4.366  12.266  0.9719  0.6775 -1.2312
 6420SOL    HW230720   1.993   4.382  12.300  0.3649  3.1375  0.0444
 6421SOL     OW30721   1.363   2.333   2.749 -0.2482  0.1205 -0.4804
 6421SOL    HW130722   1.326   2.329   2.661 -2.5845 -0.2947  0.5311
 6421SOL    HW230723   1.409   2.417   2.750  0.8879 -0.5201  1.1641
 6422SOL     OW30724   1.766   2.914   7.968  0.0899 -0.2316  0.3649
 6422SOL    HW130725   1.747   2.820   7.973  1.5818 -0.7762 -4.3969
 6422SOL    HW230726   1.853   2.926   8.006  0.6158  2.5424 -1.6879
 6423SOL     OW30727   3.384   2.036  14.505  0.2419 -0.2326  0.5125
 6423SOL    HW130728   3.340   1.951  14.504 -0.8392  0.2955  3.0478
 6423SOL    HW230729   3.473   2.004  14.495 -0.7786 -2.2141 -2.0825
 6424SOL     OW30730   1.161   3.616   6.014  0.6199 -0.2989  0.3840
 6424SOL    HW130731   1.181   3.688   5.955 -2.1925 -0.3107 -0.6189
 6424SOL    HW230732   1.065   3.607   6.010  0.6941 -1.2876  0.7345
 6425SOL     OW30733   3.350   0.586   2.424 -0.0262  0.0399  0.7072
 6425SOL    HW130734   3.301   0.509   2.452 -1.2961 -0.0441 -1.6965
 6425SOL    HW230735   3.392   0.605   2.507 -0.0271  1.0208  0.4791
 6426SOL     OW30736   0.772   1.456   8.871 -0.2413  0.2139  0.1446
 6426SOL    HW130737   0.805   1.518   8.807 -1.3043  0.3279 -0.2813
 6426SOL    HW230738   0.843   1.392   8.884  0.0420  0.4107 -0.4440
 6427SOL     OW30739   1.522   1.663   2.781  0.2624  0.2091 -0.4624
 6427SOL    HW130740   1.601   1.662   2.836 -1.0023 -3.2054  1.3108
 6427SOL    HW230741   1.524   1.753   2.748  0.0559  0.5025  0.3108
 6428SOL     OW30742   2.365   1.579  11.618  0.6240  0.2831 -0.4570
 6428SOL    HW130743   2.289   1.523  11.598  0.7476 -1.1173  2.9961
 6428SOL    HW230744   2.431   1.515  11.643 -1.3064 -0.0353  3.9185
 6429SOL     OW30745   4.410   2.764   5.932  0.1183  0.1130 -0.7224
 6429SOL    HW130746   4.430   2.857   5.926 -0.3014  0.1500 -1.4796
 6429SOL    HW230747   4.422   2.748   5.839  0.0449 -1.6759 -0.4305
 6430SOL     OW30748   4.356   1.826   1.673 -0.4926 -0.0523 -0.0676
 6430SOL    HW130749   4.378   1.802   1.583 -0.6015 -0.7338  0.0887
 6430SOL    HW230750   4.378   1.749   1.725 -1.1076 -0.6303 -0.6659
 6431SOL     OW30751   2.115   4.445   4.749 -0.2959  0.4101 -0.1383
 6431SOL    HW130752   2.059   4.369   4.767 -1.4523  1.1862 -0.4545
 6431SOL    HW230753   2.200   4.401   4.753  0.1143  1.3459  1.5567
 6432SOL     OW30754   1.368   1.501  17.205 -0.1723  0.1904  0.3195
 6432SOL    HW130755   1.463   1.497  17.212 -0.1196 -1.1941 -1.1613
 6432SOL    HW230756   1.355   1.507  17.110 -1.3923 -0.0239  0.4747
 6433SOL     OW30757   1.018   0.598  13.037 -1.1015 -0.4521  0.3461
 6433SOL    HW130758   0.950   0.539  13.069  0.5211 -1.3151  2.2368
 6433SOL    HW230759   1.060   0.542  12.973  0.5717 -0.3548  1.3420
 6434SOL     OW30760   4.317   0.325  12.906  0.2951 -0.8453 -0.5971
 6434SOL    HW130761   4.359   0.369  12.981 -0.5495 -0.9051 -0.0912
 6434SOL    HW230762   4.360   0.362  12.829  0.7691 -0.5932 -0.2114
 6435SOL     OW30763   3.322   0.606   0.650  0.3187  0.5312  0.3371
 6435SOL    HW130764   3.378   0.650   0.586  0.3168  0.5965  0.3805
 6435SOL    HW230765   3.387   0.556   0.699 -0.7261 -1.4201 -0.2992
 6436SOL     OW30766   1.332   3.778   5.390  0.2815 -0.2666  0.1279
 6436SOL    HW130767   1.395   3.806   5.456  2.2748 -0.6199 -1.6238
 6436SOL    HW230768   1.386   3.738   5.321 -2.0915 -0.9318 -1.3639
 6437SOL     OW30769   3.148   0.353   1.811 -0.8632  0.1266  0.1368
 6437SOL    HW130770   3.217   0.310   1.761 -2.5700 -2.9250  0.4094
 6437SOL    HW230771   3.102   0.392   1.736  1.1970  2.5143  0.1444
 6438SOL     OW30772   2.384   2.532   7.239  0.1999 -0.4241 -0.1542
 6438SOL    HW130773   2.377   2.568   7.151  1.0124 -2.0914 -0.8737
 6438SOL    HW230774   2.472   2.562   7.261 -0.0692  0.6788 -0.5922
 6439SOL     OW30775   1.966   2.388   2.278  0.2768 -0.1298 -0.1415
 6439SOL    HW130776   1.959   2.483   2.286  1.2106  0.0327 -1.2139
 6439SOL    HW230777   1.964   2.376   2.183  1.4283  2.1886 -0.4636
 6440SOL     OW30778   3.305   0.699   4.560 -0.2913 -0.8564  0.0356
 6440SOL    HW130779   3.224   0.684   4.511  1.5176 -2.7891 -2.3722
 6440SOL    HW230780   3.372   0.660   4.504  0.9248 -1.0196  1.6037
 6441SOL     OW30781   2.645   2.872   3.739 -0.0820  0.0284  0.7700
 6441SOL    HW130782   2.704   2.861   3.813 -0.1236  1.1647  0.9682
 6441SOL    HW230783   2.598   2.952   3.762 -0.5501 -0.0732  0.1719
 6442SOL     OW30784   1.513   0.227   5.608 -0.1175  0.3170  0.6616
 6442SOL    HW130785   1.533   0.156   5.669  2.5886  0.4702 -0.0644
 6442SOL    HW230786   1.476   0.176   5.537  0.8454  0.7247 -0.1250
 6443SOL     OW30787   1.995   2.940   3.508  0.3730  0.5060 -0.2701
 6443SOL    HW130788   2.048   2.897   3.575  0.8103  0.0355 -0.9313
 6443SOL    HW230789   1.907   2.905   3.523  0.6016 -0.2571 -0.7111
 6444SOL     OW30790   1.488   3.927  13.308  0.2882 -0.3630 -0.3165
 6444SOL    HW130791   1.500   3.859  13.374 -0.0313 -0.0911  0.0202
 6444SOL    HW230792   1.423   3.983  13.351 -1.7104  0.0918 -3.8753
 6445SOL     OW30793   4.690   1.203  13.654  0.2287 -0.3462  0.1406
 6445SOL    HW130794   4.652   1.225  13.739 -0.6691 -1.7697  0.1111
 6445SOL    HW230795   0.058   1.189  13.684 -0.1100  1.6454  2.0797
 6446SOL     OW30796   4.357   0.439  14.268  0.3177  0.3291  0.3485
 6446SOL    HW130797   4.329   0.483  14.187 -0.7003 -2.2068 -0.6798
 6446SOL    HW230798   4.450   0.456  14.277  0.6354 -1.1050 -0.2436
 6447SOL     OW30799   0.270   1.972   5.852 -0.1033 -0.6217  0.4382
 6447SOL    HW130800   0.184   2.010   5.832 -0.2669 -1.0172  0.3808
 6447SOL    HW230801   0.291   2.004   5.939 -0.1736  0.0368  0.2165
 6448SOL     OW30802   0.174   0.414   0.601 -0.0430 -0.0974  0.1852
 6448SOL    HW130803   0.141   0.443   0.516  0.2353  0.3460  0.2255
 6448SOL    HW230804   0.172   0.319   0.589 -0.8801  0.1809 -1.9469
 6449SOL     OW30805   3.312   2.605  14.381 -0.6958 -0.0075  0.2776
 6449SOL    HW130806   3.403   2.632  14.366 -1.2170  2.5905  1.8733
 6449SOL    HW230807   3.274   2.688  14.351  2.2521  0.3322 -2.5886
 6450SOL     OW30808   4.524   2.578  13.288  0.2796 -0.1092  0.4859
 6450SOL    HW130809   4.512   2.486  13.310 -1.4234 -0.6238 -2.6132
 6450SOL    HW230810   4.585   2.602  13.358 -0.0029  0.2393  0.6134
 6451SOL     OW30811   3.325   0.278   3.511  0.5526 -0.1636  0.1748
 6451SOL    HW130812   3.396   0.309   3.454  0.1006 -1.9645 -1.3890
 6451SOL    HW230813   3.252   0.325   3.471  2.1028  1.0484 -1.2374
 6452SOL     OW30814   4.689   3.224   4.475  0.4710  0.4093  0.5070
 6452SOL    HW130815   0.018   3.232   4.556  1.8094  1.9421 -0.4604
 6452SOL    HW230816   4.676   3.319   4.465  3.7957  0.7906 -0.3458
 6453SOL     OW30817   0.406   4.033   6.662  0.2037 -0.5136 -0.7212
 6453SOL    HW130818   0.357   3.958   6.697 -0.0379  0.1759  0.3848
 6453SOL    HW230819   0.341   4.066   6.600 -1.3778 -0.7796  0.8067
 6454SOL     OW30820   1.728   2.440  10.263  0.1398 -0.1243 -0.5985
 6454SOL    HW130821   1.639   2.433  10.230  0.5738  0.3568 -1.9174
 6454SOL    HW230822   1.722   2.455  10.357  3.6418  1.1405 -0.5625
 6455SOL     OW30823   4.378   4.102   1.723 -0.2388  0.3020  0.5699
 6455SOL    HW130824   4.378   4.049   1.643 -1.1671 -0.0852  0.8313
 6455SOL    HW230825   4.291   4.075   1.753  0.5362  0.1546  2.6627
 6456SOL     OW30826   2.414   2.826   6.439  0.3297 -0.0516  0.1181
 6456SOL    HW130827   2.498   2.812   6.482 -0.2659  0.5417  1.4578
 6456SOL    HW230828   2.427   2.915   6.407 -1.2341 -0.3528 -1.3677
 6457SOL     OW30829   0.085   3.256  14.235 -0.2946  0.5983  0.5523
 6457SOL    HW130830   0.180   3.256  14.229 -0.3216  2.6548  0.0915
 6457SOL    HW230831   0.055   3.275  14.146 -3.1963 -1.5277  1.0591
 6458SOL     OW30832   1.521   1.379   3.251  0.7410  0.1011 -0.1300
 6458SOL    HW130833   1.450   1.328   3.212  0.0170  1.2382 -0.3014
 6458SOL    HW230834   1.557   1.307   3.303  0.3340 -0.0530 -0.0593
 6459SOL     OW30835   4.613   1.183   9.390  0.3857  0.5519 -0.1188
 6459SOL    HW130836   4.646   1.129   9.463 -3.0069  1.5306  2.1385
 6459SOL    HW230837   4.584   1.264   9.434 -0.4454  0.0453  0.2752
 6460SOL     OW30838   1.902   1.455   9.049 -0.3586 -0.5023  0.2133
 6460SOL    HW130839   1.863   1.453   8.962  1.4680  0.2362 -0.6129
 6460SOL    HW230840   1.878   1.539   9.088 -0.3609 -1.0184  1.3394
 6461SOL     OW30841   1.005   4.028   7.522 -0.1914  0.4014  0.2536
 6461SOL    HW130842   0.914   4.048   7.498 -0.2790 -0.3091 -0.0083
 6461SOL    HW230843   1.013   3.940   7.484 -0.9710 -0.3047  1.7252
 6462SOL     OW30844   0.073   0.042  11.321  0.1322  0.0751  0.0797
 6462SOL    HW130845   0.046   0.028  11.412 -1.2941 -2.1611 -0.6622
 6462SOL    HW230846   0.120   4.681  11.304  0.5682  0.4083 -0.2899
 6463SOL     OW30847   2.420   4.469   3.416 -0.3278 -0.3938  0.2905
 6463SOL    HW130848   2.500   4.450   3.465 -0.0241 -0.1022 -0.0878
 6463SOL    HW230849   2.361   4.397   3.438 -2.1338  1.1876  0.6531
 6464SOL     OW30850   3.869   3.275   5.831 -0.4936 -0.0857 -0.0781
 6464SOL    HW130851   3.783   3.236   5.845 -0.3191 -0.0375  1.1600
 6464SOL    HW230852   3.905   3.198   5.787  2.0188 -0.1312  2.0250
 6465SOL     OW30853   3.276   4.071   4.468 -0.0862  0.2691  0.4038
 6465SOL    HW130854   3.356   4.114   4.440 -0.9692 -0.0526 -2.5568
 6465SOL    HW230855   3.312   3.991   4.505 -1.6626 -0.0610  1.2564
 6466SOL     OW30856   3.492   2.460   3.005  0.5661 -0.1877  0.4743
 6466SOL    HW130857   3.579   2.424   2.989  0.2320  0.1237 -1.9710
 6466SOL    HW230858   3.459   2.491   2.921  1.3389 -0.1688  0.1802
 6467SOL     OW30859   2.348   2.806  13.295  0.1251  0.1867  0.0811
 6467SOL    HW130860   2.414   2.794  13.225  0.4483  1.9809  0.0730
 6467SOL    HW230861   2.388   2.878  13.344  1.4379 -1.3367  1.2241
 6468SOL     OW30862   1.768   1.674   4.772 -0.4499  0.4160 -0.0402
 6468SOL    HW130863   1.698   1.611   4.790 -0.6424  0.3923 -0.8514
 6468SOL    HW230864   1.832   1.627   4.719  1.4569  4.0794 -0.9754
 6469SOL     OW30865   0.449   2.064   7.869 -0.0176 -0.5722  0.6643
 6469SOL    HW130866   0.378   2.117   7.833  1.7562  2.2639  1.3388
 6469SOL    HW230867   0.438   1.984   7.818 -1.5946 -0.1989  0.4205
 6470SOL     OW30868   1.509   0.812   7.008  0.2111  0.7113  0.0441
 6470SOL    HW130869   1.510   0.720   7.036  0.1159  0.7516  0.1749
 6470SOL    HW230870   1.437   0.808   6.946  0.4927  0.6697 -0.2830
 6471SOL     OW30871   1.970   0.358   1.436  0.2733  0.3824  0.1547
 6471SOL    HW130872   2.028   0.427   1.466  2.5747 -1.0206 -0.9949
 6471SOL    HW230873   1.932   0.317   1.513 -0.5782 -1.0583 -1.0324
 6472SOL     OW30874   3.678   1.967  17.523  0.4665 -0.1697  0.3704
 6472SOL    HW130875   3.706   2.033  17.586  2.5293 -0.3774 -0.3362
 6472SOL    HW230876   3.676   1.883  17.570  2.4226  0.6354  1.9061
 6473SOL     OW30877   3.619   4.505   8.253 -0.1260  0.8802  0.1923
 6473SOL    HW130878   3.633   4.476   8.343 -2.2228 -0.7504 -0.0025
 6473SOL    HW230879   3.582   4.425   8.214 -0.2038  0.1362  1.7977
 6474SOL     OW30880   1.974   0.627   4.531 -0.6389 -0.5589 -0.0439
 6474SOL    HW130881   2.007   0.572   4.603 -0.1617 -0.1526  0.0489
 6474SOL    HW230882   1.930   0.561   4.477 -2.0738 -2.1798  3.1136
 6475SOL     OW30883   0.217   0.044   5.420 -0.4917  0.2971 -0.3709
 6475SOL    HW130884   0.138   4.711   5.430 -0.7367  0.5995 -0.6965
 6475SOL    HW230885   0.177   0.128   5.401 -0.9252 -0.3526 -2.2782
 6476SOL     OW30886   3.293   3.970  12.282 -0.6224  0.1961  0.1609
 6476SOL    HW130887   3.280   4.064  12.274 -0.2509  0.1827 -0.6353
 6476SOL    HW230888   3.265   3.954  12.372  0.7833 -1.8911  0.2191
 6477SOL     OW30889   0.240   1.842   4.627 -0.0717  0.1886  0.6308
 6477SOL    HW130890   0.163   1.821   4.678 -0.0901  3.1078  1.7902
 6477SOL    HW230891   0.277   1.912   4.681  0.0422  0.0346  0.7507
 6478SOL     OW30892   0.571   2.452   5.814 -0.5123  0.1353 -0.2364
 6478SOL    HW130893   0.610   2.379   5.765 -2.1489  1.3392 -3.3606
 6478SOL    HW230894   0.549   2.511   5.742  2.4562  2.1568  0.4942
 6479SOL     OW30895   3.771   2.347   9.040 -0.2808  0.1456  0.5201
 6479SOL    HW130896   3.746   2.425   9.090 -0.4439  1.4915 -1.6415
 6479SOL    HW230897   3.791   2.401   8.963  0.1848  0.1761  0.6637
 6480SOL     OW30898   2.335   4.378   5.228  0.0035  0.0764  0.4592
 6480SOL    HW130899   2.241   4.386   5.208  0.2021 -0.5734 -0.7049
 6480SOL    HW230900   2.350   4.326   5.149  1.8522 -0.2285  1.0270
 6481SOL     OW30901   4.349   3.208  13.800 -0.1351 -0.0998  0.0579
 6481SOL    HW130902   4.429   3.243  13.841  0.9937 -1.3880 -1.0391
 6481SOL    HW230903   4.359   3.113  13.801  0.0714 -0.0865 -1.1045
 6482SOL     OW30904   3.092   2.427   8.244 -0.1504  0.3862 -0.2254
 6482SOL    HW130905   3.153   2.438   8.172  0.9076 -1.5776  0.3768
 6482SOL    HW230906   3.148   2.450   8.319  1.6051  0.0480 -1.4459
 6483SOL     OW30907   2.605   1.741   7.374 -0.4437 -0.2837  0.3562
 6483SOL    HW130908   2.597   1.800   7.449 -0.4622  0.1563  0.0078
 6483SOL    HW230909   2.582   1.658   7.415  1.9544 -0.2202  1.8598
 6484SOL     OW30910   2.626   1.125  10.954  0.7209  0.0769 -0.4217
 6484SOL    HW130911   2.563   1.197  10.946  0.8072  0.0606 -1.2134
 6484SOL    HW230912   2.636   1.103  10.861 -2.2555  0.2779 -0.7920
 6485SOL     OW30913   2.441   0.223   6.385 -0.1842  0.0215  0.4933
 6485SOL    HW130914   2.489   0.285   6.440  1.6135 -1.1574  0.2177
 6485SOL    HW230915   2.507   0.155   6.389 -0.3551 -0.0963  1.2773
 6486SOL     OW30916   2.724   1.734   1.776 -0.0826  0.2439  0.2318
 6486SOL    HW130917   2.812   1.730   1.737  0.1458  0.2421  0.7500
 6486SOL    HW230918   2.714   1.647   1.816  1.5962 -0.2048 -0.2958
 6487SOL     OW30919   2.714   1.080   8.536 -0.1207 -0.3165 -0.2159
 6487SOL    HW130920   2.651   1.153   8.542 -0.2253 -0.3589 -0.8530
 6487SOL    HW230921   2.792   1.124   8.502  0.0588 -0.1802  0.3580
 6488SOL     OW30922   1.224   1.736  17.084 -0.3638 -0.3893  0.2787
 6488SOL    HW130923   1.169   1.807  17.053  2.1146 -0.3223 -4.0672
 6488SOL    HW230924   1.288   1.785  17.135  1.1579 -0.5092 -1.4776
 6489SOL     OW30925   1.976   4.296   9.901  0.0784  0.3550  0.3061
 6489SOL    HW130926   1.975   4.369   9.964 -0.7148  3.2876 -3.0506
 6489SOL    HW230927   1.914   4.228   9.927 -1.1954  1.2849 -0.2708
 6490SOL     OW30928   1.682   0.463  13.311  0.6772 -0.4402  0.0595
 6490SOL    HW130929   1.714   0.553  13.307  0.0521 -0.3126 -1.9846
 6490SOL    HW230930   1.762   0.414  13.332  2.6044  2.0564 -1.3363
 6491SOL     OW30931   0.347   0.399  15.497 -0.2746  0.3739 -0.4081
 6491SOL    HW130932   0.350   0.444  15.413 -0.5049  0.0095 -0.6131
 6491SOL    HW230933   0.256   0.369  15.500 -0.2472  0.4514  1.6372
 6492SOL     OW30934   2.330   1.562   7.317  0.8604  0.3256 -0.1101
 6492SOL    HW130935   2.358   1.653   7.318 -1.4680  1.0623 -3.0582
 6492SOL    HW230936   2.250   1.564   7.371  0.0814  0.7973 -1.2883
 6493SOL     OW30937   2.355   0.082   4.713 -0.2889 -0.3543 -0.4153
 6493SOL    HW130938   2.356   4.712   4.741 -0.9720  0.2946  1.7642
 6493SOL    HW230939   2.370   0.066   4.620 -2.3186  2.3251 -1.2055
 6494SOL     OW30940   1.024   3.702  12.769 -0.7356 -0.1401  0.6398
 6494SOL    HW130941   1.013   3.607  12.776  0.9738 -0.3198  0.7683
 6494SOL    HW230942   0.975   3.726  12.690  1.1382 -0.2085 -0.5299
 6495SOL     OW30943   1.994   3.785   5.077 -0.4369  0.5461 -0.1244
 6495SOL    HW130944   1.955   3.836   5.006 -1.0175  1.8711  1.1444
 6495SOL    HW230945   2.038   3.712   5.034  1.8697  2.5482 -1.1920
 6496SOL     OW30946   1.589   1.902   4.398  0.1843  0.0986  0.4511
 6496SOL    HW130947   1.510   1.928   4.349  1.4348  2.1275 -0.4814
 6496SOL    HW230948   1.577   1.808   4.400 -0.4422  0.1828  0.6138
 6497SOL     OW30949   0.964   0.504   5.166  0.0329 -0.6366  0.0622
 6497SOL    HW130950   0.977   0.439   5.097  1.0238 -0.6135  0.2248
 6497SOL    HW230951   1.051   0.498   5.206 -0.4980 -1.6182  1.0613
 6498SOL     OW30952   0.732   2.138   7.917 -0.1105  0.1738 -0.4632
 6498SOL    HW130953   0.640   2.116   7.903 -0.0939 -1.8332  2.6647
 6498SOL    HW230954   0.744   2.090   7.999 -1.3155  0.0482 -0.3563
 6499SOL     OW30955   1.635   2.992  17.055 -0.1767  0.3581  0.0917
 6499SOL    HW130956   1.621   3.050  17.131 -0.7362  0.1384  0.1556
 6499SOL    HW230957   1.716   3.024  17.015  0.8784 -3.3965 -0.7837
 6500SOL     OW30958   4.036   0.007   8.699  0.2296  0.2321 -0.1492
 6500SOL    HW130959   3.971   4.665   8.669  0.6581 -0.2175 -0.1389
 6500SOL    HW230960   4.104   0.000   8.632  2.0148  0.6979  1.5870
 6501SOL     OW30961   0.524   2.395   3.790 -0.0765 -0.2908 -0.7508
 6501SOL    HW130962   0.582   2.459   3.832 -1.0148 -0.3760  0.6959
 6501SOL    HW230963   0.523   2.328   3.858 -0.0211  0.1686 -0.2916
 6502SOL     OW30964   3.040   1.360   5.793  0.4482  0.1609  0.0121
 6502SOL    HW130965   3.011   1.438   5.746  2.0492  1.1020  0.5969
 6502SOL    HW230966   3.041   1.293   5.725  2.7854 -2.3865  2.5691
 6503SOL     OW30967   1.458   3.323  11.076  0.2058 -0.4291 -0.5281
 6503SOL    HW130968   1.503   3.386  11.132 -0.1450 -0.5829 -0.0716
 6503SOL    HW230969   1.453   3.249  11.137  0.4245 -0.0648 -0.0704
 6504SOL     OW30970   1.288   2.826  15.310  0.2649  0.2718 -0.1315
 6504SOL    HW130971   1.342   2.805  15.234 -0.4197  1.9883 -1.0786
 6504SOL    HW230972   1.327   2.772  15.379 -0.8379  1.3297  1.3086
 6505SOL     OW30973   0.667   2.038   0.700 -0.5278  0.2992  0.3741
 6505SOL    HW130974   0.705   2.115   0.742 -0.8896  0.6820 -0.0018
 6505SOL    HW230975   0.716   2.043   0.619  0.3382 -1.4734  0.7716
 6506SOL     OW30976   0.779   0.375  11.757 -0.2840 -0.0011 -0.3410
 6506SOL    HW130977   0.747   0.366  11.846  0.1420  0.9569 -0.0914
 6506SOL    HW230978   0.861   0.418  11.781 -0.4744  0.6616 -0.8439
 6507SOL     OW30979   3.184   2.948   7.886 -0.1697  0.0062 -0.1152
 6507SOL    HW130980   3.111   2.967   7.944 -0.2722 -1.7577  0.3448
 6507SOL    HW230981   3.244   3.021   7.897  0.1032 -0.1944 -0.2654
 6508SOL     OW30982   4.366   0.899   6.380  0.5919  0.2277 -0.2533
 6508SOL    HW130983   4.407   0.985   6.393  1.6108 -0.2998  0.0700
 6508SOL    HW230984   4.426   0.868   6.312  0.2885 -3.2840  1.0455
 6509SOL     OW30985   3.930   2.858   7.535 -0.3337 -0.8391 -1.0959
 6509SOL    HW130986   3.947   2.773   7.494 -1.0509 -1.6979  0.4133
 6509SOL    HW230987   4.015   2.902   7.537 -0.4231 -0.6339 -1.5844
 6510SOL     OW30988   3.931   3.564   4.006  0.0172  0.4293  0.0837
 6510SOL    HW130989   3.903   3.653   4.026 -0.7268  0.3002 -0.4130
 6510SOL    HW230990   3.924   3.526   4.094  1.0961 -0.0057 -0.0075
 6511SOL     OW30991   2.780   1.632   8.594 -0.3449  0.4980 -0.5293
 6511SOL    HW130992   2.783   1.728   8.591  0.7486  0.4271 -2.2296
 6511SOL    HW230993   2.718   1.621   8.666  0.4189 -2.9424 -0.3673
 6512SOL     OW30994   4.544   3.821  13.335 -0.0906 -0.4171  0.2568
 6512SOL    HW130995   4.482   3.892  13.326 -1.5936 -2.0056 -1.7970
 6512SOL    HW230996   4.519   3.800  13.425 -0.1735 -0.2811  0.2649
 6513SOL     OW30997   0.149   0.796   6.724  0.5125  0.1322  0.0708
 6513SOL    HW130998   0.194   0.823   6.804  0.3135 -0.6708  0.4476
 6513SOL    HW230999   0.226   0.781   6.668  0.6214 -1.9469  0.7707
 6514SOL     OW31000   4.434   4.483   8.137 -0.1030 -0.4790 -0.6585
 6514SOL    HW131001   4.494   4.434   8.081  0.6591  0.3430 -0.5552
 6514SOL    HW231002   4.453   4.438   8.219  1.8137  0.8211 -0.3807
 6515SOL     OW31003   1.459   4.145   1.724 -0.1473 -0.1408 -0.3603
 6515SOL    HW131004   1.456   4.073   1.660 -2.5153 -0.0566 -0.3366
 6515SOL    HW231005   1.542   4.185   1.698  0.9630 -2.5631 -0.5774
 6516SOL     OW31006   0.088   0.017   2.791  0.2624 -0.6597  0.2223
 6516SOL    HW131007   0.031   4.683   2.737 -1.3331 -0.6624  1.9147
 6516SOL    HW231008   0.080   4.691   2.874 -0.1823 -1.9950 -0.5760
 6517SOL     OW31009   0.972   4.300   9.114  0.3049  0.7082  0.5027
 6517SOL    HW131010   0.920   4.358   9.170  3.5401 -0.0733  4.3587
 6517SOL    HW231011   0.923   4.218   9.125 -1.4425  1.8688  1.3464
 6518SOL     OW31012   4.434   2.109   3.992  0.3517 -0.4177  0.0919
 6518SOL    HW131013   4.357   2.071   3.950 -0.4477  1.8489 -0.4915
 6518SOL    HW231014   4.457   2.061   4.072 -0.3188  0.4951  0.8230
 6519SOL     OW31015   3.374   1.763   9.014 -0.3115  0.4665  0.4796
 6519SOL    HW131016   3.428   1.760   8.935 -0.2776  1.7691  0.4546
 6519SOL    HW231017   3.379   1.856   9.035  0.9817 -0.3485  3.8122
 6520SOL     OW31018   0.636   2.714   2.137  0.0652  0.0647  0.1972
 6520SOL    HW131019   0.602   2.739   2.223  0.8924  0.4239  0.4258
 6520SOL    HW231020   0.717   2.765   2.131 -0.5057  0.9471  0.0384
 6521SOL     OW31021   3.770   3.360   6.333  0.0445  0.5043 -0.1292
 6521SOL    HW131022   3.723   3.323   6.258  1.1853 -0.2190 -0.4800
 6521SOL    HW231023   3.705   3.417   6.374  1.0123  0.4663  1.4655
 6522SOL     OW31024   0.776   1.430   3.831 -0.1899 -0.2365  0.2597
 6522SOL    HW131025   0.827   1.509   3.813 -2.0773  1.2342  1.3048
 6522SOL    HW231026   0.765   1.427   3.926 -0.1540  1.5988  0.3303
 6523SOL     OW31027   0.201   1.060   3.278  0.3728  0.7902 -0.1122
 6523SOL    HW131028   0.248   1.140   3.256  2.4260 -0.4277 -0.1352
 6523SOL    HW231029   0.227   1.013   3.199  2.1315  1.6654 -0.0563
 6524SOL     OW31030   0.432   0.013   4.542  0.0522 -0.2526  0.4135
 6524SOL    HW131031   0.520   0.039   4.516  0.7443 -0.7436  2.2307
 6524SOL    HW231032   0.376   0.058   4.479  0.5227  0.2465  0.3471
 6525SOL     OW31033   0.176   1.784   9.252  0.2572 -0.2112 -0.1047
 6525SOL    HW131034   0.111   1.759   9.185 -0.7283 -1.5728  1.3539
 6525SOL    HW231035   0.252   1.743   9.212  0.9753  0.8221  0.2091
 6526SOL     OW31036   4.534   2.865   7.357  0.1270 -0.0721 -0.2325
 6526SOL    HW131037   4.559   2.941   7.304 -0.2162  0.3655  0.2272
 6526SOL    HW231038   4.443   2.887   7.375 -0.8986 -1.4387 -3.7303
 6527SOL     OW31039   4.673   2.878  13.503  0.2623  0.2151 -0.2229
 6527SOL    HW131040   4.590   2.907  13.465  0.2809  1.2319  0.5056
 6527SOL    HW231041   4.683   2.789  13.469 -2.2618  0.1589 -0.8140
 6528SOL     OW31042   4.026   1.318   3.317 -0.0566  0.5267 -0.2289
 6528SOL    HW131043   4.031   1.222   3.325  4.4224  0.6204 -1.6459
 6528SOL    HW231044   4.032   1.350   3.406  0.5769 -1.0558  0.3008
 6529SOL     OW31045   0.109   1.584   8.777 -0.0724  0.2262 -0.3573
 6529SOL    HW131046   0.078   1.674   8.791 -0.6874 -0.4050  2.1879
 6529SOL    HW231047   0.056   1.561   8.701  2.6825 -0.7463 -1.9851
 6530SOL     OW31048   0.690   2.613   4.128 -0.9383 -0.1083  0.0374
 6530SOL    HW131049   0.672   2.660   4.046 -1.7864 -2.8104 -1.3541
 6530SOL    HW231050   0.711   2.526   4.094 -2.4356 -0.3063 -0.3786
 6531SOL     OW31051   3.686   1.156   4.760  0.0703 -0.0441 -0.6883
 6531SOL    HW131052   3.610   1.176   4.705 -2.0118  0.8695  2.5135
 6531SOL    HW231053   3.666   1.218   4.829  1.0839  0.0167 -0.4519
 6532SOL     OW31054   4.564   4.368   0.615  0.3510 -0.0744 -0.4924
 6532SOL    HW131055   4.543   4.275   0.609  0.9910 -0.2297 -0.4002
 6532SOL    HW231056   4.656   4.353   0.638  0.5611  2.3162  0.2885
 6533SOL     OW31057   0.171   1.169   9.327  0.1462  0.3397  0.2295
 6533SOL    HW131058   0.082   1.136   9.314  0.0685  0.8905 -0.6919
 6533SOL    HW231059   0.148   1.243   9.383 -1.0929 -0.9912  1.4810
 6534SOL     OW31060   1.607   1.475   3.740 -0.1469 -0.5700 -0.7482
 6534SOL    HW131061   1.558   1.409   3.691 -1.3773  0.8692 -1.4312
 6534SOL    HW231062   1.691   1.431   3.725  0.3120  0.8575 -2.2550
 6535SOL     OW31063   1.233   0.923   4.745 -0.3115 -0.3300  0.0590
 6535SOL    HW131064   1.174   0.860   4.786 -1.8656  1.4772  0.5958
 6535SOL    HW231065   1.189   0.933   4.660  1.7907 -0.5478 -1.0656
 6536SOL     OW31066   2.194   1.845   4.995  0.2388 -0.3698  0.2033
 6536SOL    HW131067   2.220   1.760   4.960  2.8541  0.7394 -0.4993
 6536SOL    HW231068   2.099   1.846   4.984  0.6086  3.4665 -2.5044
 6537SOL     OW31069   0.408   3.360  14.991 -0.5668 -0.4294 -0.2095
 6537SOL    HW131070   0.412   3.411  14.910 -0.8006 -1.5434 -0.9219
 6537SOL    HW231071   0.317   3.377  15.019 -0.0710 -1.9459  2.3087
 6538SOL     OW31072   1.734   1.412   1.742 -0.2554  0.3111  0.1047
 6538SOL    HW131073   1.769   1.500   1.746  1.8104 -0.5382  0.7861
 6538SOL    HW231074   1.742   1.384   1.833 -0.3927  3.2037  1.0080
 6539SOL     OW31075   2.799   2.785   8.152 -0.0218 -0.0471 -0.3699
 6539SOL    HW131076   2.812   2.692   8.170 -0.5483 -0.0048  0.2332
 6539SOL    HW231077   2.770   2.828   8.232 -1.8286  1.8099 -2.0147
 6540SOL     OW31078   3.316   4.018  15.327  0.2390  0.1121 -0.2423
 6540SOL    HW131079   3.391   4.074  15.344 -1.2486  1.3702  2.1467
 6540SOL    HW231080   3.357   3.935  15.300  0.8045  0.6718 -1.0953
 6541SOL     OW31081   0.212   2.290   4.887  0.6163  0.0094 -0.4066
 6541SOL    HW131082   0.212   2.380   4.918 -0.4050 -0.1401  0.0263
 6541SOL    HW231083   0.296   2.268   4.928  0.3505  0.0361  0.1476
 6542SOL     OW31084   3.730   2.271  11.144  0.1056  0.2697  0.2989
 6542SOL    HW131085   3.712   2.178  11.156  1.9482 -0.1496 -0.0793
 6542SOL    HW231086   3.824   2.272  11.165  0.1451 -1.8545  0.2383
 6543SOL     OW31087   1.498   3.273   0.817 -0.0564 -0.3529  0.0607
 6543SOL    HW131088   1.499   3.332   0.742  2.4617 -0.9999 -0.4307
 6543SOL    HW231089   1.408   3.240   0.816 -0.3372  0.3779  0.9857
 6544SOL     OW31090   2.893   3.566   2.351  0.3688 -0.3365  0.3179
 6544SOL    HW131091   2.859   3.604   2.270 -0.9373  0.4303  1.2098
 6544SOL    HW231092   2.919   3.644   2.401 -1.6165  1.0972 -0.8587
 6545SOL     OW31093   2.579   3.627   2.002  0.2373 -0.2288 -0.7452
 6545SOL    HW131094   2.563   3.611   1.909 -0.5219 -1.0446 -0.4739
 6545SOL    HW231095   2.600   3.720   2.002  1.2696 -0.4570  0.9581
 6546SOL     OW31096   1.388   0.993   0.089 -0.3358  0.3276  0.4022
 6546SOL    HW131097   1.365   0.900   0.084 -0.1554  0.1777  2.4588
 6546SOL    HW231098   1.316   1.036   0.041  0.3112  1.8446  0.7826
 6547SOL     OW31099   3.305   1.627  12.265 -0.3118 -0.3577  0.4812
 6547SOL    HW131100   3.285   1.556  12.205 -1.4281  0.8144 -0.5357
 6547SOL    HW231101   3.395   1.613  12.293 -0.2745  1.3768  1.2644
 6548SOL     OW31102   0.480   0.256   6.216  0.5175  0.7724  0.1032
 6548SOL    HW131103   0.538   0.202   6.162  0.5252  0.0357  0.8489
 6548SOL    HW231104   0.549   0.268   6.281  3.4142 -3.1338 -2.3180
 6549SOL     OW31105   2.052   4.235   4.311  0.5827  0.2523  0.1267
 6549SOL    HW131106   2.107   4.302   4.352  0.6235 -0.1515  0.7184
 6549SOL    HW231107   2.089   4.170   4.371  2.1493  0.8988 -0.1349
 6550SOL     OW31108   2.382   3.817  17.109 -0.2863 -1.1257 -0.6321
 6550SOL    HW131109   2.409   3.892  17.057 -0.3601 -0.5640  0.1342
 6550SOL    HW231110   2.463   3.781  17.145 -0.4644  0.3396  1.2448
 6551SOL     OW31111   2.605   0.811   9.801 -0.4028 -0.1194  0.3186
 6551SOL    HW131112   2.580   0.763   9.881 -1.7475 -2.2483 -1.3837
 6551SOL    HW231113   2.675   0.756   9.766 -0.1703  1.3972 -1.5394
 6552SOL     OW31114   2.677   1.433  13.964 -0.1010  0.0159  0.3360
 6552SOL    HW131115   2.708   1.344  13.948 -0.1478 -0.2454  1.6736
 6552SOL    HW231116   2.654   1.464  13.877 -2.3528 -2.3412  0.0721
 6553SOL     OW31117   3.987   1.930   1.925  0.4021 -0.3393  0.3203
 6553SOL    HW131118   3.947   2.017   1.930  1.1582  0.0587 -0.5101
 6553SOL    HW231119   4.076   1.965   1.936  0.5516 -1.2634  1.9780
 6554SOL     OW31120   3.798   3.446   0.854 -0.2793  0.0729 -0.1704
 6554SOL    HW131121   3.756   3.361   0.866 -0.2442 -0.0600 -0.9801
 6554SOL    HW231122   3.726   3.507   0.866 -0.0201  0.1853  0.7965
 6555SOL     OW31123   3.656   3.712   5.841 -0.4376 -0.0734  0.0495
 6555SOL    HW131124   3.708   3.790   5.819 -0.1574 -0.4640 -0.6577
 6555SOL    HW231125   3.628   3.700   5.750  2.2307 -2.7225 -0.4169
 6556SOL     OW31126   1.262   1.002  13.220  0.0246 -0.6887 -0.2133
 6556SOL    HW131127   1.270   1.087  13.177 -0.8553  0.8776  2.6586
 6556SOL    HW231128   1.170   1.011  13.247 -0.6658 -3.6434 -1.5830
 6557SOL     OW31129   0.499   3.643   3.910  0.4880  0.2794 -0.2832
 6557SOL    HW131130   0.468   3.714   3.966 -3.1616 -0.7655 -0.9432
 6557SOL    HW231131   0.416   3.627   3.866 -0.3106 -0.2587  1.4309
 6558SOL     OW31132   0.280   2.957   5.695 -0.1913  0.1792 -1.0803
 6558SOL    HW131133   0.253   2.865   5.701  1.4460 -0.3692 -2.0627
 6558SOL    HW231134   0.192   2.989   5.675 -0.8316  0.3271  1.9939
 6559SOL     OW31135   0.879   1.230   8.571  0.0813 -0.0149  0.2249
 6559SOL    HW131136   0.891   1.139   8.597 -0.3371 -0.5049 -1.3502
 6559SOL    HW231137   0.960   1.264   8.610  0.1645  0.8350 -0.6894
 6560SOL     OW31138   3.038   3.505   9.570  0.1894  0.6268 -0.7362
 6560SOL    HW131139   2.981   3.526   9.644 -1.5893  0.3984 -2.0422
 6560SOL    HW231140   3.118   3.542   9.608  0.3522 -0.1554 -0.3229
 6561SOL     OW31141   1.835   4.232  17.030 -0.1617  0.0415  0.1435
 6561SOL    HW131142   1.868   4.247  16.942  1.1415 -0.2898  0.5806
 6561SOL    HW231143   1.785   4.152  17.015  0.3922 -0.4689  0.9975
 6562SOL     OW31144   4.010   1.342  14.389 -0.7068  0.2319  0.3341
 6562SOL    HW131145   4.063   1.340  14.309 -1.7244  3.2378 -0.4116
 6562SOL    HW231146   4.016   1.430  14.427 -2.0870  0.2799  0.4425
 6563SOL     OW31147   2.386   1.247   5.890  0.3128 -0.3285  0.2140
 6563SOL    HW131148   2.292   1.231   5.895  0.5273 -1.7342 -0.2148
 6563SOL    HW231149   2.415   1.185   5.956  1.4554  1.0780  1.0157
 6564SOL     OW31150   2.288   3.496  10.084  0.2349 -0.5364 -0.1963
 6564SOL    HW131151   2.314   3.569  10.028  0.7417  0.3828  1.2252
 6564SOL    HW231152   2.317   3.416  10.042  0.5101 -1.2607  1.3520
 6565SOL     OW31153   3.275   2.983  12.001 -0.0940 -0.2649  0.0262
 6565SOL    HW131154   3.244   2.958  12.088 -0.2085 -1.0082 -0.2275
 6565SOL    HW231155   3.356   2.933  11.994 -0.8515 -1.7215  1.8572
 6566SOL     OW31156   1.319   3.763  11.588  0.1478  0.1331  0.2718
 6566SOL    HW131157   1.374   3.837  11.562  0.3413 -0.8101 -2.0173
 6566SOL    HW231158   1.356   3.689  11.539 -0.4502 -0.8404  1.3112
 6567SOL     OW31159   0.455   0.053   5.362 -0.0642 -0.5247 -0.5728
 6567SOL    HW131160   0.367   0.055   5.399  0.5159 -1.1358  0.8316
 6567SOL    HW231161   0.478   0.143   5.385 -0.5756  0.0108 -2.1441
 6568SOL     OW31162   4.293   2.337   5.033  0.5666  0.1323 -0.6425
 6568SOL    HW131163   4.302   2.338   4.938 -2.4043 -0.0915 -0.9445
 6568SOL    HW231164   4.214   2.391   5.041 -0.0074 -0.6991 -0.6209
 6569SOL     OW31165   0.633   2.615   7.277  0.1655  0.0175  0.1664
 6569SOL    HW131166   0.721   2.584   7.258 -0.7621 -1.7701 -1.2912
 6569SOL    HW231167   0.588   2.531   7.265 -1.4401  1.0611 -1.1927
 6570SOL     OW31168   3.126   1.724   1.836 -0.4529 -0.0682  0.0400
 6570SOL    HW131169   3.065   1.729   1.762 -1.5526  0.1045  0.9450
 6570SOL    HW231170   3.156   1.815   1.840 -1.1381  0.1159  0.9394
 6571SOL     OW31171   3.514   3.620   7.398  0.4089  0.3117 -0.6130
 6571SOL    HW131172   3.501   3.715   7.393  0.6035  0.4675  1.8769
 6571SOL    HW231173   3.548   3.619   7.487 -0.6466  1.7022 -0.1938
 6572SOL     OW31174   1.807   2.253  13.451  0.1121  0.3065 -0.5136
 6572SOL    HW131175   1.806   2.256  13.355  0.8089  0.6178 -0.5043
 6572SOL    HW231176   1.764   2.332  13.482  0.1699  0.7108 -1.4465
 6573SOL     OW31177   1.740   2.336   3.958  0.1628  0.6418 -0.1905
 6573SOL    HW131178   1.657   2.325   4.006  0.5354  2.9039  0.9492
 6573SOL    HW231179   1.735   2.429   3.935  1.3764  0.5754 -0.7217
 6574SOL     OW31180   1.075   2.331   4.601 -0.0000  0.4513 -0.2457
 6574SOL    HW131181   1.078   2.329   4.505  1.0852  2.8588 -0.2476
 6574SOL    HW231182   0.982   2.327   4.623  0.2727 -0.8822  0.6507
 6575SOL     OW31183   1.588   0.635  15.657 -0.0055  0.0410  0.0867
 6575SOL    HW131184   1.617   0.630  15.748  0.2843  1.2288  0.0602
 6575SOL    HW231185   1.633   0.717  15.635 -2.5766  1.0050 -1.5749
 6576SOL     OW31186   2.381   1.809   1.597 -0.1762  0.1777  0.1159
 6576SOL    HW131187   2.381   1.794   1.503 -0.2261 -0.0048  0.1447
 6576SOL    HW231188   2.431   1.734   1.628  1.5184  0.3840 -2.1719
 6577SOL     OW31189   3.281   0.289  13.433  0.2132 -0.2331  0.1785
 6577SOL    HW131190   3.304   0.221  13.370  1.3040  0.9429 -0.6855
 6577SOL    HW231191   3.361   0.306  13.482 -1.0093  0.7426  1.8502
 6578SOL     OW31192   0.971   3.948   8.129  0.1322 -0.2615  0.4374
 6578SOL    HW131193   0.970   4.043   8.114 -0.3099 -0.5800 -1.5373
 6578SOL    HW231194   0.928   3.917   8.049  0.4775  0.2308  0.0619
 6579SOL     OW31195   3.582   2.650   4.723  0.0116  0.1440 -0.1355
 6579SOL    HW131196   3.674   2.675   4.714 -0.3681  1.5463 -0.1347
 6579SOL    HW231197   3.553   2.622   4.637  1.3477 -0.9757 -0.2206
 6580SOL     OW31198   4.355   1.370   8.775 -0.6125  0.3719  0.0883
 6580SOL    HW131199   4.416   1.443   8.787  0.1863 -0.3477  0.3440
 6580SOL    HW231200   4.271   1.409   8.797 -0.9932 -2.6324  3.9320
 6581SOL     OW31201   2.291   2.657   1.487 -0.3650  0.6840 -0.3371
 6581SOL    HW131202   2.297   2.734   1.543  1.1733  0.8369 -0.7213
 6581SOL    HW231203   2.209   2.619   1.520 -0.1168 -0.6635 -1.3070
 6582SOL     OW31204   1.210   3.710   6.422  0.1059  0.1658 -0.8232
 6582SOL    HW131205   1.156   3.751   6.355 -2.2846 -0.8481  0.4594
 6582SOL    HW231206   1.225   3.624   6.383  0.4158 -1.1537  2.1902
 6583SOL     OW31207   4.464   1.367  17.387 -0.0132  0.6216  0.5033
 6583SOL    HW131208   4.524   1.327  17.449 -0.8403  0.2195  1.0501
 6583SOL    HW231209   4.419   1.286  17.365  1.1743  0.0602  0.1529
 6584SOL     OW31210   3.038   3.857   9.224  0.0049  0.6586 -0.0775
 6584SOL    HW131211   3.115   3.913   9.237  1.9239 -1.8291 -0.5474
 6584SOL    HW231212   2.988   3.884   9.300 -0.2306 -0.0019  0.0024
 6585SOL     OW31213   3.905   1.589   1.513 -0.1281 -0.1181 -0.0498
 6585SOL    HW131214   3.912   1.607   1.420  1.1622 -3.5749 -0.6078
 6585SOL    HW231215   3.927   1.674   1.551  1.4609  0.6045 -2.6086
 6586SOL     OW31216   4.414   1.259  12.581 -0.7007  0.1627 -0.2989
 6586SOL    HW131217   4.420   1.233  12.673  2.2105  1.6142 -0.0927
 6586SOL    HW231218   4.357   1.335  12.582 -1.1985 -0.2457  2.2261
 6587SOL     OW31219   4.034   0.320  12.784  0.4720 -0.0460 -0.1255
 6587SOL    HW131220   3.962   0.273  12.742  0.4149 -2.6524  2.8228
 6587SOL    HW231221   4.062   0.371  12.708  2.3421  0.5872  0.9761
 6588SOL     OW31222   2.519   0.821  14.024  0.5434 -0.1114 -0.0394
 6588SOL    HW131223   2.474   0.842  13.943  3.3948 -1.3822 -1.9453
 6588SOL    HW231224   2.466   0.877  14.081 -1.7161 -0.5901 -1.6752
 6589SOL     OW31225   2.873   2.178   2.388  0.1757  0.1081 -0.3516
 6589SOL    HW131226   2.916   2.112   2.334 -0.3640 -0.2048 -0.4001
 6589SOL    HW231227   2.869   2.254   2.330  1.5748  0.2406 -0.2847
 6590SOL     OW31228   3.272   4.642   9.459 -0.0744 -0.1932 -0.0675
 6590SOL    HW131229   3.191   4.593   9.473 -1.1724  2.1728  1.7446
 6590SOL    HW231230   3.288   4.687   9.542 -3.0007 -0.7105  0.7429
 6591SOL     OW31231   1.814   2.520   8.007 -0.1045 -0.3085  0.3057
 6591SOL    HW131232   1.837   2.604   8.045  0.8202 -0.7173  0.6508
 6591SOL    HW231233   1.839   2.529   7.915  0.5509 -0.6946  0.4428
 6592SOL     OW31234   3.334   4.699   2.773 -0.4323  0.2636 -0.7712
 6592SOL    HW131235   3.281   4.625   2.744  0.1621 -0.1573 -0.7937
 6592SOL    HW231236   3.335   4.686   2.867  1.7714  1.5359 -0.6307
 6593SOL     OW31237   2.241   1.326   1.010  0.0056 -0.5424  0.5739
 6593SOL    HW131238   2.273   1.242   1.045  0.4505 -0.4128  0.4775
 6593SOL    HW231239   2.150   1.310   1.035 -0.0121 -0.9187  0.2771
 6594SOL     OW31240   4.496   1.826   9.664  0.1889  0.5600  0.1961
 6594SOL    HW131241   4.430   1.762   9.637  0.2930 -0.1038  1.4949
 6594SOL    HW231242   4.441   1.876   9.724 -0.0941  1.0807 -0.5077
 6595SOL     OW31243   2.635   1.483   3.862 -0.3300 -0.3881  0.2230
 6595SOL    HW131244   2.622   1.545   3.790 -0.5207  0.8123  1.2699
 6595SOL    HW231245   2.582   1.407   3.840  1.2166 -1.6670  0.9336
 6596SOL     OW31246   4.058   1.557  11.853 -0.2490  0.0939  0.2580
 6596SOL    HW131247   4.038   1.501  11.777 -0.3486 -1.5499  1.5063
 6596SOL    HW231248   4.017   1.641  11.833 -0.4794 -0.3731 -1.2580
 6597SOL     OW31249   1.036   3.304  17.330 -0.1455 -0.1643  0.4114
 6597SOL    HW131250   1.058   3.212  17.342 -1.8740 -0.7353 -0.9168
 6597SOL    HW231251   1.075   3.329  17.246 -3.3043  1.8951 -0.4402
 6598SOL     OW31252   1.743   0.810   2.892 -0.1832  0.0812  0.1515
 6598SOL    HW131253   1.730   0.767   2.976 -2.2044  2.3551  1.0008
 6598SOL    HW231254   1.670   0.871   2.901 -1.0038 -1.3574  3.3714
 6599SOL     OW31255   1.234   0.312   3.795 -0.2341  0.2050 -0.1720
 6599SOL    HW131256   1.169   0.286   3.730  1.4141  1.5895 -2.3387
 6599SOL    HW231257   1.204   0.248   3.861 -0.8079  1.0676  0.4038
 6600SOL     OW31258   0.826   4.265   2.552  0.3276  0.0226  0.6245
 6600SOL    HW131259   0.829   4.358   2.577 -0.9394  0.5235 -1.1194
 6600SOL    HW231260   0.882   4.232   2.622 -1.0798  0.9250  2.1734
 6601SOL     OW31261   4.469   4.440   3.345 -0.1376  0.3899  0.1557
 6601SOL    HW131262   4.468   4.446   3.249 -0.7026  0.6670  0.1788
 6601SOL    HW231263   4.381   4.408   3.365 -0.9969  2.1292 -0.7838
 6602SOL     OW31264   1.444   2.755   5.511  0.1466 -0.1107 -0.2845
 6602SOL    HW131265   1.383   2.820   5.548 -0.3845 -2.9157  3.8017
 6602SOL    HW231266   1.526   2.804   5.503 -0.2646  0.4282 -1.2039
 6603SOL     OW31267   2.147   2.585   7.424 -0.5490 -0.3388  0.0179
 6603SOL    HW131268   2.084   2.534   7.372  0.9774 -1.7242 -0.4553
 6603SOL    HW231269   2.228   2.554   7.385 -0.2417  2.1890 -1.3672
 6604SOL     OW31270   1.653   0.888   9.683 -0.5238  0.2359 -0.1839
 6604SOL    HW131271   1.696   0.967   9.651 -2.4027  1.4078  0.1818
 6604SOL    HW231272   1.592   0.935   9.740 -1.2987 -2.5821  1.3597
 6605SOL     OW31273   1.900   1.678   8.073  0.2978  0.5032  0.3429
 6605SOL    HW131274   1.901   1.606   8.009  2.7884 -0.1040  1.0877
 6605SOL    HW231275   1.813   1.679   8.113 -0.0937  0.5186 -0.4945
 6606SOL     OW31276   4.025   0.220   5.144 -0.1642  0.0706 -0.0478
 6606SOL    HW131277   4.109   0.219   5.098 -0.3047 -0.2398 -0.2970
 6606SOL    HW231278   4.033   0.306   5.184  1.3033  0.5968 -1.4839
 6607SOL     OW31279   2.232   2.748   3.896  0.0106 -0.4432 -0.1386
 6607SOL    HW131280   2.150   2.747   3.945 -0.0071  1.0292 -0.1378
 6607SOL    HW231281   2.279   2.676   3.938  1.3435  1.9346  2.5048
 6608SOL     OW31282   1.651   3.319   9.492  0.4814 -0.5509  0.1223
 6608SOL    HW131283   1.587   3.383   9.461  1.9668  0.2770 -1.2618
 6608SOL    HW231284   1.726   3.372   9.517  0.6999 -0.7709 -0.0658
 6609SOL     OW31285   3.249   3.289   6.090  0.4130 -0.2491  0.5709
 6609SOL    HW131286   3.276   3.380   6.104 -0.8864  0.0474  1.1740
 6609SOL    HW231287   3.299   3.273   6.010  0.6509  0.0820  0.6543
 6610SOL     OW31288   2.722   3.006  10.781 -0.5239  0.0002 -0.0283
 6610SOL    HW131289   2.692   2.917  10.799 -2.3641  0.2703 -1.8245
 6610SOL    HW231290   2.816   2.990  10.778 -0.0598  2.6747  0.4217
 6611SOL     OW31291   4.123   1.740   1.363  0.0847  0.4860 -0.1950
 6611SOL    HW131292   4.184   1.739   1.289 -0.2447  3.8720 -0.5329
 6611SOL    HW231293   4.047   1.786   1.326  0.2992  0.9288 -0.0863
 6612SOL     OW31294   4.280   3.620   8.392 -0.1347 -0.0561  0.4230
 6612SOL    HW131295   4.316   3.603   8.480 -1.1302  1.0978  1.0517
 6612SOL    HW231296   4.203   3.564   8.385 -1.1353  1.5699 -1.3914
 6613SOL     OW31297   4.151   1.414  17.127 -0.1054 -0.0567  0.2419
 6613SOL    HW131298   4.059   1.430  17.149 -1.1863 -3.5567 -1.5894
 6613SOL    HW231299   4.146   1.342  17.063  2.4043 -0.9002  0.9909
 6614SOL     OW31300   0.420   1.639   8.652 -0.3249 -0.6680 -0.1601
 6614SOL    HW131301   0.415   1.720   8.601 -0.6682 -0.0770  0.8061
 6614SOL    HW231302   0.510   1.610   8.637 -0.0399  1.1060 -1.8995
 6615SOL     OW31303   0.435   0.971   0.486 -0.4182 -0.1857  0.8783
 6615SOL    HW131304   0.369   0.952   0.552 -1.0841 -1.4776 -0.1477
 6615SOL    HW231305   0.497   0.899   0.500 -0.4272 -0.4119 -0.2467
 6616SOL     OW31306   2.046   0.202   9.549 -0.3188 -0.3939 -0.0820
 6616SOL    HW131307   1.960   0.164   9.567  0.0205 -0.0678  2.1953
 6616SOL    HW231308   2.020   0.293   9.534 -1.0197 -0.8102 -1.4485
 6617SOL     OW31309   2.584   4.118  14.977  0.1447 -0.2123 -0.4174
 6617SOL    HW131310   2.640   4.043  14.956 -0.6060 -0.6371 -0.9270
 6617SOL    HW231311   2.514   4.096  14.914  0.0009  0.0214 -0.3389
 6618SOL     OW31312   4.036   2.308   3.999 -0.1560  0.5954  0.0403
 6618SOL    HW131313   4.081   2.235   3.956  1.6573  1.6504  0.1599
 6618SOL    HW231314   3.952   2.263   4.003  0.6874 -0.9477  0.4428
 6619SOL     OW31315   3.523   2.492   1.641 -0.1251 -0.6480 -0.3007
 6619SOL    HW131316   3.571   2.434   1.700 -1.3023  0.3368  1.6250
 6619SOL    HW231317   3.464   2.429   1.600 -0.5000 -1.7141  1.9014
 6620SOL     OW31318   2.922   1.984   7.525  0.0845 -0.1514  0.5076
 6620SOL    HW131319   2.995   1.936   7.562 -0.6349 -1.6506 -0.0190
 6620SOL    HW231320   2.910   1.951   7.436 -1.0020 -1.6181  1.2042
 6621SOL     OW31321   3.967   1.354   7.793  0.2208  0.3566  0.4431
 6621SOL    HW131322   3.891   1.299   7.777  0.8682  0.0813 -1.7086
 6621SOL    HW231323   3.942   1.444   7.770  0.9158  0.3644 -0.3051
 6622SOL     OW31324   2.254   4.627  15.393  0.3725 -0.2463 -0.5638
 6622SOL    HW131325   2.167   4.589  15.411  0.7400 -0.8957 -0.1521
 6622SOL    HW231326   2.253   4.711  15.439  0.7828  0.5824 -2.0951
 6623SOL     OW31327   0.975   0.856   8.288 -0.2231  0.5763  0.1983
 6623SOL    HW131328   0.962   0.772   8.333 -2.7127  0.8398 -0.0312
 6623SOL    HW231329   1.012   0.917   8.351 -1.1436  0.3245  0.9847
 6624SOL     OW31330   3.079   3.480   5.407  0.2702  0.4179  0.7458
 6624SOL    HW131331   3.168   3.515   5.403  0.3477 -0.1476 -2.1385
 6624SOL    HW231332   3.027   3.545   5.454  0.2347  0.2078  0.9969
 6625SOL     OW31333   3.471   3.784  12.825  0.8891 -0.4258 -0.0488
 6625SOL    HW131334   3.423   3.722  12.880  0.5882 -1.2254 -1.2027
 6625SOL    HW231335   3.408   3.789  12.753  0.5702 -1.6018  0.1454
 6626SOL     OW31336   2.405   0.462   3.094  0.0675 -0.6586  0.0070
 6626SOL    HW131337   2.473   0.435   3.033 -1.2469 -0.1862 -1.6713
 6626SOL    HW231338   2.444   0.438   3.178  0.7644 -1.4348 -0.5450
 6627SOL     OW31339   3.282   4.100   5.404  0.0792  0.3657  0.0775
 6627SOL    HW131340   3.229   4.180   5.411  2.3719  1.9959 -1.4948
 6627SOL    HW231341   3.245   4.037   5.466  0.4226 -2.4712 -2.6365
 6628SOL     OW31342   3.582   4.245   8.133 -0.0423 -0.7094 -0.1679
 6628SOL    HW131343   3.550   4.169   8.181  0.1928  0.7414  2.2653
 6628SOL    HW231344   3.673   4.222   8.114  0.0791  1.4135 -2.2346
 6629SOL     OW31345   0.576   3.995  16.335 -0.1763  0.4932  0.0404
 6629SOL    HW131346   0.641   4.065  16.336  0.2236  0.1113  0.6858
 6629SOL    HW231347   0.614   3.940  16.404  0.2236 -0.2311 -0.7648
 6630SOL     OW31348   0.243   0.587   6.484  0.1012 -0.3418 -0.4564
 6630SOL    HW131349   0.279   0.509   6.524  1.2793 -1.4205 -3.6119
 6630SOL    HW231350   0.296   0.654   6.526 -0.9415 -0.3737  0.9041
 6631SOL     OW31351   1.439   4.293   1.960  0.0337  0.2325  0.2655
 6631SOL    HW131352   1.466   4.250   1.879  2.3159  2.5677 -0.2200
 6631SOL    HW231353   1.354   4.252   1.978  0.1430 -0.9924 -2.0731
 6632SOL     OW31354   2.504   0.452   5.940  0.3683 -0.0173 -0.0039
 6632SOL    HW131355   2.525   0.487   6.027 -0.2877  1.9655 -0.6430
 6632SOL    HW231356   2.412   0.434   5.960  0.2682 -1.2723 -1.6328
 6633SOL     OW31357   3.699   3.654   9.572 -0.4826 -0.5340 -0.4065
 6633SOL    HW131358   3.603   3.646   9.575 -0.3926 -0.4670  2.8564
 6633SOL    HW231359   3.705   3.749   9.558 -1.8396 -0.4682 -0.5631
 6634SOL     OW31360   0.502   3.136  11.233 -0.1547 -0.3585 -0.2269
 6634SOL    HW131361   0.559   3.061  11.253 -0.8889  0.1494  3.7850
 6634SOL    HW231362   0.423   3.095  11.197  0.0614 -0.1503 -0.9482
 6635SOL     OW31363   3.935   0.798   4.184 -0.0026 -0.8892 -0.5102
 6635SOL    HW131364   3.923   0.882   4.228  1.1867 -1.1037  0.2390
 6635SOL    HW231365   3.862   0.743   4.212 -0.9266 -0.1444 -1.5281
 6636SOL     OW31366   1.450   0.720   0.080 -0.1545  0.2876  0.4032
 6636SOL    HW131367   1.538   0.703   0.114 -0.5220  1.0584  1.7430
 6636SOL    HW231368   1.402   0.661   0.138 -0.6517 -0.3944 -0.7178
 6637SOL     OW31369   0.114   0.102   4.745 -0.1775 -0.2501  0.5675
 6637SOL    HW131370   0.119   0.180   4.689  1.1989  0.9438  2.3363
 6637SOL    HW231371   0.068   0.038   4.691  1.8455 -0.1918 -1.2311
 6638SOL     OW31372   0.670   0.454   8.876 -0.0491  0.2110 -0.4532
 6638SOL    HW131373   0.658   0.468   8.782  1.5945  0.0841 -0.6879
 6638SOL    HW231374   0.626   0.371   8.892 -1.5628  1.4207  1.6123
 6639SOL     OW31375   2.191   3.103   7.674 -0.4570 -0.7144 -0.2873
 6639SOL    HW131376   2.125   3.124   7.608 -1.8141 -1.1525  0.9230
 6639SOL    HW231377   2.142   3.027   7.705 -1.0191  0.5021  1.8259
 6640SOL     OW31378   1.617   1.474  17.180 -0.3661 -0.1461 -0.1588
 6640SOL    HW131379   1.651   1.386  17.165  2.0018  0.8982 -0.8384
 6640SOL    HW231380   1.639   1.518  17.098  0.0048  0.3606  0.2150
 6641SOL     OW31381   3.955   4.417   2.821  0.1866  0.4528 -0.1172
 6641SOL    HW131382   4.034   4.416   2.766 -0.8101 -2.3376 -1.5087
 6641SOL    HW231383   3.891   4.447   2.757 -0.7047  1.2193  1.1182
 6642SOL     OW31384   3.736   0.469  11.412 -0.2328 -0.6118  0.1135
 6642SOL    HW131385   3.694   0.421  11.341 -1.0202  0.6220 -0.2436
 6642SOL    HW231386   3.811   0.516  11.375 -0.3152 -1.7547 -1.4981
 6643SOL     OW31387   2.745   0.741   8.671 -0.1830 -0.3630 -0.6857
 6643SOL    HW131388   2.759   0.817   8.727 -1.4188 -0.5811 -0.0955
 6643SOL    HW231389   2.665   0.766   8.625 -1.1417 -1.1256  0.5750
 6644SOL     OW31390   0.455   0.193   1.941  0.0227 -0.7643  0.1754
 6644SOL    HW131391   0.500   0.113   1.913  1.0800 -0.2736  0.4751
 6644SOL    HW231392   0.514   0.263   1.914 -2.0988  1.2719  0.8372
 6645SOL     OW31393   1.510   3.827   8.299  0.3662  0.5365  0.1227
 6645SOL    HW131394   1.497   3.780   8.216  2.1663 -0.2347  0.2854
 6645SOL    HW231395   1.590   3.791   8.336  0.4644  0.9117  0.2678
 6646SOL     OW31396   0.037   4.338  12.881 -0.0788 -0.3266 -0.1656
 6646SOL    HW131397   0.111   4.311  12.825 -0.1792  2.0124 -1.4267
 6646SOL    HW231398   0.042   4.258  12.933  0.3368 -0.1378  0.0904
 6647SOL     OW31399   0.166   3.728  12.051 -0.4868 -0.6678 -0.2429
 6647SOL    HW131400   0.127   3.708  12.136 -2.0956 -0.9335 -1.0450
 6647SOL    HW231401   0.144   3.647  12.005  1.1699 -0.7169 -0.9529
 6648SOL     OW31402   0.758   0.296   5.964 -0.3906 -0.0982 -0.0681
 6648SOL    HW131403   0.694   0.226   5.949 -0.4247  0.4890 -2.6066
 6648SOL    HW231404   0.839   0.259   5.930 -0.0368  1.4224 -0.8443
 6649SOL     OW31405   1.340   4.141   0.195  0.3324 -0.0720 -0.7011
 6649SOL    HW131406   1.370   4.204   0.261 -0.0799 -1.9656  1.2857
 6649SOL    HW231407   1.246   4.157   0.200  0.3060  0.1543 -2.0766
 6650SOL     OW31408   1.927   2.787  11.152 -0.1571 -0.7185  0.1167
 6650SOL    HW131409   1.965   2.708  11.114  1.0895  0.8301 -1.8657
 6650SOL    HW231410   1.852   2.790  11.093  2.6247  0.7150 -3.3789
 6651SOL     OW31411   1.460   0.827   8.751 -0.3172  0.6019  0.1045
 6651SOL    HW131412   1.466   0.853   8.843 -1.0414 -0.2000  0.3789
 6651SOL    HW231413   1.375   0.788   8.771 -1.0989  1.5652 -1.3765
 6652SOL     OW31414   3.410   0.687  12.747 -0.1499  0.4022 -0.0004
 6652SOL    HW131415   3.454   0.608  12.715 -0.7572  0.9202 -2.1081
 6652SOL    HW231416   3.474   0.755  12.730 -0.1965  0.4986  0.2099
 6653SOL     OW31417   2.770   1.645   9.531  0.2561 -0.4910 -0.3449
 6653SOL    HW131418   2.800   1.708   9.465  1.6334  1.7835  2.4752
 6653SOL    HW231419   2.789   1.562   9.488  0.1412 -0.2671 -0.8325
 6654SOL     OW31420   4.237   4.650  15.687  0.1536  0.3703  0.5282
 6654SOL    HW131421   4.276   4.707  15.621 -1.8195  3.9731  2.4779
 6654SOL    HW231422   4.262   4.701  15.764  2.6653  1.3430 -0.9553
 6655SOL     OW31423   0.189   2.641  16.819  0.1762  0.1596  0.0698
 6655SOL    HW131424   0.123   2.595  16.871 -0.1566 -1.1946 -1.5259
 6655SOL    HW231425   0.251   2.568  16.815 -2.4683 -2.0370 -0.9363
 6656SOL     OW31426   1.157   4.152   6.527  0.6894  0.3331 -0.3412
 6656SOL    HW131427   1.174   4.168   6.435  1.7445 -0.6218 -0.3137
 6656SOL    HW231428   1.101   4.074   6.528  0.3203  0.6106  1.8451
 6657SOL     OW31429   3.149   4.607   4.871 -0.4003 -0.4970  0.4749
 6657SOL    HW131430   3.236   4.586   4.837  1.0081  1.4460  2.9110
 6657SOL    HW231431   3.130   4.682   4.816 -0.4265 -1.7463 -1.2298
 6658SOL     OW31432   2.743   1.605   1.206 -0.4241  0.3717  0.0174
 6658SOL    HW131433   2.769   1.584   1.296 -0.2009  0.3897 -0.0440
 6658SOL    HW231434   2.826   1.646   1.182 -0.0176 -0.4058  0.1070
 6659SOL     OW31435   2.577   4.655   1.893 -0.0434  0.0464 -0.4027
 6659SOL    HW131436   2.645   4.604   1.936  1.1867  1.1993 -0.9627
 6659SOL    HW231437   2.520   4.583   1.866  0.9740 -0.8348 -0.2121
 6660SOL     OW31438   1.736   3.287   8.652 -0.0422  0.5770  0.3447
 6660SOL    HW131439   1.730   3.382   8.659 -0.1612  0.6826 -1.3769
 6660SOL    HW231440   1.649   3.262   8.684 -0.4604  0.9317 -0.5409
 6661SOL     OW31441   4.469   0.341  13.654  0.1243 -0.1736  0.5793
 6661SOL    HW131442   4.395   0.314  13.708 -0.8202  0.2039 -0.5126
 6661SOL    HW231443   4.529   0.275  13.687  1.5122  1.4186  1.2445
 6662SOL     OW31444   0.223   1.626   0.070 -0.6301 -0.0410  0.2182
 6662SOL    HW131445   0.237   1.553   0.011 -1.1135  0.8793 -1.0252
 6662SOL    HW231446   0.318   1.635   0.081 -0.5438  0.4350 -0.9668
 6663SOL     OW31447   3.724   0.419   5.406  0.5883  0.2329  0.3220
 6663SOL    HW131448   3.773   0.443   5.327 -0.9781  1.6909 -0.1939
 6663SOL    HW231449   3.637   0.450   5.381  0.4910  0.0205  0.3957
 6664SOL     OW31450   4.264   2.859  15.934  0.1190  0.2212  0.1059
 6664SOL    HW131451   4.195   2.920  15.959  1.4189  0.8068  2.2897
 6664SOL    HW231452   4.211   2.797  15.883  0.7488  1.0289 -1.5239
 6665SOL     OW31453   0.562   1.722   9.566  0.0942 -0.1582 -0.6170
 6665SOL    HW131454   0.554   1.733   9.660 -0.4120  0.7246 -0.7624
 6665SOL    HW231455   0.576   1.815   9.548 -0.2613  0.4067  2.1160
 6666SOL     OW31456   2.485   2.358   9.656 -0.0737  0.1399  0.4603
 6666SOL    HW131457   2.454   2.422   9.721 -0.2646  0.9982 -0.4792
 6666SOL    HW231458   2.405   2.332   9.611  0.6453 -0.3639 -0.5122
 6667SOL     OW31459   2.504   0.922  10.118  0.4185 -0.4102 -0.1516
 6667SOL    HW131460   2.429   0.887  10.070 -0.4101  0.9064  0.1747
 6667SOL    HW231461   2.561   0.846  10.102  0.4493 -0.5555  0.6520
 6668SOL     OW31462   0.419   4.326   4.743 -0.2736  0.0545 -0.2809
 6668SOL    HW131463   0.324   4.312   4.749 -0.0367 -1.8790 -1.0639
 6668SOL    HW231464   0.440   4.232   4.739  1.6609  0.4472  0.8698
 6669SOL     OW31465   2.304   2.456   4.926 -0.0445 -0.1995  0.2516
 6669SOL    HW131466   2.238   2.502   4.978  0.0878 -1.2049  1.2990
 6669SOL    HW231467   2.374   2.521   4.913 -0.8439  0.6082 -0.0256
 6670SOL     OW31468   1.164   4.250   7.067 -0.0676  0.6669 -0.9036
 6670SOL    HW131469   1.132   4.234   6.978  1.8038 -0.1824 -1.4239
 6670SOL    HW231470   1.244   4.199   7.069 -0.5138  0.0429  0.8139
 6671SOL     OW31471   0.219   0.919   3.859  0.2763 -0.1075 -0.0129
 6671SOL    HW131472   0.261   0.969   3.928 -0.0263 -0.4175  0.3935
 6671SOL    HW231473   0.282   0.943   3.791  0.2558 -0.7811 -0.2775
 6672SOL     OW31474   0.456   3.167   8.524 -0.0185 -0.3159  0.2194
 6672SOL    HW131475   0.465   3.229   8.596 -0.1096 -1.4166  1.1793
 6672SOL    HW231476   0.497   3.227   8.462  1.4104 -0.1764  1.2873
 6673SOL     OW31477   3.805   2.078   9.891  0.2291  0.3256  0.4371
 6673SOL    HW131478   3.760   2.020   9.953 -0.4628  0.2246 -0.1619
 6673SOL    HW231479   3.896   2.052   9.906  0.7525 -0.0811 -3.5985
 6674SOL     OW31480   1.670   3.443   3.661 -1.0819  0.6254  0.3550
 6674SOL    HW131481   1.732   3.384   3.704  0.2385  1.2838 -0.6710
 6674SOL    HW231482   1.692   3.420   3.571  1.4752 -0.4527  1.2430
 6675SOL     OW31483   3.303   3.468   9.356 -0.3916  0.1270  0.3661
 6675SOL    HW131484   3.356   3.533   9.403  0.2908 -1.7646  2.1969
 6675SOL    HW231485   3.370   3.400   9.356 -0.5253  0.0024 -0.8586
 6676SOL     OW31486   4.573   2.582   6.109  0.1489  0.1768  0.1164
 6676SOL    HW131487   4.521   2.643   6.056  3.1874  0.7946 -2.1586
 6676SOL    HW231488   4.510   2.546   6.172 -2.9723  1.0735 -2.4513
 6677SOL     OW31489   4.282   3.766  17.174 -0.7828  0.1410  0.2241
 6677SOL    HW131490   4.313   3.766  17.265 -0.1145 -1.9197 -0.0070
 6677SOL    HW231491   4.233   3.683  17.170  0.2302 -0.5471  2.1379
 6678SOL     OW31492   1.277   2.671  17.307 -0.1970  0.0816 -0.4205
 6678SOL    HW131493   1.321   2.587  17.315 -1.4339 -0.5732 -0.5788
 6678SOL    HW231494   1.338   2.724  17.255  0.0117  0.2313 -0.0295
 6679SOL     OW31495   3.858   2.475   0.596 -0.2142 -0.1039 -0.6593
 6679SOL    HW131496   3.899   2.436   0.673  0.0956 -0.1072 -0.8243
 6679SOL    HW231497   3.870   2.406   0.531  1.2985  1.3101 -1.9308
 6680SOL     OW31498   1.598   1.918   3.384 -0.6504  0.0175  0.5210
 6680SOL    HW131499   1.543   1.868   3.444 -0.3666 -1.1612 -0.1950
 6680SOL    HW231500   1.573   1.892   3.295  1.9705  0.4667 -0.3644
 6681SOL     OW31501   0.236   1.508   8.500 -0.3108 -0.1033  0.0056
 6681SOL    HW131502   0.289   1.446   8.450 -1.8867 -0.6135 -1.0437
 6681SOL    HW231503   0.304   1.537   8.560 -1.1457  0.0495  0.8805
 6682SOL     OW31504   1.246   2.449   8.779 -0.2772 -0.2645 -0.8222
 6682SOL    HW131505   1.253   2.491   8.693  1.4542 -2.1006 -1.5799
 6682SOL    HW231506   1.335   2.416   8.791 -0.4044  0.1264  1.0803
 6683SOL     OW31507   3.736   1.174   0.224  0.2724 -0.2564  0.2932
 6683SOL    HW131508   3.765   1.092   0.186 -2.7174 -0.9920 -0.3937
 6683SOL    HW231509   3.659   1.185   0.168 -0.7495 -2.1719  1.3108
 6684SOL     OW31510   0.498   1.031   2.372 -0.1960  0.0503  0.8696
 6684SOL    HW131511   0.589   1.011   2.395 -0.0614  0.3537  0.5905
 6684SOL    HW231512   0.507   1.097   2.304 -0.0465 -1.3566 -0.4932
 6685SOL     OW31513   3.556   1.662  17.520 -0.0966  0.0470  0.3991
 6685SOL    HW131514   3.551   1.689  17.428 -1.6738  0.1235  0.5032
 6685SOL    HW231515   3.581   1.571  17.505 -0.5394 -0.2156  1.2508
 6686SOL     OW31516   2.202   2.363   4.684  0.1973 -0.4146  0.1920
 6686SOL    HW131517   2.219   2.371   4.778 -1.0098 -0.0906  0.3831
 6686SOL    HW231518   2.108   2.379   4.680  0.1545 -0.1294  2.2830
 6687SOL     OW31519   1.043   3.073   7.329 -0.2263  0.0474  0.1304
 6687SOL    HW131520   0.968   3.118   7.289 -1.3654 -2.7688 -0.9627
 6687SOL    HW231521   0.997   3.044   7.407  1.0437  0.0727  0.8866
 6688SOL     OW31522   4.675   1.830  16.480 -0.2569 -0.9243 -0.0656
 6688SOL    HW131523   4.691   1.884  16.403  0.5724 -0.4297  0.4420
 6688SOL    HW231524   0.041   1.789  16.482  0.3787  0.4094 -0.7284
 6689SOL     OW31525   3.113   2.575   1.352  0.2888 -0.0475 -0.2348
 6689SOL    HW131526   3.032   2.618   1.378 -0.8074 -2.1076 -0.2709
 6689SOL    HW231527   3.073   2.488   1.343  0.7108 -0.1289 -1.4142
 6690SOL     OW31528   1.325   1.596   7.010  0.2737  0.2649 -0.2381
 6690SOL    HW131529   1.280   1.664   6.960  1.1203 -0.1875 -1.6428
 6690SOL    HW231530   1.324   1.650   7.089  1.2501  0.9245 -0.6704
 6691SOL     OW31531   0.076   2.029  15.917  0.3579 -0.9111 -0.5420
 6691SOL    HW131532   0.149   2.064  15.866  0.6078  0.6897  0.9308
 6691SOL    HW231533   0.075   1.937  15.892  0.2141 -1.1243  0.2518
 6692SOL     OW31534   4.402   4.057   6.517 -0.5351 -0.5316  0.1230
 6692SOL    HW131535   4.420   4.150   6.504 -3.4056  0.0386  0.3843
 6692SOL    HW231536   4.462   4.029   6.587 -0.2527 -1.4460 -0.4916
 6693SOL     OW31537   2.096   0.589  10.310  0.2732 -0.3113  0.2162
 6693SOL    HW131538   2.111   0.589  10.216  0.4327  0.7095  0.2415
 6693SOL    HW231539   2.003   0.610  10.308  0.3624 -0.1355 -2.1429
 6694SOL     OW31540   0.313   1.329   4.347  0.3703  0.0210  0.0993
 6694SOL    HW131541   0.310   1.386   4.270  0.1121 -1.6806 -1.1489
 6694SOL    HW231542   0.231   1.352   4.390  0.1969 -1.7185  0.6981
 6695SOL     OW31543   1.678   3.228  15.799  0.0332  0.7225 -0.6059
 6695SOL    HW131544   1.663   3.302  15.858  0.0568 -0.1395  0.4962
 6695SOL    HW231545   1.603   3.170  15.814  0.3808 -0.5273 -3.7389
 6696SOL     OW31546   2.155   2.147   7.129 -0.1812 -0.1483  0.0289
 6696SOL    HW131547   2.247   2.122   7.142 -0.2225  0.2145  0.9968
 6696SOL    HW231548   2.112   2.063   7.146  0.3831 -0.6314 -0.9381
 6697SOL     OW31549   1.999   1.634   1.006  0.0737  0.3668  0.3258
 6697SOL    HW131550   1.927   1.684   1.045  0.5279 -0.6529  2.4389
 6697SOL    HW231551   1.978   1.549   1.044  2.2465 -0.4281 -0.3093
 6698SOL     OW31552   3.921   3.523   3.488  0.5230 -0.2990  0.7089
 6698SOL    HW131553   3.840   3.539   3.439  0.2790  1.5845  1.7011
 6698SOL    HW231554   3.974   3.586   3.438 -1.3024  0.0959 -0.7492
 6699SOL     OW31555   2.048   0.307  12.856 -0.1638 -0.0990  0.2734
 6699SOL    HW131556   1.994   0.285  12.780 -0.2734  1.6174 -0.1369
 6699SOL    HW231557   2.061   0.398  12.831 -3.4885  0.1648 -0.4097
 6700SOL     OW31558   0.755   0.677   2.359  0.2343  0.7172  0.5355
 6700SOL    HW131559   0.720   0.624   2.431  0.0821  0.0175 -0.0516
 6700SOL    HW231560   0.673   0.705   2.318  0.0344  0.3748  0.7013
 6701SOL     OW31561   3.809   0.053   7.489 -0.0167  0.4566  0.1895
 6701SOL    HW131562   3.770   0.049   7.576  1.1206  0.1303  0.6748
 6701SOL    HW231563   3.821   4.681   7.469 -1.2489  0.2943  0.1656
 6702SOL     OW31564   2.477   1.950   0.728  0.4893 -0.0382 -0.2962
 6702SOL    HW131565   2.484   1.855   0.721  1.1179  0.1525 -2.1297
 6702SOL    HW231566   2.397   1.961   0.780  0.7479 -0.4604  0.1890
 6703SOL     OW31567   4.632   2.851   7.883  0.8194 -0.1916 -0.1905
 6703SOL    HW131568   4.702   2.875   7.943  0.1358 -1.0109  0.9311
 6703SOL    HW231569   4.597   2.934   7.849  0.9699  0.2387  0.6996
 6704SOL     OW31570   0.408   2.515   4.786  0.5687  0.1675  0.2310
 6704SOL    HW131571   0.402   2.459   4.863 -0.4294 -0.4464 -0.2953
 6704SOL    HW231572   0.320   2.549   4.772  0.2318 -0.7850  0.0359
 6705SOL     OW31573   2.763   3.283   6.944  0.1572  0.7533 -0.5444
 6705SOL    HW131574   2.733   3.370   6.969 -2.0006 -0.2887  0.5285
 6705SOL    HW231575   2.705   3.231   7.000  0.3044 -0.1223 -1.2015
 6706SOL     OW31576   3.894   1.956   2.546 -0.1344 -0.2769  0.6016
 6706SOL    HW131577   3.896   2.049   2.521  0.1617  0.0842  1.9506
 6706SOL    HW231578   3.935   1.954   2.633 -1.5689 -3.2281  1.2013
 6707SOL     OW31579   0.634   3.900   0.945 -0.6153 -0.3830 -0.0672
 6707SOL    HW131580   0.578   3.880   0.871 -0.2406 -2.0870  0.1147
 6707SOL    HW231581   0.700   3.832   0.935 -1.1960 -0.6355 -2.1990
 6708SOL     OW31582   3.255   1.164   2.149 -0.2186  0.2816 -0.1903
 6708SOL    HW131583   3.278   1.075   2.125 -0.0936  0.3525 -0.3325
 6708SOL    HW231584   3.340   1.207   2.160 -1.3273  1.5117  3.7196
 6709SOL     OW31585   4.427   3.869  15.593 -0.2905 -0.1312  0.7481
 6709SOL    HW131586   4.421   3.825  15.678 -0.8440  0.8324  1.2214
 6709SOL    HW231587   4.497   3.929  15.617 -1.3656  2.0959 -1.6777
 6710SOL     OW31588   4.678   3.578   8.434  0.3160 -0.1140  0.2991
 6710SOL    HW131589   4.646   3.584   8.524  1.6903  0.0386  0.7821
 6710SOL    HW231590   0.050   3.590   8.455  0.7231 -2.0627 -0.3737
 6711SOL     OW31591   1.816   1.895   5.730 -0.2174 -0.4556  0.3352
 6711SOL    HW131592   1.877   1.878   5.802 -0.3559 -0.1796  0.5186
 6711SOL    HW231593   1.741   1.931   5.777  0.1331 -0.4156  0.8696
 6712SOL     OW31594   3.988   2.618  11.377  0.8094  0.7351 -0.4552
 6712SOL    HW131595   3.912   2.666  11.408 -0.1430 -0.2905 -1.2355
 6712SOL    HW231596   3.995   2.554  11.448  0.0527  0.5420 -0.5635
 6713SOL     OW31597   3.176   0.420   8.324  0.5064 -0.2226 -0.1807
 6713SOL    HW131598   3.109   0.465   8.272  1.7782  0.4843 -1.2139
 6713SOL    HW231599   3.194   0.482   8.395  1.7372  0.1061 -0.7799
 6714SOL     OW31600   2.571   2.707   4.713  0.1004 -0.3790  0.1454
 6714SOL    HW131601   2.516   2.643   4.669 -1.1634  1.0027 -0.3077
 6714SOL    HW231602   2.527   2.784   4.676  0.8404 -0.1241 -0.1936
 6715SOL     OW31603   0.770   2.798   4.306  0.7008  0.3853  0.3611
 6715SOL    HW131604   0.742   2.737   4.237  1.8557 -0.5110  0.6875
 6715SOL    HW231605   0.864   2.803   4.291  0.3383  1.5413 -1.6339
 6716SOL     OW31606   4.243   2.038  15.790 -0.0589 -0.0976  0.4864
 6716SOL    HW131607   4.231   2.051  15.696 -0.3716 -1.3974  0.3423
 6716SOL    HW231608   4.337   2.050  15.798  0.0721 -0.0420 -1.0888
 6717SOL     OW31609   4.138   0.176   5.701 -0.0914 -0.0775 -0.3187
 6717SOL    HW131610   4.059   0.229   5.689 -1.6389 -2.0340  1.1620
 6717SOL    HW231611   4.176   0.223   5.776 -0.8639  1.4267 -0.8725
 6718SOL     OW31612   1.273   3.509  10.317  0.1489  0.3013 -0.4348
 6718SOL    HW131613   1.287   3.414  10.325  1.5474  0.3264 -2.3612
 6718SOL    HW231614   1.232   3.533  10.400 -0.8944 -0.0520 -0.8568
 6719SOL     OW31615   1.205   4.545   8.118  0.0871  0.3990 -0.3493
 6719SOL    HW131616   1.289   4.583   8.144  0.2899 -0.2361 -0.0801
 6719SOL    HW231617   1.224   4.463   8.073 -0.0536  1.0558 -1.6179
 6720SOL     OW31618   1.735   0.718   9.035 -0.3377 -0.3680  0.8799
 6720SOL    HW131619   1.749   0.809   9.011  0.4534 -0.7243 -0.0046
 6720SOL    HW231620   1.714   0.682   8.949  5.1273 -1.1224 -0.1025
 6721SOL     OW31621   0.183   2.667   6.753  0.4765  0.2712  0.2900
 6721SOL    HW131622   0.194   2.731   6.823  0.3742  0.0011  0.5515
 6721SOL    HW231623   0.089   2.670   6.739  0.6026 -0.3561 -0.7295
 6722SOL     OW31624   3.624   0.090  12.538 -0.4146 -0.2102  0.4076
 6722SOL    HW131625   3.538   0.130  12.555 -0.0518  1.0033 -0.6456
 6722SOL    HW231626   3.591   0.031  12.471  1.0633 -0.6124  0.0389
 6723SOL     OW31627   2.008   4.020   2.386  0.0818 -0.0263 -0.1379
 6723SOL    HW131628   1.996   4.110   2.357 -0.0830  0.0455  0.1546
 6723SOL    HW231629   1.997   4.025   2.481  0.9189  1.5505 -0.1204
 6724SOL     OW31630   1.433   0.973   3.683 -0.3902  0.2150 -0.4045
 6724SOL    HW131631   1.476   1.046   3.729  1.8660 -1.5242  0.2393
 6724SOL    HW231632   1.506   0.924   3.646 -0.6705 -0.0706 -0.5801
 6725SOL     OW31633   2.927   2.063   4.076  0.2511 -0.1025 -0.0841
 6725SOL    HW131634   2.914   2.094   4.166  2.0812  0.8363 -0.1479
 6725SOL    HW231635   2.929   1.969   4.092 -0.5666 -0.5203 -2.3928
 6726SOL     OW31636   1.067   2.618   0.621  0.4913  0.1981 -0.5370
 6726SOL    HW131637   1.045   2.677   0.549 -0.9280  1.3194  0.8187
 6726SOL    HW231638   1.088   2.674   0.696 -2.2388  1.1623 -0.4829
 6727SOL     OW31639   2.746   0.342  10.472  0.0004 -0.6588  0.3723
 6727SOL    HW131640   2.733   0.433  10.500  3.6616  0.2703 -0.9608
 6727SOL    HW231641   2.655   0.321  10.451 -0.0867 -0.6575  0.7422
 6728SOL     OW31642   4.237   0.574  16.518 -0.4992  0.3738  0.2722
 6728SOL    HW131643   4.277   0.592  16.433  0.0503 -1.9969  0.0257
 6728SOL    HW231644   4.290   0.612  16.588 -1.5342  2.5982 -0.1333
 6729SOL     OW31645   3.203   0.164   5.689  0.2871 -0.3722  0.0070
 6729SOL    HW131646   3.243   0.166   5.775 -1.5929  1.5517  0.8496
 6729SOL    HW231647   3.113   0.165   5.722 -0.7767 -1.7500 -2.8426
 6730SOL     OW31648   4.670   1.631   4.398 -0.3027 -0.0568 -0.2790
 6730SOL    HW131649   4.620   1.550   4.404 -2.5571  1.3104 -0.2494
 6730SOL    HW231650   4.599   1.694   4.415 -1.6438 -1.4874 -0.5778
 6731SOL     OW31651   4.469   3.981   4.447  0.1426  0.1773  0.5233
 6731SOL    HW131652   4.505   3.921   4.382 -1.3375 -0.5714  0.3929
 6731SOL    HW231653   4.451   3.920   4.519  0.0631 -1.5452 -0.9580
 6732SOL     OW31654   3.788   0.234   9.518  0.1417  0.6103 -0.5702
 6732SOL    HW131655   3.821   0.149   9.490  2.0394  0.9895  0.5534
 6732SOL    HW231656   3.716   0.229   9.454  0.9572 -2.0871 -1.2801
 6733SOL     OW31657   4.370   1.702   6.969  0.2109  0.4680  0.2823
 6733SOL    HW131658   4.430   1.735   7.036  2.3828  1.7327 -2.2641
 6733SOL    HW231659   4.424   1.632   6.933 -0.9814 -0.9680  1.2821
 6734SOL     OW31660   2.245   1.607   0.915  0.2177  0.2206  0.2934
 6734SOL    HW131661   2.238   1.524   0.962 -1.3492 -0.3930 -1.0466
 6734SOL    HW231662   2.172   1.656   0.952  2.4279  1.2541  3.3579
 6735SOL     OW31663   3.216   3.719   6.691 -0.3157  0.8699 -0.5159
 6735SOL    HW131664   3.283   3.720   6.622  0.5645  3.3036  0.3904
 6735SOL    HW231665   3.151   3.654   6.664  0.6093 -0.8129  1.2382
 6736SOL     OW31666   1.054   0.932  17.520  0.0141  0.0900  0.0744
 6736SOL    HW131667   1.090   0.854  17.561 -1.2017  0.2136  1.4103
 6736SOL    HW231668   1.107   0.997  17.567 -0.0696  1.1894 -1.3474
 6737SOL     OW31669   2.865   4.231   3.307 -0.0375 -0.0455 -0.3629
 6737SOL    HW131670   2.941   4.224   3.250  1.7505 -0.6302  2.0867
 6737SOL    HW231671   2.824   4.145   3.302  2.2739 -1.2902  2.1214
 6738SOL     OW31672   2.243   3.949   7.059  0.0400  0.3577 -0.3566
 6738SOL    HW131673   2.295   3.938   7.139 -1.0992 -1.6304  0.1267
 6738SOL    HW231674   2.157   3.965   7.099  0.3192  1.4718 -0.2178
 6739SOL     OW31675   4.096   0.056  11.716  0.2276 -0.2751  0.5423
 6739SOL    HW131676   4.138   0.126  11.767 -0.3957  0.1017  0.5358
 6739SOL    HW231677   4.008   0.091  11.709  0.2845 -0.3580 -0.6301
 6740SOL     OW31678   3.466   4.688   9.251 -0.3564  0.5335  0.3805
 6740SOL    HW131679   3.544   4.655   9.296 -0.6814  0.6311  1.0077
 6740SOL    HW231680   3.405   4.705   9.323  0.2898  2.7737  0.3944
 6741SOL     OW31681   1.925   3.028   6.586  0.1729  0.2369  0.5147
 6741SOL    HW131682   2.009   3.022   6.632 -0.2777  0.6676  1.3976
 6741SOL    HW231683   1.943   3.091   6.516 -2.0150 -0.7819 -0.9710
 6742SOL     OW31684   1.559   0.618   4.375  0.2781  0.0399  0.1843
 6742SOL    HW131685   1.591   0.685   4.436 -1.2863 -0.5618  1.6938
 6742SOL    HW231686   1.558   0.546   4.439 -0.1905  1.8131  2.1735
 6743SOL     OW31687   2.437   0.579   1.893  0.4298  0.3115  0.8398
 6743SOL    HW131688   2.355   0.541   1.859  0.8111 -0.4868  0.8058
 6743SOL    HW231689   2.439   0.529   1.975 -0.0452  0.4828  0.9599
 6744SOL     OW31690   0.871   4.130  16.700 -0.8409  0.1122  0.4413
 6744SOL    HW131691   0.942   4.161  16.756  0.6378 -3.2431  0.4420
 6744SOL    HW231692   0.869   4.199  16.634  1.2800 -1.4256 -1.2454
 6745SOL     OW31693   0.396   1.602  16.843 -0.3023  0.2659 -0.1243
 6745SOL    HW131694   0.361   1.563  16.924  0.5770  0.5801  0.4095
 6745SOL    HW231695   0.362   1.544  16.775  2.4364 -1.7296  0.2156
 6746SOL     OW31696   0.689   4.673   9.497  0.5296  0.0070 -0.5078
 6746SOL    HW131697   0.655   4.667   9.408  0.4868 -2.7636 -0.3038
 6746SOL    HW231698   0.693   4.581   9.523  1.4799  0.5581  1.3630
 6747SOL     OW31699   3.644   2.882   6.620 -0.3250 -0.3790 -0.1515
 6747SOL    HW131700   3.588   2.806   6.636 -0.8129 -0.2293 -1.1558
 6747SOL    HW231701   3.593   2.957   6.651 -1.1805 -1.0823  0.1300
 6748SOL     OW31702   2.008   4.443   3.592 -0.5840 -0.7172  0.0610
 6748SOL    HW131703   2.071   4.452   3.664  1.5592 -1.3692 -1.7666
 6748SOL    HW231704   2.066   4.416   3.522 -0.1218  0.3328  0.0360
 6749SOL     OW31705   4.188   2.382   0.591 -0.6592  0.3116 -0.0213
 6749SOL    HW131706   4.231   2.307   0.632 -0.2075  0.1530 -0.7657
 6749SOL    HW231707   4.215   2.366   0.500 -0.5458 -2.1544  0.4585
 6750SOL     OW31708   0.445   1.750   7.127 -0.2526 -0.0192 -0.4538
 6750SOL    HW131709   0.534   1.725   7.100 -0.7430 -0.9489 -1.1977
 6750SOL    HW231710   0.392   1.694   7.070 -0.7018 -0.5995  0.5278
 6751SOL     OW31711   3.355   4.611   5.111 -0.0506 -0.1549 -0.2286
 6751SOL    HW131712   3.418   4.556   5.065 -1.0593 -2.2860  0.9208
 6751SOL    HW231713   3.296   4.647   5.044 -1.7717 -0.9818  0.8521
 6752SOL     OW31714   3.862   0.263  14.477 -0.2301  0.3624  0.1432
 6752SOL    HW131715   3.860   0.201  14.404  1.5921  1.9510 -1.2535
 6752SOL    HW231716   3.908   0.335  14.434  2.2816 -0.6668  1.0653
 6753SOL     OW31717   1.892   3.899   7.040  0.3590 -0.2332 -0.0356
 6753SOL    HW131718   1.855   3.963   6.979  2.1202 -0.6895 -1.5837
 6753SOL    HW231719   1.894   3.943   7.125 -2.1016 -1.9665  0.9281
 6754SOL     OW31720   4.327   2.466  15.710 -0.4476 -0.0435  0.3362
 6754SOL    HW131721   4.288   2.443  15.626  1.8363 -2.2681 -0.1281
 6754SOL    HW231722   4.404   2.513  15.679 -0.2927 -0.5719 -0.0738
 6755SOL     OW31723   1.128   4.278   2.346 -0.1054 -0.1362  0.1761
 6755SOL    HW131724   1.052   4.286   2.287 -1.0360 -1.0346  1.2626
 6755SOL    HW231725   1.105   4.195   2.386 -2.3976  0.4868  0.1862
 6756SOL     OW31726   3.273   1.538  17.203  0.5053  0.2815 -0.5797
 6756SOL    HW131727   3.249   1.582  17.285  0.3809  0.7658 -0.8714
 6756SOL    HW231728   3.357   1.584  17.201  0.4947  0.2012 -2.6768
 6757SOL     OW31729   2.651   1.807   7.855  0.0919 -0.2714 -0.3621
 6757SOL    HW131730   2.582   1.807   7.921 -0.1800 -0.7216 -0.6398
 6757SOL    HW231731   2.670   1.713   7.850  1.6743 -0.0088  0.6435
 6758SOL     OW31732   4.305   2.563   8.403  0.0599  0.1224  0.5258
 6758SOL    HW131733   4.396   2.593   8.394 -0.2541  1.2216  0.9689
 6758SOL    HW231734   4.273   2.615   8.477  1.4644  0.6991  0.7342
 6759SOL     OW31735   1.482   0.400   7.820 -0.2592 -0.1947 -0.1723
 6759SOL    HW131736   1.577   0.402   7.821 -0.2566 -0.6187  0.3306
 6759SOL    HW231737   1.454   0.456   7.892  0.5563 -0.9650  0.7439
 6760SOL     OW31738   2.590   0.542  16.930 -0.5096 -0.1870 -0.1239
 6760SOL    HW131739   2.545   0.504  17.006  1.8999 -0.7720  1.0027
 6760SOL    HW231740   2.546   0.495  16.858 -0.2483  0.7580 -0.8978
 6761SOL     OW31741   0.711   4.134   8.143 -0.1919  0.2625 -0.1114
 6761SOL    HW131742   0.791   4.164   8.099 -0.2173 -1.7187 -1.5228
 6761SOL    HW231743   0.646   4.175   8.087 -1.1319  0.3403  1.0430
 6762SOL     OW31744   3.692   1.513   1.144  0.3482 -0.4036  0.5076
 6762SOL    HW131745   3.681   1.465   1.062  1.1110  0.9136 -0.3524
 6762SOL    HW231746   3.673   1.443   1.207  0.8215 -1.6889 -0.7756
 6763SOL     OW31747   0.377   0.509   1.484  0.0449  0.3696 -0.3963
 6763SOL    HW131748   0.309   0.567   1.449 -1.2001  0.6420  2.4508
 6763SOL    HW231749   0.314   0.450   1.525 -0.5952  0.0185 -1.9192
 6764SOL     OW31750   3.774   2.639  14.835 -0.1433  0.5195  0.1450
 6764SOL    HW131751   3.828   2.596  14.769  0.9233  1.6095  0.3014
 6764SOL    HW231752   3.705   2.572  14.837 -0.9123  1.2894 -0.6364
 6765SOL     OW31753   2.231   1.088  10.478 -0.5674 -0.6492 -0.2560
 6765SOL    HW131754   2.172   1.130  10.415  0.8242  1.1007 -0.3794
 6765SOL    HW231755   2.210   1.146  10.551  0.8511  1.3900 -1.4889
 6766SOL     OW31756   0.663   0.533   9.679 -0.2060 -0.0691  0.0189
 6766SOL    HW131757   0.716   0.560   9.754 -1.2708  2.2726 -0.0679
 6766SOL    HW231758   0.723   0.569   9.614 -1.1167  1.0986 -0.1718
 6767SOL     OW31759   1.761   4.221  14.133 -0.1153 -0.3989 -0.4162
 6767SOL    HW131760   1.794   4.308  14.108  1.8506 -2.2363 -4.4073
 6767SOL    HW231761   1.703   4.202  14.059  1.0244 -0.7201 -1.2356
 6768SOL     OW31762   2.288   3.866  12.629  0.2556  0.5136 -0.1250
 6768SOL    HW131763   2.282   3.885  12.722  0.5544  0.2434 -0.0525
 6768SOL    HW231764   2.378   3.890  12.610  0.2875 -1.0666 -2.0225
 6769SOL     OW31765   3.143   4.289   2.092  0.4568 -0.0009 -0.0384
 6769SOL    HW131766   3.214   4.262   2.150  0.8146  0.2035 -0.3765
 6769SOL    HW231767   3.189   4.310   2.011  1.0923 -2.7994 -0.3885
 6770SOL     OW31768   0.957   1.856   0.777 -0.3010  0.3509 -0.3584
 6770SOL    HW131769   0.953   1.913   0.854  1.5656  0.2163 -0.1601
 6770SOL    HW231770   0.894   1.787   0.797  0.7213 -0.0240  1.6228
 6771SOL     OW31771   3.836   0.466   3.888 -0.1303 -0.0809  0.2234
 6771SOL    HW131772   3.895   0.541   3.896  0.6963 -0.5043 -1.7710
 6771SOL    HW231773   3.775   0.496   3.820  0.5180 -1.8627 -1.1457
 6772SOL     OW31774   1.927   3.262   5.720  0.0250 -0.1254  0.7908
 6772SOL    HW131775   1.887   3.191   5.771 -0.8872  0.1535  0.4617
 6772SOL    HW231776   1.857   3.292   5.662  1.4081 -0.4678 -1.0376
 6773SOL     OW31777   2.049   3.586   6.254  0.0611 -0.2076 -0.4630
 6773SOL    HW131778   2.035   3.543   6.338  0.0888  0.2548 -0.2215
 6773SOL    HW231779   2.129   3.539   6.232 -0.8629  0.0248 -4.3171
 6774SOL     OW31780   3.928   1.968   6.237  0.5539  0.0052 -0.2472
 6774SOL    HW131781   3.924   1.977   6.332 -2.4996  4.1095 -0.7360
 6774SOL    HW231782   3.842   1.940   6.206  0.5810 -0.2602 -0.0777
 6775SOL     OW31783   2.581   1.902   2.267  0.0958  0.4597 -0.5217
 6775SOL    HW131784   2.541   1.817   2.250 -1.3025  0.3968  3.1575
 6775SOL    HW231785   2.667   1.888   2.306 -0.2891  0.3833  0.3087
 6776SOL     OW31786   2.087   1.594   5.603  0.0884 -0.0859 -0.0146
 6776SOL    HW131787   2.025   1.598   5.677  1.7835 -1.0101  1.4457
 6776SOL    HW231788   2.161   1.647   5.631  2.1928 -3.6190  1.0546
 6777SOL     OW31789   3.965   1.729  11.008  0.5611  0.3136  0.1306
 6777SOL    HW131790   3.916   1.648  11.025  1.7983 -1.0519 -2.8248
 6777SOL    HW231791   3.887   1.780  10.988  0.8778  0.9050  0.4193
 6778SOL     OW31792   4.709   0.606   0.766  0.0973  0.8227 -0.0382
 6778SOL    HW131793   0.054   0.538   0.753 -1.4494 -0.1561 -2.9394
 6778SOL    HW231794   4.642   0.593   0.698  1.7982  2.8867 -2.1354
 6779SOL     OW31795   2.656   1.587   2.038 -0.6792  0.1682  0.0681
 6779SOL    HW131796   2.585   1.618   2.094 -0.2158 -0.1491  0.8287
 6779SOL    HW231797   2.715   1.534   2.091 -0.8933  1.1219  1.2590
 6780SOL     OW31798   1.120   0.499   5.566 -0.7621  0.5575 -0.0062
 6780SOL    HW131799   1.104   0.584   5.607 -0.0693 -0.2183  1.8663
 6780SOL    HW231800   1.172   0.452   5.631  0.2427  0.0775 -1.1611
 6781SOL     OW31801   2.736   4.029   4.223  0.2546  0.1368 -0.0879
 6781SOL    HW131802   2.720   3.937   4.201 -0.2358  0.8289 -2.6172
 6781SOL    HW231803   2.819   4.044   4.270  0.3838 -0.0910 -0.2407
 6782SOL     OW31804   3.870   0.483  17.370 -0.7730 -0.4655 -0.3107
 6782SOL    HW131805   3.905   0.556  17.319 -2.4175 -1.8651 -3.3948
 6782SOL    HW231806   3.912   0.498  17.455  2.7507 -2.0055 -1.7610
 6783SOL     OW31807   2.710   3.595   6.966  0.1162  0.0206  0.4174
 6783SOL    HW131808   2.666   3.584   6.882  0.6817 -1.7433  0.3473
 6783SOL    HW231809   2.671   3.678   6.993  0.2567 -0.0058  0.7023
 6784SOL     OW31810   1.774   4.581  16.241 -0.2139  0.2307 -0.1762
 6784SOL    HW131811   1.753   4.579  16.335  1.0019  0.9676  0.1159
 6784SOL    HW231812   1.842   4.514  16.249  0.2102  0.7981  1.0528
 6785SOL     OW31813   1.050   3.899  16.446 -0.1027  0.0163 -0.4764
 6785SOL    HW131814   1.088   3.981  16.478 -0.8923 -0.3465  1.3612
 6785SOL    HW231815   0.956   3.907  16.463 -0.1861  0.0110 -0.9474
 6786SOL     OW31816   1.912   3.018  11.514 -0.1077  0.1532  0.8080
 6786SOL    HW131817   1.968   3.029  11.437 -1.0647 -0.6867 -0.0073
 6786SOL    HW231818   1.852   2.955  11.475 -0.6805  0.5808  1.0084
 6787SOL     OW31819   0.464   3.715   5.949  0.6744  0.1575  0.2480
 6787SOL    HW131820   0.530   3.647   5.961  2.7314  2.4944  2.2886
 6787SOL    HW231821   0.390   3.666   5.984 -0.0930  0.8521 -0.3989
 6788SOL     OW31822   3.658   1.962  14.530  0.1827 -0.1116  0.1887
 6788SOL    HW131823   3.690   1.910  14.456 -1.0543 -0.7164  0.0836
 6788SOL    HW231824   3.642   1.895  14.596 -0.8611  0.0993  0.1404
 6789SOL     OW31825   1.307   3.247  10.369  0.1745  0.2177 -0.4021
 6789SOL    HW131826   1.320   3.215  10.458  0.5571  2.3228  0.2849
 6789SOL    HW231827   1.244   3.185  10.333 -0.4954  0.4049  0.4542
 6790SOL     OW31828   1.683   4.246   4.956  0.2927  0.5317 -0.1632
 6790SOL    HW131829   1.716   4.328   4.992 -1.6124  1.6288 -0.9717
 6790SOL    HW231830   1.679   4.197   5.039 -1.0423  0.9299  0.0011
 6791SOL     OW31831   2.988   1.139   6.756 -0.1924  0.4116  0.1919
 6791SOL    HW131832   3.007   1.046   6.747  0.2589  0.4922  0.3195
 6791SOL    HW231833   2.900   1.154   6.721 -0.9796 -1.3597  1.4471
 6792SOL     OW31834   3.706   1.414  11.831 -0.1348 -0.2722  0.1445
 6792SOL    HW131835   3.652   1.410  11.910  0.2765 -2.0589  0.3273
 6792SOL    HW231836   3.708   1.507  11.810  0.0041  0.3940  3.0457
 6793SOL     OW31837   0.901   3.659   3.621 -0.2747  0.4104 -0.4603
 6793SOL    HW131838   0.903   3.697   3.709  1.5268 -2.2503  0.6388
 6793SOL    HW231839   0.898   3.741   3.572  0.9327  1.2906  0.9120
 6794SOL     OW31840   1.312   2.498  12.358 -0.0486 -0.1697  0.1421
 6794SOL    HW131841   1.307   2.558  12.283  0.4495 -0.5573 -0.1956
 6794SOL    HW231842   1.244   2.435  12.335 -0.4739  0.9488 -1.6861
 6795SOL     OW31843   0.133   3.628   6.311 -0.7142  0.1006 -0.3289
 6795SOL    HW131844   0.082   3.567   6.364 -0.4103  0.3365  0.2382
 6795SOL    HW231845   0.207   3.572   6.286  1.7709  2.9563  0.5624
 6796SOL     OW31846   4.525   2.151  10.717 -0.2262  0.4215 -0.2127
 6796SOL    HW131847   4.614   2.184  10.701  0.1106 -1.2302 -1.7864
 6796SOL    HW231848   4.504   2.101  10.638  0.6509 -1.0910  0.5079
 6797SOL     OW31849   1.987   0.582   5.643 -0.1325  0.0555 -0.3891
 6797SOL    HW131850   2.033   0.506   5.681 -0.2981  0.5174  0.7322
 6797SOL    HW231851   2.055   0.600   5.578 -0.0003  0.4820 -0.1296
 6798SOL     OW31852   4.454   1.872   2.822  0.5293 -0.1406  0.1155
 6798SOL    HW131853   4.490   1.910   2.902  0.1777  0.4419 -0.0066
 6798SOL    HW231854   4.519   1.903   2.759 -1.1310 -0.3656 -1.7159
 6799SOL     OW31855   3.220   3.770   9.478  0.0837 -0.5789  0.6696
 6799SOL    HW131856   3.162   3.842   9.506 -0.5218 -1.8986  2.8225
 6799SOL    HW231857   3.177   3.755   9.394  0.5984  2.3320 -0.1268
 6800SOL     OW31858   1.169   4.045   7.782  0.3357  0.5567  0.3047
 6800SOL    HW131859   1.095   4.058   7.723 -0.0810  1.4867  1.0235
 6800SOL    HW231860   1.168   3.949   7.790  0.7800  0.5630  0.4305
 6801SOL     OW31861   3.462   0.909  17.575 -0.5202 -0.0820  0.0720
 6801SOL    HW131862   3.496   0.819  17.581 -1.0617 -0.2585  0.5022
 6801SOL    HW231863   3.374   0.876  17.558 -0.4114 -0.7460  0.7744
 6802SOL     OW31864   3.455   2.876   4.036  0.1039  0.2994 -0.2466
 6802SOL    HW131865   3.377   2.929   4.020  0.7850  1.4230  0.1042
 6802SOL    HW231866   3.500   2.883   3.952 -0.3308 -0.0644 -0.5068
 6803SOL     OW31867   0.256   1.868   2.363  0.2439 -0.3579 -0.1050
 6803SOL    HW131868   0.243   1.887   2.270 -0.5345 -1.0762 -0.1501
 6803SOL    HW231869   0.351   1.868   2.374  0.5622 -0.1118 -2.9742
 6804SOL     OW31870   2.177   2.407   8.506  0.1659 -0.4551 -0.1922
 6804SOL    HW131871   2.172   2.390   8.600 -1.0071  0.3130 -0.1129
 6804SOL    HW231872   2.182   2.320   8.466 -2.8895 -0.6516 -0.1310
 6805SOL     OW31873   1.443   4.133   7.118  0.2613 -0.0034 -0.4714
 6805SOL    HW131874   1.509   4.141   7.049 -0.6810  0.5863 -1.2959
 6805SOL    HW231875   1.496   4.093   7.187 -0.8282 -1.1548 -0.2919
 6806SOL     OW31876   3.629   2.876   5.261 -0.3183  0.5136 -0.3612
 6806SOL    HW131877   3.636   2.832   5.177  1.1998  0.0915 -0.0126
 6806SOL    HW231878   3.539   2.845   5.277  0.9930 -3.2773 -0.3626
 6807SOL     OW31879   3.546   2.260   0.426  0.3899  0.6525 -0.3745
 6807SOL    HW131880   3.596   2.204   0.366 -0.1769 -0.5589  0.2830
 6807SOL    HW231881   3.505   2.321   0.364  0.4872  0.4684 -0.6232
 6808SOL     OW31882   1.112   4.402   2.659  0.1987  0.0032 -0.3653
 6808SOL    HW131883   1.042   4.454   2.700  0.4514  0.3221 -0.3384
 6808SOL    HW231884   1.114   4.336   2.728 -1.4001 -1.5209 -1.7684
 6809SOL     OW31885   4.331   1.427   8.306  0.3062  0.1343  0.0568
 6809SOL    HW131886   4.348   1.520   8.323  1.8858  0.1959 -1.9177
 6809SOL    HW231887   4.415   1.393   8.274 -0.6309 -0.4396 -1.7547
 6810SOL     OW31888   3.039   0.386   7.078  0.0725 -0.0401 -0.2201
 6810SOL    HW131889   3.120   0.395   7.128  0.8180 -1.5436 -1.1747
 6810SOL    HW231890   2.971   0.378   7.145  1.5302 -1.4819  1.0966
 6811SOL     OW31891   2.396   4.287   7.237  0.2030  0.1414 -0.3263
 6811SOL    HW131892   2.468   4.224   7.238  1.0195  1.0044 -2.4878
 6811SOL    HW231893   2.392   4.323   7.325  0.5078  0.8357 -0.6004
 6812SOL     OW31894   0.020   1.877  16.954  0.0769  0.1829 -0.0392
 6812SOL    HW131895   0.050   1.831  17.031  0.5100 -1.1467 -1.0116
 6812SOL    HW231896   0.076   1.860  16.878  0.6018 -0.9134  0.5956
 6813SOL     OW31897   3.671   1.496  16.031 -0.0854  0.2677  0.3339
 6813SOL    HW131898   3.696   1.525  15.944 -0.9787  0.5972  0.1900
 6813SOL    HW231899   3.607   1.426  16.018 -0.3272  0.2516  1.5587
 6814SOL     OW31900   2.975   0.275   8.653  0.1397  0.9203  0.1963
 6814SOL    HW131901   2.924   0.341   8.700  1.4682  1.0937  1.3564
 6814SOL    HW231902   2.967   0.198   8.709  0.7349 -0.7651 -2.0284
 6815SOL     OW31903   1.768   0.062   6.487  1.0954  0.1386  0.0270
 6815SOL    HW131904   1.851   0.065   6.534  0.4900 -0.7175  1.1604
 6815SOL    HW231905   1.722   0.131   6.536  2.3361  0.9453  0.0660
 6816SOL     OW31906   0.036   0.595   4.677  0.5727  0.4234  0.5627
 6816SOL    HW131907   0.073   0.676   4.712  0.1981  1.3836 -1.3158
 6816SOL    HW231908   0.026   0.612   4.584 -0.3345  0.8312  0.7298
 6817SOL     OW31909   1.519   4.309   9.797 -0.7184 -0.2893 -0.3539
 6817SOL    HW131910   1.532   4.382   9.858 -1.3625 -0.3594 -0.1371
 6817SOL    HW231911   1.443   4.266   9.836  0.0397 -1.5582 -0.2800
 6818SOL     OW31912   3.260   3.582   5.182  0.7709 -0.4035 -0.2337
 6818SOL    HW131913   3.197   3.654   5.179  1.3059  0.0843  0.1606
 6818SOL    HW231914   3.341   3.634   5.180 -0.1420  1.0443  0.7061
 6819SOL     OW31915   2.638   1.164   4.526  0.0658  0.9008 -0.2833
 6819SOL    HW131916   2.623   1.250   4.564 -0.8480  0.0222  1.3372
 6819SOL    HW231917   2.675   1.108   4.595  0.2094 -0.0091 -1.0953
 6820SOL     OW31918   4.160   3.571   5.511 -0.0689  0.4446  0.2018
 6820SOL    HW131919   4.180   3.480   5.534 -1.0384  0.1001 -0.3115
 6820SOL    HW231920   4.075   3.570   5.468  0.2557 -1.7307 -0.3641
 6821SOL     OW31921   0.430   0.215   8.893  0.5105 -0.4202  0.3370
 6821SOL    HW131922   0.395   0.271   8.824  0.1530  0.4007  1.2006
 6821SOL    HW231923   0.433   0.131   8.846  4.9519  0.0474 -0.2668
 6822SOL     OW31924   2.304   2.174  10.128  0.6827  0.0201 -0.2919
 6822SOL    HW131925   2.350   2.252  10.097  2.0581 -1.1203 -1.1221
 6822SOL    HW231926   2.353   2.167  10.210 -0.9006  1.0350  0.7540
 6823SOL     OW31927   4.286   2.985   5.215 -0.4699  0.3620  0.1854
 6823SOL    HW131928   4.191   2.990   5.208 -0.1831  1.8133 -2.3729
 6823SOL    HW231929   4.294   2.904   5.266  2.2348  0.2973 -0.3351
 6824SOL     OW31930   0.128   2.119  10.922  0.3887  0.2763  0.2141
 6824SOL    HW131931   0.126   2.032  10.963 -2.1408  0.1861 -0.1244
 6824SOL    HW231932   0.222   2.138  10.924  0.5593 -0.2248 -1.9749
 6825SOL     OW31933   2.989   1.515   0.633 -0.2457 -0.2418 -0.2112
 6825SOL    HW131934   2.913   1.571   0.615  0.1550  1.1047  2.3187
 6825SOL    HW231935   2.948   1.434   0.663 -0.2769 -0.4318 -0.7699
 6826SOL     OW31936   2.613   0.081   7.942  0.5888  0.6123  0.3410
 6826SOL    HW131937   2.695   0.130   7.949  1.2734 -0.6068  0.9177
 6826SOL    HW231938   2.587   0.063   8.033 -2.8450  0.4805 -0.6787
 6827SOL     OW31939   1.289   4.168   3.151  0.2185 -0.1281 -0.4368
 6827SOL    HW131940   1.297   4.147   3.244 -2.6322  0.9822  0.0627
 6827SOL    HW231941   1.343   4.102   3.107  1.2215 -1.0364  2.1479
 6828SOL     OW31942   0.953   4.592  15.183  0.4816  0.2298 -0.7249
 6828SOL    HW131943   0.962   4.516  15.240  2.0179  0.4208 -0.7042
 6828SOL    HW231944   1.020   4.647  15.224  1.2529 -0.5359 -0.9564
 6829SOL     OW31945   0.650   3.334   6.600  0.1216 -0.4398 -0.3047
 6829SOL    HW131946   0.625   3.243   6.580  2.8499 -0.9730 -1.2515
 6829SOL    HW231947   0.628   3.381   6.520  2.0396  0.5535 -0.2475
 6830SOL     OW31948   0.349   3.616   3.113  0.5412  0.1836 -0.3847
 6830SOL    HW131949   0.402   3.596   3.037 -2.0801  0.3714 -2.2625
 6830SOL    HW231950   0.262   3.614   3.072 -0.6378  1.2869  2.0293
 6831SOL     OW31951   4.012   2.893   5.252  0.3051  0.5656  0.1852
 6831SOL    HW131952   3.942   2.836   5.219  0.4254  1.2803 -1.3051
 6831SOL    HW231953   3.992   2.884   5.345  0.1565  0.9086  0.1848
 6832SOL     OW31954   4.601   2.332  10.951  0.3667  0.0968 -0.1057
 6832SOL    HW131955   4.562   2.312  10.865  1.7740 -2.0020 -0.2673
 6832SOL    HW231956   4.650   2.251  10.970 -2.3641 -1.3217  0.9137
 6833SOL     OW31957   1.455   3.733  13.497  0.1191 -0.0911  0.7103
 6833SOL    HW131958   1.372   3.743  13.542 -1.2401 -0.2723 -1.7489
 6833SOL    HW231959   1.500   3.665  13.548 -2.0927 -1.8411  0.3047
 6834SOL     OW31960   1.865   3.947   4.854 -0.7031  0.0654  0.0411
 6834SOL    HW131961   1.851   3.891   4.778 -1.8496 -1.4715  1.3848
 6834SOL    HW231962   1.862   4.033   4.813 -0.3513 -1.2757 -2.7838
 6835SOL     OW31963   1.151   3.393   4.482  0.0588  0.3959  0.3707
 6835SOL    HW131964   1.231   3.424   4.523  1.1805 -1.0925 -0.6793
 6835SOL    HW231965   1.083   3.402   4.549 -1.1980  0.2353 -0.8697
 6836SOL     OW31966   0.622   1.758   9.130 -0.0488 -0.2088 -0.2787
 6836SOL    HW131967   0.584   1.843   9.111  0.7885 -0.2851 -2.2467
 6836SOL    HW231968   0.554   1.703   9.170  1.5834 -0.8278  1.6932
 6837SOL     OW31969   4.417   0.066  12.679  0.2009  0.0868  0.0743
 6837SOL    HW131970   4.419   0.049  12.585 -2.4231 -0.0409  0.0357
 6837SOL    HW231971   4.499   0.115  12.688 -0.2368  1.3781 -2.9820
 6838SOL     OW31972   3.045   4.381   4.991  0.6092 -0.1587  0.0008
 6838SOL    HW131973   3.074   4.457   4.942  0.5818  0.6084  1.1893
 6838SOL    HW231974   2.955   4.411   5.008  0.8034 -0.3222  1.3673
 6839SOL     OW31975   2.442   2.118   0.488  0.0194  0.4221  0.6655
 6839SOL    HW131976   2.471   2.048   0.547 -0.1459  2.0391  2.6581
 6839SOL    HW231977   2.348   2.107   0.503 -0.5276 -1.6683 -4.3859
 6840SOL     OW31978   2.543   0.216   5.749 -0.0206 -0.3240 -0.2720
 6840SOL    HW131979   2.533   0.274   5.823  2.8214 -0.3624  0.1551
 6840SOL    HW231980   2.456   0.177   5.746  0.3711 -1.2312  0.2572
 6841SOL     OW31981   0.724   1.846   4.345 -0.1219 -0.1800  0.2438
 6841SOL    HW131982   0.769   1.907   4.404  0.9913 -0.0855 -0.6973
 6841SOL    HW231983   0.745   1.770   4.399 -0.6364 -0.2685  0.3149
 6842SOL     OW31984   0.092   2.826   8.064  0.0461  0.2340  0.2236
 6842SOL    HW131985   0.163   2.889   8.070  0.0932  0.2022 -0.0182
 6842SOL    HW231986   0.128   2.747   8.106  0.0466  0.2218  0.2000
 6843SOL     OW31987   2.486   1.127  10.352  0.5131  0.1430 -0.2432
 6843SOL    HW131988   2.479   1.197  10.287 -0.6565 -0.0046 -0.2699
 6843SOL    HW231989   2.428   1.158  10.422  1.7489  0.0025  0.8430
 6844SOL     OW31990   3.599   0.523   2.597 -0.5086  0.4272  0.1456
 6844SOL    HW131991   3.687   0.559   2.601 -0.3363  0.2946 -2.7125
 6844SOL    HW231992   3.577   0.519   2.691 -1.2381 -3.2341 -0.1574
 6845SOL     OW31993   0.471   1.627   2.241 -0.1744  0.6525 -0.4043
 6845SOL    HW131994   0.469   1.664   2.330 -0.3121  0.4775 -0.3336
 6845SOL    HW231995   0.522   1.697   2.200  2.1106  1.3544  3.5248
 6846SOL     OW31996   1.071   3.857   8.647  0.3168 -0.0311  0.6028
 6846SOL    HW131997   1.144   3.868   8.587  0.5427  1.9929  1.2451
 6846SOL    HW231998   1.067   3.938   8.698  0.1845  0.3872 -0.0733
 6847SOL     OW31999   4.249   2.614   7.582 -0.1783  0.2735  0.8951
 6847SOL    HW132000   4.326   2.620   7.639 -0.1217 -2.9946  1.1459
 6847SOL    HW232001   4.197   2.554   7.635  0.1865  0.0970  1.0543
 6848SOL     OW32002   0.692   3.528   7.470  0.5196  0.3456  0.7511
 6848SOL    HW132003   0.716   3.436   7.483  2.0089  0.3656 -1.8296
 6848SOL    HW232004   0.627   3.521   7.400  0.3589 -0.4667  0.9900
 6849SOL     OW32005   3.843   3.008  16.312  0.1848 -0.0041 -0.2811
 6849SOL    HW132006   3.777   2.939  16.304  0.4621 -0.4186  0.9162
 6849SOL    HW232007   3.815   3.067  16.243 -0.1272  0.8598  0.5814
 6850SOL     OW32008   1.586   0.980   1.614  0.4568  0.4010 -0.0786
 6850SOL    HW132009   1.564   0.940   1.530 -1.3270  1.8673 -0.3244
 6850SOL    HW232010   1.579   0.902   1.670 -2.0559 -0.9649 -2.3114
 6851SOL     OW32011   1.816   0.824   6.359  0.1525  0.1638  0.1960
 6851SOL    HW132012   1.876   0.754   6.386  0.0662  0.5804  1.4916
 6851SOL    HW232013   1.827   0.874   6.440 -0.3601 -0.5270  0.6939
 6852SOL     OW32014   4.717   0.251  12.024  0.1726 -0.0377 -0.0900
 6852SOL    HW132015   4.651   0.319  12.039 -2.0767 -2.4083  0.8096
 6852SOL    HW232016   0.000   0.213  12.112  2.0370  0.2297 -0.0806
 6853SOL     OW32017   0.243   3.458   8.886  0.2237  0.0148 -0.0707
 6853SOL    HW132018   0.225   3.517   8.959  1.6517  1.3216 -0.7594
 6853SOL    HW232019   0.295   3.528   8.845  0.0347 -0.2540 -0.7779
 6854SOL     OW32020   3.325   2.487   3.855 -0.8173  0.2022  0.4242
 6854SOL    HW132021   3.279   2.484   3.772 -3.2639  1.0526  1.7534
 6854SOL    HW232022   3.269   2.551   3.900 -0.9151  1.1508 -1.0619
 6855SOL     OW32023   0.565   4.518   3.699  0.5206 -0.4578  0.3242
 6855SOL    HW132024   0.473   4.523   3.671  0.6214 -0.9619 -0.0941
 6855SOL    HW232025   0.588   4.447   3.638 -0.1395  0.2138 -0.7062
 6856SOL     OW32026   0.669   0.813   8.877  0.6886 -0.0132  0.0839
 6856SOL    HW132027   0.707   0.756   8.944 -0.4132 -0.4853  0.3083
 6856SOL    HW232028   0.709   0.803   8.791 -0.2742 -1.9009 -0.1555
 6857SOL     OW32029   2.781   0.058  10.440  0.1653 -0.0547  0.1605
 6857SOL    HW132030   2.803   0.122  10.507 -1.1890 -0.5435  1.0622
 6857SOL    HW232031   2.704   0.025  10.486  0.6902 -0.5092  0.7117
 6858SOL     OW32032   3.996   3.470  11.117  0.4506 -0.0275 -0.0954
 6858SOL    HW132033   3.908   3.507  11.105 -0.3943 -2.3012 -0.8395
 6858SOL    HW232034   3.969   3.379  11.108  0.8558  0.1213 -2.8982
 6859SOL     OW32035   1.032   0.680   6.042 -0.3141  0.0011  0.1685
 6859SOL    HW132036   1.111   0.626   6.032 -0.3873  0.0552 -0.6956
 6859SOL    HW232037   0.984   0.626   6.104 -1.7965  0.8027 -0.2753
 6860SOL     OW32038   0.459   3.165   7.932 -0.4541  0.1812 -0.2930
 6860SOL    HW132039   0.547   3.154   7.970 -1.5228  1.1549  2.4620
 6860SOL    HW232040   0.470   3.260   7.929  0.9268 -0.0874 -3.0772
 6861SOL     OW32041   2.636   2.601   2.262  0.1415  0.2186 -0.5426
 6861SOL    HW132042   2.655   2.679   2.209 -0.1178 -0.0377 -1.0200
 6861SOL    HW232043   2.581   2.539   2.213 -2.7018  1.3855  1.1676
 6862SOL     OW32044   0.234   3.439   7.820 -0.0665  0.2198  0.4477
 6862SOL    HW132045   0.230   3.451   7.915  1.0205 -0.6736  0.6008
 6862SOL    HW232046   0.200   3.518   7.777 -1.2701 -0.8416 -0.5529
 6863SOL     OW32047   2.275   0.713   4.149 -0.3961  0.2337 -0.2168
 6863SOL    HW132048   2.324   0.790   4.122 -0.6369  0.5549  0.2771
 6863SOL    HW232049   2.189   0.752   4.163 -1.0522 -2.5325  3.1907
 6864SOL     OW32050   3.700   2.060   0.277 -0.0895 -0.4138 -0.3457
 6864SOL    HW132051   3.708   2.109   0.195 -0.8505  2.9820  1.5949
 6864SOL    HW232052   3.758   1.986   0.261  0.2215 -0.3167  0.3286
 6865SOL     OW32053   1.147   1.283   8.634 -0.0675  0.0735  0.7264
 6865SOL    HW132054   1.180   1.363   8.594  1.6224 -1.1281 -0.2631
 6865SOL    HW232055   1.222   1.242   8.675  0.2341  0.0291  0.1288
 6866SOL     OW32056   1.061   2.250   2.391  0.2366  0.0540  0.7482
 6866SOL    HW132057   0.968   2.231   2.391 -0.3772  3.1129  2.4157
 6866SOL    HW232058   1.091   2.253   2.482 -1.0301 -1.9767  1.2174
 6867SOL     OW32059   0.580   3.297   8.322 -0.1821 -0.7194 -0.4867
 6867SOL    HW132060   0.510   3.344   8.276  0.5206 -1.0518 -1.9072
 6867SOL    HW232061   0.644   3.369   8.322 -0.0041 -0.8921  3.7055
 6868SOL     OW32062   2.844   0.310   3.622  0.3285  0.4260 -1.2781
 6868SOL    HW132063   2.769   0.265   3.661  1.3689 -0.9658 -0.8967
 6868SOL    HW232064   2.914   0.261   3.664 -0.1329  1.0063  0.1561
 6869SOL     OW32065   2.243   3.354   1.390  0.0540 -0.8692 -0.0233
 6869SOL    HW132066   2.258   3.442   1.353  1.8944 -0.9143  0.6078
 6869SOL    HW232067   2.253   3.372   1.484 -2.1156  0.0030  0.0492
 6870SOL     OW32068   1.053   2.666   4.462  0.0289  0.2769  0.4150
 6870SOL    HW132069   1.071   2.680   4.369  1.0098  1.1820  0.7277
 6870SOL    HW232070   1.033   2.754   4.495  1.4011  0.3795  0.9865
 6871SOL     OW32071   2.180   4.505   3.795 -0.1231  0.5119  0.6939
 6871SOL    HW132072   2.239   4.429   3.801 -0.7986 -0.2292 -2.2466
 6871SOL    HW232073   2.141   4.504   3.883 -1.9869  1.7760 -0.1215
 6872SOL     OW32074   1.171   3.278  17.048 -0.7492  0.4260 -0.1924
 6872SOL    HW132075   1.240   3.269  17.113 -0.7380 -2.9653 -0.6565
 6872SOL    HW232076   1.217   3.321  16.976 -0.9354 -1.6211 -1.5548
 6873SOL     OW32077   3.262   4.013  12.828  0.0995 -0.2312  0.7122
 6873SOL    HW132078   3.293   4.012  12.737  1.1727  1.3359  1.0654
 6873SOL    HW232079   3.173   3.980  12.817 -0.4383  1.0623  1.0946
 6874SOL     OW32080   1.236   1.134   5.487  0.1479  0.1206  0.4246
 6874SOL    HW132081   1.195   1.190   5.421  1.2842 -0.2846 -0.6204
 6874SOL    HW232082   1.183   1.160   5.563 -1.5844 -0.6703 -0.5268
 6875SOL     OW32083   3.384   3.100   3.260 -0.1020 -0.1750 -0.5712
 6875SOL    HW132084   3.379   3.021   3.313  1.1582 -2.0404 -3.2161
 6875SOL    HW232085   3.290   3.101   3.243  0.0103 -1.2183 -1.2820
 6876SOL     OW32086   4.066   1.122   3.999 -0.1219  0.2625  0.1610
 6876SOL    HW132087   3.986   1.157   4.038  0.7936  1.2180  1.1859
 6876SOL    HW232088   4.134   1.187   4.017  0.6519 -0.5903  0.3793
 6877SOL     OW32089   4.189   1.658   5.287 -0.1928  0.5499 -0.9294
 6877SOL    HW132090   4.098   1.635   5.304 -1.9126  5.1426 -3.9556
 6877SOL    HW232091   4.189   1.726   5.220 -1.5255  1.0752 -0.4059
 6878SOL     OW32092   2.926   1.266   8.082 -0.3069  0.4311 -0.2256
 6878SOL    HW132093   3.014   1.228   8.081 -0.1315  0.8807 -1.9229
 6878SOL    HW232094   2.952   1.357   8.096  2.4099 -0.4060  0.0842
 6879SOL     OW32095   2.318   3.106   0.429  0.3299  0.1285 -0.2292
 6879SOL    HW132096   2.254   3.038   0.408  1.8372 -1.6176  0.7109
 6879SOL    HW232097   2.293   3.160   0.354 -1.0994  1.3696  1.1589
 6880SOL     OW32098   0.873   3.430   6.202 -0.3069 -0.2354 -0.5178
 6880SOL    HW132099   0.848   3.493   6.269  0.3704  3.3187 -3.6063
 6880SOL    HW232100   0.843   3.350   6.245  1.5377 -0.2395  0.7539
 6881SOL     OW32101   0.875   0.109   8.958  0.2206  0.4331 -0.4689
 6881SOL    HW132102   0.818   0.131   9.032  0.0717  0.4485 -0.5879
 6881SOL    HW232103   0.828   0.028   8.937  1.8068 -0.2711 -1.2671
 6882SOL     OW32104   0.817   2.257   7.351 -0.5380  0.3412 -0.0097
 6882SOL    HW132105   0.738   2.220   7.391 -1.1988  0.8481 -0.8418
 6882SOL    HW232106   0.784   2.314   7.282  1.7237  0.8547 -0.6833
 6883SOL     OW32107   1.589   0.226   3.056 -0.2111  0.4057  0.1312
 6883SOL    HW132108   1.648   0.191   3.123 -0.4760  0.7788  0.5574
 6883SOL    HW232109   1.638   0.302   3.024  0.6305 -0.0097  0.4515
 6884SOL     OW32110   3.286   2.747   6.958 -0.1857  0.1175  0.1858
 6884SOL    HW132111   3.332   2.720   6.879 -0.6625 -1.3608  0.4078
 6884SOL    HW232112   3.201   2.781   6.929 -0.4826 -0.5495  0.2534
 6885SOL     OW32113   3.460   0.636   7.751 -0.1604 -0.2817  0.1906
 6885SOL    HW132114   3.395   0.575   7.787 -1.1032 -1.1205 -2.9979
 6885SOL    HW232115   3.409   0.683   7.686 -0.6938  0.6020  1.2571
 6886SOL     OW32116   0.907   2.663  10.914 -0.4805  0.0568  0.3284
 6886SOL    HW132117   0.824   2.696  10.878  1.2259  2.9190 -1.0478
 6886SOL    HW232118   0.905   2.574  10.880 -0.7170  0.4896 -0.8214
 6887SOL     OW32119   3.893   0.986   4.850  0.2954 -0.1003 -0.3179
 6887SOL    HW132120   3.824   1.052   4.841 -1.6140 -1.9454  0.4528
 6887SOL    HW232121   3.905   0.957   4.760 -0.0361 -0.5547 -0.2210
 6888SOL     OW32122   1.260   3.980   7.456  1.1561 -0.3958 -0.3661
 6888SOL    HW132123   1.316   4.054   7.480 -0.7907  0.6296  1.0452
 6888SOL    HW232124   1.176   4.002   7.496  1.0814 -0.5680 -0.4307
 6889SOL     OW32125   2.274   2.451   9.477 -0.0951  0.2966 -0.4419
 6889SOL    HW132126   2.346   2.509   9.452  0.3843  1.0933  2.8159
 6889SOL    HW232127   2.249   2.407   9.395  1.0836  0.2170 -0.7612
 6890SOL     OW32128   2.685   2.738   2.878  0.2731 -0.5579  0.7133
 6890SOL    HW132129   2.598   2.760   2.912  0.2505  2.2022 -1.1507
 6890SOL    HW232130   2.660   2.710   2.791  0.6012 -0.7416  0.6759
 6891SOL     OW32131   3.405   2.314   8.266 -0.2465  0.0272  0.0638
 6891SOL    HW132132   3.366   2.385   8.318 -0.0399  0.8160 -0.8494
 6891SOL    HW232133   3.465   2.281   8.332 -0.6848  0.8916  0.8904
 6892SOL     OW32134   1.730   3.101   7.063 -0.2323 -0.0715 -0.0459
 6892SOL    HW132135   1.783   3.122   6.986  0.2815 -2.5169 -0.3726
 6892SOL    HW232136   1.646   3.138   7.038  0.5733  2.6319  1.2934
 6893SOL     OW32137   4.497   2.308  13.366  0.2822 -0.4386 -0.0671
 6893SOL    HW132138   4.427   2.271  13.311 -0.0874  0.7852 -0.4129
 6893SOL    HW232139   4.545   2.233  13.401 -1.1847 -1.5530 -0.4414
 6894SOL     OW32140   4.003   0.023   0.382 -0.5720  0.2559 -0.0757
 6894SOL    HW132141   3.936   0.083   0.415 -2.9957 -1.1366 -2.4162
 6894SOL    HW232142   3.979   4.666   0.431 -1.5089  1.8984  2.0634
 6895SOL     OW32143   1.201   1.836   0.694  0.6863 -0.2480 -0.3228
 6895SOL    HW132144   1.186   1.876   0.608 -0.6594  0.2397  0.1407
 6895SOL    HW232145   1.113   1.824   0.727  0.6376  1.3881  0.1645
 6896SOL     OW32146   1.602   1.181   8.923 -0.6165  0.4362 -0.3297
 6896SOL    HW132147   1.592   1.201   9.016 -0.4933 -0.4996 -0.1161
 6896SOL    HW232148   1.662   1.106   8.926 -1.6639 -0.5217 -2.8497
 6897SOL     OW32149   4.671   1.160   2.920 -0.5152 -0.2629 -0.3519
 6897SOL    HW132150   4.642   1.165   2.828 -1.0799 -1.6262 -0.2420
 6897SOL    HW232151   4.658   1.252   2.944  2.0085 -0.3573  1.2746
 6898SOL     OW32152   1.444   2.857  17.204  0.2251  0.2963  0.1397
 6898SOL    HW132153   1.500   2.905  17.142  2.1045 -0.6532  1.1041
 6898SOL    HW232154   1.420   2.935  17.255 -0.1613  0.4595 -0.2912
 6899SOL     OW32155   4.348   2.213   2.181  0.6293 -0.2580  0.0971
 6899SOL    HW132156   4.348   2.308   2.166  0.3903  0.0439  2.0665
 6899SOL    HW232157   4.261   2.198   2.217  1.2969  0.6784  2.0871
 6900SOL     OW32158   4.003   2.244  14.977 -0.7422 -0.3506  0.3139
 6900SOL    HW132159   4.003   2.314  15.043  1.3763 -0.4552  0.4072
 6900SOL    HW232160   4.087   2.253  14.932 -1.1663 -2.1343 -0.8132
 6901SOL     OW32161   4.535   3.835  14.281  0.5189 -0.3176  0.1523
 6901SOL    HW132162   4.567   3.749  14.253  2.9654  0.4627  0.5461
 6901SOL    HW232163   4.468   3.812  14.345 -0.0177 -1.0652 -0.6815
 6902SOL     OW32164   0.156   1.843  14.687 -0.2440  0.6065 -0.0432
 6902SOL    HW132165   0.161   1.822  14.781 -2.0255  0.6255  0.0533
 6902SOL    HW232166   0.224   1.909  14.678  1.8129 -1.7468 -1.6910
 6903SOL     OW32167   0.157   3.794   5.941 -0.3126  0.0612  0.3910
 6903SOL    HW132168   0.136   3.829   5.854  2.1208  0.2010 -0.1505
 6903SOL    HW232169   0.116   3.863   5.993 -0.8268 -0.2918  0.4520
 6904SOL     OW32170   0.545   2.707   1.652 -0.0652 -0.6390 -0.4948
 6904SOL    HW132171   0.465   2.667   1.686  0.2526 -1.7872 -1.1227
 6904SOL    HW232172   0.614   2.668   1.706  0.4419  0.6388 -0.2351
 6905SOL     OW32173   2.975   3.749  10.940  0.4262  0.1595 -0.4674
 6905SOL    HW132174   3.013   3.757  11.027 -1.1292  0.9809  0.1396
 6905SOL    HW232175   2.975   3.840  10.910  0.5710  0.2527 -0.1871
 6906SOL     OW32176   4.084   2.469  17.474  0.5117  0.0361  0.1938
 6906SOL    HW132177   4.018   2.523  17.518  0.3674  0.7111 -0.8495
 6906SOL    HW232178   4.060   2.380  17.498 -3.6554  1.2295  0.5599
 6907SOL     OW32179   4.065   0.188   8.461 -0.1515  0.4440 -0.2318
 6907SOL    HW132180   3.981   0.219   8.496 -1.0768 -1.0976 -1.0644
 6907SOL    HW232181   4.084   0.249   8.390  0.7709  1.0021  0.5004
 6908SOL     OW32182   1.287   2.916  12.488 -0.0885  0.7716 -0.0309
 6908SOL    HW132183   1.250   2.904  12.575  1.1898 -2.1352  0.0925
 6908SOL    HW232184   1.219   2.862  12.446 -0.7597 -1.6641  4.2132
 6909SOL     OW32185   0.171   3.556  14.591 -0.3647 -0.0246  0.0385
 6909SOL    HW132186   0.137   3.487  14.646  1.0292 -1.6961 -1.1825
 6909SOL    HW232187   0.155   3.631  14.648  1.1324 -1.2029  2.0115
 6910SOL     OW32188   3.914   2.229   0.428 -0.5509  0.3088  0.8853
 6910SOL    HW132189   3.886   2.228   0.337  1.7163 -0.8444  0.2140
 6910SOL    HW232190   3.995   2.180   0.417 -0.6713  0.0745  1.0497
 6911SOL     OW32191   4.302   0.193   5.089 -0.2406  0.5587  0.5087
 6911SOL    HW132192   4.378   0.220   5.142  0.4297 -1.6939  0.6624
 6911SOL    HW232193   4.315   0.100   5.073  1.3638  0.8244  0.2835
 6912SOL     OW32194   1.606   3.602   5.383  0.6956 -0.3957  0.2073
 6912SOL    HW132195   1.677   3.645   5.431  0.7450  0.4935 -0.6516
 6912SOL    HW232196   1.574   3.542   5.449 -0.7860 -0.2291 -0.3575
 6913SOL     OW32197   4.279   0.173  14.997  0.8946 -0.2102 -0.4419
 6913SOL    HW132198   4.224   0.250  14.987 -0.2267 -1.0682 -0.8228
 6913SOL    HW232199   4.224   0.108  14.953  0.9000  1.0098 -2.2278
 6914SOL     OW32200   4.609   1.559   5.741 -1.0681  0.2743  0.0216
 6914SOL    HW132201   4.515   1.553   5.725 -1.5269  2.8829  1.8454
 6914SOL    HW232202   4.606   1.540   5.835  0.6142 -1.3188 -0.2548
 6915SOL     OW32203   1.297   0.758   1.191  0.3540 -0.3162  0.1757
 6915SOL    HW132204   1.210   0.718   1.197  0.2306  0.1542  1.5493
 6915SOL    HW232205   1.350   0.679   1.191 -1.0780 -1.2734  0.8916
 6916SOL     OW32206   0.835   1.354   8.171 -0.0197 -0.3105 -0.0977
 6916SOL    HW132207   0.834   1.434   8.223 -1.1034  0.3450 -1.1251
 6916SOL    HW232208   0.877   1.379   8.089  2.3522 -1.5984  0.7297
 6917SOL     OW32209   1.358   3.223   8.652  0.0528  0.7772  0.4619
 6917SOL    HW132210   1.406   3.255   8.729  0.9644 -2.1501  1.1324
 6917SOL    HW232211   1.409   3.144   8.632 -0.1855  1.3668 -2.3453
 6918SOL     OW32212   3.347   0.630   5.736 -0.2705 -0.6160  0.7252
 6918SOL    HW132213   3.379   0.612   5.824 -0.3104 -1.0509  0.6492
 6918SOL    HW232214   3.406   0.584   5.675 -1.4420  1.1388 -1.7455
 6919SOL     OW32215   3.344   1.017  17.231  0.2377 -0.0123  0.0245
 6919SOL    HW132216   3.272   0.963  17.263  2.0853 -2.6779 -0.3156
 6919SOL    HW232217   3.301   1.080  17.174 -2.7636 -1.8793  0.2193
 6920SOL     OW32218   2.044   3.285  10.380 -0.0916 -0.3486 -0.0823
 6920SOL    HW132219   2.139   3.290  10.389 -0.3488  0.2016  2.3528
 6920SOL    HW232220   2.029   3.369  10.337  1.2782  0.3267  0.7619
 6921SOL     OW32221   0.966   4.125  12.346  0.2675  0.4561  0.8353
 6921SOL    HW132222   0.887   4.109  12.399  0.6592  0.1805  1.3326
 6921SOL    HW232223   1.018   4.049  12.373 -0.8187  0.1658  2.1049
 6922SOL     OW32224   4.378   0.225   6.475  0.6872  0.5916 -0.1130
 6922SOL    HW132225   4.460   0.179   6.457  0.7567  0.6138  0.1417
 6922SOL    HW232226   4.377   0.219   6.571  0.2149  1.0365 -0.0917
 6923SOL     OW32227   0.221   3.235  13.559 -0.2357 -0.0556  0.4482
 6923SOL    HW132228   0.271   3.276  13.489  0.2858 -1.3074  0.0803
 6923SOL    HW232229   0.271   3.154  13.572 -1.9052 -1.0914  0.3589
 6924SOL     OW32230   0.367   1.389   2.169  0.2579  0.1580 -0.1712
 6924SOL    HW132231   0.291   1.404   2.226 -0.6344 -1.8611 -0.8263
 6924SOL    HW232232   0.415   1.471   2.181 -2.3112  1.8387 -1.2577
 6925SOL     OW32233   3.460   3.169  10.115 -0.2063  0.2116 -0.2696
 6925SOL    HW132234   3.532   3.188  10.054  0.9617 -0.6683  0.8222
 6925SOL    HW232235   3.500   3.114  10.183 -0.3172  1.0668  0.4837
 6926SOL     OW32236   2.959   0.246   6.859  0.5773  0.1710 -0.2685
 6926SOL    HW132237   2.992   0.328   6.897 -0.3203  0.6605 -0.5364
 6926SOL    HW232238   2.867   0.272   6.855  0.4585 -0.3749 -1.1121
 6927SOL     OW32239   1.958   4.660   7.953  0.6051  0.5330 -0.0058
 6927SOL    HW132240   1.978   4.573   7.988 -0.0931 -0.2865 -1.7011
 6927SOL    HW232241   1.889   4.683   8.015  0.0577 -0.2489 -0.3339
 6928SOL     OW32242   1.218   0.881   3.067 -0.0927 -0.0950  0.0397
 6928SOL    HW132243   1.167   0.867   3.147 -0.4411  0.1711 -0.1352
 6928SOL    HW232244   1.307   0.895   3.100 -0.1721  0.2222  0.1213
 6929SOL     OW32245   1.285   1.144   1.785 -0.3778 -0.2031  0.1611
 6929SOL    HW132246   1.369   1.182   1.763 -0.6269  0.2364 -0.0271
 6929SOL    HW232247   1.233   1.204   1.839  0.3738  1.5026 -1.0373
 6930SOL     OW32248   3.181   1.518   9.022 -0.7090  0.1740  0.6624
 6930SOL    HW132249   3.092   1.533   8.992 -0.8491 -1.9043  0.0046
 6930SOL    HW232250   3.222   1.598   8.988 -0.6807  0.5896  1.6773
 6931SOL     OW32251   0.910   0.541   2.702 -0.2478 -0.4571  0.1314
 6931SOL    HW132252   0.846   0.489   2.653  0.2062 -0.6255 -0.2823
 6931SOL    HW232253   0.958   0.474   2.751 -0.9017 -0.3219  0.9612
 6932SOL     OW32254   3.548   0.652  17.593  0.3380  0.1057 -0.0391
 6932SOL    HW132255   3.477   0.590  17.576  0.3349  0.0763  0.0791
 6932SOL    HW232256   3.597   0.610  17.663 -0.9919  4.0172  3.2520
 6933SOL     OW32257   3.373   1.591   3.324 -0.3192 -0.4117  0.7803
 6933SOL    HW132258   3.369   1.499   3.298 -2.1735 -0.2220  0.3334
 6933SOL    HW232259   3.389   1.637   3.242 -0.5320 -0.5024  0.6859
 6934SOL     OW32260   4.191   3.403  11.441 -0.6921  0.7691 -0.4751
 6934SOL    HW132261   4.104   3.428  11.410 -0.4567  1.2288 -0.7629
 6934SOL    HW232262   4.241   3.483  11.424 -1.0205  0.9902 -0.4090
 6935SOL     OW32263   2.210   0.936   1.371 -0.0682  0.1544 -0.1225
 6935SOL    HW132264   2.115   0.929   1.381 -0.3417  1.7577 -1.6247
 6935SOL    HW232265   2.236   1.010   1.427 -1.5034  0.3378  0.2808
 6936SOL     OW32266   1.193   0.489   9.041  0.2722  0.0614 -0.3690
 6936SOL    HW132267   1.182   0.582   9.058 -0.1848 -0.2033  0.7771
 6936SOL    HW232268   1.103   0.455   9.037  0.5000 -0.6650  0.8679
 6937SOL     OW32269   3.759   2.358   3.178 -0.4157 -0.7655  0.1369
 6937SOL    HW132270   3.852   2.338   3.187 -0.4941 -1.0182  0.3672
 6937SOL    HW232271   3.771   2.434   3.121 -2.2576 -0.9688 -0.5277
 6938SOL     OW32272   2.938   2.573   7.769 -0.4113 -0.0562  0.2215
 6938SOL    HW132273   2.862   2.618   7.808  0.4160  1.9929 -0.5004
 6938SOL    HW232274   2.962   2.519   7.844 -0.0284  3.0477  2.3614
 6939SOL     OW32275   4.308   1.580  15.427 -0.3736  0.1571 -0.0128
 6939SOL    HW132276   4.306   1.582  15.331  0.0642  1.9009  0.0113
 6939SOL    HW232277   4.365   1.656  15.436 -3.5239  2.5014  0.0534
 6940SOL     OW32278   1.817   3.762   5.525  0.0898 -0.2265 -0.9856
 6940SOL    HW132279   1.811   3.762   5.620 -1.5171  3.2515 -1.1136
 6940SOL    HW232280   1.904   3.731   5.501  0.8490  1.0154  0.2170
 6941SOL     OW32281   3.476   1.986   7.040  0.6214 -0.5871  0.2751
 6941SOL    HW132282   3.545   2.052   7.047  0.4434 -0.2237 -1.3640
 6941SOL    HW232283   3.408   2.047   7.069 -0.0629 -0.6101 -1.2982
 6942SOL     OW32284   0.417   2.837   8.907  0.3117 -0.0897 -0.0762
 6942SOL    HW132285   0.406   2.876   8.820  2.6259 -0.4230 -0.5044
 6942SOL    HW232286   0.344   2.881   8.950 -2.0837 -1.5438 -2.6312
 6943SOL     OW32287   1.605   1.143   9.212 -0.0140 -0.1382  0.1079
 6943SOL    HW132288   1.678   1.162   9.270 -0.5818  1.3734  0.3276
 6943SOL    HW232289   1.618   1.049   9.198 -1.4462 -0.2169 -0.7722
 6944SOL     OW32290   3.503   1.336   8.283 -0.1627 -0.5760  0.6105
 6944SOL    HW132291   3.526   1.261   8.228 -1.5005  0.3251 -1.1418
 6944SOL    HW232292   3.591   1.361   8.313 -1.5962  1.1913  3.3483
 6945SOL     OW32293   4.192   3.897   8.566 -0.3090  0.0883  0.2747
 6945SOL    HW132294   4.240   3.980   8.573 -0.0854 -0.0649  0.5664
 6945SOL    HW232295   4.261   3.833   8.586  0.0868 -0.2755 -2.1835
 6946SOL     OW32296   2.171   2.316   1.309  0.1769 -0.0709  0.4778
 6946SOL    HW132297   2.202   2.285   1.393  0.0642  0.0504  0.5642
 6946SOL    HW232298   2.099   2.255   1.291  1.0999 -1.0614  0.1606
 6947SOL     OW32299   0.088   1.126   4.867  0.6850 -0.1448 -0.0841
 6947SOL    HW132300   0.078   1.138   4.962  0.3338  0.4105 -0.1954
 6947SOL    HW232301   0.159   1.188   4.850 -1.8075  2.4020 -1.1231
 6948SOL     OW32302   1.090   3.068  10.351  0.6099  0.3445  0.1538
 6948SOL    HW132303   1.065   3.029  10.435  1.1307 -0.5284 -0.1004
 6948SOL    HW232304   1.000   3.094  10.333  1.0158  1.0492 -0.8765
 6949SOL     OW32305   3.315   0.045  13.286 -0.5180 -0.2285  0.4276
 6949SOL    HW132306   3.274   0.016  13.205 -1.3948  0.1737  0.7333
 6949SOL    HW232307   3.348   4.685  13.324  2.5835  1.2402  0.8732
 6950SOL     OW32308   0.365   2.854  14.298 -0.1244 -0.2079 -0.2975
 6950SOL    HW132309   0.393   2.763  14.294 -1.6016 -0.6103 -1.2202
 6950SOL    HW232310   0.271   2.850  14.280 -0.1668 -0.7303  0.0386
 6951SOL     OW32311   3.249   2.148  17.471 -0.1733 -0.6276 -0.7071
 6951SOL    HW132312   3.190   2.074  17.481  2.3944 -2.3491  1.4367
 6951SOL    HW232313   3.188   2.212  17.434 -0.8759  0.1406  1.8153
 6952SOL     OW32314   2.229   4.133   9.886  0.3727 -0.3705  0.3491
 6952SOL    HW132315   2.172   4.095   9.820 -2.5179  2.5026  1.1539
 6952SOL    HW232316   2.189   4.220   9.897 -0.6066 -0.5857 -1.5781
 6953SOL     OW32317   0.090   2.024   9.273 -0.1921 -0.1644  0.1765
 6953SOL    HW132318   0.123   1.934   9.277 -0.4991 -0.3553 -1.6654
 6953SOL    HW232319   0.068   2.028   9.367  1.0684  0.3394  0.4395
 6954SOL     OW32320   4.272   4.179   3.198  0.6675  0.4982  0.2165
 6954SOL    HW132321   4.300   4.224   3.118  3.6448  0.7666  1.4088
 6954SOL    HW232322   4.340   4.111   3.198 -0.8717 -1.0307  1.1881
 6955SOL     OW32323   3.256   1.828   2.423  0.2982  0.0109 -0.2656
 6955SOL    HW132324   3.256   1.918   2.455 -0.0090 -1.5002  3.9867
 6955SOL    HW232325   3.322   1.791   2.481  1.1438 -0.5461 -1.5975
 6956SOL     OW32326   0.648   3.658   4.481 -0.5625 -0.0328  0.1005
 6956SOL    HW132327   0.631   3.745   4.518  0.3072 -0.2506  1.0248
 6956SOL    HW232328   0.712   3.670   4.411 -1.4917  1.2341 -0.5414
 6957SOL     OW32329   1.851   2.341  12.423 -0.5486  0.3195 -0.0565
 6957SOL    HW132330   1.905   2.390  12.360  0.2382  1.4341  1.4858
 6957SOL    HW232331   1.924   2.296  12.466 -0.2374 -0.6726 -1.6163
 6958SOL     OW32332   0.878   2.683   5.291  0.3155  0.5001  0.0914
 6958SOL    HW132333   0.865   2.751   5.357  1.1925 -1.9270  2.7593
 6958SOL    HW232334   0.825   2.724   5.222  1.0493 -0.6670 -1.1612
 6959SOL     OW32335   2.816   1.966   4.689  0.0840  0.4673 -0.3206
 6959SOL    HW132336   2.747   2.031   4.678 -0.7760 -0.8036 -2.4874
 6959SOL    HW232337   2.868   2.007   4.758  1.3200 -0.4952 -0.6823
 6960SOL     OW32338   2.080   4.205  13.136  0.5350  0.5290 -0.0945
 6960SOL    HW132339   2.033   4.128  13.166 -0.8231  1.6620  0.6636
 6960SOL    HW232340   2.016   4.245  13.077 -1.2663 -0.2230  1.3549
 6961SOL     OW32341   4.390   1.939   9.105  0.0165 -0.2089  0.0393
 6961SOL    HW132342   4.433   1.945   9.190  0.9460 -2.4109 -0.2910
 6961SOL    HW232343   4.454   1.897   9.047  0.4226 -0.8187  0.9307
 6962SOL     OW32344   4.687   1.509  13.595  0.4836  0.3385 -0.5156
 6962SOL    HW132345   4.621   1.440  13.584 -0.3398  1.5357 -3.0406
 6962SOL    HW232346   4.717   1.506  13.686  2.1117 -0.4349 -1.0807
 6963SOL     OW32347   0.082   2.772  14.233  0.1209  0.3350  0.8692
 6963SOL    HW132348   0.063   2.680  14.218 -1.2866  0.8024 -0.2601
 6963SOL    HW232349   0.080   2.804  14.142  1.8429 -1.5266  0.1960
 6964SOL     OW32350   3.841   0.548   4.795 -0.7071 -0.1030  0.4592
 6964SOL    HW132351   3.937   0.541   4.796 -0.9270 -2.9860 -0.1687
 6964SOL    HW232352   3.814   0.461   4.824  3.0544 -1.7728 -0.9645
 6965SOL     OW32353   0.725   0.130  17.207 -0.4351  0.5678 -0.4979
 6965SOL    HW132354   0.760   0.206  17.252 -2.8528  0.9362  0.7771
 6965SOL    HW232355   0.631   0.144  17.192 -1.0363 -0.7577  1.9264
 6966SOL     OW32356   2.601   3.183   2.983  0.2267 -0.0843 -0.3294
 6966SOL    HW132357   2.662   3.176   3.056 -0.9601  1.3956  0.8087
 6966SOL    HW232358   2.644   3.129   2.917 -0.0699 -0.7431  0.0141
 6967SOL     OW32359   3.874   3.504   6.644  0.1403 -0.4946 -0.0250
 6967SOL    HW132360   3.946   3.441   6.645  0.1700 -0.4705 -0.3937
 6967SOL    HW232361   3.879   3.537   6.554 -2.2850  1.1000  0.4426
 6968SOL     OW32362   2.942   1.703  15.243 -0.7470  0.1965  0.2271
 6968SOL    HW132363   2.853   1.675  15.220 -0.3658 -2.0633  1.4949
 6968SOL    HW232364   2.956   1.654  15.324 -2.9646 -3.5597 -1.6902
 6969SOL     OW32365   2.954   1.611   4.695  0.2466 -0.0072 -0.5423
 6969SOL    HW132366   2.880   1.660   4.731 -2.1935 -1.8362 -3.0424
 6969SOL    HW232367   2.913   1.528   4.669  0.9651 -0.5841  0.1526
 6970SOL     OW32368   4.116   2.025   6.050  0.0374 -0.5249 -0.0982
 6970SOL    HW132369   4.056   2.001   6.120 -0.9477  1.8214 -0.1442
 6970SOL    HW232370   4.053   2.075   5.999 -1.2959 -2.0152  0.0764
 6971SOL     OW32371   2.779   4.017  11.996 -0.2314  0.1590  0.3258
 6971SOL    HW132372   2.724   3.968  12.057  1.7086  1.5251  3.2083
 6971SOL    HW232373   2.709   4.071  11.958  1.1659  1.9257  0.2280
 6972SOL     OW32374   0.542   1.011   7.294  0.0789 -0.2429 -0.3604
 6972SOL    HW132375   0.598   1.086   7.276  0.4207 -0.2596  0.6163
 6972SOL    HW232376   0.499   1.000   7.209 -0.8473 -1.6179  0.2796
 6973SOL     OW32377   4.407   3.588   7.362 -0.9487 -0.0352  0.0813
 6973SOL    HW132378   4.330   3.556   7.315  0.0682  2.3709 -3.2108
 6973SOL    HW232379   4.437   3.662   7.309 -0.0110 -0.9261 -0.6413
 6974SOL     OW32380   1.771   4.126   4.497 -0.0602 -0.9849  0.4274
 6974SOL    HW132381   1.679   4.099   4.500 -0.8983  1.9196  1.0845
 6974SOL    HW232382   1.772   4.149   4.404 -1.6874  1.0278  0.8804
 6975SOL     OW32383   1.777   2.346   3.526 -0.0709  0.2787  0.1649
 6975SOL    HW132384   1.783   2.298   3.444  2.0859  0.6012  0.1204
 6975SOL    HW232385   1.710   2.293   3.570  0.8112 -0.5514  0.5285
 6976SOL     OW32386   3.735   4.360  14.065  0.0496 -0.2310 -0.0115
 6976SOL    HW132387   3.729   4.429  14.131 -1.3201  0.4681 -0.8775
 6976SOL    HW232388   3.708   4.282  14.113  0.4213 -1.1697 -1.3261
 6977SOL     OW32389   2.831   2.832   0.400 -0.6008 -0.2086 -0.3085
 6977SOL    HW132390   2.788   2.911   0.431 -0.0632 -0.4009  0.8985
 6977SOL    HW232391   2.837   2.858   0.308 -1.1537  1.1396  0.0462
 6978SOL     OW32392   3.017   3.191   5.945  0.0279 -0.0667 -0.3398
 6978SOL    HW132393   3.089   3.128   5.944 -0.6268 -0.8184  1.4450
 6978SOL    HW232394   3.062   3.262   5.993  0.1320 -0.6843  0.4736
 6979SOL     OW32395   1.212   3.698   8.365  0.1024 -0.2468 -0.0799
 6979SOL    HW132396   1.119   3.698   8.387 -0.0475 -0.0822 -0.7366
 6979SOL    HW232397   1.219   3.791   8.345  0.2501  0.1722  1.8995
 6980SOL     OW32398   0.218   0.334   7.363 -0.2201  0.2617 -0.3218
 6980SOL    HW132399   0.202   0.345   7.269  0.1465  0.4572 -0.3604
 6980SOL    HW232400   0.287   0.268   7.365 -0.7661 -0.3930 -3.1871
 6981SOL     OW32401   2.651   3.335   4.767 -0.3717 -0.1009  0.2278
 6981SOL    HW132402   2.666   3.247   4.802 -2.6569 -1.2675 -1.7369
 6981SOL    HW232403   2.736   3.358   4.729 -0.8613  1.7736  0.3108
 6982SOL     OW32404   4.569   1.602   6.496  0.1085  0.0029  0.4702
 6982SOL    HW132405   4.512   1.631   6.425  0.3345  2.4523  1.3171
 6982SOL    HW232406   4.542   1.664   6.563 -0.0427 -0.4451  0.8241
 6983SOL     OW32407   0.400   0.851   4.648 -0.6862  0.7499  0.0058
 6983SOL    HW132408   0.445   0.809   4.574 -1.1673 -0.4687  0.4052
 6983SOL    HW232409   0.470   0.912   4.673  0.8399 -1.3757  0.9440
 6984SOL     OW32410   0.313   3.365   5.778  0.1840  0.0926 -0.6889
 6984SOL    HW132411   0.363   3.315   5.842  0.3801  0.1250 -0.8186
 6984SOL    HW232412   0.297   3.446   5.826  0.7847 -0.1300 -0.1155
 6985SOL     OW32413   1.053   0.484  16.190  0.5248  0.5025 -0.4063
 6985SOL    HW132414   1.001   0.418  16.236  0.7024  2.0805  2.1002
 6985SOL    HW232415   1.020   0.485  16.100  2.5692 -2.2275 -1.1619
 6986SOL     OW32416   4.576   0.144  16.954 -0.6115 -0.2645 -0.3496
 6986SOL    HW132417   4.556   0.168  16.864  0.6076  0.2564 -0.4764
 6986SOL    HW232418   4.491   0.107  16.980 -0.9747 -0.0845 -1.2788
 6987SOL     OW32419   3.585   1.356   2.119 -0.3172 -0.0944  0.0207
 6987SOL    HW132420   3.675   1.338   2.143 -0.4135  1.2163  1.3107
 6987SOL    HW232421   3.589   1.388   2.028 -0.9649 -1.5307 -0.5200
 6988SOL     OW32422   3.376   3.919  11.659  0.0669  0.2913 -0.2203
 6988SOL    HW132423   3.287   3.952  11.668  0.3217  1.2794 -1.3732
 6988SOL    HW232424   3.393   3.921  11.753 -1.0419  0.1553 -0.0124
 6989SOL     OW32425   4.687   1.620   5.154 -1.2257 -0.0395  0.1942
 6989SOL    HW132426   4.678   1.586   5.243  0.7500  0.3124  0.5306
 6989SOL    HW232427   4.611   1.577   5.116 -2.0798  2.6574 -1.0968
 6990SOL     OW32428   3.719   0.026   0.384  0.3757  0.2232  0.2942
 6990SOL    HW132429   3.646   0.018   0.445 -0.0612 -0.0360 -0.2560
 6990SOL    HW232430   3.779   0.080   0.435  2.5651 -0.9576 -1.0290
 6991SOL     OW32431   2.684   0.027   4.091  0.0482  0.4996  0.4551
 6991SOL    HW132432   2.738   4.680   4.132 -0.6792 -0.4384 -0.1514
 6991SOL    HW232433   2.618   4.693   4.050  1.5000 -2.2050  1.6810
 6992SOL     OW32434   2.189   0.275   9.237 -0.3533  0.2396 -0.3769
 6992SOL    HW132435   2.128   0.242   9.172 -0.0072 -1.3540  0.1039
 6992SOL    HW232436   2.129   0.297   9.308  0.0241 -1.7429  0.5561
 6993SOL     OW32437   1.789   4.098   7.568 -0.1209 -0.4240 -0.1380
 6993SOL    HW132438   1.748   4.025   7.614  0.9131 -1.3050 -0.6176
 6993SOL    HW232439   1.772   4.177   7.620  1.5936 -0.6022  0.6878
 6994SOL     OW32440   2.644   3.872   9.333  0.0846 -0.5612  0.3594
 6994SOL    HW132441   2.713   3.816   9.298  0.5880  1.0809 -1.2823
 6994SOL    HW232442   2.630   3.834   9.420  0.3928 -0.3388  0.5060
 6995SOL     OW32443   4.688   0.086   8.214  0.4218  0.0687 -0.0821
 6995SOL    HW132444   4.637   0.142   8.272 -1.0778  0.4955 -1.8012
 6995SOL    HW232445   0.024   0.038   8.274 -1.6885 -0.9614  1.0761
 6996SOL     OW32446   3.624   0.434   2.911  0.3054 -0.2548 -0.4140
 6996SOL    HW132447   3.638   0.503   2.975 -0.3600  0.1966 -0.7593
 6996SOL    HW232448   3.708   0.450   2.868 -0.0615  0.2632 -0.9366
 6997SOL     OW32449   0.046   0.744  17.046 -0.8442  0.5853 -0.0489
 6997SOL    HW132450   0.110   0.674  17.057 -0.7344  0.5384 -0.9896
 6997SOL    HW232451   0.082   0.799  16.975  0.8563 -2.2383 -1.3692
 6998SOL     OW32452   1.528   2.534   2.822 -0.0591 -0.1622 -0.0236
 6998SOL    HW132453   1.613   2.537   2.778 -0.8488 -1.0345 -1.5767
 6998SOL    HW232454   1.550   2.524   2.915 -0.3022  1.3585  0.2009
 6999SOL     OW32455   1.348   0.916  12.931 -0.2064  0.0852  0.1470
 6999SOL    HW132456   1.399   0.988  12.894 -1.3493  0.2722 -1.0225
 6999SOL    HW232457   1.267   0.957  12.959  0.8816  3.3953 -1.5506
 7000SOL     OW32458   1.207   0.579   3.359 -0.3048 -0.0548  0.1230
 7000SOL    HW132459   1.262   0.552   3.285 -1.2672 -0.4518 -0.4462
 7000SOL    HW232460   1.140   0.627   3.311  0.1923 -0.7905 -1.3456
 7001SOL     OW32461   4.228   0.530   0.879 -0.6822 -0.2012 -0.0369
 7001SOL    HW132462   4.278   0.581   0.943 -0.1227  1.2063 -1.5939
 7001SOL    HW232463   4.289   0.464   0.846  0.2107  1.0334 -0.8660
 7002SOL     OW32464   3.039   3.660   4.704  0.7874  0.3386 -0.0528
 7002SOL    HW132465   3.078   3.686   4.621  0.0174  1.9782  0.0834
 7002SOL    HW232466   3.089   3.709   4.769  0.3527 -1.0550  1.3411
 7003SOL     OW32467   4.326   3.464   5.797  0.0093  0.4810  0.3789
 7003SOL    HW132468   4.339   3.552   5.761  0.6112  0.2320 -0.0203
 7003SOL    HW232469   4.323   3.490   5.889  1.2650 -1.1839  0.8876
 7004SOL     OW32470   0.275   3.875   2.583  0.4204  0.5437  0.2034
 7004SOL    HW132471   0.325   3.944   2.540 -2.3104  1.6884 -1.0705
 7004SOL    HW232472   0.280   3.913   2.671  3.5108  0.0513  0.2317
 7005SOL     OW32473   2.390   3.601   6.265  0.2593  0.4549 -0.4812
 7005SOL    HW132474   2.336   3.525   6.247 -0.4184  1.3682 -2.3903
 7005SOL    HW232475   2.346   3.671   6.216  2.5141  0.9406 -1.7866
 7006SOL     OW32476   2.720   2.202   0.524  0.2217 -0.0417 -0.1832
 7006SOL    HW132477   2.742   2.210   0.431  0.1672 -0.0533 -0.1965
 7006SOL    HW232478   2.632   2.240   0.523  0.1386 -0.2271  0.1540
 7007SOL     OW32479   2.833   4.156   6.920  0.0138  0.1473 -0.0306
 7007SOL    HW132480   2.918   4.112   6.924  0.5913  1.0296 -2.7813
 7007SOL    HW232481   2.786   4.109   6.990  0.1462  2.1071  1.3621
 7008SOL     OW32482   4.152   0.077   7.930  0.1507 -0.7375 -0.6256
 7008SOL    HW132483   4.191   0.135   7.864  2.7212  0.1216  1.6656
 7008SOL    HW232484   4.062   0.103   7.912  0.1575 -0.7338 -0.6539
 7009SOL     OW32485   1.557   0.804   7.436  0.1814 -0.2141  0.0026
 7009SOL    HW132486   1.588   0.831   7.523 -1.5822  0.3421  0.4654
 7009SOL    HW232487   1.617   0.734   7.414  0.5188  0.7420 -2.1047
 7010SOL     OW32488   2.172   3.440  13.778 -0.1658 -0.1029  0.5576
 7010SOL    HW132489   2.109   3.376  13.812  0.2578 -1.5828 -1.4608
 7010SOL    HW232490   2.123   3.471  13.702 -1.5083  0.3677  1.6101
 7011SOL     OW32491   4.337   1.521  13.007 -0.5924  0.4489  0.0970
 7011SOL    HW132492   4.286   1.597  13.032  0.7758  1.4929 -0.2693
 7011SOL    HW232493   4.414   1.535  13.062 -0.7504 -0.5897  0.5719
 7012SOL     OW32494   1.665   3.179   4.429 -0.3615 -0.0272  0.8145
 7012SOL    HW132495   1.578   3.217   4.416 -0.5286 -0.1991  1.4270
 7012SOL    HW232496   1.689   3.168   4.337  1.1823 -1.4288  1.3693
 7013SOL     OW32497   2.520   1.220   1.548  0.1518 -0.6131 -0.0404
 7013SOL    HW132498   2.475   1.272   1.481  1.2919 -1.7966 -1.7155
 7013SOL    HW232499   2.456   1.151   1.566 -0.2045 -0.0052  1.0354
 7014SOL     OW32500   4.089   2.385   1.571 -0.4961 -0.2422 -0.0475
 7014SOL    HW132501   4.107   2.452   1.505  0.1075 -0.0113  0.3451
 7014SOL    HW232502   4.088   2.300   1.527  0.7562 -1.1197  1.5826
 7015SOL     OW32503   2.347   2.779  16.722  0.7055 -0.1407  0.2257
 7015SOL    HW132504   2.333   2.866  16.760 -0.9810 -0.0855 -0.5536
 7015SOL    HW232505   2.440   2.767  16.742  0.7164 -0.8720 -0.2429
 7016SOL     OW32506   2.582   1.504   7.532  0.3768  0.4339  0.3291
 7016SOL    HW132507   2.571   1.469   7.621 -0.9918  2.1881  0.8488
 7016SOL    HW232508   2.555   1.427   7.483  0.8953 -0.6758  1.7693
 7017SOL     OW32509   1.215   3.576   7.222 -0.2462 -0.0493  0.1768
 7017SOL    HW132510   1.234   3.554   7.313 -1.0070 -0.2669  0.2772
 7017SOL    HW232511   1.243   3.495   7.180 -3.2346  0.2854 -2.4147
 7018SOL     OW32512   4.233   4.674   8.165  0.1112  0.1076  0.6570
 7018SOL    HW132513   4.214   4.699   8.075  3.6271  1.3751  0.2941
 7018SOL    HW232514   4.297   4.607   8.143 -1.0990 -0.9194  0.2877
 7019SOL     OW32515   2.791   1.318   4.071 -0.1363 -0.1945  0.0152
 7019SOL    HW132516   2.881   1.290   4.058 -0.3150 -0.5696 -0.4197
 7019SOL    HW232517   2.797   1.403   4.027  2.3862 -0.6450 -0.4953
 7020SOL     OW32518   1.936   3.508   5.241 -0.0326 -0.4857 -0.2147
 7020SOL    HW132519   1.948   3.603   5.235 -1.6785 -0.2751 -0.2308
 7020SOL    HW232520   1.947   3.490   5.148 -0.0039 -0.4996 -0.2088
 7021SOL     OW32521   2.775   0.408   0.096 -0.0508 -0.2758 -0.0793
 7021SOL    HW132522   2.741   0.440   0.012  0.8304  0.0051 -0.3328
 7021SOL    HW232523   2.839   0.344   0.064 -0.4032 -0.0615 -1.2121
 7022SOL     OW32524   1.624   2.508  10.839  0.4755 -0.2139 -0.4337
 7022SOL    HW132525   1.637   2.419  10.872  1.0105  0.3612  0.9233
 7022SOL    HW232526   1.714   2.541  10.846 -0.0255  0.3934  3.1755
 7023SOL     OW32527   3.162   2.804   9.684  0.4855  0.6940 -0.4816
 7023SOL    HW132528   3.102   2.861   9.637  1.2694 -0.4610 -2.8885
 7023SOL    HW232529   3.118   2.719   9.675  0.1858  0.9627 -1.5386
 7024SOL     OW32530   1.012   2.565  11.148  0.2462  0.3398 -0.1929
 7024SOL    HW132531   0.975   2.599  11.067 -1.6167 -2.1583 -0.3935
 7024SOL    HW232532   1.082   2.630  11.155  0.5912  0.1064 -1.4574
 7025SOL     OW32533   0.212   2.123   5.331 -0.1432 -0.3394 -0.1247
 7025SOL    HW132534   0.139   2.060   5.336 -0.8853  0.3912 -1.8552
 7025SOL    HW232535   0.254   2.112   5.417  1.7204 -1.0995 -1.1293
 7026SOL     OW32536   1.970   1.259   6.263 -0.1124  0.4055 -0.0141
 7026SOL    HW132537   2.047   1.203   6.269  0.9015  2.0063  1.9148
 7026SOL    HW232538   1.928   1.230   6.182 -0.8888 -0.1855  0.6007
 7027SOL     OW32539   4.490   4.325  10.067  0.5870 -0.4997 -0.1308
 7027SOL    HW132540   4.470   4.389   9.999  1.5253  0.1134  0.1860
 7027SOL    HW232541   4.401   4.306  10.097  1.6730 -3.1262  1.4596
 7028SOL     OW32542   0.244   3.835   6.479 -0.0741 -0.0088  0.4866
 7028SOL    HW132543   0.194   3.753   6.490 -0.6693  0.2899  0.0068
 7028SOL    HW232544   0.327   3.819   6.524  0.6597  2.3317 -0.0509
 7029SOL     OW32545   1.424   2.103  10.652  0.1397 -0.5794  0.5833
 7029SOL    HW132546   1.365   2.175  10.675 -0.8986 -0.9055 -1.1019
 7029SOL    HW232547   1.386   2.078  10.568  1.1500 -2.3021  0.6395
 7030SOL     OW32548   0.026   0.013  12.999 -0.3270 -0.5896  0.0123
 7030SOL    HW132549   0.110   0.058  12.999 -0.4198 -0.4387  2.7238
 7030SOL    HW232550   0.024   4.692  13.085 -1.0926  1.9995  1.2377
 7031SOL     OW32551   3.141   1.258   7.501 -0.8312  0.0921 -0.7391
 7031SOL    HW132552   3.199   1.184   7.483  1.7740  1.5255  1.8172
 7031SOL    HW232553   3.202   1.319   7.542 -2.2547 -1.0388  3.0497
 7032SOL     OW32554   0.089   1.184   2.324  0.1994 -0.0077 -0.4114
 7032SOL    HW132555   0.142   1.104   2.319  0.1298 -0.0107 -1.1491
 7032SOL    HW232556   0.005   1.149   2.353 -1.2389  1.0416 -3.2818
 7033SOL     OW32557   3.456   0.288   7.885  0.3561  0.6544  0.0552
 7033SOL    HW132558   3.451   0.288   7.980 -1.5360 -1.5188 -0.0417
 7033SOL    HW232559   3.364   0.310   7.868 -0.2144  0.3059  2.7301
 7034SOL     OW32560   3.902   0.546   6.287  0.1245 -0.2571 -0.2134
 7034SOL    HW132561   3.992   0.572   6.268 -0.1412 -0.2750 -1.4554
 7034SOL    HW232562   3.866   0.544   6.199 -0.8080  1.7503  0.1382
 7035SOL     OW32563   1.735   3.304   1.553  0.7942  0.2284 -0.0712
 7035SOL    HW132564   1.826   3.278   1.540  0.7420 -0.4390  0.8861
 7035SOL    HW232565   1.747   3.399   1.554  0.2279  0.2998  0.1760
 7036SOL     OW32566   0.006   0.489   3.884  0.2109 -0.6022 -0.2876
 7036SOL    HW132567   0.003   0.574   3.841 -1.2033 -0.7981 -0.6025
 7036SOL    HW232568   0.027   0.513   3.974  4.2636 -2.1395 -0.8500
 7037SOL     OW32569   3.439   2.430   1.964 -0.2671 -0.0314 -0.3054
 7037SOL    HW132570   3.361   2.423   1.909 -0.3157 -1.3430 -0.0679
 7037SOL    HW232571   3.497   2.369   1.919 -1.6358 -1.0574 -0.6758
 7038SOL     OW32572   0.621   3.676   1.272 -0.1610 -0.1146 -0.4544
 7038SOL    HW132573   0.660   3.758   1.242  2.0581 -1.3852 -0.9709
 7038SOL    HW232574   0.526   3.691   1.269 -0.4202 -1.7454 -0.1922
 7039SOL     OW32575   3.506   3.076   7.368  0.1984  0.1478  0.3989
 7039SOL    HW132576   3.559   2.997   7.356  0.4916  0.2314  1.0975
 7039SOL    HW232577   3.454   3.068   7.288 -1.7275  0.4601  1.5946
 7040SOL     OW32578   2.332   2.426   0.432  0.3321 -0.3955 -0.2881
 7040SOL    HW132579   2.391   2.474   0.490 -0.7540 -0.8317  1.1752
 7040SOL    HW232580   2.390   2.402   0.359 -0.2730  2.1782 -1.6215
 7041SOL     OW32581   4.635   1.162   5.811 -0.3120 -0.5510 -0.0985
 7041SOL    HW132582   4.704   1.185   5.748 -0.1365 -0.7139  0.0367
 7041SOL    HW232583   4.651   1.070   5.829 -0.3963 -0.8280 -1.3892
 7042SOL     OW32584   3.908   1.858  15.838  0.2961 -0.3985 -0.0203
 7042SOL    HW132585   3.846   1.785  15.830  0.6026 -0.8321  1.6293
 7042SOL    HW232586   3.938   1.884  15.751  1.8244  1.0645  0.9401
 7043SOL     OW32587   2.341   3.919   8.433 -0.6929 -0.0984  0.3839
 7043SOL    HW132588   2.347   3.999   8.486  0.4162 -0.7265  1.2089
 7043SOL    HW232589   2.307   3.948   8.349  2.2195 -0.6108 -0.9509
 7044SOL     OW32590   4.662   3.907   3.513 -0.1322 -0.5978 -0.1949
 7044SOL    HW132591   4.717   3.962   3.457 -0.1577  1.6614  2.0136
 7044SOL    HW232592   0.004   3.862   3.569  2.1674 -0.3388 -2.5762
 7045SOL     OW32593   4.500   2.500   4.448  0.6430  0.5374 -0.0635
 7045SOL    HW132594   4.471   2.435   4.384 -0.9370  1.1367  0.0495
 7045SOL    HW232595   4.533   2.566   4.387  0.7453  0.3987 -0.1585
 7046SOL     OW32596   0.161   4.172   5.620 -0.5584  0.3089 -0.2872
 7046SOL    HW132597   0.143   4.078   5.632 -2.3017  0.7004  0.1153
 7046SOL    HW232598   0.092   4.220   5.665 -0.8671  1.1178 -1.6307
 7047SOL     OW32599   2.148   1.412  12.415 -0.8856  0.1457 -0.3399
 7047SOL    HW132600   2.206   1.446  12.483 -1.1259 -0.9434  0.4140
 7047SOL    HW232601   2.215   1.371  12.360 -1.4106 -0.4918 -0.5026
 7048SOL     OW32602   3.248   4.141   8.267 -0.0095  0.2677 -0.2456
 7048SOL    HW132603   3.328   4.098   8.299  0.5426  1.4467 -0.0232
 7048SOL    HW232604   3.204   4.084   8.204 -0.8858  0.5030  0.1638
 7049SOL     OW32605   3.043   3.452  14.317  0.7590 -0.7288 -0.6944
 7049SOL    HW132606   3.126   3.403  14.313  1.9074  1.4331 -2.9762
 7049SOL    HW232607   2.990   3.389  14.367 -0.8415  0.0499 -1.4142
 7050SOL     OW32608   4.523   3.713   7.610 -0.2590  0.0627  0.1865
 7050SOL    HW132609   4.505   3.644   7.547  1.7784  0.8872 -1.3360
 7050SOL    HW232610   4.442   3.712   7.661  1.8838 -2.4521  3.4801
 7051SOL     OW32611   2.272   1.405   5.226 -0.2729  0.2347 -0.4440
 7051SOL    HW132612   2.350   1.433   5.274  0.7491 -2.2440 -0.6399
 7051SOL    HW232613   2.215   1.473   5.261 -0.1932  0.4300 -0.6903
 7052SOL     OW32614   3.456   2.482  10.488 -0.6690  0.4016  0.1702
 7052SOL    HW132615   3.480   2.571  10.461  1.9800 -0.0634  1.0002
 7052SOL    HW232616   3.415   2.502  10.572 -2.4943  2.9475 -1.3310
 7053SOL     OW32617   2.146   2.983  16.057 -0.0533  0.2658 -0.1277
 7053SOL    HW132618   2.241   2.992  16.067 -0.0503 -0.6653  0.6834
 7053SOL    HW232619   2.137   3.030  15.974 -2.3281 -0.6136 -0.3752
 7054SOL     OW32620   3.778   1.889   2.142  0.1432 -0.3027 -0.2663
 7054SOL    HW132621   3.850   1.948   2.120 -0.8945  1.1841  0.2854
 7054SOL    HW232622   3.805   1.818   2.085  0.9211 -1.6040  1.7062
 7055SOL     OW32623   4.629   4.324   5.666 -0.2565  0.1871 -0.1336
 7055SOL    HW132624   4.574   4.251   5.696 -0.7410  0.0885 -1.2945
 7055SOL    HW232625   4.587   4.402   5.703  1.1298  0.2639  1.3037
 7056SOL     OW32626   1.540   3.663   5.964  0.4965  0.3023 -0.1887
 7056SOL    HW132627   1.497   3.597   5.910 -1.3657  0.1911  1.4147
 7056SOL    HW232628   1.505   3.742   5.922  0.9850 -0.2844 -1.6994
 7057SOL     OW32629   2.248   3.368  15.400 -0.0423 -0.4978  0.5621
 7057SOL    HW132630   2.303   3.345  15.475  2.1858 -1.1943 -1.2893
 7057SOL    HW232631   2.176   3.309  15.422  0.3073 -1.7718 -1.6818
 7058SOL     OW32632   2.839   1.280   6.522 -0.8789  0.1596  0.3822
 7058SOL    HW132633   2.748   1.265   6.496 -1.1878  1.3028  0.8064
 7058SOL    HW232634   2.875   1.229   6.449 -2.6085  1.8852 -1.6945
 7059SOL     OW32635   1.563   3.490   7.497  0.5693  0.1617  0.2783
 7059SOL    HW132636   1.495   3.553   7.520 -0.8992 -1.4056  0.2658
 7059SOL    HW232637   1.619   3.546   7.444  0.5030  1.1887  1.3169
 7060SOL     OW32638   3.146   3.512   9.141  0.0150 -0.7202  0.3430
 7060SOL    HW132639   3.058   3.526   9.174 -0.4180  2.1111 -2.0263
 7060SOL    HW232640   3.195   3.501   9.222  0.4939 -4.9323 -0.5336
 7061SOL     OW32641   4.415   3.023  10.177  0.5962 -0.3825  0.3779
 7061SOL    HW132642   4.328   3.058  10.197 -0.1844 -0.7968 -2.2185
 7061SOL    HW232643   4.438   2.970  10.253 -0.9510  0.1931  1.2356
 7062SOL     OW32644   0.889   2.450   2.790 -0.2590 -0.0981 -0.4298
 7062SOL    HW132645   0.921   2.540   2.790 -2.8996  0.8568  0.3801
 7062SOL    HW232646   0.804   2.457   2.833  0.8592  2.5184  1.2956
 7063SOL     OW32647   1.189   0.246  13.197 -0.8256  0.0617 -0.9209
 7063SOL    HW132648   1.224   0.294  13.121 -3.7605  0.8303 -1.7695
 7063SOL    HW232649   1.216   0.156  13.180  0.7566  0.4097 -0.2230
 7064SOL     OW32650   2.616   2.002   1.779  0.5127  0.5411  0.7587
 7064SOL    HW132651   2.692   2.014   1.722  1.1813 -1.5136  1.2355
 7064SOL    HW232652   2.640   1.913   1.805 -0.3230  0.5928  1.7363
 7065SOL     OW32653   4.702   3.660   8.940 -0.2113 -0.0108 -0.1509
 7065SOL    HW132654   0.061   3.644   8.989  0.0825 -0.3778 -0.7612
 7065SOL    HW232655   4.635   3.644   9.008 -1.2846  1.3273 -0.9036
 7066SOL     OW32656   1.334   2.781   8.494 -1.0231 -0.4192 -0.3425
 7066SOL    HW132657   1.406   2.741   8.543 -1.6956 -0.2648  0.7873
 7066SOL    HW232658   1.384   2.785   8.413 -0.7013  1.3831 -0.0632
 7067SOL     OW32659   2.128   1.365   2.023  0.2633 -0.4336 -0.2909
 7067SOL    HW132660   2.060   1.361   2.090 -1.1142 -0.5060 -1.6962
 7067SOL    HW232661   2.205   1.346   2.076 -0.8043 -1.1488  1.0133
 7068SOL     OW32662   0.887   1.080  10.591 -0.1758 -0.4870 -0.0960
 7068SOL    HW132663   0.839   1.089  10.508 -2.3619  0.1732  1.2306
 7068SOL    HW232664   0.847   1.003  10.632 -1.3915  0.1838 -0.0242
 7069SOL     OW32665   4.607   0.038   5.659 -0.0568  0.5434  0.0993
 7069SOL    HW132666   4.541   0.049   5.591  3.0211 -0.4550 -3.0430
 7069SOL    HW232667   4.689   0.058   5.615 -0.0679  1.4112  0.4797
 7070SOL     OW32668   4.021   2.214  11.465 -0.2899 -0.5850  0.2624
 7070SOL    HW132669   4.101   2.172  11.434  0.1021  0.5249 -0.2523
 7070SOL    HW232670   3.954   2.146  11.464  0.6485 -1.5117  1.3892
 7071SOL     OW32671   0.695   3.019   8.068 -0.5920  0.7139 -0.0342
 7071SOL    HW132672   0.766   3.010   8.131 -2.0908 -1.4999  1.3346
 7071SOL    HW232673   0.617   2.989   8.115 -0.0565 -1.8158 -0.7556
 7072SOL     OW32674   1.207   1.898   1.876 -0.2409  0.3229  0.6493
 7072SOL    HW132675   1.300   1.905   1.856 -0.1945 -0.1747  0.7099
 7072SOL    HW232676   1.188   1.992   1.867  0.1919  0.1663 -1.8970
 7073SOL     OW32677   1.725   2.427   8.442  0.5189  0.2408 -0.6982
 7073SOL    HW132678   1.677   2.424   8.359  0.4076 -1.9347 -0.5565
 7073SOL    HW232679   1.780   2.502   8.420 -0.6891  1.9891  2.2106
 7074SOL     OW32680   3.589   0.874   3.622  0.2087  0.0423 -0.0400
 7074SOL    HW132681   3.683   0.871   3.606  0.2805  0.5802  0.2648
 7074SOL    HW232682   3.577   0.967   3.644  2.3942  0.7312 -1.7446
 7075SOL     OW32683   2.791   3.831   2.262 -0.3288 -0.2716 -0.1538
 7075SOL    HW132684   2.885   3.846   2.247  0.2799 -1.7679  2.3293
 7075SOL    HW232685   2.757   3.840   2.173 -1.0783 -0.2044  0.1439
 7076SOL     OW32686   4.204   2.881   4.007  0.4331 -1.0129  0.6342
 7076SOL    HW132687   4.271   2.830   4.053 -1.1844 -3.9743 -0.3214
 7076SOL    HW232688   4.260   2.958   3.999 -0.5252 -0.2030  1.6312
 7077SOL     OW32689   1.859   0.940   8.081 -0.1287  0.5655 -0.1678
 7077SOL    HW132690   1.859   1.001   8.155  0.3907  0.2048  0.1297
 7077SOL    HW232691   1.797   0.878   8.121  1.2424 -0.6087  0.1433
 7078SOL     OW32692   2.511   0.264  14.519 -0.3872 -0.1086  0.1685
 7078SOL    HW132693   2.537   0.177  14.548  2.6171  0.2593 -1.3601
 7078SOL    HW232694   2.593   0.312  14.510  1.0288 -2.6010 -0.0236
 7079SOL     OW32695   1.899   1.626   3.158  0.6495  0.1583 -0.7155
 7079SOL    HW132696   1.978   1.596   3.203  2.5442  1.0513 -3.4208
 7079SOL    HW232697   1.830   1.614   3.223 -0.6067  1.2594 -1.8206
 7080SOL     OW32698   2.526   2.210   8.561  0.1774 -0.1875 -0.0880
 7080SOL    HW132699   2.488   2.159   8.632 -1.7929  0.1921 -0.8467
 7080SOL    HW232700   2.520   2.298   8.597  1.9579 -1.3302  2.9658
 7081SOL     OW32701   3.579   1.195   0.027 -0.1726  0.1922  0.4020
 7081SOL    HW132702   3.506   1.133   0.030 -0.6428  0.7426  0.5482
 7081SOL    HW232703   3.591   1.177  17.621  2.4717 -1.0447  1.0201
 7082SOL     OW32704   4.205   3.367   3.039 -0.7786  0.0607  0.2206
 7082SOL    HW132705   4.151   3.400   3.112 -2.7213 -1.6853 -0.4503
 7082SOL    HW232706   4.185   3.274   3.042 -0.3318 -0.1144 -2.5341
 7083SOL     OW32707   2.051   0.049   6.675 -0.1922  0.0361  0.3087
 7083SOL    HW132708   2.105   0.060   6.753 -0.6455 -1.2542  0.8077
 7083SOL    HW232709   2.068   4.679   6.649 -0.5056 -0.2199  1.0070
 7084SOL     OW32710   1.034   0.950   6.040  0.3487  0.4057  0.5248
 7084SOL    HW132711   1.042   0.862   6.076 -0.3840 -0.4030 -1.2323
 7084SOL    HW232712   1.125   0.966   6.015  0.3719 -1.3247 -0.5344
 7085SOL     OW32713   2.505   3.348   9.624  0.4846  0.6862 -0.3753
 7085SOL    HW132714   2.430   3.351   9.565 -0.7139  0.2174  1.1127
 7085SOL    HW232715   2.571   3.305   9.571  0.0411 -0.2110 -0.1986
 7086SOL     OW32716   3.827   1.770  12.076  0.0070  0.3584 -0.1140
 7086SOL    HW132717   3.776   1.704  12.123  0.0825  0.6973  0.4527
 7086SOL    HW232718   3.859   1.812  12.156 -1.0551  0.4698  0.2527
 7087SOL     OW32719   0.364   1.461   8.023  0.6126 -0.3885  0.3479
 7087SOL    HW132720   0.281   1.477   8.068  0.7746  1.0274  0.1607
 7087SOL    HW232721   0.334   1.457   7.932 -1.0387 -0.2705  0.8920
 7088SOL     OW32722   3.388   1.457   9.453  0.5094  0.3672 -0.4497
 7088SOL    HW132723   3.342   1.373   9.460  1.0335  0.2568  1.7053
 7088SOL    HW232724   3.457   1.424   9.394 -1.3321 -1.9544 -1.3198
 7089SOL     OW32725   3.253   1.664   4.622  0.1302 -0.4669  0.5379
 7089SOL    HW132726   3.239   1.691   4.532 -1.2118 -1.9896  0.2860
 7089SOL    HW232727   3.169   1.633   4.655  0.2961  0.9911  2.3354
 7090SOL     OW32728   3.550   3.718   3.561 -0.3936 -0.4972 -0.3131
 7090SOL    HW132729   3.561   3.811   3.583  0.5927 -0.1121 -2.5182
 7090SOL    HW232730   3.589   3.675   3.637  0.8631  2.0179  0.4728
 7091SOL     OW32731   2.681   3.038   1.334  0.0719  0.0471 -0.3566
 7091SOL    HW132732   2.622   3.103   1.371  0.4665 -0.6555  1.5201
 7091SOL    HW232733   2.729   3.096   1.275 -0.1975 -0.8149 -1.4213
 7092SOL     OW32734   1.645   1.340   6.897 -0.3547  0.1893  0.1235
 7092SOL    HW132735   1.735   1.364   6.919  0.0460 -0.6413 -0.6121
 7092SOL    HW232736   1.597   1.415   6.930 -0.2578 -0.1082  0.9450
 7093SOL     OW32737   4.032   2.954   8.326 -0.2566  0.6088  0.2151
 7093SOL    HW132738   4.063   2.967   8.237 -2.6226  1.3634 -0.5033
 7093SOL    HW232739   4.005   2.862   8.325 -1.0486  0.8389 -0.0684
 7094SOL     OW32740   1.023   3.838   6.257  0.2031  0.7761 -0.6166
 7094SOL    HW132741   1.092   3.872   6.200  1.9973  0.5834  1.4169
 7094SOL    HW232742   0.942   3.860   6.211  0.1498  0.9669 -0.4337
 7095SOL     OW32743   0.513   1.314   2.705 -0.0438  0.2082  0.1787
 7095SOL    HW132744   0.567   1.246   2.746 -0.0917 -0.9891 -1.7857
 7095SOL    HW232745   0.441   1.262   2.669 -1.0219  1.2773  0.5741
 7096SOL     OW32746   3.001   0.952   4.749 -0.0870 -0.0811  0.4327
 7096SOL    HW132747   3.022   0.859   4.748  0.9200  0.1125  2.2118
 7096SOL    HW232748   3.075   0.979   4.803  0.8644  0.3558 -1.0871
 7097SOL     OW32749   3.625   3.837   1.131 -0.1555  0.0157 -0.4579
 7097SOL    HW132750   3.546   3.818   1.080  0.7722  0.3003 -1.9925
 7097SOL    HW232751   3.633   3.763   1.191 -2.4059  1.9159  2.2079
 7098SOL     OW32752   0.060   2.565   8.889 -0.4705  0.1378  0.0292
 7098SOL    HW132753   4.707   2.626   8.890 -0.4484  0.1656 -0.1218
 7098SOL    HW232754   0.074   2.554   8.795  0.7690 -1.2765  0.3942
 7099SOL     OW32755   2.879   1.455   4.430 -0.1450  0.5317 -0.0362
 7099SOL    HW132756   2.808   1.403   4.394  0.0704 -0.1180  0.4828
 7099SOL    HW232757   2.829   1.528   4.467 -0.7630 -0.4332  1.0316
 7100SOL     OW32758   1.391   1.087   7.177  1.0414  0.6067 -0.3846
 7100SOL    HW132759   1.352   1.173   7.165  1.6887  1.2125  1.8734
 7100SOL    HW232760   1.378   1.050   7.089  0.8617  0.8900 -0.4740
 7101SOL     OW32761   0.532   3.441   7.899  0.3890 -0.2077  0.9185
 7101SOL    HW132762   0.606   3.431   7.959  1.0932 -2.3429 -0.2972
 7101SOL    HW232763   0.524   3.536   7.907  0.8439 -0.1958  1.2928
 7102SOL     OW32764   0.858   0.923   3.757  0.0837 -0.0843 -0.8147
 7102SOL    HW132765   0.847   1.007   3.801 -0.6654 -1.5047  1.7423
 7102SOL    HW232766   0.797   0.865   3.804 -1.3419  3.1692  1.3645
 7103SOL     OW32767   2.796   2.535   6.598  0.3347 -0.1939 -0.1036
 7103SOL    HW132768   2.747   2.479   6.538  1.5523 -0.6411 -0.6775
 7103SOL    HW232769   2.765   2.510   6.685  0.1324 -3.2068 -1.0439
 7104SOL     OW32770   3.998   2.432   3.743  0.0654  0.2737 -0.3058
 7104SOL    HW132771   4.017   2.399   3.831 -2.1131  0.0825  0.1009
 7104SOL    HW232772   4.064   2.500   3.731 -0.7942  0.9167 -1.3921
 7105SOL     OW32773   2.654   2.536   4.039  0.2521  0.8021  0.0429
 7105SOL    HW132774   2.682   2.524   4.130 -0.4560  0.1114  0.1720
 7105SOL    HW232775   2.701   2.460   4.004  0.7917  0.9104  0.5289
 7106SOL     OW32776   0.666   0.497   5.774  0.2393  0.5656  0.1062
 7106SOL    HW132777   0.743   0.442   5.760 -0.9294 -0.7475 -1.3119
 7106SOL    HW232778   0.697   0.582   5.803  1.0295  0.5749 -0.7609
 7107SOL     OW32779   1.610   1.261   2.393 -0.6182 -0.5158 -0.4145
 7107SOL    HW132780   1.617   1.200   2.466 -3.0208 -1.9065 -1.3309
 7107SOL    HW232781   1.606   1.197   2.322 -0.5149  0.4409 -1.2750
 7108SOL     OW32782   3.623   4.464   0.788 -0.2575  0.0418 -0.1665
 7108SOL    HW132783   3.614   4.540   0.845 -0.5530  0.1381 -0.3414
 7108SOL    HW232784   3.712   4.434   0.803  0.9810  1.8820 -3.8339
 7109SOL     OW32785   2.079   3.830   3.526 -0.0549  0.4686  0.6155
 7109SOL    HW132786   2.047   3.751   3.483  1.6151  0.7958 -1.2321
 7109SOL    HW232787   2.073   3.810   3.619  2.4678 -0.9835  0.4736
 7110SOL     OW32788   2.877   4.170   8.362 -0.1339  0.5104 -0.1025
 7110SOL    HW132789   2.870   4.079   8.393 -0.8190  0.1063 -1.4405
 7110SOL    HW232790   2.811   4.152   8.295 -0.5125  1.4992  0.0204
 7111SOL     OW32791   1.452   1.611   3.905  0.3750 -0.3995 -0.6875
 7111SOL    HW132792   1.507   1.539   3.874  4.0939  2.9788 -1.8266
 7111SOL    HW232793   1.524   1.665   3.936 -0.7515 -0.6384  2.3810
 7112SOL     OW32794   1.383   1.555  16.292 -0.2068  0.2518 -0.2193
 7112SOL    HW132795   1.412   1.586  16.378  1.1811  0.2070 -0.6793
 7112SOL    HW232796   1.423   1.468  16.290 -1.5941 -0.3518 -1.8863
 7113SOL     OW32797   3.184   3.218  11.119 -0.2367 -0.7983  0.5027
 7113SOL    HW132798   3.243   3.172  11.179  1.2834  0.8102  0.2657
 7113SOL    HW232799   3.101   3.178  11.144  0.5138 -2.3001  0.6050
 7114SOL     OW32800   0.226   3.436   1.224 -0.2621  0.1880  0.1187
 7114SOL    HW132801   0.270   3.351   1.224  0.1678  0.4213 -2.2085
 7114SOL    HW232802   0.145   3.429   1.173 -0.4959 -1.6429  0.7245
 7115SOL     OW32803   2.363   2.908   8.169 -0.2282  0.5782 -0.4466
 7115SOL    HW132804   2.350   2.846   8.241  3.3063 -0.9903 -1.1909
 7115SOL    HW232805   2.458   2.914   8.173 -0.1195 -1.6442 -0.0152
 7116SOL     OW32806   3.989   1.159  17.669 -0.5391  0.1680 -0.1230
 7116SOL    HW132807   4.056   1.157  17.601  0.5957 -0.5551  1.0074
 7116SOL    HW232808   4.037   1.121   0.055  1.0092  0.8165 -0.8095
 7117SOL     OW32809   3.848   2.537   6.525 -0.1837  0.3290  0.2880
 7117SOL    HW132810   3.772   2.565   6.473 -0.2537  1.6667  1.1009
 7117SOL    HW232811   3.919   2.553   6.463 -0.1748 -0.0622  0.2001
 7118SOL     OW32812   2.996   1.828   4.519  0.4414  0.4445 -0.2597
 7118SOL    HW132813   2.962   1.760   4.577  1.3834  0.6023  0.4790
 7118SOL    HW232814   2.971   1.914   4.554 -1.5045 -1.1138  2.1768
 7119SOL     OW32815   2.373   3.168   0.957  0.1249  0.7131 -0.3791
 7119SOL    HW132816   2.375   3.073   0.946  1.9043  0.6556  0.3341
 7119SOL    HW232817   2.317   3.189   1.031 -1.3501 -1.6774 -0.8359
 7120SOL     OW32818   2.023   3.018   8.289  0.2828 -0.4246  0.3009
 7120SOL    HW132819   2.061   2.931   8.297  0.0965 -0.6232 -0.9435
 7120SOL    HW232820   2.103   3.071   8.286 -0.6628  1.0795  1.4694
 7121SOL     OW32821   4.181   4.273  16.557 -0.1245  0.2771 -0.2132
 7121SOL    HW132822   4.243   4.277  16.484  2.4977 -0.9705  1.9473
 7121SOL    HW232823   4.118   4.329  16.513  0.8343  2.0863  0.7351
 7122SOL     OW32824   4.566   4.657   2.155  0.4049 -0.1631  0.1027
 7122SOL    HW132825   4.580   4.562   2.159  3.2849  0.1345 -3.0412
 7122SOL    HW232826   4.636   4.679   2.093  0.0354 -0.7725 -0.5327
 7123SOL     OW32827   2.718   4.068   7.907  0.0125 -0.0911  0.1499
 7123SOL    HW132828   2.695   4.156   7.935  2.1641  1.4303 -2.9024
 7123SOL    HW232829   2.812   4.075   7.896  0.0880  1.5128  1.7276
 7124SOL     OW32830   3.105   2.619   3.146 -0.3295 -0.0920  0.2387
 7124SOL    HW132831   3.179   2.678   3.131  2.2411 -3.6603 -1.2592
 7124SOL    HW232832   3.040   2.649   3.082  1.2654  2.4547 -0.1730
 7125SOL     OW32833   3.711   2.236   2.770  0.2320  0.0838 -0.1116
 7125SOL    HW132834   3.750   2.215   2.685 -0.2902 -0.9453 -0.1019
 7125SOL    HW232835   3.793   2.263   2.812  0.3748 -1.1558  0.4240
 7126SOL     OW32836   1.281   2.505   4.623 -0.3822 -0.1325 -0.0172
 7126SOL    HW132837   1.302   2.508   4.530  0.3075  0.4971  0.1596
 7126SOL    HW232838   1.194   2.466   4.627  0.1895 -1.4425 -0.2259
 7127SOL     OW32839   0.535   2.259   0.975  0.1673 -0.2818  0.4803
 7127SOL    HW132840   0.540   2.177   1.023 -1.6784  0.3435  1.7343
 7127SOL    HW232841   0.519   2.325   1.043  0.3038  0.1569  0.0931
 7128SOL     OW32842   1.927   1.309   7.968  0.6664 -0.0853  0.4838
 7128SOL    HW132843   1.950   1.363   7.892 -0.0775  1.3977  1.3208
 7128SOL    HW232844   2.012   1.277   7.999  0.0606 -0.7836  1.4323
 7129SOL     OW32845   4.625   0.594   4.177 -0.7335  0.5343 -0.4534
 7129SOL    HW132846   4.615   0.502   4.156  0.4654  0.6908 -1.7490
 7129SOL    HW232847   4.716   0.594   4.207 -1.1083 -2.0092  0.6894
 7130SOL     OW32848   2.993   3.269   3.517  0.1183 -0.2831 -0.3488
 7130SOL    HW132849   2.947   3.186   3.534 -0.5969 -0.1060 -1.3946
 7130SOL    HW232850   3.082   3.233   3.515 -0.5134 -1.9236  0.3184
 7131SOL     OW32851   3.431   0.251   5.228  0.0294  0.0607  0.2128
 7131SOL    HW132852   3.349   0.285   5.263  0.6201  1.1603  0.5497
 7131SOL    HW232853   3.440   0.288   5.141 -0.9747 -0.2885 -0.0339
 7132SOL     OW32854   0.126   0.196   0.786 -0.2258 -0.1484 -0.7877
 7132SOL    HW132855   0.221   0.189   0.802  0.0095  1.5642 -1.4566
 7132SOL    HW232856   0.115   0.291   0.780  0.4148 -0.0498 -0.3672
 7133SOL     OW32857   0.621   1.208   9.391 -0.2125 -0.0888 -0.1201
 7133SOL    HW132858   0.615   1.278   9.456 -2.7878  0.5936 -1.0905
 7133SOL    HW232859   0.714   1.213   9.369 -0.3519  0.1157 -0.6700
 7134SOL     OW32860   0.598   2.796   9.098  0.2839  0.0114 -0.3661
 7134SOL    HW132861   0.528   2.788   9.163  1.7976  2.2098  1.5009
 7134SOL    HW232862   0.550   2.803   9.015 -0.9943  4.5917  0.7497
 7135SOL     OW32863   2.070   3.520  10.221  0.0172  0.2695 -0.9458
 7135SOL    HW132864   2.157   3.509  10.183  0.9454  0.5332  1.0851
 7135SOL    HW232865   2.055   3.607  10.185 -2.0296  0.6384  0.8174
 7136SOL     OW32866   3.330   3.645  16.761  0.3199 -0.0088 -0.3826
 7136SOL    HW132867   3.243   3.642  16.722  1.4961 -0.1458 -3.0124
 7136SOL    HW232868   3.320   3.649  16.856 -0.3916  0.2161 -0.4720
 7137SOL     OW32869   3.064   4.640   9.268  0.1731  0.4830  0.3284
 7137SOL    HW132870   3.014   4.652   9.349 -0.8692  1.0928 -0.4015
 7137SOL    HW232871   3.151   4.639   9.309 -0.0895 -2.2971  0.8339
 7138SOL     OW32872   0.468   4.305  10.959 -0.4594  0.2728  0.6328
 7138SOL    HW132873   0.420   4.373  10.912  1.2341  0.4761 -0.8027
 7138SOL    HW232874   0.458   4.235  10.894  0.0525  1.9875 -1.2797
 7139SOL     OW32875   2.509   3.507  16.169 -0.3764  0.0421 -0.5254
 7139SOL    HW132876   2.513   3.445  16.096  2.4718 -0.6244  0.1860
 7139SOL    HW232877   2.443   3.567  16.135 -2.3153 -0.5122  2.2736
 7140SOL     OW32878   4.378   3.057  15.237 -0.3472 -0.7004 -0.0313
 7140SOL    HW132879   4.418   3.141  15.262  3.0912 -1.9550 -1.3136
 7140SOL    HW232880   4.348   3.079  15.148 -0.7425 -1.0981  0.0065
 7141SOL     OW32881   2.799   2.358  11.851 -0.1682  0.1744 -0.1196
 7141SOL    HW132882   2.768   2.411  11.777  0.2315  2.1496  1.1471
 7141SOL    HW232883   2.851   2.422  11.899 -0.5267 -0.3298  0.9360
 7142SOL     OW32884   3.561   3.593   0.889 -0.0211 -0.2243 -0.8237
 7142SOL    HW132885   3.511   3.660   0.935  0.8978 -0.7291  0.9180
 7142SOL    HW232886   3.484   3.559   0.845 -1.8182  1.9109  0.6877
 7143SOL     OW32887   0.994   3.938   3.154 -0.6791 -0.3319 -0.3974
 7143SOL    HW132888   1.033   4.023   3.131 -0.7298  0.1688  1.3578
 7143SOL    HW232889   1.073   3.885   3.163 -0.8243 -0.5819 -0.6161
 7144SOL     OW32890   2.743   3.185  12.974 -0.3430 -0.6280 -0.2603
 7144SOL    HW132891   2.748   3.130  12.895 -1.0884 -0.5510 -0.3636
 7144SOL    HW232892   2.659   3.225  12.947  0.6001 -0.1271 -2.4860
 7145SOL     OW32893   1.278   2.942   3.928  0.2762 -0.2209 -0.4136
 7145SOL    HW132894   1.196   2.954   3.881  0.2936  0.7659 -0.2000
 7145SOL    HW232895   1.341   2.974   3.863 -0.0221  1.0519 -0.0679
 7146SOL     OW32896   2.768   3.704   5.681  0.3349 -0.4318 -0.5049
 7146SOL    HW132897   2.763   3.743   5.594  1.4135 -0.1570 -0.4477
 7146SOL    HW232898   2.693   3.749   5.721 -0.9251 -0.8923 -2.3542
 7147SOL     OW32899   1.061   2.789   8.689 -0.3590 -0.1469 -0.2065
 7147SOL    HW132900   1.059   2.723   8.619 -1.0826 -0.4673  0.1167
 7147SOL    HW232901   1.024   2.727   8.752  3.6256 -0.1268  2.1183
 7148SOL     OW32902   0.777   2.856   7.330 -0.6008 -0.1960  0.2848
 7148SOL    HW132903   0.837   2.805   7.384  0.2820  0.0842 -0.4241
 7148SOL    HW232904   0.695   2.808   7.343 -1.4139  0.9501 -0.6510
 7149SOL     OW32905   4.432   3.772   4.611  0.1030 -0.5341 -0.5922
 7149SOL    HW132906   4.349   3.726   4.625 -0.6318 -0.0280 -3.1895
 7149SOL    HW232907   4.457   3.779   4.703  2.6088 -2.7855 -1.0781
 7150SOL     OW32908   0.991   3.176   8.453  0.7203 -0.2529 -0.4626
 7150SOL    HW132909   1.024   3.087   8.460 -1.2037 -1.0059 -1.0436
 7150SOL    HW232910   1.016   3.220   8.535 -1.2508 -0.7212  0.3781
 7151SOL     OW32911   1.719   2.733   8.345 -0.2914  0.1292 -0.3670
 7151SOL    HW132912   1.733   2.763   8.435 -3.3557 -1.4222  0.6509
 7151SOL    HW232913   1.780   2.796   8.307 -1.6172  0.4476 -1.9688
 7152SOL     OW32914   0.878   3.771   6.950 -0.5386 -0.0706  0.1903
 7152SOL    HW132915   0.922   3.694   6.912 -1.8143  0.4900 -2.4231
 7152SOL    HW232916   0.793   3.728   6.958 -0.9476  0.6423 -0.3701
 7153SOL     OW32917   2.409   3.247   7.531 -0.3259 -0.0349  0.3601
 7153SOL    HW132918   2.318   3.257   7.559 -1.4989  0.4451 -3.5888
 7153SOL    HW232919   2.446   3.326   7.570  0.2209 -1.6050  3.0292
 7154SOL     OW32920   2.894   4.293   5.980  0.0885  0.5614 -0.6417
 7154SOL    HW132921   2.822   4.332   5.931 -1.0831  1.1674  1.5338
 7154SOL    HW232922   2.870   4.300   6.073  2.0937 -0.5868 -0.0260
 7155SOL     OW32923   0.784   1.261   5.340  0.3312 -0.4363  0.4086
 7155SOL    HW132924   0.792   1.170   5.311  1.0894  0.4205 -2.0337
 7155SOL    HW232925   0.787   1.307   5.256  0.3080 -0.0230  0.6337
 7156SOL     OW32926   1.720   3.009   5.028 -0.3057  0.0872 -0.2153
 7156SOL    HW132927   1.772   3.006   5.109  1.0508  1.6496 -1.0268
 7156SOL    HW232928   1.737   2.923   4.990  1.3327  2.2337 -4.2455
 7157SOL     OW32929   3.019   2.185   0.105  0.1336 -0.4547  0.1812
 7157SOL    HW132930   3.108   2.219   0.093 -0.3486  0.7567  0.0459
 7157SOL    HW232931   2.963   2.248   0.060  1.6279 -1.0386 -2.5606
 7158SOL     OW32932   0.733   2.719   5.047  0.6590 -1.0831 -0.1667
 7158SOL    HW132933   0.814   2.718   4.997 -0.2256  0.5795 -1.6158
 7158SOL    HW232934   0.676   2.664   4.992 -0.2388 -0.9628  0.6348
 7159SOL     OW32935   3.968   2.306   2.881 -0.0458 -0.2069 -0.1743
 7159SOL    HW132936   4.032   2.366   2.843 -0.4984  0.4552  0.1169
 7159SOL    HW232937   3.996   2.319   2.972 -1.0122  2.6836 -0.2867
 7160SOL     OW32938   0.117   2.167  12.493 -0.5588  0.3619 -0.1335
 7160SOL    HW132939   0.137   2.168  12.587 -3.9203  2.5400  0.5502
 7160SOL    HW232940   0.087   2.077  12.477  1.8030 -0.2661 -1.0114
 7161SOL     OW32941   3.045   3.527   4.102  0.2559  0.8711 -0.1601
 7161SOL    HW132942   2.955   3.494   4.110 -0.1918  1.8238 -1.1617
 7161SOL    HW232943   3.080   3.464   4.040  0.0214  0.3057  0.2766
 7162SOL     OW32944   1.953   2.919   1.365  0.5120 -0.2267  0.1621
 7162SOL    HW132945   1.931   2.830   1.394 -0.1945 -0.2566 -0.4857
 7162SOL    HW232946   1.869   2.964   1.365  0.5352 -0.1901  0.8757
 7163SOL     OW32947   2.067   1.532   7.744  0.5308  0.0540  0.5073
 7163SOL    HW132948   2.148   1.578   7.765 -0.9590  2.3494  1.2116
 7163SOL    HW232949   2.066   1.527   7.648 -2.2941  1.7930  0.4372
 7164SOL     OW32950   0.813   3.344   3.840 -0.5555 -0.3613  0.5201
 7164SOL    HW132951   0.828   3.437   3.854 -2.4031 -0.0771  0.6883
 7164SOL    HW232952   0.724   3.340   3.804  0.1259 -3.3743 -0.8258
 7165SOL     OW32953   0.092   2.773  17.075  0.0724 -0.1752 -0.2364
 7165SOL    HW132954   0.025   2.824  17.120  0.7748  0.0782  0.5111
 7165SOL    HW232955   0.037   2.705  17.035  2.1570 -2.4517  0.7679
 7166SOL     OW32956   3.434   3.423   7.076 -0.1077  0.5775  0.2453
 7166SOL    HW132957   3.423   3.465   6.990  0.0026 -1.4118 -0.7345
 7166SOL    HW232958   3.526   3.439   7.099  0.1280 -1.3723  0.6145
 7167SOL     OW32959   2.335   1.770   7.533 -0.6484 -0.0144  0.5535
 7167SOL    HW132960   2.300   1.748   7.620  0.2530 -2.5765  0.2636
 7167SOL    HW232961   2.416   1.818   7.551 -0.6685  0.2671 -0.0946
 7168SOL     OW32962   2.954   2.998   8.060 -0.0333 -0.2395  0.2022
 7168SOL    HW132963   2.959   3.024   8.152 -0.4548 -0.2891  0.2372
 7168SOL    HW232964   2.913   2.913   8.074 -0.9980 -0.0407 -1.5156
 7169SOL     OW32965   4.313   1.580   1.906  0.0963  0.3893  0.1027
 7169SOL    HW132966   4.222   1.560   1.885 -0.0188  0.1089  0.8869
 7169SOL    HW232967   4.320   1.668   1.942  0.5850 -0.2476  1.5579
 7170SOL     OW32968   0.756   3.518   1.864  0.1848 -0.1586  0.0492
 7170SOL    HW132969   0.754   3.611   1.841 -1.8075  0.4581  2.7655
 7170SOL    HW232970   0.823   3.516   1.933 -1.2587 -0.8395  1.4277
 7171SOL     OW32971   1.015   2.857   6.691 -0.6848  0.0849  0.0457
 7171SOL    HW132972   0.935   2.813   6.662 -0.1126  0.6320 -2.3591
 7171SOL    HW232973   1.043   2.894   6.607  0.1782  2.5542  1.3974
 7172SOL     OW32974   1.371   2.210   9.361 -0.7880 -0.1542  0.3425
 7172SOL    HW132975   1.289   2.199   9.410 -0.2784 -0.1939  1.1917
 7172SOL    HW232976   1.432   2.236   9.431  1.1963 -2.0806 -0.6835
 7173SOL     OW32977   1.633   0.130   2.075  0.1684 -0.0146 -0.2617
 7173SOL    HW132978   1.679   0.212   2.057 -1.1229  0.4654 -1.3712
 7173SOL    HW232979   1.563   0.158   2.133  0.8488 -0.1284  0.6119
 7174SOL     OW32980   4.429   2.460   6.872 -0.2380  0.1178  0.2172
 7174SOL    HW132981   4.348   2.426   6.834  0.0362 -0.7119  0.3791
 7174SOL    HW232982   4.391   2.501   6.950  1.7805  0.3312  1.0869
 7175SOL     OW32983   2.387   2.145   6.397  0.9143 -0.1976 -0.2677
 7175SOL    HW132984   2.365   2.238   6.399  1.2272 -0.1286 -0.0253
 7175SOL    HW232985   2.307   2.107   6.435  0.1774  1.8496  0.2215
 7176SOL     OW32986   1.300   3.092   2.752 -0.0161 -0.0947 -0.1654
 7176SOL    HW132987   1.307   3.187   2.756  0.0679 -0.1384  0.6225
 7176SOL    HW232988   1.378   3.068   2.701 -0.0239 -0.5506  0.0318
 7177SOL     OW32989   3.212   2.601   5.359  0.7321 -0.2072 -0.4270
 7177SOL    HW132990   3.290   2.627   5.309  1.3689  0.3629  0.8557
 7177SOL    HW232991   3.218   2.654   5.438  0.6360  2.3839 -2.1504
 7178SOL     OW32992   2.415   1.200   2.927  0.2571 -0.0303 -0.3784
 7178SOL    HW132993   2.417   1.120   2.981 -2.7940  1.5315  2.0591
 7178SOL    HW232994   2.368   1.258   2.987 -0.3934 -2.1902  1.2309
 7179SOL     OW32995   1.567   2.464   4.223  0.5717 -0.1937  0.1839
 7179SOL    HW132996   1.593   2.539   4.169  0.0035 -0.1611 -0.0369
 7179SOL    HW232997   1.476   2.482   4.246  0.3048 -0.4152 -0.7098
 7180SOL     OW32998   4.416   4.106   8.186  0.4806  0.4497 -0.0066
 7180SOL    HW132999   4.459   4.062   8.260  0.7316  0.5926 -0.0667
 7180SOL    HW233000   4.337   4.139   8.227  0.0806 -1.4006  0.7087
 7181SOL     OW33001   0.955   3.869  11.931 -0.1848  0.1515  0.2994
 7181SOL    HW133002   0.962   3.890  11.837 -1.6635 -3.0275 -0.5239
 7181SOL    HW233003   0.995   3.950  11.962  2.2059 -0.3366 -1.5091
 7182SOL     OW33004   4.679   1.900  14.004 -0.5254  0.3157  0.2037
 7182SOL    HW133005   4.651   1.859  14.086  0.7493 -3.1598 -1.1293
 7182SOL    HW233006   4.605   1.960  13.996 -0.3027  0.7973  1.7356
 7183SOL     OW33007   2.021   3.722  12.294 -0.0841 -0.8146 -0.5282
 7183SOL    HW133008   2.030   3.629  12.314  0.9318 -0.3864  1.0572
 7183SOL    HW233009   2.112   3.752  12.300  0.4596 -2.5803  0.0241
 7184SOL     OW33010   2.542   2.819   1.240 -0.3788  0.2011  0.5519
 7184SOL    HW133011   2.603   2.875   1.288 -0.0106 -0.0150  0.3370
 7184SOL    HW233012   2.520   2.764   1.315  0.1388 -0.3949  0.2694
 7185SOL     OW33013   3.737   4.282   4.879 -0.4410 -0.1395 -0.5362
 7185SOL    HW133014   3.777   4.366   4.856  0.8962 -0.6595 -0.0509
 7185SOL    HW233015   3.723   4.248   4.791 -0.5848 -0.5097 -0.3720
 7186SOL     OW33016   0.027   1.662  12.924  0.4560 -0.9152  0.4648
 7186SOL    HW133017   4.701   1.581  12.946  0.6363 -1.7753 -2.2861
 7186SOL    HW233018   4.689   1.729  12.957 -1.2446 -1.2957 -1.8035
 7187SOL     OW33019   2.851   3.471   3.618  0.1358 -0.1320  0.5829
 7187SOL    HW133020   2.853   3.454   3.712  1.4374 -4.2095 -0.2013
 7187SOL    HW233021   2.918   3.409   3.590  0.6993  1.4332 -1.5791
 7188SOL     OW33022   2.756   2.449   2.481 -0.8448  0.1923  0.1928
 7188SOL    HW133023   2.821   2.458   2.411 -0.4508 -0.3984  0.4834
 7188SOL    HW233024   2.679   2.486   2.439  0.0066  0.6134 -0.9886
 7189SOL     OW33025   1.141   2.663   7.309  0.0261 -0.2527  0.4713
 7189SOL    HW133026   1.130   2.734   7.245 -0.3977  0.0357  0.8621
 7189SOL    HW233027   1.090   2.699   7.381 -1.9572  0.0456 -1.1005
 7190SOL     OW33028   4.465   0.755   5.757  0.0480  0.7076  0.0051
 7190SOL    HW133029   4.541   0.810   5.777  0.5115 -0.0558  0.3687
 7190SOL    HW233030   4.451   0.719   5.845 -0.0480  0.7257 -0.0036
 7191SOL     OW33031   3.807   3.009   3.309 -0.1607 -0.4531 -0.0142
 7191SOL    HW133032   3.762   3.042   3.386 -0.3691 -0.0148 -0.3222
 7191SOL    HW233033   3.892   3.051   3.303 -1.2494  1.6326 -0.8560
 7192SOL     OW33034   2.777   2.335   0.765 -0.6570 -0.3966 -0.3971
 7192SOL    HW133035   2.692   2.312   0.803 -0.7278  1.3258  0.4870
 7192SOL    HW233036   2.784   2.301   0.676  1.3632 -0.1745 -0.3297
 7193SOL     OW33037   2.196   3.293   2.961 -0.1562  0.3359 -0.3920
 7193SOL    HW133038   2.147   3.277   2.880  4.2605 -0.3909 -2.9020
 7193SOL    HW233039   2.140   3.360   3.001 -0.5300  0.5295 -1.2473
 7194SOL     OW33040   3.787   1.150   5.181  0.2655 -0.2090  0.2773
 7194SOL    HW133041   3.707   1.105   5.152 -0.7888  1.5500  0.5029
 7194SOL    HW233042   3.780   1.128   5.274  2.3478  0.9738  0.7189
 7195SOL     OW33043   4.218   1.556   9.052  0.1065  0.7958  0.3163
 7195SOL    HW133044   4.204   1.649   9.072 -1.4464  0.2406  1.8071
 7195SOL    HW233045   4.296   1.535   9.104  0.9779 -1.2933 -1.8731
 7196SOL     OW33046   0.690   2.969   1.942 -0.6536 -0.5166 -0.4767
 7196SOL    HW133047   0.738   2.904   1.992 -0.9977 -0.8906 -0.6339
 7196SOL    HW233048   0.704   3.049   1.994  0.2436 -1.9980  1.5687
 7197SOL     OW33049   4.239   1.942  11.795  0.6905 -0.2592  0.3485
 7197SOL    HW133050   4.329   1.937  11.764 -0.2174  0.7213 -2.4295
 7197SOL    HW233051   4.208   1.860  11.757  0.1486 -1.3405  3.1093
 7198SOL     OW33052   0.665   0.666   0.851 -0.1384 -0.0090  0.2541
 7198SOL    HW133053   0.689   0.610   0.925  0.0961  0.1102  0.2693
 7198SOL    HW233054   0.686   0.756   0.878 -3.3874  1.2453 -1.4590
 7199SOL     OW33055   0.631   2.546   4.653 -0.2473 -0.2648  0.1269
 7199SOL    HW133056   0.553   2.529   4.707 -0.5478 -0.5181 -0.3893
 7199SOL    HW233057   0.587   2.563   4.570 -0.6426 -0.1152  0.3640
 7200SOL     OW33058   4.177   0.270  15.733 -0.6627 -0.1820 -0.2972
 7200SOL    HW133059   4.128   0.208  15.787 -0.1800 -2.2896 -2.3066
 7200SOL    HW233060   4.168   0.224  15.650 -2.0826  0.1625 -0.3453
 7201SOL     OW33061   4.353   0.707  10.509  0.1077  0.0122 -0.3109
 7201SOL    HW133062   4.435   0.669  10.477 -0.6375 -2.1209  0.3073
 7201SOL    HW233063   4.289   0.654  10.463 -1.1179  0.1698  1.2035
 7202SOL     OW33064   2.811   2.161   3.301 -0.7555 -0.0457 -0.3786
 7202SOL    HW133065   2.758   2.109   3.361 -1.2189  1.3760  0.4374
 7202SOL    HW233066   2.755   2.192   3.229  0.3944 -0.5717 -1.5085
 7203SOL     OW33067   1.025   2.258  13.558 -0.2961  0.0830  0.1109
 7203SOL    HW133068   1.030   2.261  13.463  1.2591  1.1827  0.2145
 7203SOL    HW233069   1.077   2.179  13.570 -0.8458 -0.5480 -1.6844
 7204SOL     OW33070   3.544   2.421   8.508 -0.4747 -0.1853 -0.5622
 7204SOL    HW133071   3.538   2.364   8.585  1.0045 -1.2851 -1.2418
 7204SOL    HW233072   3.625   2.394   8.464 -0.8752 -0.2201 -1.2790
 7205SOL     OW33073   0.589   2.292  11.047  0.4472 -0.3061 -0.0426
 7205SOL    HW133074   0.660   2.344  11.084  0.5420  0.7165 -1.6270
 7205SOL    HW233075   0.541   2.262  11.124 -0.9169 -0.5266 -0.9794
 7206SOL     OW33076   4.430   4.708   3.512  0.1660  0.4825 -0.1111
 7206SOL    HW133077   4.341   4.683   3.536  0.5896 -2.1938 -1.2380
 7206SOL    HW233078   4.409   0.048   3.442 -0.6418  1.0713  0.6478
 7207SOL     OW33079   0.910   3.436   7.026 -0.1270 -0.4511 -0.1550
 7207SOL    HW133080   0.850   3.506   7.053  1.2790  1.7798 -2.8769
 7207SOL    HW233081   0.993   3.455   7.069  0.1326 -1.1192 -0.3654
 7208SOL     OW33082   0.303   0.062  16.882 -0.0710  0.7617  0.0829
 7208SOL    HW133083   0.334   0.004  16.952  1.4834  1.3177 -0.1378
 7208SOL    HW233084   0.216   0.085  16.913 -0.0036  0.5926  0.4043
 7209SOL     OW33085   1.725   1.706   5.976 -0.3223  0.0367  0.1733
 7209SOL    HW133086   1.681   1.790   5.967  1.4429  0.8194 -1.0676
 7209SOL    HW233087   1.762   1.712   6.064  1.2957 -2.5750 -0.3274
 7210SOL     OW33088   4.601   4.673   7.185  0.3240 -0.3527 -0.5881
 7210SOL    HW133089   4.663   4.658   7.256  0.6270  0.3122 -0.7128
 7210SOL    HW233090   4.533   4.710   7.243  1.5539  0.4733  0.3378
 7211SOL     OW33091   0.505   3.603   8.525  0.1292  0.3286 -0.2223
 7211SOL    HW133092   0.586   3.584   8.478 -0.5757 -0.1887 -1.2257
 7211SOL    HW233093   0.497   3.524   8.579  0.1276 -0.3073 -1.1676
 7212SOL     OW33094   0.744   1.665   0.726 -0.4486  0.2213  0.0583
 7212SOL    HW133095   0.682   1.604   0.765  0.6587 -0.2544  1.0537
 7212SOL    HW233096   0.678   1.701   0.667 -1.2374  1.3162  1.5815
 7213SOL     OW33097   3.825   1.534   8.897 -0.1057 -0.2704  0.3106
 7213SOL    HW133098   3.739   1.536   8.941  0.3820  1.2991  1.1706
 7213SOL    HW233099   3.816   1.605   8.834  1.0995  1.0545  1.6296
 7214SOL     OW33100   0.594   4.256   2.747  0.3397  0.0665  0.8954
 7214SOL    HW133101   0.619   4.324   2.684 -0.9548  1.9857  2.4521
 7214SOL    HW233102   0.519   4.225   2.696  1.3642  0.4643 -0.8545
 7215SOL     OW33103   4.359   2.041   8.290  0.0997  0.0036  0.3408
 7215SOL    HW133104   4.354   2.137   8.286  1.6720 -0.0376 -2.3690
 7215SOL    HW233105   4.367   2.038   8.386 -0.3529 -0.2476  0.3721
 7216SOL     OW33106   3.365   2.762   6.612 -0.5505  0.5731  0.2457
 7216SOL    HW133107   3.277   2.799   6.615 -0.1105  1.4330  2.5165
 7216SOL    HW233108   3.348   2.679   6.657  0.5734  0.0590 -0.2718
 7217SOL     OW33109   1.135   3.233   9.095 -0.1102 -0.0817 -0.2669
 7217SOL    HW133110   1.166   3.179   9.023  0.1519  1.4380 -1.3015
 7217SOL    HW233111   1.158   3.324   9.073  2.9362 -1.5996 -3.2597
 7218SOL     OW33112   4.180   0.615   6.316 -0.1322 -0.1524  0.0431
 7218SOL    HW133113   4.219   0.664   6.244  0.4421  3.2056  2.6152
 7218SOL    HW233114   4.262   0.573   6.341 -0.6101 -1.8092 -1.2385
 7219SOL     OW33115   1.854   2.117   8.585  0.1451 -0.0136  0.2487
 7219SOL    HW133116   1.855   2.056   8.658 -1.8261  2.6543  2.4800
 7219SOL    HW233117   1.944   2.112   8.552  0.0491 -1.3200  0.1847
 7220SOL     OW33118   3.795   1.855   0.843 -0.1124 -0.6556 -0.0892
 7220SOL    HW133119   3.858   1.804   0.893 -0.2632 -0.0596  0.7122
 7220SOL    HW233120   3.857   1.923   0.815  0.0175 -1.2997 -1.3668
 7221SOL     OW33121   1.296   3.120  13.676  0.5131  0.0674  0.8126
 7221SOL    HW133122   1.371   3.089  13.728  0.4687 -1.6979 -0.1912
 7221SOL    HW233123   1.280   3.208  13.708  0.4776  1.0174 -1.8334
 7222SOL     OW33124   1.055   3.015   3.804 -0.2124  0.1639  0.2012
 7222SOL    HW133125   1.013   3.042   3.723  2.1646  1.8300 -0.4726
 7222SOL    HW233126   1.008   3.066   3.869 -0.9355  1.8084 -1.6424
 7223SOL     OW33127   0.105   1.281   7.979 -0.0853  0.3011 -0.4252
 7223SOL    HW133128   0.066   1.264   8.065 -1.2274 -0.2817 -1.0623
 7223SOL    HW233129   0.091   1.195   7.941  0.7416  0.1266 -0.3447
 7224SOL     OW33130   0.587   0.661   7.063  0.2498 -0.5714  0.2651
 7224SOL    HW133131   0.634   0.673   7.145 -0.5813 -1.2237  0.8378
 7224SOL    HW233132   0.502   0.633   7.098  0.8285 -1.3241  1.0653
 7225SOL     OW33133   4.629   0.605   8.192  0.0550  0.0190  0.8902
 7225SOL    HW133134   4.713   0.641   8.163  0.5159 -1.5414  0.3251
 7225SOL    HW233135   4.660   0.542   8.257  0.3273  0.2751  1.0099
 7226SOL     OW33136   0.126   1.700   1.059  0.4543 -0.2744  0.1116
 7226SOL    HW133137   0.198   1.738   1.009  1.4592 -2.1360  0.1407
 7226SOL    HW233138   0.086   1.650   0.988  1.0556  0.1898 -0.5551
 7227SOL     OW33139   1.678   2.114   9.291 -0.0751  0.5447  0.3780
 7227SOL    HW133140   1.670   2.026   9.330  0.3028 -0.4914 -1.8966
 7227SOL    HW233141   1.637   2.171   9.356  0.1719  0.8755  0.2368
 7228SOL     OW33142   3.381   3.274   5.868 -0.0256  0.5027 -0.0038
 7228SOL    HW133143   3.333   3.329   5.805  0.2409 -2.2708 -2.6339
 7228SOL    HW233144   3.423   3.217   5.804  1.7824  2.1963 -0.3220
 7229SOL     OW33145   0.865   3.394   3.545 -0.4144 -0.2562 -0.2315
 7229SOL    HW133146   0.957   3.368   3.556  0.0346  1.0459 -0.8251
 7229SOL    HW233147   0.862   3.490   3.550 -0.5742 -0.2168 -1.0394
 7230SOL     OW33148   2.362   3.923  15.127  0.6793 -0.3828 -0.3370
 7230SOL    HW133149   2.344   3.998  15.183  1.7550  1.1472 -2.0407
 7230SOL    HW233150   2.455   3.904  15.143  0.1074 -1.6194  1.6031
 7231SOL     OW33151   0.871   3.529   7.820  0.7256 -0.3069 -0.1447
 7231SOL    HW133152   0.921   3.481   7.886  0.7484 -2.9317 -2.0843
 7231SOL    HW233153   0.812   3.457   7.798  0.9694 -0.9304  1.2325
 7232SOL     OW33154   2.719   3.062   4.798  0.2931  0.2337 -0.2448
 7232SOL    HW133155   2.653   3.015   4.747  0.5603 -1.1865  0.7302
 7232SOL    HW233156   2.711   3.016   4.881  0.6796  0.8992  0.1615
 7233SOL     OW33157   3.487   1.664   7.764 -0.5768  0.0853  0.4868
 7233SOL    HW133158   3.404   1.656   7.811  0.4658  0.0130  2.3493
 7233SOL    HW233159   3.497   1.759   7.761  0.6473 -0.1702 -3.0384
 7234SOL     OW33160   3.045   2.312   5.503 -0.6690 -0.4124 -0.0267
 7234SOL    HW133161   3.105   2.341   5.572  0.6958  1.4279 -1.9916
 7234SOL    HW233162   3.079   2.357   5.425 -0.7119  0.5334  0.4995
 7235SOL     OW33163   3.005   4.111   6.267 -0.0176  0.2484 -0.0846
 7235SOL    HW133164   2.956   4.179   6.312  0.1759  0.9679 -0.9565
 7235SOL    HW233165   3.042   4.061   6.340  1.8424 -0.5519 -1.5588
 7236SOL     OW33166   3.519   0.847   5.348 -0.2723  0.2713 -0.1447
 7236SOL    HW133167   3.529   0.916   5.283  0.8451 -0.0215 -0.2839
 7236SOL    HW233168   3.559   0.889   5.424 -0.9051  2.5710 -1.0959
 7237SOL     OW33169   2.369   4.719   9.181  0.1053 -0.4525  0.1059
 7237SOL    HW133170   2.297   4.657   9.168  0.2779  0.1122 -3.5744
 7237SOL    HW233171   2.326   0.079   9.207  1.6659  0.0415  1.1034
 7238SOL     OW33172   0.290   1.447   6.609  1.0695  0.0245  0.2670
 7238SOL    HW133173   0.320   1.531   6.643  2.6928 -1.2892  2.0972
 7238SOL    HW233174   0.353   1.439   6.538  1.6146  0.8283  0.6558
 7239SOL     OW33175   4.611   4.105   7.609  0.7034 -0.2762 -0.1296
 7239SOL    HW133176   4.650   4.096   7.522 -1.5440 -0.2790 -1.1503
 7239SOL    HW233177   4.668   4.174   7.645 -1.8676  0.4316  2.5526
 7240SOL     OW33178   0.928   0.974   8.609  0.1573  0.1204  0.1224
 7240SOL    HW133179   1.016   0.956   8.578 -0.5386 -0.9766 -1.1861
 7240SOL    HW233180   0.909   0.906   8.673  2.5720  0.5136  1.2445
 7241SOL     OW33181   0.799   4.407   8.896 -0.0098 -0.5783 -0.0451
 7241SOL    HW133182   0.853   4.364   8.962 -0.4422 -1.0221  0.0241
 7241SOL    HW233183   0.867   4.433   8.834 -0.3216 -1.3363 -0.7185
 7242SOL     OW33184   3.341   2.063   8.642 -0.4972  0.1266  0.2057
 7242SOL    HW133185   3.426   2.083   8.603  0.2374 -0.5841  1.4474
 7242SOL    HW233186   3.376   2.002   8.707 -2.5227  0.5244  1.6618
 7243SOL     OW33187   4.207   2.944   2.790  0.2932 -0.4937  0.1523
 7243SOL    HW133188   4.279   2.914   2.735 -1.0671 -4.0186  0.3360
 7243SOL    HW233189   4.222   3.038   2.780 -0.7168 -0.3212  0.2790
 7244SOL     OW33190   0.776   4.480   6.509 -0.3795  0.4416  0.2466
 7244SOL    HW133191   0.759   4.494   6.602  0.9541 -0.9039  0.6965
 7244SOL    HW233192   0.842   4.411   6.499 -0.6312  0.1805  0.4052
 7245SOL     OW33193   4.556   4.346   4.865  0.4155 -0.2628  0.0465
 7245SOL    HW133194   4.517   4.265   4.833  1.1745 -0.5744 -0.0883
 7245SOL    HW233195   4.628   4.312   4.918  0.1929 -1.6609 -0.5655
 7246SOL     OW33196   2.730   0.220   8.265 -0.5606  0.5486 -0.8917
 7246SOL    HW133197   2.762   0.227   8.175 -0.8735  3.5209 -0.7639
 7246SOL    HW233198   2.812   0.216   8.313 -0.2948 -0.9042 -1.4803
 7247SOL     OW33199   3.649   1.499   1.564 -0.6700  0.6426 -0.1841
 7247SOL    HW133200   3.743   1.499   1.545 -0.5544  0.4731  0.3947
 7247SOL    HW233201   3.611   1.453   1.489 -0.2147  0.4649 -0.3043
 7248SOL     OW33202   0.942   1.703   6.830 -0.6770 -1.4310  0.6255
 7248SOL    HW133203   0.918   1.776   6.886  1.1560 -0.7912  0.5741
 7248SOL    HW233204   0.930   1.625   6.884  0.7715 -1.2467  1.2125
 7249SOL     OW33205   0.212   4.013   6.212 -0.0209  0.1550  0.0093
 7249SOL    HW133206   0.291   4.045   6.168 -0.1394  1.9117  1.0344
 7249SOL    HW233207   0.256   3.967   6.284 -0.8829 -0.8759 -0.1414
 7250SOL     OW33208   1.515   0.442  13.517  0.7671  0.0227 -0.0477
 7250SOL    HW133209   1.433   0.464  13.474  1.9486  2.2150 -1.2312
 7250SOL    HW233210   1.569   0.435  13.438 -0.7581 -0.1808 -1.0555
 7251SOL     OW33211   3.866   4.334   4.212  0.2086 -0.8686 -0.4998
 7251SOL    HW133212   3.857   4.356   4.304  0.7154  0.8559 -0.8773
 7251SOL    HW233213   3.944   4.382   4.184 -1.3635  0.8763 -1.9201
 7252SOL     OW33214   3.617   3.399   8.647 -0.1399 -0.0765  0.1557
 7252SOL    HW133215   3.632   3.410   8.741 -2.2881 -2.0179  0.7168
 7252SOL    HW233216   3.688   3.342   8.617  0.3234 -0.2871  1.6705
 7253SOL     OW33217   0.499   1.716   5.965  0.0433 -0.0653  0.0729
 7253SOL    HW133218   0.414   1.672   5.968  0.3359 -0.6399 -0.0487
 7253SOL    HW233219   0.482   1.784   6.031 -0.6027 -1.4332  1.3046
 7254SOL     OW33220   0.114   1.907   7.331 -0.2929 -0.1595 -0.3652
 7254SOL    HW133221   0.161   1.942   7.255 -2.4506  0.0880 -1.6034
 7254SOL    HW233222   0.052   1.980   7.340 -0.5058 -0.2762 -0.8675
 7255SOL     OW33223   3.058   2.228   2.603 -0.0190  0.2195  0.2937
 7255SOL    HW133224   2.986   2.243   2.542 -0.2231  0.8433  0.6854
 7255SOL    HW233225   3.118   2.292   2.564 -1.2167  0.8004 -0.5588
 7256SOL     OW33226   0.484   3.744   5.682  0.1171  0.0387 -0.2030
 7256SOL    HW133227   0.470   3.747   5.777 -0.3473  0.2447 -0.2761
 7256SOL    HW233228   0.411   3.694   5.646 -1.6108  2.4033 -0.0455
 7257SOL     OW33229   1.789   1.763   0.257  0.2713  0.2775 -0.1251
 7257SOL    HW133230   1.778   1.788   0.349 -2.9214  0.9107 -0.6824
 7257SOL    HW233231   1.702   1.753   0.219  0.6977  0.1119 -1.0584
 7258SOL     OW33232   4.695   4.412   6.415  0.3452 -0.1005  0.6859
 7258SOL    HW133233   0.021   4.341   6.457 -1.4024 -1.1092  0.9392
 7258SOL    HW233234   0.003   4.397   6.325 -1.2293 -4.1325  0.8422
 7259SOL     OW33235   0.391   2.221   3.969 -0.1968 -0.2684  0.3037
 7259SOL    HW133236   0.377   2.147   3.910  0.4747  0.6579 -1.0264
 7259SOL    HW233237   0.354   2.180   4.047  1.6185 -3.2426 -0.3930
 7260SOL     OW33238   0.382   3.898   6.985  0.2283  0.2667 -0.0414
 7260SOL    HW133239   0.364   3.805   6.975 -0.2697  0.1109  2.3645
 7260SOL    HW233240   0.471   3.906   7.018  0.1953  2.6417 -0.4785
 7261SOL     OW33241   2.414   3.103   6.331  0.4056 -0.1367  0.3309
 7261SOL    HW133242   2.508   3.106   6.312  0.4049 -0.4441  0.2694
 7261SOL    HW233243   2.408   3.168   6.401 -0.3734  0.6282 -0.4441
 7262SOL     OW33244   3.842   0.986  16.989 -0.3826  0.1875  0.1632
 7262SOL    HW133245   3.749   0.978  17.008 -0.0370  0.1615  1.7987
 7262SOL    HW233246   3.885   0.924  17.048 -0.3125 -0.0786 -0.1691
 7263SOL     OW33247   0.442   1.644   9.289 -0.5492 -0.3865 -0.1150
 7263SOL    HW133248   0.435   1.651   9.384  1.4477  0.7521 -0.0342
 7263SOL    HW233249   0.399   1.559   9.282 -1.3057 -0.0374  0.3367
 7264SOL     OW33250   3.054   2.309   1.590 -0.0168  0.3893  0.0655
 7264SOL    HW133251   3.000   2.316   1.511 -2.1222  0.9202  1.5332
 7264SOL    HW233252   3.128   2.268   1.545  0.3390  3.5227 -2.1869
 7265SOL     OW33253   3.666   3.133  12.126  0.2011  0.1535  0.4800
 7265SOL    HW133254   3.681   3.046  12.089 -0.4451  0.3402 -0.2367
 7265SOL    HW233255   3.588   3.114  12.178  0.5348 -0.9443  0.5811
 7266SOL     OW33256   0.157   1.559  13.759 -0.3153 -0.0394  0.5656
 7266SOL    HW133257   0.208   1.593  13.685  0.4336 -1.8977  0.2386
 7266SOL    HW233258   0.165   1.627  13.825  1.9872 -1.3572  1.6260
 7267SOL     OW33259   1.590   1.785   5.160  0.3733 -0.3602 -0.3069
 7267SOL    HW133260   1.673   1.830   5.177 -0.4291  0.6272  0.9579
 7267SOL    HW233261   1.577   1.754   5.249  0.2650  2.0588  0.5309
 7268SOL     OW33262   0.939   3.074   8.735 -0.6568 -0.2369  0.0128
 7268SOL    HW133263   1.011   3.030   8.687  0.9223  2.2772  0.0921
 7268SOL    HW233264   0.922   3.010   8.804  0.1981  0.4770  0.8920
 7269SOL     OW33265   3.381   3.854  14.394 -0.5850  0.2674 -0.4340
 7269SOL    HW133266   3.326   3.784  14.360  0.3566 -0.1421 -1.1292
 7269SOL    HW233267   3.420   3.886  14.313 -0.9099  2.6195  0.3564
 7270SOL     OW33268   3.453   1.824   3.475 -0.1246 -0.2157  0.7383
 7270SOL    HW133269   3.392   1.851   3.406  0.6738 -0.5912 -0.1108
 7270SOL    HW233270   3.471   1.737   3.440  2.7633  1.0278 -0.8029
 7271SOL     OW33271   2.946   1.836   6.962  0.5293  0.3391  0.2983
 7271SOL    HW133272   2.858   1.799   6.955  1.1769 -1.4393  1.5125
 7271SOL    HW233273   2.997   1.761   6.933 -1.6489 -0.6733 -0.9026
 7272SOL     OW33274   4.244   1.078  16.485 -0.3735 -0.5715  0.4639
 7272SOL    HW133275   4.175   1.037  16.433 -0.0206  1.2714 -1.4564
 7272SOL    HW233276   4.294   1.133  16.425 -2.0711  1.7300  1.1414
 7273SOL     OW33277   2.509   1.524  15.226  0.1035 -0.0843  0.2075
 7273SOL    HW133278   2.494   1.543  15.133 -0.2299  2.6412  0.8161
 7273SOL    HW233279   2.588   1.577  15.239  1.6681 -2.7412  1.4260
 7274SOL     OW33280   1.974   0.880   2.102 -0.4789  0.6518 -0.7055
 7274SOL    HW133281   1.937   0.846   2.184  0.8475 -0.4153 -0.5478
 7274SOL    HW233282   1.947   0.971   2.113  1.6903  1.0138  1.6975
 7275SOL     OW33283   0.085   3.998  12.654 -0.9692 -0.1170  0.1658
 7275SOL    HW133284   0.066   4.002  12.560 -2.3724 -2.1931  0.3442
 7275SOL    HW233285   0.016   3.936  12.677  0.3734 -2.0863 -1.1387
 7276SOL     OW33286   1.253   1.552   5.323  1.0417 -0.1846  0.3325
 7276SOL    HW133287   1.224   1.580   5.236  1.1938 -1.8378 -0.2611
 7276SOL    HW233288   1.344   1.523   5.316  1.1493  0.4888 -0.9932
 7277SOL     OW33289   3.363   3.817  12.063 -0.1993  0.7136  0.4703
 7277SOL    HW133290   3.355   3.887  12.128  1.3221  1.7665 -0.4611
 7277SOL    HW233291   3.386   3.876  11.991  0.2841  1.8886  1.5721
 7278SOL     OW33292   0.794   1.412   1.678  0.3256  0.1726  0.2724
 7278SOL    HW133293   0.740   1.448   1.608  1.6807  1.0407 -0.3243
 7278SOL    HW233294   0.879   1.452   1.662  0.7777 -1.9078 -2.4948
 7279SOL     OW33295   4.098   1.704  11.274 -0.0008  0.0085 -0.5599
 7279SOL    HW133296   4.073   1.695  11.182  0.0057 -1.0337 -0.4518
 7279SOL    HW233297   4.016   1.746  11.303  0.8473  1.1576  0.1929
 7280SOL     OW33298   2.261   3.382   2.310 -0.2284  0.3990  0.2570
 7280SOL    HW133299   2.286   3.417   2.395  0.5761  0.2623  0.0743
 7280SOL    HW233300   2.166   3.390   2.319 -0.3198  1.7821 -1.8652
 7281SOL     OW33301   0.871   2.522   5.692 -0.4100 -0.0320  0.5543
 7281SOL    HW133302   0.909   2.435   5.711 -0.2634  0.1584  1.1361
 7281SOL    HW233303   0.832   2.529   5.779  2.4900  1.9705  1.6887
 7282SOL     OW33304   0.425   4.000   5.303 -0.2902  0.3043 -0.0446
 7282SOL    HW133305   0.472   4.013   5.385  1.4302 -1.2864 -0.7875
 7282SOL    HW233306   0.353   3.942   5.329  0.8620  0.5467  3.6199
 7283SOL     OW33307   0.872   3.454   8.614  0.4737  0.0864 -0.1601
 7283SOL    HW133308   0.830   3.433   8.698  1.3747  0.3367  0.3519
 7283SOL    HW233309   0.962   3.444   8.645  1.7544  1.7216 -3.3860
 7284SOL     OW33310   3.823   0.078   3.843  0.0216 -0.0103  0.1652
 7284SOL    HW133311   3.901   0.037   3.806 -0.2047  0.0671 -0.3908
 7284SOL    HW233312   3.771   4.720   3.857  1.1159 -0.2854  2.7412
 7285SOL     OW33313   0.236   1.807  16.777  0.3703 -0.7517 -0.0759
 7285SOL    HW133314   0.291   1.732  16.800  1.5651  0.2292  0.2722
 7285SOL    HW233315   0.157   1.759  16.753  0.1844 -0.4405 -0.0897
 7286SOL     OW33316   1.184   0.946   8.505 -0.2221 -1.3489 -0.4847
 7286SOL    HW133317   1.227   0.930   8.421  4.4121  1.0819  1.3904
 7286SOL    HW233318   1.242   1.019   8.528 -1.3730 -0.2500 -1.1003
 7287SOL     OW33319   4.093   0.786   7.636  0.3739  0.3136 -0.1150
 7287SOL    HW133320   4.153   0.713   7.654 -1.1861 -1.4495 -2.1409
 7287SOL    HW233321   4.115   0.811   7.546  0.4074 -0.2803 -0.2722
 7288SOL     OW33322   0.833   4.188   4.418 -0.4981 -0.2837  0.1966
 7288SOL    HW133323   0.892   4.117   4.443  1.0375  1.4250  1.3532
 7288SOL    HW233324   0.834   4.241   4.498  1.4679  1.6799 -1.1345
 7289SOL     OW33325   4.298   1.272   1.436 -0.1771 -0.2559 -0.0185
 7289SOL    HW133326   4.273   1.291   1.345  1.1912 -0.9577 -0.5495
 7289SOL    HW233327   4.315   1.178   1.425  2.3900  0.1751  0.3289
 7290SOL     OW33328   0.324   4.072   8.180  0.1520 -0.9188 -0.5015
 7290SOL    HW133329   0.238   4.077   8.222  0.7849 -0.2992  0.7024
 7290SOL    HW233330   0.372   4.107   8.256 -0.8842  1.2810 -0.8669
 7291SOL     OW33331   0.945   2.817   3.242  0.1806  0.0025  0.8609
 7291SOL    HW133332   0.944   2.858   3.155 -1.2917 -1.7777  0.0291
 7291SOL    HW233333   0.891   2.875   3.296 -0.3953 -1.2958  1.6643
 7292SOL     OW33334   0.249   2.445  15.198  0.1093 -0.3033 -0.0437
 7292SOL    HW133335   0.222   2.534  15.221 -2.4182 -0.6036 -1.8349
 7292SOL    HW233336   0.230   2.400  15.279 -0.8241 -0.6390 -0.4496
 7293SOL     OW33337   2.497   2.088   7.593  0.5996 -0.0409  0.7532
 7293SOL    HW133338   2.523   2.132   7.674  2.8773  0.3717 -0.2173
 7293SOL    HW233339   2.555   2.012   7.599 -1.8158 -2.1386 -2.6942
 7294SOL     OW33340   1.249   1.707  15.738  0.3353 -0.0436 -0.5238
 7294SOL    HW133341   1.255   1.622  15.781  3.9834  0.4549 -0.0457
 7294SOL    HW233342   1.210   1.762  15.807  2.2678  1.3253 -0.5326
 7295SOL     OW33343   1.684   4.191  12.803  0.9121 -0.3641  0.0338
 7295SOL    HW133344   1.714   4.108  12.842  0.0968 -0.8040 -0.2891
 7295SOL    HW233345   1.764   4.244  12.806 -0.0102  1.0371 -0.4198
 7296SOL     OW33346   3.495   4.408   7.819  0.3126 -0.3464  0.7633
 7296SOL    HW133347   3.481   4.423   7.913 -0.6422  0.4004  0.5052
 7296SOL    HW233348   3.471   4.316   7.823 -0.0467 -0.2734  0.2029
 7297SOL     OW33349   4.412   3.816   7.102  0.0924  0.5909 -0.4310
 7297SOL    HW133350   4.461   3.845   7.178  0.6859 -1.5581  0.0271
 7297SOL    HW233351   4.331   3.865   7.091 -0.2838 -0.1122 -0.8239
 7298SOL     OW33352   0.786   0.908  13.189 -0.0299  0.1284  0.0358
 7298SOL    HW133353   0.805   0.937  13.099 -0.3611 -0.4779 -0.2257
 7298SOL    HW233354   0.725   0.972  13.225 -0.7298 -1.2932  1.3777
 7299SOL     OW33355   0.584   3.574   3.611  0.2826  0.7441  0.4689
 7299SOL    HW133356   0.611   3.625   3.687 -1.2919 -0.1476  1.6192
 7299SOL    HW233357   0.511   3.623   3.574 -0.4542  0.7201  1.9230
 7300SOL     OW33358   4.708   3.514   7.472  0.6872 -0.0130 -0.2128
 7300SOL    HW133359   0.007   3.427   7.508  0.5376  0.2616  0.5485
 7300SOL    HW233360   0.076   3.547   7.462  0.0090  1.6558 -0.6912
 7301SOL     OW33361   3.766   2.574   3.000  0.2996  0.2680 -0.4218
 7301SOL    HW133362   3.823   2.644   3.033  0.7135 -0.8826  1.2953
 7301SOL    HW233363   3.775   2.579   2.905 -1.7744  0.0452 -0.6167
 7302SOL     OW33364   0.025   3.636  12.248 -0.1710 -0.1550  0.0299
 7302SOL    HW133365   4.666   3.606  12.292 -0.4240 -3.1664 -2.5457
 7302SOL    HW233366   0.065   3.551  12.262  2.0960  0.6690 -1.4389
 7303SOL     OW33367   2.814   2.204   5.159  0.3057 -0.0772 -0.4445
 7303SOL    HW133368   2.909   2.216   5.159  0.0865  1.5462 -0.8579
 7303SOL    HW233369   2.787   2.249   5.239 -0.9800  1.1912 -1.5993
 7304SOL     OW33370   2.928   2.582  17.432  0.4243  0.2410 -0.3450
 7304SOL    HW133371   2.900   2.671  17.454  0.7751 -0.5338  3.2168
 7304SOL    HW233372   2.866   2.564  17.361  0.3976  1.3727 -0.5971
 7305SOL     OW33373   3.594   1.687   0.931 -0.4471 -0.1632 -0.3774
 7305SOL    HW133374   3.653   1.755   0.897  1.0085 -2.2295 -2.0268
 7305SOL    HW233375   3.592   1.619   0.864  0.6704 -0.7641  0.1982
 7306SOL     OW33376   1.319   3.943   5.049 -0.3338 -0.2038 -0.2359
 7306SOL    HW133377   1.247   3.882   5.032  0.8448 -1.0475 -2.1233
 7306SOL    HW233378   1.398   3.889   5.047 -1.1178 -1.3013 -2.0323
 7307SOL     OW33379   0.222   3.854  12.386 -0.0371  0.3935  0.4627
 7307SOL    HW133380   0.238   3.907  12.308 -0.6528 -0.2410 -0.1003
 7307SOL    HW233381   0.131   3.877  12.405 -0.0793  1.0752 -0.5411
 7308SOL     OW33382   1.459   2.972   7.339  0.3946  0.2147  0.0510
 7308SOL    HW133383   1.528   2.919   7.377  0.9276 -0.1800 -1.4669
 7308SOL    HW233384   1.493   3.061   7.348  0.4222  0.1192  0.8360
 7309SOL     OW33385   4.509   1.387   4.366  0.2918 -0.0803 -0.4711
 7309SOL    HW133386   4.450   1.430   4.304  0.3949 -0.1041 -0.5850
 7309SOL    HW233387   4.555   1.330   4.305  0.3777  0.8584 -1.2815
 7310SOL     OW33388   3.967   1.997   9.189 -0.3420 -0.2106 -0.0108
 7310SOL    HW133389   3.988   2.090   9.195  0.3873 -0.4028  0.4731
 7310SOL    HW233390   4.031   1.969   9.255  1.0006  1.6011 -0.5361
 7311SOL     OW33391   0.256   3.575  10.021 -0.1720 -0.8216  0.5301
 7311SOL    HW133392   0.287   3.490   9.988  2.2651 -0.1726  1.1437
 7311SOL    HW233393   0.169   3.549  10.050 -1.1653  1.2220 -0.6650
 7312SOL     OW33394   3.581   1.077  17.096  0.0493 -0.0588 -0.3685
 7312SOL    HW133395   3.512   1.059  17.159 -1.1112 -1.0691 -1.9407
 7312SOL    HW233396   3.554   1.026  17.020 -1.5386  0.5387 -0.2097
 7313SOL     OW33397   0.169   2.104   4.462 -0.0900 -0.7387 -0.2277
 7313SOL    HW133398   0.180   2.017   4.500 -1.9661 -1.0547 -0.4398
 7313SOL    HW233399   0.150   2.083   4.371 -0.7712  0.8481 -0.4593
 7314SOL     OW33400   2.841   0.070   8.777  0.0933 -0.4605  0.2906
 7314SOL    HW133401   2.817   4.721   8.717  1.6127  0.1368 -1.0327
 7314SOL    HW233402   2.758   0.104   8.810 -0.0433 -0.4443 -0.0635
 7315SOL     OW33403   1.222   3.060  11.099 -0.0105 -0.2893 -0.3775
 7315SOL    HW133404   1.300   3.054  11.154 -1.3047 -2.2112  1.2525
 7315SOL    HW233405   1.147   3.042  11.155  0.7096 -1.5812  0.1646
 7316SOL     OW33406   4.591   2.647   2.200  0.1414 -0.0304 -0.2856
 7316SOL    HW133407   4.537   2.586   2.150 -0.3896  0.3894 -0.2214
 7316SOL    HW233408   4.670   2.637   2.147 -0.0787 -3.8623  0.1629
 7317SOL     OW33409   1.460   4.621  13.249 -0.1326  0.2270 -0.2398
 7317SOL    HW133410   1.468   4.682  13.322 -1.5104 -0.8404  0.8246
 7317SOL    HW233411   1.520   4.662  13.186  2.8763 -2.2266  1.0472
 7318SOL     OW33412   0.373   3.367  10.506 -0.0176 -0.2739 -0.5053
 7318SOL    HW133413   0.381   3.372  10.602 -0.3965 -3.3032 -0.3047
 7318SOL    HW233414   0.280   3.369  10.484  0.4033 -0.2644 -2.2395
 7319SOL     OW33415   1.035   0.805   3.269 -0.2619 -0.1575  0.3992
 7319SOL    HW133416   0.968   0.759   3.219 -1.0515  0.9953  0.3966
 7319SOL    HW233417   0.987   0.812   3.352 -0.6318 -1.6101  0.2990
 7320SOL     OW33418   4.423   0.738   1.566  0.1120 -0.1631 -0.0629
 7320SOL    HW133419   4.328   0.737   1.556  0.2846  0.5971 -1.8471
 7320SOL    HW233420   4.451   0.771   1.481 -0.9210 -0.0805 -0.3626
 7321SOL     OW33421   1.023   4.149  14.998 -0.1044  0.1300  0.7239
 7321SOL    HW133422   1.029   4.244  15.005 -1.5790  0.3318 -0.8425
 7321SOL    HW233423   1.100   4.143  14.943 -0.7385  0.6174 -0.2217
 7322SOL     OW33424   4.252   2.080  16.179  0.2910 -0.0696  0.2118
 7322SOL    HW133425   4.293   1.997  16.152  1.1934  0.6666 -0.6640
 7322SOL    HW233426   4.179   2.083  16.117 -1.9684  0.1590  2.8575
 7323SOL     OW33427   3.795   3.354   4.705  0.8466  0.8168 -0.1863
 7323SOL    HW133428   3.872   3.313   4.666  0.5924 -1.5165  1.7812
 7323SOL    HW233429   3.784   3.428   4.646  1.7150  1.6773  0.7216
 7324SOL     OW33430   4.602   1.344   4.628  0.4848 -0.2052  0.0041
 7324SOL    HW133431   4.691   1.348   4.593 -0.1223 -0.5859 -1.5903
 7324SOL    HW233432   4.560   1.372   4.547 -0.3847  0.5249  0.7109
 7325SOL     OW33433   2.679   4.187   6.337 -0.6427 -0.3481 -0.1592
 7325SOL    HW133434   2.729   4.223   6.410 -0.1037 -0.3220 -0.5434
 7325SOL    HW233435   2.591   4.168   6.368 -0.7878  0.8869  0.1891
 7326SOL     OW33436   1.768   1.811   2.146  0.2131 -0.0448 -0.6143
 7326SOL    HW133437   1.726   1.814   2.232 -0.6238 -0.5499 -1.0070
 7326SOL    HW233438   1.766   1.716   2.135  0.5757 -0.0262 -0.8481
 7327SOL     OW33439   3.461   4.482   4.450  0.1638 -0.3308 -0.1145
 7327SOL    HW133440   3.534   4.423   4.467 -0.5300 -1.0906  0.2099
 7327SOL    HW233441   3.423   4.484   4.537 -1.9155  1.8031 -1.0860
 7328SOL     OW33442   2.706   1.717   4.773  0.4383 -0.3593 -0.3824
 7328SOL    HW133443   2.677   1.719   4.864 -1.1891  2.9180 -0.9642
 7328SOL    HW233444   2.706   1.811   4.755 -1.0107 -0.3477 -0.3767
 7329SOL     OW33445   4.089   1.419   2.187 -0.2042  0.5218  0.0210
 7329SOL    HW133446   4.039   1.465   2.119  0.7752  0.6279 -0.6271
 7329SOL    HW233447   4.149   1.485   2.224  0.9325 -0.9308  0.7506
 7330SOL     OW33448   1.125   1.214   3.831  0.1363 -0.1286  0.2219
 7330SOL    HW133449   1.146   1.291   3.884 -0.1027  0.2408 -0.2208
 7330SOL    HW233450   1.066   1.162   3.886  0.4889 -1.8840 -1.0420
 7331SOL     OW33451   3.165   0.897  16.144  0.2814  0.0223 -0.0221
 7331SOL    HW133452   3.200   0.846  16.217 -1.8904 -0.3902  0.7352
 7331SOL    HW233453   3.077   0.862  16.129  0.9470 -2.2464  1.3595
 7332SOL     OW33454   1.835   1.553   6.899  0.3569  0.6839  0.0944
 7332SOL    HW133455   1.905   1.612   6.926  1.0163 -0.0801  0.0812
 7332SOL    HW233456   1.764   1.586   6.954 -0.7467 -1.1238 -0.2459
 7333SOL     OW33457   2.863   0.485   7.329  0.3141 -0.1927 -0.0169
 7333SOL    HW133458   2.906   0.553   7.277 -0.4203  0.9125  0.8187
 7333SOL    HW233459   2.833   0.524   7.411  0.1992 -0.8220  0.2416
 7334SOL     OW33460   0.736   0.150   0.649  0.0413 -0.0395 -0.3112
 7334SOL    HW133461   0.765   0.239   0.668 -1.5815  0.3063  0.5491
 7334SOL    HW233462   0.642   0.158   0.665 -0.2024 -0.0694 -1.6841
 7335SOL     OW33463   1.838   0.445   4.376  0.2184 -0.4278  0.1234
 7335SOL    HW133464   1.748   0.425   4.401  0.3960 -2.0855 -0.5953
 7335SOL    HW233465   1.863   0.378   4.313  0.5793  0.2607 -0.4684
 7336SOL     OW33466   3.060   0.334  10.794 -0.6050 -0.8437  0.0093
 7336SOL    HW133467   3.151   0.326  10.821 -1.5458 -0.3202  3.3656
 7336SOL    HW233468   3.074   0.381  10.712 -0.4849  0.1573  0.6103
 7337SOL     OW33469   2.790   2.983  13.859  0.2452  0.8538  0.5758
 7337SOL    HW133470   2.727   3.024  13.918 -1.8550 -0.2113 -0.9231
 7337SOL    HW233471   2.728   2.982  13.786  1.3125  0.5619 -0.3244
 7338SOL     OW33472   4.004   4.061  15.706  0.8072 -0.1314  0.3218
 7338SOL    HW133473   3.957   4.128  15.656  1.1607 -0.6440 -0.6985
 7338SOL    HW233474   3.965   3.985  15.663 -1.5494  0.3598  1.5837
 7339SOL     OW33475   0.791   2.392  17.525  0.8636  0.1025  0.1275
 7339SOL    HW133476   0.711   2.383  17.472  2.3024  1.0201 -2.2263
 7339SOL    HW233477   0.808   2.483  17.499  0.4557  0.9273  2.7615
 7340SOL     OW33478   4.240   4.594   5.957 -0.1020 -0.3818 -0.5196
 7340SOL    HW133479   4.301   4.559   6.022 -0.7904  0.4219  0.5544
 7340SOL    HW233480   4.292   4.592   5.878 -0.4523  0.4632 -0.7745
 7341SOL     OW33481   3.911   1.651   7.229 -0.4372  0.0332 -0.2216
 7341SOL    HW133482   3.972   1.596   7.278 -0.1785  0.8441  0.3784
 7341SOL    HW233483   3.874   1.579   7.178 -0.7799  1.3799 -1.8335
 7342SOL     OW33484   3.861   2.316   6.140 -0.3005 -0.4188  0.0699
 7342SOL    HW133485   3.817   2.384   6.089 -0.4898 -1.6558 -1.4511
 7342SOL    HW233486   3.874   2.257   6.065 -0.2626  0.5129 -0.6537
 7343SOL     OW33487   3.114   2.037   8.950  0.3087  0.1230 -0.1385
 7343SOL    HW133488   3.101   1.994   8.865 -0.3120 -0.0837  0.0619
 7343SOL    HW233489   3.026   2.033   8.988  0.5915  0.2511  0.5278
 7344SOL     OW33490   1.944   1.103   2.340 -0.4105  0.1402 -0.4078
 7344SOL    HW133491   1.873   1.114   2.276 -1.0861  1.3859  0.5717
 7344SOL    HW233492   1.936   1.184   2.390 -1.7485  0.0028 -0.3931
 7345SOL     OW33493   1.682   2.559   2.180  0.7612 -1.1056  0.2274
 7345SOL    HW133494   1.682   2.480   2.234  0.5071 -0.2622  1.4634
 7345SOL    HW233495   1.656   2.521   2.096  3.5238 -2.1228 -0.1735
 7346SOL     OW33496   4.261   1.929   0.814 -0.0930 -0.1797  0.3157
 7346SOL    HW133497   4.240   1.841   0.843  2.0190 -0.9209 -0.4597
 7346SOL    HW233498   4.336   1.903   0.761  0.7943  1.9068  0.5493
 7347SOL     OW33499   2.458   1.649   8.495  0.2718  0.2192 -0.0952
 7347SOL    HW133500   2.429   1.738   8.515  2.3512  0.6847  0.9381
 7347SOL    HW233501   2.546   1.663   8.460 -0.2809 -0.2548 -1.6613
 7348SOL     OW33502   4.152   1.498  15.637  0.4009  0.0885  0.1245
 7348SOL    HW133503   4.204   1.516  15.558 -3.1620  1.6071 -1.8536
 7348SOL    HW233504   4.081   1.561  15.629 -0.5639 -1.0396 -0.1948
 7349SOL     OW33505   0.196   3.676  11.118 -0.0475  0.1287  0.2235
 7349SOL    HW133506   0.244   3.749  11.080 -0.9417 -0.2663 -1.6840
 7349SOL    HW233507   0.194   3.697  11.211 -0.3215 -0.2358  0.2987
 7350SOL     OW33508   1.468   3.993   6.521  0.6719 -0.6572  0.2096
 7350SOL    HW133509   1.527   3.931   6.563 -0.8519 -0.1598  3.1045
 7350SOL    HW233510   1.386   3.961   6.560  0.1632  1.0566  0.5312
 7351SOL     OW33511   3.777   1.106   5.460  0.6252 -0.6821 -0.1479
 7351SOL    HW133512   3.719   1.065   5.525 -1.2835 -1.2347 -2.1885
 7351SOL    HW233513   3.864   1.083   5.492  0.9936  2.3395  1.0656
 7352SOL     OW33514   3.542   4.108   4.409 -0.2563 -0.1539  0.3742
 7352SOL    HW133515   3.593   4.046   4.462  0.0986 -1.5489 -1.5964
 7352SOL    HW233516   3.583   4.101   4.323  0.6826  2.0561  0.6355
 7353SOL     OW33517   3.149   2.130  16.521  0.0148  0.2211 -0.2758
 7353SOL    HW133518   3.098   2.210  16.509 -0.0372  0.4619  1.5233
 7353SOL    HW233519   3.082   2.063  16.506  0.6129 -0.5011  0.2472
 7354SOL     OW33520   1.187   3.809   3.746 -1.1141  0.3896 -0.3349
 7354SOL    HW133521   1.100   3.809   3.786 -0.7287  0.4401  0.5147
 7354SOL    HW233522   1.234   3.876   3.795  0.3665 -0.4531 -0.6109
 7355SOL     OW33523   1.452   2.966   6.733 -0.1613  0.0343 -0.4644
 7355SOL    HW133524   1.537   2.936   6.701 -1.1959 -1.6835 -1.5884
 7355SOL    HW233525   1.423   3.001   6.649 -2.9436 -1.3706 -0.0827
 7356SOL     OW33526   1.609   1.968   3.089  0.4562  0.1161  0.2546
 7356SOL    HW133527   1.629   1.888   3.040 -0.7817  0.6804 -1.1728
 7356SOL    HW233528   1.694   2.010   3.071  0.4038 -0.1059 -0.5442
 7357SOL     OW33529   1.944   1.715  17.207 -0.1036  0.5058  0.6104
 7357SOL    HW133530   2.031   1.754  17.197 -0.6143  1.4968 -0.0259
 7357SOL    HW233531   1.960   1.621  17.201 -1.7557  0.3927 -1.8937
 7358SOL     OW33532   3.743   2.330  11.850 -0.0115  0.7572  0.3246
 7358SOL    HW133533   3.834   2.356  11.859  0.0854 -0.1132  1.7093
 7358SOL    HW233534   3.711   2.334  11.940  2.0373  0.6617  1.0483
 7359SOL     OW33535   2.279   0.272   1.759 -1.0470  0.5978 -0.5837
 7359SOL    HW133536   2.358   0.246   1.808 -1.1585  3.4011  1.1097
 7359SOL    HW233537   2.223   0.197   1.776  1.9753 -1.7431 -1.0000
 7360SOL     OW33538   0.562   2.026   9.893  0.3800 -0.1594  0.3530
 7360SOL    HW133539   0.541   2.102   9.948  0.6535 -0.1305  0.4192
 7360SOL    HW233540   0.650   2.045   9.860  0.1000 -0.8169 -0.7744
 7361SOL     OW33541   1.241   1.006   8.085  0.8773 -0.6939 -0.4900
 7361SOL    HW133542   1.174   0.965   8.031  1.5394 -1.7241 -0.5205
 7361SOL    HW233543   1.262   1.083   8.031 -1.5629  1.7954  2.0701
 7362SOL     OW33544   0.902   1.909   6.994  0.0544  0.2730  0.1589
 7362SOL    HW133545   0.973   1.910   7.058  0.1323  0.4182  0.0684
 7362SOL    HW233546   0.858   1.991   7.017 -1.1544 -0.3241 -0.0180
 7363SOL     OW33547   0.314   2.484   9.008 -0.6237  0.3702 -0.4795
 7363SOL    HW133548   0.219   2.497   8.999 -0.4063  2.1957 -0.2598
 7363SOL    HW233549   0.337   2.574   8.983  2.9006 -0.3958  0.0609
 7364SOL     OW33550   3.038   0.758   6.098 -0.0794 -0.0365 -0.0850
 7364SOL    HW133551   3.034   0.714   6.183  1.3659 -1.5928 -0.8280
 7364SOL    HW233552   3.110   0.820   6.108 -0.5517  0.5690 -0.4331
 7365SOL     OW33553   0.514   2.209  10.069 -0.2189 -0.3395  0.7079
 7365SOL    HW133554   0.532   2.293  10.109  1.6575 -0.4579  0.1160
 7365SOL    HW233555   0.437   2.189  10.122 -1.5748  2.2268 -0.3270
 7366SOL     OW33556   1.369   1.704   7.269  0.1322  0.1226  0.9712
 7366SOL    HW133557   1.455   1.709   7.311  0.2687  0.7161  0.6237
 7366SOL    HW233558   1.325   1.786   7.291 -0.1590  0.0570  0.6245
 7367SOL     OW33559   4.405   2.586  14.561  0.4709  0.0650 -0.4033
 7367SOL    HW133560   4.409   2.635  14.479  0.4775  2.2733  0.9300
 7367SOL    HW233561   4.319   2.543  14.556  1.4615 -2.0941  1.0787
 7368SOL     OW33562   1.107   4.575   3.703  0.1372 -0.0158 -0.3187
 7368SOL    HW133563   1.035   4.520   3.735  1.3474 -2.5218 -1.9487
 7368SOL    HW233564   1.061   4.635   3.644  0.2763  0.2135 -0.1952
 7369SOL     OW33565   3.759   3.957  12.560 -0.2265  0.4052 -0.1983
 7369SOL    HW133566   3.719   4.012  12.628  1.2030 -0.7578  1.5695
 7369SOL    HW233567   3.792   3.890  12.619  2.0120  1.8771  0.2231
 7370SOL     OW33568   4.192   2.247  15.254 -0.0408  0.0579 -0.4044
 7370SOL    HW133569   4.238   2.184  15.199 -0.6430 -0.2787 -0.5128
 7370SOL    HW233570   4.131   2.185  15.293  0.3197 -0.4973 -0.7285
 7371SOL     OW33571   2.873   0.321   8.923 -0.0468 -0.9986  0.1150
 7371SOL    HW133572   2.876   0.296   9.015 -0.3442 -1.3945  0.0163
 7371SOL    HW233573   2.793   0.282   8.887 -0.2834 -1.8633  1.6013
 7372SOL     OW33574   3.849   2.668   5.160  0.4850 -0.7657  0.2122
 7372SOL    HW133575   3.783   2.603   5.138  0.0887 -0.7502  1.3399
 7372SOL    HW233576   3.873   2.706   5.076  0.7311 -0.6849  0.3192
 7373SOL     OW33577   1.187   4.684  13.117 -0.2659 -0.4705  0.1872
 7373SOL    HW133578   1.281   4.686  13.132 -0.4414 -1.0958  1.4114
 7373SOL    HW233579   1.175   4.589  13.114  0.1064 -0.4833 -1.0419
 7374SOL     OW33580   3.768   2.500  10.413  0.4796  0.2868 -0.3939
 7374SOL    HW133581   3.759   2.414  10.453 -0.8276 -0.4094 -2.1643
 7374SOL    HW233582   3.740   2.565  10.477  0.2025 -0.6379  0.4125
 7375SOL     OW33583   4.627   1.431   3.458 -0.0571  0.1442  0.1628
 7375SOL    HW133584   4.667   1.510   3.421  2.3686 -0.7593  0.8049
 7375SOL    HW233585   4.544   1.433   3.411  1.4403 -2.3788 -2.5577
 7376SOL     OW33586   0.294   1.298   0.835 -0.3124  0.0471 -0.1536
 7376SOL    HW133587   0.379   1.302   0.877 -0.4408 -1.3909  0.2480
 7376SOL    HW233588   0.326   1.307   0.745 -2.2627 -1.6234 -1.0371
 7377SOL     OW33589   3.642   0.029   2.784  0.3280  0.0217 -0.3796
 7377SOL    HW133590   3.728   0.071   2.781 -0.1752  0.8886 -3.2366
 7377SOL    HW233591   3.656   4.707   2.868  2.4748  0.7270 -0.3711
 7378SOL     OW33592   1.781   2.793   0.692 -0.6302  0.8007 -0.0344
 7378SOL    HW133593   1.689   2.819   0.694 -0.5631  0.8853  2.2526
 7378SOL    HW233594   1.833   2.873   0.686 -0.5761  0.6894 -0.9918
 7379SOL     OW33595   0.868   1.826   9.535 -0.4991 -0.0094 -0.1872
 7379SOL    HW133596   0.854   1.732   9.531 -0.8300  0.0009  0.7580
 7379SOL    HW233597   0.936   1.847   9.599  0.6478  1.5415 -1.9104
 7380SOL     OW33598   4.547   1.832   2.252  0.0541 -0.0242 -0.2698
 7380SOL    HW133599   4.607   1.829   2.177  0.7204  0.9688  0.2307
 7380SOL    HW233600   4.577   1.916   2.287 -2.4739 -0.5572  3.0849
 7381SOL     OW33601   1.526   3.589   6.225  0.3709 -0.3446 -0.0855
 7381SOL    HW133602   1.558   3.664   6.275  0.7797 -1.0234  0.6857
 7381SOL    HW233603   1.558   3.608   6.137  0.9554  1.3528  0.5020
 7382SOL     OW33604   4.716   4.017  14.391  0.0693 -0.0401  0.1001
 7382SOL    HW133605   4.705   4.105  14.354  0.9540 -1.0477 -2.5659
 7382SOL    HW233606   4.671   3.953  14.336  0.5866 -0.9664  0.7511
 7383SOL     OW33607   3.964   0.679  13.468 -0.3394 -0.1626 -0.0189
 7383SOL    HW133608   3.935   0.602  13.517  0.0102  0.8561  1.7867
 7383SOL    HW233609   3.958   0.642  13.380  1.6552 -1.7041  0.5109
 7384SOL     OW33610   3.864   0.302   9.133  0.1631  0.3667  0.5272
 7384SOL    HW133611   3.918   0.223   9.143  1.9193  0.8327 -4.9655
 7384SOL    HW233612   3.784   0.269   9.091  0.6150  0.4846 -0.4255
 7385SOL     OW33613   2.230   1.733   0.225 -0.1455  0.0773  0.0717
 7385SOL    HW133614   2.181   1.696   0.298  1.5088 -0.0141  1.1181
 7385SOL    HW233615   2.290   1.663   0.201  0.6518  1.1002 -0.9524
 7386SOL     OW33616   3.071   1.911   5.116 -0.2164  0.0043 -0.6434
 7386SOL    HW133617   3.073   1.877   5.026 -0.4061 -3.5547  0.7216
 7386SOL    HW233618   3.129   1.847   5.156 -0.6692  0.0007 -0.0085
 7387SOL     OW33619   4.102   4.266   8.014  0.6649  0.0414  0.3431
 7387SOL    HW133620   4.132   4.326   7.946  2.0177  0.7796  1.5697
 7387SOL    HW233621   4.084   4.183   7.971  0.4516 -0.4943  1.4684
 7388SOL     OW33622   3.424   2.978   1.907 -0.0097  0.0354 -0.3515
 7388SOL    HW133623   3.494   2.996   1.844  0.1252 -2.2639 -0.8755
 7388SOL    HW233624   3.449   2.886   1.917 -0.3139 -0.0580 -0.4437
 7389SOL     OW33625   1.767   4.236  11.842 -0.2208 -0.1191 -0.0091
 7389SOL    HW133626   1.782   4.142  11.832  0.6275  0.0326 -0.1331
 7389SOL    HW233627   1.671   4.240  11.846 -0.2138 -0.9378  0.9988
 7390SOL     OW33628   2.999   0.566  16.969  0.0737  0.2915 -0.2337
 7390SOL    HW133629   2.996   0.474  16.941  0.3106  0.0274  0.5977
 7390SOL    HW233630   3.060   0.570  17.043 -0.2469  0.8605  0.0032
 7391SOL     OW33631   4.544   2.256  15.297 -0.1641  0.6866  0.4676
 7391SOL    HW133632   4.502   2.339  15.318  0.0172  0.4044  1.9180
 7391SOL    HW233633   4.470   2.225  15.245 -0.2914 -0.7901  1.5299
 7392SOL     OW33634   2.685   0.344   5.570 -0.3415  0.3832 -0.2321
 7392SOL    HW133635   2.626   0.315   5.639 -0.5433 -0.3628 -0.7281
 7392SOL    HW233636   2.707   0.264   5.524 -1.9968  0.3372 -0.9266
 7393SOL     OW33637   3.544   1.163   6.019  0.3460 -0.1278  0.4235
 7393SOL    HW133638   3.633   1.129   6.007 -0.0517 -0.3450 -1.9290
 7393SOL    HW233639   3.502   1.119   5.946  0.3849 -0.5841  0.6751
 7394SOL     OW33640   2.878   3.604   7.814 -0.1446  0.3673 -0.5787
 7394SOL    HW133641   2.890   3.566   7.727  0.9959 -0.1625 -0.1947
 7394SOL    HW233642   2.832   3.533   7.859 -2.0870  2.4141  0.6075
 7395SOL     OW33643   0.959   2.472   4.099 -0.0390  0.1999 -0.5071
 7395SOL    HW133644   1.052   2.455   4.079 -0.0052 -0.6236  0.3156
 7395SOL    HW233645   0.963   2.564   4.125  2.6765 -0.3910  1.2358
 7396SOL     OW33646   4.492   0.395  12.153  0.0962  0.3163 -0.1902
 7396SOL    HW133647   4.490   0.484  12.116  0.5411  0.3381 -0.1601
 7396SOL    HW233648   4.463   0.409  12.243 -0.5054  3.3782 -0.8657
 7397SOL     OW33649   2.541   0.491   3.643 -0.5851 -0.1883  0.2276
 7397SOL    HW133650   2.467   0.475   3.585 -0.8410  1.3141  0.1195
 7397SOL    HW233651   2.566   0.400   3.655  1.8226  0.4385 -0.0964
 7398SOL     OW33652   1.280   1.679  11.824 -0.4840 -0.3429  0.3163
 7398SOL    HW133653   1.269   1.736  11.748 -1.2626  1.4149  1.7354
 7398SOL    HW233654   1.373   1.697  11.836 -0.4458  0.3283 -0.9550
 7399SOL     OW33655   1.494   2.952   8.068  0.3401  0.7228  0.1318
 7399SOL    HW133656   1.575   2.933   8.021  0.5680 -1.4215  1.3780
 7399SOL    HW233657   1.496   3.045   8.090  1.6290  1.2091 -2.0932
 7400SOL     OW33658   4.027   3.722   3.665  0.2078 -0.1566  0.2996
 7400SOL    HW133659   4.010   3.629   3.672  0.7490 -0.2412  0.5138
 7400SOL    HW233660   4.121   3.716   3.682  0.4107  1.3111 -0.2350
 7401SOL     OW33661   2.016   4.392   6.302 -0.1642  0.1629  0.2006
 7401SOL    HW133662   2.095   4.338   6.304 -0.0694  0.2898 -0.1575
 7401SOL    HW233663   1.961   4.359   6.372 -0.3021 -2.4054 -1.1335
 7402SOL     OW33664   0.686   2.122  12.146 -0.5316 -0.0517  0.1009
 7402SOL    HW133665   0.657   2.212  12.157  0.5000  0.6297 -2.8396
 7402SOL    HW233666   0.712   2.100  12.235  0.0360 -0.3070 -0.1283
 7403SOL     OW33667   0.833   4.349   1.014 -0.2814  0.4852 -0.4508
 7403SOL    HW133668   0.815   4.320   0.925 -0.0375 -2.0874  0.3317
 7403SOL    HW233669   0.832   4.267   1.065 -0.1739  1.1291  0.5860
 7404SOL     OW33670   4.555   0.499  16.843 -0.4207 -0.4164  0.1942
 7404SOL    HW133671   4.471   0.546  16.836 -0.2536 -0.3619 -1.6050
 7404SOL    HW233672   4.555   0.464  16.932  1.2187  1.2485  0.8465
 7405SOL     OW33673   1.918   0.991   1.370  0.5804  0.1812 -0.6685
 7405SOL    HW133674   1.979   1.031   1.432 -1.4820  2.0546  0.1631
 7405SOL    HW233675   1.860   0.949   1.434  0.4752  0.5723 -0.5032
 7406SOL     OW33676   4.191   3.156   6.532  0.3188  0.1929  0.1882
 7406SOL    HW133677   4.101   3.146   6.503  0.8133  0.3806 -1.4138
 7406SOL    HW233678   4.215   3.186   6.444 -4.2777 -2.2977 -1.8933
 7407SOL     OW33679   4.213   0.713   5.431  0.3522  0.1195 -0.2312
 7407SOL    HW133680   4.211   0.785   5.368 -3.8374 -2.2530 -2.8057
 7407SOL    HW233681   4.307   0.704   5.447  0.5031 -1.3882 -1.9421
 7408SOL     OW33682   3.628   3.124   5.424  0.6140  0.4193 -0.5482
 7408SOL    HW133683   3.562   3.153   5.362 -0.1224  3.4791  1.6395
 7408SOL    HW233684   3.673   3.049   5.384  1.1993  0.8270 -0.6594
 7409SOL     OW33685   3.235   3.687   7.424  0.1391 -0.2338 -0.2129
 7409SOL    HW133686   3.198   3.745   7.358 -2.8180 -1.7275  0.1495
 7409SOL    HW233687   3.321   3.657   7.394  0.5760 -1.6714  2.5094
 7410SOL     OW33688   2.188   2.090   2.854  1.2129  0.1788 -0.1044
 7410SOL    HW133689   2.249   2.161   2.834 -2.4699  2.2063 -4.1433
 7410SOL    HW233690   2.223   2.069   2.940 -1.6066  0.2315  1.0356
 7411SOL     OW33691   4.177   2.474   6.991  0.1525  0.4879 -0.4676
 7411SOL    HW133692   4.138   2.559   6.968 -0.8350  0.1505 -0.0475
 7411SOL    HW233693   4.189   2.470   7.085 -1.8803 -0.3910 -0.2476
 7412SOL     OW33694   0.034   0.677   5.526  0.1654 -0.1052 -0.3402
 7412SOL    HW133695   0.004   0.767   5.518 -1.3299 -0.3557  2.2983
 7412SOL    HW233696   0.013   0.660   5.618  2.7308  1.6867  0.5663
 7413SOL     OW33697   1.860   2.071  13.681  0.9354 -0.2839  0.3124
 7413SOL    HW133698   1.816   2.103  13.602  0.0465 -1.7732  0.2076
 7413SOL    HW233699   1.847   2.149  13.734 -0.0219  1.0099 -1.8248
 7414SOL     OW33700   1.631   3.220   3.007 -0.4012 -0.7059 -0.2013
 7414SOL    HW133701   1.633   3.306   2.965 -2.4332 -0.3899  0.3757
 7414SOL    HW233702   1.705   3.232   3.068  0.7850  2.8334 -2.3264
 7415SOL     OW33703   1.126   0.285   6.106 -0.5479 -0.3201  0.3368
 7415SOL    HW133704   1.128   0.226   6.031 -2.4425  1.6793 -1.3108
 7415SOL    HW233705   1.053   0.255   6.161 -0.0294  0.7764  1.6018
 7416SOL     OW33706   3.657   2.248   6.766 -0.1279 -0.3613 -0.4122
 7416SOL    HW133707   3.623   2.205   6.687  0.5398 -0.3016 -0.7291
 7416SOL    HW233708   3.593   2.316   6.784  0.3581  0.1529 -0.6423
 7417SOL     OW33709   3.381   0.431   0.356  0.4974  0.3345 -0.0458
 7417SOL    HW133710   3.390   0.467   0.444 -0.4875  0.7992 -0.1371
 7417SOL    HW233711   3.292   0.464   0.347  1.3821  2.5894 -0.6061
 7418SOL     OW33712   2.047   4.339   5.430  0.2646  0.5503 -0.2889
 7418SOL    HW133713   2.053   4.434   5.421  1.5092  0.2852 -2.1635
 7418SOL    HW233714   1.977   4.319   5.367  1.7517  0.0332 -1.7729
 7419SOL     OW33715   0.288   0.875  14.362 -0.8232  0.0495 -0.1072
 7419SOL    HW133716   0.257   0.963  14.342 -0.7770 -0.4828 -2.5140
 7419SOL    HW233717   0.282   0.867  14.457 -0.6399  2.0734  0.0576
 7420SOL     OW33718   2.282   1.158  12.358  0.1032  0.4636 -0.6103
 7420SOL    HW133719   2.263   1.079  12.408 -1.1537  2.3734  1.8972
 7420SOL    HW233720   2.267   1.118  12.272  0.9682 -1.3599  0.0689
 7421SOL     OW33721   1.514   3.635   8.092  0.4754 -0.3681  0.1246
 7421SOL    HW133722   1.597   3.616   8.048  0.6224  0.6429 -0.0279
 7421SOL    HW233723   1.462   3.625   8.012  0.4238  1.5285 -0.0901
 7422SOL     OW33724   0.162   0.905   2.012  0.3199 -0.4594  0.1270
 7422SOL    HW133725   0.165   0.997   2.037 -1.1865  0.0075 -1.4060
 7422SOL    HW233726   0.095   0.872   2.071 -1.3660 -0.3391 -1.6917
 7423SOL     OW33727   2.830   2.277  15.459 -0.2780  0.1674  0.0834
 7423SOL    HW133728   2.908   2.273  15.403 -1.0846 -1.6759 -0.9056
 7423SOL    HW233729   2.814   2.184  15.445  0.2552 -0.0065  0.6245
 7424SOL     OW33730   0.153   1.945   3.026 -0.0399 -0.5267 -0.0137
 7424SOL    HW133731   0.210   1.980   2.958 -0.6189  0.4425  0.0041
 7424SOL    HW233732   0.068   1.951   2.983  0.2411  1.7520 -0.2542
 7425SOL     OW33733   2.477   4.560  13.694 -0.6701  0.0174 -0.2624
 7425SOL    HW133734   2.409   4.619  13.662  0.4187  2.4092  1.8586
 7425SOL    HW233735   2.428   4.490  13.739 -2.6453  1.5399 -0.0288
 7426SOL     OW33736   0.268   1.956   7.136  0.6332  0.2087 -0.1919
 7426SOL    HW133737   0.338   1.892   7.140  1.1712  0.7161 -1.6703
 7426SOL    HW233738   0.225   1.928   7.055  0.7041  0.9529 -0.4865
 7427SOL     OW33739   2.945   0.620  12.066 -0.6844 -0.1858  0.4432
 7427SOL    HW133740   2.877   0.668  12.019 -0.7826 -0.2183  0.5512
 7427SOL    HW233741   2.912   0.634  12.155 -2.0991 -2.9809  0.3619
 7428SOL     OW33742   0.515   3.534   4.681 -0.0296  0.3315  0.3979
 7428SOL    HW133743   0.426   3.563   4.660  0.0060  0.6239  0.6494
 7428SOL    HW233744   0.564   3.571   4.608  2.6742  0.2415  2.1703
 7429SOL     OW33745   4.190   2.444  14.444  0.0831 -0.0170 -0.4269
 7429SOL    HW133746   4.149   2.504  14.382  1.4691 -0.7940 -2.1162
 7429SOL    HW233747   4.192   2.365  14.389  1.0158  1.4660 -2.5093
 7430SOL     OW33748   2.203   2.569   8.168 -0.2195  0.4867 -0.0253
 7430SOL    HW133749   2.108   2.570   8.155  0.0281 -1.5852 -2.0256
 7430SOL    HW233750   2.227   2.642   8.225 -0.8837  0.6356  0.0696
 7431SOL     OW33751   0.359   0.538  16.760 -0.5382 -0.0013  0.4703
 7431SOL    HW133752   0.394   0.580  16.682  1.2635 -0.1688  1.1938
 7431SOL    HW233753   0.270   0.530  16.727 -0.8786  0.8723  1.1679
 7432SOL     OW33754   1.612   0.595   7.280 -0.3042  0.2236 -0.1178
 7432SOL    HW133755   1.590   0.562   7.193 -1.7067  0.3336  0.1930
 7432SOL    HW233756   1.524   0.590   7.317 -0.6948  2.5305 -0.7480
 7433SOL     OW33757   2.057   3.995   7.983  0.2198  0.6537 -0.0735
 7433SOL    HW133758   1.966   4.019   7.963  0.1326  1.1607  0.9292
 7433SOL    HW233759   2.038   3.925   8.045  1.4352  0.6470  0.2941
 7434SOL     OW33760   4.132   3.504   8.057 -0.4982  0.3870  0.0522
 7434SOL    HW133761   4.111   3.584   8.009  1.5340  1.9366  1.7212
 7434SOL    HW233762   4.223   3.529   8.077  0.0252 -0.1101 -1.7285
 7435SOL     OW33763   1.520   2.021  16.231 -0.7628 -0.1343  0.5316
 7435SOL    HW133764   1.446   1.998  16.287  0.1591  0.5417  2.0316
 7435SOL    HW233765   1.529   2.116  16.236  1.8683 -0.4101  0.8909
 7436SOL     OW33766   1.752   2.657   0.463  0.4377 -0.3051  0.1080
 7436SOL    HW133767   1.773   2.687   0.551 -0.7193 -1.4451  0.7603
 7436SOL    HW233768   1.657   2.666   0.458  0.6657  0.7304 -2.4213
 7437SOL     OW33769   4.511   0.552   7.566  0.1853  0.6120 -0.0552
 7437SOL    HW133770   4.565   0.493   7.619 -0.0701 -0.3331 -0.8529
 7437SOL    HW233771   4.494   0.494   7.492 -2.7716 -0.5467  1.5314
 7438SOL     OW33772   2.285   4.440   2.576  0.1058 -0.0135  0.1208
 7438SOL    HW133773   2.284   4.510   2.511  0.2655  1.7298  1.9887
 7438SOL    HW233774   2.363   4.464   2.626 -0.9009 -0.1391  1.7433
 7439SOL     OW33775   2.339   2.082   3.087  0.4546 -0.0242 -0.5981
 7439SOL    HW133776   2.431   2.100   3.071 -0.1359  2.3315 -1.3955
 7439SOL    HW233777   2.339   2.096   3.182  0.5119 -0.3143 -0.5549
 7440SOL     OW33778   2.478   4.629   4.523  0.3511  0.6648 -0.3633
 7440SOL    HW133779   2.457   4.672   4.441  2.3386  0.7119 -0.8390
 7440SOL    HW233780   2.517   4.547   4.493 -0.1716  0.8864 -1.6206
 7441SOL     OW33781   1.716   1.616   9.443 -0.3724  0.4677 -0.4745
 7441SOL    HW133782   1.697   1.539   9.389  0.9770  0.8583 -1.5127
 7441SOL    HW233783   1.737   1.577   9.527  0.8234  1.0765 -0.4954
 7442SOL     OW33784   0.895   4.115   8.619  0.0887 -0.3607  0.2640
 7442SOL    HW133785   0.844   4.173   8.563 -0.6149  0.5080  1.8152
 7442SOL    HW233786   0.848   4.032   8.615 -0.7900  0.1748 -0.3142
 7443SOL     OW33787   1.284   2.554   1.898  0.2774  0.1644  0.5276
 7443SOL    HW133788   1.296   2.613   1.824 -0.3563 -1.0941 -0.5888
 7443SOL    HW233789   1.326   2.473   1.870 -0.2097  0.5873 -1.3929
 7444SOL     OW33790   3.069   1.126   7.814 -0.1386 -0.2782 -0.2132
 7444SOL    HW133791   3.121   1.196   7.855 -0.9651 -0.4518  1.1124
 7444SOL    HW233792   3.138   1.076   7.771  1.0899 -0.1479  1.6106
 7445SOL     OW33793   4.619   2.330   8.697 -0.0190 -0.0282 -0.3479
 7445SOL    HW133794   4.699   2.301   8.742  0.1091  0.7101 -0.0881
 7445SOL    HW233795   4.571   2.378   8.765 -0.1257 -0.3492 -0.1985
 7446SOL     OW33796   0.335   1.422   1.648  0.0135 -0.1461 -0.2831
 7446SOL    HW133797   0.274   1.415   1.574 -1.5758 -2.2231  1.2223
 7446SOL    HW233798   0.375   1.338   1.667 -0.4632 -0.3497 -0.1790
 7447SOL     OW33799   3.377   4.643   0.140 -0.3595 -0.5448 -0.0442
 7447SOL    HW133800   3.390   4.587   0.216  0.1436 -0.8126 -0.3339
 7447SOL    HW233801   3.383   4.573   0.076 -0.9550  0.4695 -1.2080
 7448SOL     OW33802   3.715   1.654  15.805 -0.4530 -0.2255 -0.1868
 7448SOL    HW133803   3.779   1.630  15.737 -0.6314 -1.1472 -0.0335
 7448SOL    HW233804   3.650   1.694  15.748  0.0519  2.0228  0.8278
 7449SOL     OW33805   3.160   1.325  12.667 -0.0808 -0.1771  0.2315
 7449SOL    HW133806   3.214   1.266  12.614 -0.3741 -0.6917  0.4990
 7449SOL    HW233807   3.110   1.360  12.594 -2.0770 -3.2246  0.1388
 7450SOL     OW33808   1.557   0.218  13.238 -0.4466  0.3568  0.1588
 7450SOL    HW133809   1.574   0.189  13.328 -1.4610 -0.6841  0.0129
 7450SOL    HW233810   1.620   0.290  13.236  2.1113 -1.8876 -1.5144
 7451SOL     OW33811   4.646   2.539   3.405 -0.0106 -0.0296 -0.1357
 7451SOL    HW133812   4.645   2.628   3.370  0.6269 -0.2210 -0.6392
 7451SOL    HW233813   4.719   2.557   3.463 -0.7547  0.2577  0.7077
 7452SOL     OW33814   3.044   2.652   0.984 -0.4758 -0.7997 -0.1706
 7452SOL    HW133815   3.035   2.613   0.897 -1.3385 -0.6385 -0.1512
 7452SOL    HW233816   2.958   2.633   1.021 -1.8336  0.0620 -2.8430
 7453SOL     OW33817   4.645   2.642   6.817 -0.6791 -0.0013 -0.2364
 7453SOL    HW133818   4.575   2.685   6.767 -2.6254 -0.5912  1.9714
 7453SOL    HW233819   4.598   2.563   6.844 -0.0096  0.1660  1.3672
 7454SOL     OW33820   0.338   0.264  10.939  0.7761 -0.1863 -0.1234
 7454SOL    HW133821   0.282   0.238  11.012 -0.0204  2.1592  0.0905
 7454SOL    HW233822   0.383   0.180  10.931  0.5327 -0.0359 -3.2419
 7455SOL     OW33823   0.436   2.634   2.948  0.6509 -0.0482  0.6292
 7455SOL    HW133824   0.527   2.661   2.963  0.8506 -0.0864 -0.4857
 7455SOL    HW233825   0.446   2.560   2.887  0.9733 -0.0159  0.6412
 7456SOL     OW33826   4.550   4.349   1.389  0.2683  0.0676  0.0537
 7456SOL    HW133827   4.563   4.320   1.479 -0.8074  2.2911  0.9388
 7456SOL    HW233828   4.630   4.401   1.386  1.5041 -1.8928 -0.5259
 7457SOL     OW33829   1.773   2.666   4.417 -0.4453  0.0549 -0.1539
 7457SOL    HW133830   1.732   2.752   4.423 -0.8349 -0.0295 -1.6236
 7457SOL    HW233831   1.742   2.614   4.491 -1.0135 -1.4362 -1.4296
 7458SOL     OW33832   2.034   0.894   2.468  0.1390 -0.3053  0.3807
 7458SOL    HW133833   1.996   0.975   2.434  1.5191  0.5760  0.8920
 7458SOL    HW233834   1.987   0.826   2.421  2.1922 -0.5663 -1.2733
 7459SOL     OW33835   1.399   4.670   8.266  0.0854 -0.0885 -0.3365
 7459SOL    HW133836   1.401   4.654   8.360  0.6039  1.9467 -0.0168
 7459SOL    HW233837   1.413   0.043   8.264  1.6378 -0.3651 -2.2955
 7460SOL     OW33838   3.906   2.627   1.991 -0.3677  1.0767 -0.5156
 7460SOL    HW133839   3.875   2.688   1.924 -0.8633  0.2176 -1.0726
 7460SOL    HW233840   3.888   2.547   1.941 -3.3171  1.7498 -0.5715
 7461SOL     OW33841   0.397   2.883  13.084 -0.3308  0.3557  0.2105
 7461SOL    HW133842   0.323   2.905  13.026 -0.5502  0.2620  0.4533
 7461SOL    HW233843   0.463   2.868  13.017  1.4580 -1.4920  2.3989
 7462SOL     OW33844   0.351   3.952   7.314  0.2176 -0.0581 -0.1657
 7462SOL    HW133845   0.269   3.913   7.283 -0.2434  0.1985  0.7115
 7462SOL    HW233846   0.392   3.985   7.234  1.6924 -0.1790  0.5406
 7463SOL     OW33847   4.154   1.907   3.621 -0.0598 -0.1109 -0.6378
 7463SOL    HW133848   4.200   1.947   3.548 -2.0832 -0.0274 -1.8546
 7463SOL    HW233849   4.082   1.871   3.570  0.1661  1.2915 -1.9398
 7464SOL     OW33850   2.656   4.169   7.141 -0.7550  0.0023 -0.8905
 7464SOL    HW133851   2.695   4.255   7.160 -0.8145  0.1243 -1.3132
 7464SOL    HW233852   2.678   4.131   7.226  1.3458  1.0197 -0.9793
 7465SOL     OW33853   4.093   0.027   6.151 -0.2985 -0.4125  0.0532
 7465SOL    HW133854   4.165   0.090   6.163 -1.3195  0.8354 -0.3367
 7465SOL    HW233855   4.134   4.687   6.090 -0.1369  0.2293 -0.4869
 7466SOL     OW33856   4.412   2.966   2.585  0.2468  0.2565  0.1045
 7466SOL    HW133857   4.336   3.024   2.589 -0.7987 -0.8371 -3.7139
 7466SOL    HW233858   4.404   2.943   2.493  1.6184 -2.5362  0.6903
 7467SOL     OW33859   3.573   4.110  10.786 -0.1757 -0.1484 -0.3792
 7467SOL    HW133860   3.490   4.063  10.783 -0.2328  0.0863 -2.1020
 7467SOL    HW233861   3.549   4.199  10.808  0.2400  0.4269 -2.2440
 7468SOL     OW33862   1.898   0.319   9.230  0.7448 -0.3062  0.0485
 7468SOL    HW133863   1.861   0.305   9.317 -0.6601 -2.8438 -0.9489
 7468SOL    HW233864   1.917   0.231   9.197 -1.1952 -0.4282 -0.7593
 7469SOL     OW33865   3.686   3.450   4.946  0.2524 -0.2637  0.2821
 7469SOL    HW133866   3.723   3.412   4.867 -2.2551 -2.0193 -0.0284
 7469SOL    HW233867   3.614   3.490   4.897  0.1361  0.7171  1.2512
 7470SOL     OW33868   1.766   3.547   4.315 -0.4999  0.4403  0.0736
 7470SOL    HW133869   1.686   3.576   4.272  0.3421  1.2664 -0.9052
 7470SOL    HW233870   1.790   3.467   4.268 -0.3790  1.3478 -1.3839
 7471SOL     OW33871   2.959   0.248   8.404 -0.2752 -0.2348  0.3260
 7471SOL    HW133872   2.946   0.250   8.499  1.0278 -0.6873  0.5099
 7471SOL    HW233873   3.040   0.295   8.388 -0.6409  0.0404 -0.6980
 7472SOL     OW33874   2.010   4.008  10.265 -0.1361  0.1705 -0.4649
 7472SOL    HW133875   1.963   3.962  10.334  2.7299 -1.1897  0.5808
 7472SOL    HW233876   2.067   4.071  10.310 -2.4263  0.1175  2.4719
 7473SOL     OW33877   4.547   0.394   9.055 -0.4167 -0.2265 -0.1136
 7473SOL    HW133878   4.459   0.429   9.044 -0.3284  0.1289  0.3053
 7473SOL    HW233879   4.589   0.446   9.124 -1.9239 -1.0076  1.3903
 7474SOL     OW33880   1.679   0.667   4.825 -0.2430 -0.4015 -0.2115
 7474SOL    HW133881   1.679   0.734   4.894  0.5155  0.7791 -1.3570
 7474SOL    HW233882   1.607   0.614   4.858 -2.0582  1.7577 -0.7094
 7475SOL     OW33883   3.633   3.384   7.318  0.5883  0.1074 -0.3785
 7475SOL    HW133884   3.594   3.468   7.338  0.3598  0.1707 -1.0668
 7475SOL    HW233885   3.561   3.323   7.335 -1.4709  1.9867 -2.3322
 7476SOL     OW33886   0.873   4.357   7.329 -0.1204 -0.0631  0.1844
 7476SOL    HW133887   0.808   4.361   7.399  0.2944  0.4724  0.5379
 7476SOL    HW233888   0.911   4.444   7.335 -1.2599  0.4500  0.0845
 7477SOL     OW33889   3.259   3.720   7.020 -0.0709 -0.7755 -0.2247
 7477SOL    HW133890   3.318   3.645   7.026 -1.2795 -1.6400  0.8584
 7477SOL    HW233891   3.174   3.676   7.014 -0.1655 -0.8742  1.8005
 7478SOL     OW33892   4.670   3.139   4.152 -0.0227  0.1597  0.5792
 7478SOL    HW133893   4.672   3.174   4.241 -2.2807 -1.1779  1.1662
 7478SOL    HW233894   0.033   3.093   4.154  0.5292  1.2065  1.2039
 7479SOL     OW33895   0.465   2.622  13.571  0.0031 -0.0088  0.3163
 7479SOL    HW133896   0.371   2.623  13.555 -0.3263 -3.7865  1.9643
 7479SOL    HW233897   0.484   2.709  13.606 -0.8349  0.0201  0.6997
 7480SOL     OW33898   1.635   2.479  13.495 -0.8172 -0.2828 -0.4308
 7480SOL    HW133899   1.602   2.521  13.415 -0.6408  0.5018 -0.0828
 7480SOL    HW233900   1.563   2.502  13.553  1.7151  0.5369  2.3288
 7481SOL     OW33901   3.764   3.940   6.143 -0.1571  0.2949 -0.1490
 7481SOL    HW133902   3.702   4.006   6.113  1.8000  2.2033  0.0178
 7481SOL    HW233903   3.840   3.976   6.098  0.4839  1.2497  1.7169
 7482SOL     OW33904   1.436   4.258   4.532 -0.5048 -0.2846 -0.2642
 7482SOL    HW133905   1.465   4.336   4.484  1.5024 -1.9000 -1.6543
 7482SOL    HW233906   1.466   4.289   4.617 -0.3407 -2.5148  0.4842
 7483SOL     OW33907   4.652   0.278   3.193  0.1703 -0.0193  0.4395
 7483SOL    HW133908   4.713   0.290   3.120 -2.0594  0.9001 -1.2825
 7483SOL    HW233909   4.655   0.362   3.238 -1.6904  1.2294 -1.7907
 7484SOL     OW33910   1.184   4.674  11.735  0.0265  0.3564  0.7745
 7484SOL    HW133911   1.130   4.595  11.745 -1.9127  1.4440 -1.0371
 7484SOL    HW233912   1.173   0.001  11.817  1.0725 -0.3769  1.3533
 7485SOL     OW33913   0.131   1.650   3.118 -0.1173 -0.9021  0.1658
 7485SOL    HW133914   0.209   1.620   3.072  0.1234  1.2127 -0.7934
 7485SOL    HW233915   0.074   1.679   3.046  1.7983  2.7040  0.1195
 7486SOL     OW33916   1.652   3.751   6.403  0.1271 -0.3273 -0.1870
 7486SOL    HW133917   1.646   3.826   6.344  3.7569 -0.7373 -1.0533
 7486SOL    HW233918   1.662   3.795   6.488  0.1638 -0.1344 -0.2927
 7487SOL     OW33919   0.613   3.320   3.648  0.2388 -0.0089  0.1576
 7487SOL    HW133920   0.579   3.408   3.636 -0.8102 -0.3791  0.4667
 7487SOL    HW233921   0.699   3.347   3.614  0.7126  3.7786  4.4187
 7488SOL     OW33922   0.294   0.699   9.981  0.2197  0.1352 -0.1947
 7488SOL    HW133923   0.356   0.634  10.015 -2.2025 -2.8202 -1.4056
 7488SOL    HW233924   0.353   0.737   9.916  0.3683  0.8402  0.3497
 7489SOL     OW33925   1.048   3.470  16.831 -0.1718  0.0882 -0.0021
 7489SOL    HW133926   1.134   3.472  16.874  0.3658 -0.7856 -1.0334
 7489SOL    HW233927   1.072   3.424  16.750  0.6298 -1.2730  0.9975
 7490SOL     OW33928   3.135   0.548   2.122 -0.0042  0.1430 -1.0860
 7490SOL    HW133929   3.140   0.611   2.051  1.7876  1.1064 -0.1112
 7490SOL    HW233930   3.075   0.590   2.183 -0.2951 -1.0926 -0.5291
 7491SOL     OW33931   3.812   4.006   4.934  0.5277  0.8712  0.0477
 7491SOL    HW133932   3.775   4.091   4.909 -3.2437 -0.4877  0.8994
 7491SOL    HW233933   3.831   4.017   5.027  0.3875 -0.7773  0.2747
 7492SOL     OW33934   2.378   0.941   7.244  0.0989 -0.0497 -0.2502
 7492SOL    HW133935   2.311   0.877   7.266  0.7832 -0.6839 -0.0100
 7492SOL    HW233936   2.329   1.023   7.253  0.2306 -0.1572  1.4623
 7493SOL     OW33937   3.403   4.321  13.595 -0.2876  0.0093  0.0992
 7493SOL    HW133938   3.367   4.342  13.681  0.3069 -0.5899  0.4913
 7493SOL    HW233939   3.498   4.325  13.611 -0.5080 -2.3676  1.9288
 7494SOL     OW33940   4.672   2.869  15.175 -0.2548  0.0585 -0.1322
 7494SOL    HW133941   0.011   2.872  15.100 -0.3173 -1.1975 -0.2463
 7494SOL    HW233942   4.596   2.908  15.133  2.2209  2.6202 -2.2528
 7495SOL     OW33943   2.313   1.719   3.862  0.0276  0.2727 -0.3452
 7495SOL    HW133944   2.333   1.680   3.776 -2.4725  0.4110 -0.9740
 7495SOL    HW233945   2.220   1.698   3.864  0.1885 -0.1838  1.7899
 7496SOL     OW33946   2.334   2.637   6.973 -0.4232  0.0886 -0.0317
 7496SOL    HW133947   2.401   2.658   6.909  0.2038 -0.7409  0.3478
 7496SOL    HW233948   2.259   2.622   6.916 -0.1744 -1.1614 -0.0216
 7497SOL     OW33949   1.313   2.301   2.474 -0.2996  0.3050  0.0537
 7497SOL    HW133950   1.245   2.293   2.408  1.1597 -0.1919 -1.3818
 7497SOL    HW233951   1.363   2.227   2.440 -0.6329  1.3680 -2.7320
 7498SOL     OW33952   0.322   0.572   9.365  0.0101 -0.3065  0.5186
 7498SOL    HW133953   0.267   0.650   9.355  1.7944  1.0094  0.9458
 7498SOL    HW233954   0.286   0.510   9.302  0.8439  0.3425 -0.6177
 7499SOL     OW33955   1.835   3.184  11.722 -0.2192  0.2264 -0.5042
 7499SOL    HW133956   1.858   3.136  11.642 -0.1856 -0.4999 -0.0608
 7499SOL    HW233957   1.808   3.115  11.783  0.3941  1.1496  0.8310
 7500SOL     OW33958   1.846   4.065   2.867 -0.0031  0.3034 -0.1504
 7500SOL    HW133959   1.898   4.019   2.933 -0.6081  0.1186  0.1894
 7500SOL    HW233960   1.885   4.152   2.873  0.6008  0.2358 -2.7616
 7501SOL     OW33961   4.306   2.911  14.572 -0.1298 -0.1202 -0.2580
 7501SOL    HW133962   4.295   2.930  14.479  1.6443 -2.7801 -1.0082
 7501SOL    HW233963   4.400   2.931  14.574 -0.3985  0.6887  3.5797
 7502SOL     OW33964   2.099   4.076   2.678 -0.6409  0.1341  0.2736
 7502SOL    HW133965   2.193   4.086   2.692 -0.4116 -0.4303 -0.8486
 7502SOL    HW233966   2.075   4.005   2.738  0.1647  0.5898  1.1356
 7503SOL     OW33967   1.893   3.253   3.733  0.3368  0.0709  0.7512
 7503SOL    HW133968   1.983   3.283   3.743 -0.0244  0.7464  2.0249
 7503SOL    HW233969   1.881   3.212   3.819 -1.8988 -0.8966 -0.0471
 7504SOL     OW33970   4.054   3.982   6.037  0.0857  0.2958 -0.2459
 7504SOL    HW133971   4.138   3.968   6.080 -0.6972  0.4029  1.3021
 7504SOL    HW233972   4.028   3.890   6.033  1.1341  0.0233 -0.9119
 7505SOL     OW33973   0.364   2.962  15.135 -0.2940  0.0924 -0.3324
 7505SOL    HW133974   0.426   2.895  15.108  0.9453  1.0517  0.1098
 7505SOL    HW233975   0.363   2.944  15.229  0.6300  1.5480 -0.0423
 7506SOL     OW33976   2.603   2.168   4.713 -0.0808  0.4386 -0.4257
 7506SOL    HW133977   2.598   2.211   4.628 -0.5911  1.1759 -0.0192
 7506SOL    HW233978   2.674   2.221   4.748  2.2129 -3.5648  1.0871
 7507SOL     OW33979   4.645   0.342   7.717  0.2630  0.5013 -0.3778
 7507SOL    HW133980   0.018   0.338   7.702  0.4706 -0.5550  1.2156
 7507SOL    HW233981   4.644   0.313   7.808 -3.3277 -1.2285 -0.9437
 7508SOL     OW33982   1.320   2.637   3.649  0.0181  0.2334 -0.3751
 7508SOL    HW133983   1.317   2.551   3.607 -0.0584 -0.4515  1.0065
 7508SOL    HW233984   1.355   2.687   3.575 -1.6545 -0.9643 -1.9853
 7509SOL     OW33985   2.562   3.989   7.632 -0.3631 -0.1634 -0.2964
 7509SOL    HW133986   2.627   4.024   7.694 -1.2302 -2.0482  1.6620
 7509SOL    HW233987   2.525   3.917   7.683 -1.4666  0.0042 -0.8554
 7510SOL     OW33988   2.775   1.324   1.613 -0.7140  0.4696 -0.6299
 7510SOL    HW133989   2.688   1.285   1.603  0.0089 -1.5487  0.8115
 7510SOL    HW233990   2.784   1.352   1.704  0.7711 -0.1223 -0.5753
 7511SOL     OW33991   1.436   0.585   4.898  0.0247 -0.1122  0.5215
 7511SOL    HW133992   1.358   0.632   4.869  0.4130 -0.1259 -0.5312
 7511SOL    HW233993   1.420   0.565   4.990 -0.3501  1.3728  0.7793
 7512SOL     OW33994   3.747   2.692   1.311  0.2886  0.2512  0.8133
 7512SOL    HW133995   3.741   2.779   1.271 -3.5058  0.1734  1.1479
 7512SOL    HW233996   3.680   2.697   1.379  1.0617  0.7635  1.5372
 7513SOL     OW33997   2.494   1.882   9.739 -0.0281  0.1471 -0.3227
 7513SOL    HW133998   2.531   1.833   9.812  0.6472  0.0020 -0.7631
 7513SOL    HW233999   2.540   1.965   9.749  0.9786 -0.5940  1.2358
 7514SOL     OW34000   4.451   3.421  13.482  0.0091 -0.2762 -0.1586
 7514SOL    HW134001   4.458   3.516  13.467  1.0758 -0.5155 -1.1709
 7514SOL    HW234002   4.541   3.400  13.506 -0.7791 -0.7042  2.4462
 7515SOL     OW34003   4.497   3.144   3.245 -0.2337  0.2101  0.2336
 7515SOL    HW134004   4.506   3.122   3.337  0.0402 -1.0223 -0.0861
 7515SOL    HW234005   4.422   3.090   3.221  0.2169 -0.0824 -0.5258
 7516SOL     OW34006   4.516   1.314   7.505 -0.1579 -0.1683 -0.1236
 7516SOL    HW134007   4.436   1.351   7.541  2.6185  0.6370  5.1700
 7516SOL    HW234008   4.524   1.245   7.572  1.1988 -0.4547 -0.5759
 7517SOL     OW34009   3.274   2.723   7.791  0.3324 -0.4478  0.3399
 7517SOL    HW134010   3.211   2.773   7.843  0.0310  0.4399 -0.8715
 7517SOL    HW234011   3.347   2.784   7.805  1.1111 -1.1534 -0.6694
 7518SOL     OW34012   4.197   3.331   6.725  0.2542  0.1955 -0.5558
 7518SOL    HW134013   4.179   3.257   6.667 -0.5202 -1.3116  1.5797
 7518SOL    HW234014   4.141   3.310   6.800  2.7419  1.1433  1.5861
 7519SOL     OW34015   0.270   4.522  12.756  0.4349  0.2103  0.0179
 7519SOL    HW134016   0.346   4.490  12.805  0.0900 -0.8087 -0.1164
 7519SOL    HW234017   0.222   4.441  12.742  0.1407  0.5732 -1.0283
 7520SOL     OW34018   1.039   4.716   6.608  0.4337 -0.4034 -0.1524
 7520SOL    HW134019   1.009   4.675   6.689 -0.7948  0.4663 -0.1652
 7520SOL    HW234020   1.040   4.642   6.547 -1.5027 -0.0512 -0.6119
 7521SOL     OW34021   4.300   2.808   7.945  0.3469 -0.6978  0.6333
 7521SOL    HW134022   4.240   2.847   8.008 -0.1058  0.7298 -0.6746
 7521SOL    HW234023   4.304   2.866   7.869  1.5593  0.0006  1.2349
 7522SOL     OW34024   3.600   2.513  11.232  0.7597 -0.1357 -0.0376
 7522SOL    HW134025   3.543   2.443  11.263  0.8271  0.2207  0.8671
 7522SOL    HW234026   3.665   2.455  11.191  0.8926  0.0413 -0.0781
 7523SOL     OW34027   2.398   3.557  12.220 -0.5097  0.0491  0.4084
 7523SOL    HW134028   2.434   3.507  12.293  0.5692  0.3684  0.0982
 7523SOL    HW234029   2.472   3.614  12.200  0.7892 -2.0275 -0.6395
 7524SOL     OW34030   1.653   2.910   4.496  0.7357  0.0377  0.3577
 7524SOL    HW134031   1.600   2.926   4.574  0.5825  1.3914 -0.0264
 7524SOL    HW234032   1.667   2.998   4.463 -1.3228  0.4879  0.7329
 7525SOL     OW34033   3.166   0.321   2.889  0.1107 -0.3767  0.1695
 7525SOL    HW134034   3.156   0.278   2.805  2.5012 -1.4956  0.4563
 7525SOL    HW234035   3.248   0.294   2.930 -0.1632  0.6784  1.4070
 7526SOL     OW34036   1.288   4.599   1.035  0.4911  0.0617 -0.1206
 7526SOL    HW134037   1.293   4.505   1.014  1.2691 -0.2931  1.6296
 7526SOL    HW234038   1.193   4.610   1.043  0.1185 -3.1391  0.0156
 7527SOL     OW34039   2.846   1.458   1.834  0.4617 -0.2997 -0.1539
 7527SOL    HW134040   2.815   1.476   1.922 -0.5157 -0.9223 -0.3737
 7527SOL    HW234041   2.914   1.396   1.860 -0.2649 -0.6439  0.9495
 7528SOL     OW34042   1.102   3.914   5.327 -0.1054  0.0458  0.3574
 7528SOL    HW134043   1.149   3.970   5.266 -0.6113 -0.6758 -0.7044
 7528SOL    HW234044   1.160   3.839   5.338  0.9575  0.7468 -0.5469
 7529SOL     OW34045   2.560   3.012  13.998 -0.1982  0.0011  0.2105
 7529SOL    HW134046   2.503   2.950  13.952 -0.5841  1.3639 -1.1384
 7529SOL    HW234047   2.531   2.999  14.088  0.5157 -0.6067  0.3496
 7530SOL     OW34048   0.923   0.774   2.839  0.1689  0.1107 -0.4323
 7530SOL    HW134049   0.889   0.693   2.801  0.5235 -0.0341 -0.4465
 7530SOL    HW234050   1.015   0.752   2.857  0.0668  0.9143  1.0014
 7531SOL     OW34051   0.923   1.521   7.010 -0.2307  0.1844  0.6065
 7531SOL    HW134052   0.967   1.439   6.988 -1.4810  0.0788 -1.5143
 7531SOL    HW234053   0.952   1.518   7.101  0.5310  0.0867  0.3631
 7532SOL     OW34054   2.219   2.833   1.924  0.4775  0.4911 -0.4499
 7532SOL    HW134055   2.257   2.910   1.967 -0.1316 -0.4084  1.6889
 7532SOL    HW234056   2.127   2.857   1.933 -0.0554 -1.0135 -1.9329
 7533SOL     OW34057   3.910   1.559   3.175 -0.3034 -0.0794 -0.2374
 7533SOL    HW134058   3.842   1.504   3.136  1.6263 -3.0254  0.5307
 7533SOL    HW234059   3.986   1.511   3.143 -0.5533 -0.5259 -0.1726
 7534SOL     OW34060   0.509   2.308   9.040  0.4946 -0.0953  0.3043
 7534SOL    HW134061   0.433   2.364   9.053  2.4818  2.3498  1.3836
 7534SOL    HW234062   0.499   2.307   8.944  1.8425  1.5333  0.1437
 7535SOL     OW34063   0.815   0.824  17.109 -0.5968  0.5987 -0.0720
 7535SOL    HW134064   0.882   0.814  17.176  0.7024 -0.7577 -1.5844
 7535SOL    HW234065   0.795   0.916  17.125  0.3738  0.6700  0.6589
 7536SOL     OW34066   2.828   1.137   7.698 -0.0701 -0.2896  0.2708
 7536SOL    HW134067   2.918   1.129   7.729  0.5373 -3.1414 -2.1813
 7536SOL    HW234068   2.849   1.119   7.606  0.2732 -1.4719  0.5891
 7537SOL     OW34069   1.482   4.342   5.605  0.0468 -0.3812  0.3111
 7537SOL    HW134070   1.432   4.399   5.547 -1.1012 -3.1402 -1.3914
 7537SOL    HW234071   1.443   4.361   5.691  0.1719 -0.9108  0.4865
 7538SOL     OW34072   0.511   4.437   7.140 -0.3482 -0.0890  0.0543
 7538SOL    HW134073   0.601   4.442   7.108  0.8063 -1.8865  3.0612
 7538SOL    HW234074   0.465   4.505   7.092 -0.4198  0.8120  1.4276
 7539SOL     OW34075   4.329   2.238  12.229 -0.2497  0.1324 -0.1822
 7539SOL    HW134076   4.407   2.239  12.285  0.1301 -0.1771 -0.7103
 7539SOL    HW234077   4.359   2.301  12.163  0.3285  0.4106  0.3461
 7540SOL     OW34078   2.894   2.882   3.292 -0.5782  0.0513  0.0545
 7540SOL    HW134079   2.887   2.826   3.215 -2.3920  0.4237 -0.0540
 7540SOL    HW234080   2.988   2.900   3.290 -0.9028  1.3831 -2.8720
 7541SOL     OW34081   3.688   3.650   3.833 -0.0471 -0.6237  0.2031
 7541SOL    HW134082   3.618   3.674   3.893  0.3815  0.1074  0.4190
 7541SOL    HW234083   3.725   3.730   3.795 -2.0878  0.7229  1.0377
 7542SOL     OW34084   1.179   2.892   3.392  0.1983  0.8822 -0.0565
 7542SOL    HW134085   1.256   2.883   3.335 -1.0869 -1.2527 -1.4261
 7542SOL    HW234086   1.102   2.864   3.342  0.6105  1.9829 -1.3238
 7543SOL     OW34087   1.685   2.156   5.140 -0.2015 -0.4494 -0.5776
 7543SOL    HW134088   1.631   2.186   5.212 -1.8595  0.9931 -2.4386
 7543SOL    HW234089   1.640   2.205   5.072 -0.6421 -0.6712 -0.4436
 7544SOL     OW34090   0.725   1.295   5.847 -0.2747 -0.0083 -0.1940
 7544SOL    HW134091   0.774   1.321   5.768  0.9060 -1.8520 -0.0730
 7544SOL    HW234092   0.774   1.216   5.871  0.8270  0.2604 -1.5218
 7545SOL     OW34093   2.889   1.718  17.543 -0.4488 -0.6284  0.2023
 7545SOL    HW134094   2.843   1.730  17.460 -2.2594 -1.1317  1.1254
 7545SOL    HW234095   2.909   1.624  17.540  0.7697 -0.4034  1.2675
 7546SOL     OW34096   3.210   4.053   9.385 -0.1316  0.6100  0.1101
 7546SOL    HW134097   3.288   4.097   9.352 -1.6004  2.2469 -1.1821
 7546SOL    HW234098   3.206   4.090   9.473 -2.7026  0.5480  0.0110
 7547SOL     OW34099   4.148   0.328   4.597  0.2351  0.3470  0.5229
 7547SOL    HW134100   4.146   0.240   4.632 -1.4185 -0.1966 -0.9503
 7547SOL    HW234101   4.129   0.391   4.667  1.3516 -0.7666  1.8245
 7548SOL     OW34102   0.802   2.399  11.186 -0.1961 -0.1261 -0.1364
 7548SOL    HW134103   0.806   2.381  11.280 -1.7721 -0.7175 -0.1790
 7548SOL    HW234104   0.882   2.450  11.181 -0.5191  0.2606 -1.1664
 7549SOL     OW34105   4.381   3.885   5.695  0.2584  0.2727  0.2340
 7549SOL    HW134106   4.407   3.806   5.647 -0.5453  0.5525 -0.6497
 7549SOL    HW234107   4.304   3.846   5.736  0.0922 -0.3996 -0.7237
 7550SOL     OW34108   1.058   1.241   2.656 -0.0981 -0.0707 -0.1869
 7550SOL    HW134109   1.067   1.334   2.678  0.2427  0.1718 -1.3138
 7550SOL    HW234110   1.152   1.221   2.662 -0.0954 -0.7201 -2.1587
 7551SOL     OW34111   1.043   4.021   2.434  0.1502  0.1851 -0.2504
 7551SOL    HW134112   0.954   4.001   2.463 -0.5809  1.4800 -1.5364
 7551SOL    HW234113   1.043   3.962   2.358  0.6512 -0.3905  0.2026
 7552SOL     OW34114   4.251   4.713   8.451 -0.5674  0.3834 -0.1852
 7552SOL    HW134115   4.177   0.052   8.461 -0.3317  0.8390 -1.1802
 7552SOL    HW234116   4.247   4.674   8.364 -1.3943  1.3550 -0.5762
 7553SOL     OW34117   2.126   2.896   5.970 -0.4308 -0.6022 -0.0860
 7553SOL    HW134118   2.172   2.885   6.053 -3.4878  1.7566  1.9187
 7553SOL    HW234119   2.161   2.981   5.942 -1.4783 -0.2014 -0.1760
 7554SOL     OW34120   2.507   0.115   5.238  0.3066  0.1141 -0.6080
 7554SOL    HW134121   2.549   0.180   5.182 -1.3050  0.1329 -1.7991
 7554SOL    HW234122   2.583   0.065   5.269  0.5747  1.9463  1.6206
 7555SOL     OW34123   3.550   0.302   8.708  0.5484  0.0539  0.5045
 7555SOL    HW134124   3.488   0.230   8.701  0.4540  0.1262  0.6015
 7555SOL    HW234125   3.630   0.253   8.726  0.6281 -0.2769 -0.7731
 7556SOL     OW34126   2.977   1.047   2.505 -0.0432 -0.1905  0.3318
 7556SOL    HW134127   2.946   1.133   2.534 -0.8471 -0.5035  0.3959
 7556SOL    HW234128   3.057   1.067   2.456 -0.7112 -0.4924 -0.8618
 7557SOL     OW34129   3.041   2.741   4.558  0.1102 -0.0546 -0.5261
 7557SOL    HW134130   3.086   2.709   4.636  1.9722  0.3727 -1.4457
 7557SOL    HW234131   2.967   2.681   4.570 -0.2976  0.5485 -0.0375
 7558SOL     OW34132   0.041   0.437   1.585  0.3089 -0.6425 -0.0164
 7558SOL    HW134133   0.038   0.344   1.607  3.8810 -0.6346  0.5663
 7558SOL    HW234134   0.079   0.463   1.669  1.6909 -0.0306 -0.8278
 7559SOL     OW34135   3.604   1.246   4.077 -0.8212  0.2495  0.3009
 7559SOL    HW134136   3.557   1.172   4.038 -0.0137  0.1119 -0.4131
 7559SOL    HW234137   3.542   1.316   4.059 -2.2215 -1.0459  0.1586
 7560SOL     OW34138   4.244   3.943   7.949 -0.1844  0.5947 -0.3031
 7560SOL    HW134139   4.224   3.872   8.010  0.7675 -0.8199 -1.6406
 7560SOL    HW234140   4.318   3.987   7.991 -1.0093  0.5173  1.2192
 7561SOL     OW34141   1.230   0.082   8.714 -0.1026  0.0830 -0.5591
 7561SOL    HW134142   1.267   0.124   8.791 -1.0469  1.4528 -0.8476
 7561SOL    HW234143   1.185   0.010   8.758  0.8593 -0.0509  0.1895
 7562SOL     OW34144   1.894   0.483   8.845 -0.3613 -0.8107 -0.3129
 7562SOL    HW134145   1.815   0.429   8.842 -0.3385 -0.8000 -1.0320
 7562SOL    HW234146   1.846   0.565   8.849 -0.8498 -1.1456  0.6748
 7563SOL     OW34147   2.898   1.609   5.710 -0.3499 -0.2109 -0.4264
 7563SOL    HW134148   2.882   1.681   5.770 -0.3171 -0.4153 -0.1721
 7563SOL    HW234149   2.943   1.652   5.637 -0.3992  1.0776  0.2905
 7564SOL     OW34150   4.122   2.307   5.434  0.3946  0.5946 -0.3555
 7564SOL    HW134151   4.191   2.265   5.485  1.4376  0.0778 -2.1828
 7564SOL    HW234152   4.108   2.391   5.478 -0.1112 -0.0572  0.7464
 7565SOL     OW34153   1.400   0.722   2.186 -0.0410 -0.6358 -0.5182
 7565SOL    HW134154   1.424   0.633   2.213 -1.2571 -0.5335  0.9100
 7565SOL    HW234155   1.354   0.710   2.103 -1.0331  0.7042 -0.1719
 7566SOL     OW34156   0.079   3.292   4.709 -0.0938 -0.1752  0.6440
 7566SOL    HW134157   0.114   3.365   4.761 -2.7550  1.1188  0.6548
 7566SOL    HW234158   0.045   3.224   4.768  0.0327 -2.0652 -1.4640
 7567SOL     OW34159   2.776   0.552   2.122  0.3983 -0.4779  0.7964
 7567SOL    HW134160   2.723   0.549   2.201 -0.1896  1.5014  0.4799
 7567SOL    HW234161   2.848   0.610   2.145 -0.8290  0.0800  3.2694
 7568SOL     OW34162   1.065   3.487   8.033  0.6248  0.0967  0.2203
 7568SOL    HW134163   1.087   3.562   8.088 -2.3866 -0.1217  1.6888
 7568SOL    HW234164   1.059   3.414   8.095  1.2022 -0.6147 -0.5691
 7569SOL     OW34165   4.248   4.357   2.966 -0.4274 -0.3543 -0.1208
 7569SOL    HW134166   4.157   4.337   2.987 -0.3120 -0.6610  0.0890
 7569SOL    HW234167   4.237   4.372   2.872 -0.7050  1.1307  0.1557
 7570SOL     OW34168   4.456   1.210   9.169 -0.1817 -0.6396 -0.0183
 7570SOL    HW134169   4.532   1.191   9.225  0.5739  2.8380  0.1623
 7570SOL    HW234170   4.390   1.148   9.198  0.4327 -1.1024  0.3964
 7571SOL     OW34171   2.777   1.569   7.954  0.4696 -0.4510 -0.0677
 7571SOL    HW134172   2.778   1.600   8.044 -0.8810  0.7863 -0.4969
 7571SOL    HW234173   2.749   1.478   7.966 -1.8893  0.3057  0.0356
 7572SOL     OW34174   2.276   2.558   5.944  0.9993 -0.0294  0.2837
 7572SOL    HW134175   2.345   2.553   5.877 -0.9637 -0.7629 -1.6817
 7572SOL    HW234176   2.275   2.467   5.973 -0.1225 -0.6023 -1.5582
 7573SOL     OW34177   1.411   3.370  14.643 -0.4956 -0.1316 -0.8864
 7573SOL    HW134178   1.437   3.303  14.706 -0.4327  0.0640 -0.7046
 7573SOL    HW234179   1.327   3.336  14.613 -1.5787  1.5099  0.3211
 7574SOL     OW34180   0.883   2.699   7.081 -0.5068  0.2369  0.6182
 7574SOL    HW134181   0.965   2.725   7.039  0.0529  0.9248  2.1398
 7574SOL    HW234182   0.879   2.765   7.150  2.0695 -1.1170  2.0918
 7575SOL     OW34183   3.548   2.357   3.777 -0.1553  0.2482 -0.1476
 7575SOL    HW134184   3.505   2.290   3.724 -2.7084  1.8142 -0.0712
 7575SOL    HW234185   3.469   2.400   3.809 -0.5421 -0.2303 -0.4601
 7576SOL     OW34186   4.473   0.060  13.978 -0.0165  0.3234  0.3335
 7576SOL    HW134187   4.400   0.099  13.930  0.0967 -0.1354 -0.2162
 7576SOL    HW234188   4.520   0.029  13.900 -2.1576 -1.7902 -0.1199
 7577SOL     OW34189   0.434   4.650   6.991 -0.3034 -0.0162 -0.0502
 7577SOL    HW134190   0.374   4.718   7.021 -0.1681  0.0799  0.0031
 7577SOL    HW234191   0.505   4.706   6.958 -0.4129  0.5681  0.7047
 7578SOL     OW34192   0.582   0.967   8.482 -0.3483  0.2548  0.4739
 7578SOL    HW134193   0.493   0.983   8.451  0.1664  1.1184 -0.5473
 7578SOL    HW234194   0.621   1.051   8.455 -1.7187  0.2130 -1.5590
 7579SOL     OW34195   0.088   4.078  13.028  0.5846 -0.1529 -0.1453
 7579SOL    HW134196   0.145   4.029  12.969  2.1265 -0.1652  1.3487
 7579SOL    HW234197   0.148   4.120  13.089  0.9259 -0.1180 -0.5083
 7580SOL     OW34198   1.657   2.826   7.464 -0.4257 -0.2222  0.0088
 7580SOL    HW134199   1.678   2.883   7.537  3.0426 -0.9342 -0.4485
 7580SOL    HW234200   1.743   2.784   7.459  0.1823  1.3411 -2.5610
 7581SOL     OW34201   0.561   2.162  15.431 -0.6443  0.7086 -0.2295
 7581SOL    HW134202   0.605   2.243  15.408  0.2697 -0.2765 -1.8988
 7581SOL    HW234203   0.474   2.174  15.394 -0.7202  1.1560  0.0897
 7582SOL     OW34204   0.518   2.688   7.734  0.6652  0.2205  0.2431
 7582SOL    HW134205   0.424   2.698   7.721  0.6251  1.1878  1.3011
 7582SOL    HW234206   0.515   2.691   7.829  0.5488  1.2593  0.2025
 7583SOL     OW34207   1.192   1.941   5.619  0.2845  0.8969 -0.4648
 7583SOL    HW134208   1.105   1.955   5.656  0.6740  2.2749 -0.0554
 7583SOL    HW234209   1.178   1.848   5.601  0.5786  0.4048  1.8573
 7584SOL     OW34210   1.440   3.108  11.247 -0.2394  0.1616  0.8848
 7584SOL    HW134211   1.434   3.080  11.338  1.7931  0.7908  1.2049
 7584SOL    HW234212   1.518   3.064  11.213 -0.7831 -0.2178  0.1253
 7585SOL     OW34213   1.338   2.972  11.510 -0.0853  0.3037 -0.1314
 7585SOL    HW134214   1.379   2.971  11.597  1.2845 -0.2507 -0.7825
 7585SOL    HW234215   1.317   2.878  11.508  0.0936  0.2739 -0.5705
 7586SOL     OW34216   0.167   1.981  15.546  0.0378  0.3305  0.2312
 7586SOL    HW134217   0.072   1.985  15.533  0.7289  1.8345 -4.2587
 7586SOL    HW234218   0.174   1.934  15.629 -2.3770 -1.7345 -0.7251
 7587SOL     OW34219   3.473   3.169  10.953  0.0881  0.2220 -0.1407
 7587SOL    HW134220   3.478   3.204  11.043 -1.3373 -1.0389  0.4188
 7587SOL    HW234221   3.385   3.133  10.951  0.3045 -0.2834 -0.4115
 7588SOL     OW34222   1.799   2.270  10.881  0.5304 -0.2329 -0.0131
 7588SOL    HW134223   1.861   2.337  10.909  1.4569 -1.0580 -0.1048
 7588SOL    HW234224   1.824   2.201  10.942  1.7927 -0.7177 -1.0855
 7589SOL     OW34225   1.213   1.266   7.958 -0.1169  0.4213  0.7215
 7589SOL    HW134226   1.278   1.336   7.948  0.0396  0.1586 -0.0547
 7589SOL    HW234227   1.132   1.310   7.984  0.1113  0.0769  2.0661
 7590SOL     OW34228   0.057   3.483   6.605 -0.1791  0.3002  0.0461
 7590SOL    HW134229   4.697   3.434   6.590 -0.8295  1.6165 -0.8394
 7590SOL    HW234230   0.023   3.557   6.656 -1.3312 -0.1560 -0.0652
 7591SOL     OW34231   4.086   1.969  17.484 -0.0013 -0.0887 -0.2504
 7591SOL    HW134232   4.123   1.940  17.567 -1.2691  1.7509  0.9603
 7591SOL    HW234233   4.042   1.888  17.461 -1.6363  0.8781 -0.5179
 7592SOL     OW34234   4.310   0.602   8.341  0.1932  0.3138  0.1532
 7592SOL    HW134235   4.261   0.523   8.364  1.3029  0.2998  2.5070
 7592SOL    HW234236   4.393   0.574   8.301 -0.3037 -2.6144  1.2037
 7593SOL     OW34237   4.013   0.989   0.941  0.2363 -0.1508  0.0738
 7593SOL    HW134238   4.089   1.014   0.994 -0.1786 -0.6091  0.8928
 7593SOL    HW234239   3.998   0.911   0.995  2.9294 -0.8602 -0.1763
 7594SOL     OW34240   0.402   3.487   5.138  0.9915 -0.5204  0.3308
 7594SOL    HW134241   0.421   3.564   5.085  2.7871  0.2283  2.0525
 7594SOL    HW234242   0.434   3.416   5.082 -1.4233 -1.5555  0.2688
 7595SOL     OW34243   3.030   3.202   4.290  0.0730 -0.0149  0.3604
 7595SOL    HW134244   2.949   3.247   4.266 -0.5449 -0.3237  1.8052
 7595SOL    HW234245   3.011   3.129   4.350  1.9708 -0.6884  0.1288
 7596SOL     OW34246   0.030   1.453  10.147 -0.3377  0.3406  0.5552
 7596SOL    HW134247   4.684   1.498  10.095 -0.5226  0.2003  0.6692
 7596SOL    HW234248   4.700   1.405  10.212 -0.4178  1.6920  1.4838
 7597SOL     OW34249   1.893   2.731   5.003  0.0153  0.4489  0.3126
 7597SOL    HW134250   1.906   2.754   5.095 -1.5051 -4.8855  1.8889
 7597SOL    HW234251   1.982   2.746   4.970  0.3551  2.8634  2.2875
 7598SOL     OW34252   0.065   0.694   8.908 -0.0464 -0.1502 -0.5721
 7598SOL    HW134253   0.016   0.616   8.883 -0.6431 -0.5829  1.9579
 7598SOL    HW234254   0.007   0.743   8.967  1.1544 -0.9894  1.2825
 7599SOL     OW34255   3.075   1.535   6.334  0.2377  0.1249 -0.0453
 7599SOL    HW134256   3.007   1.559   6.397 -0.8408  2.2843 -2.0267
 7599SOL    HW234257   3.109   1.452   6.368  1.0726  1.2262  1.7976
 7600SOL     OW34258   4.092   2.855   5.614  0.1193 -0.1118  0.1324
 7600SOL    HW134259   4.150   2.921   5.576 -1.0444  1.2364  0.6984
 7600SOL    HW234260   4.060   2.901   5.691 -0.7146  0.3796 -0.4965
 7601SOL     OW34261   2.550   4.079   9.528  0.0131 -0.2840  0.3290
 7601SOL    HW134262   2.465   4.109   9.560  0.4672 -0.0850  1.3284
 7601SOL    HW234263   2.571   4.007   9.588  0.2627 -0.7853 -0.3533
 7602SOL     OW34264   3.889   2.691   0.297  0.3767  0.2415  0.1607
 7602SOL    HW134265   3.885   2.642   0.214 -0.1525  2.1676 -0.9517
 7602SOL    HW234266   3.820   2.648   0.348 -0.0228 -0.0621 -0.6306
 7603SOL     OW34267   1.675   1.871   7.154 -0.1383 -0.4936 -0.0941
 7603SOL    HW134268   1.665   1.882   7.249 -1.7878  0.5166 -0.3856
 7603SOL    HW234269   1.592   1.912   7.129  0.8075  1.6612  0.2806
 7604SOL     OW34270   2.606   3.166   7.145  0.5249  0.5673  0.4876
 7604SOL    HW134271   2.520   3.195   7.175 -0.5528 -0.2976 -1.7534
 7604SOL    HW234272   2.639   3.126   7.225  1.1760  2.5717  1.2199
 7605SOL     OW34273   0.232   1.919   2.102 -0.1207 -0.3990 -0.1517
 7605SOL    HW134274   0.147   1.944   2.066  0.1994  1.1032  0.1311
 7605SOL    HW234275   0.259   1.863   2.028  1.4096 -1.3671  1.1533
 7606SOL     OW34276   1.451   0.233   2.266 -0.2714 -0.1580 -0.6846
 7606SOL    HW134277   1.373   0.289   2.266 -1.6489 -2.0750 -1.5670
 7606SOL    HW234278   1.408   0.151   2.289 -1.5233  1.3051  2.1878
 7607SOL     OW34279   4.124   1.076   8.614  0.1545  0.6967 -0.3288
 7607SOL    HW134280   4.200   1.130   8.595 -0.5011  1.1005 -1.8360
 7607SOL    HW234281   4.166   1.002   8.659  0.4592  1.0099 -0.1028
 7608SOL     OW34282   3.756   3.472   3.257  0.3037  0.3050  0.7303
 7608SOL    HW134283   3.787   3.481   3.167  0.4973  3.3313  1.1016
 7608SOL    HW234284   3.670   3.430   3.249  0.5251 -0.0163  0.0854
 7609SOL     OW34285   4.394   4.069   8.696  0.7271  0.0087 -0.6588
 7609SOL    HW134286   4.475   4.023   8.719 -0.4587 -2.6913 -1.9340
 7609SOL    HW234287   4.423   4.160   8.695  0.3015  0.1485 -0.2621
 7610SOL     OW34288   4.199   2.471   2.851  0.2470 -0.0612 -0.1059
 7610SOL    HW134289   4.189   2.510   2.938  0.6247  0.5294 -0.3208
 7610SOL    HW234290   4.158   2.541   2.800 -0.1962  0.3808  0.8512
 7611SOL     OW34291   0.813   4.134   7.165 -0.4650  0.4400  0.6094
 7611SOL    HW134292   0.880   4.199   7.184  0.5715  0.1456 -2.1111
 7611SOL    HW234293   0.825   4.120   7.071  1.5515 -1.0196  1.0849
 7612SOL     OW34294   3.053   0.458  13.497 -0.1018 -0.1858  0.1574
 7612SOL    HW134295   3.135   0.415  13.474  0.3452  0.5079  0.4514
 7612SOL    HW234296   3.078   0.550  13.487 -0.1473 -0.3683 -1.6142
 7613SOL     OW34297   1.957   4.218   8.726  0.4059 -0.0780  0.3731
 7613SOL    HW134298   2.015   4.290   8.701  0.1701  0.0298  0.1315
 7613SOL    HW234299   1.910   4.189   8.647  2.7057  0.0353 -1.0384
 7614SOL     OW34300   1.295   1.219   8.266 -0.0417  0.3016  0.3450
 7614SOL    HW134301   1.248   1.139   8.243 -2.0090  2.2465 -2.3671
 7614SOL    HW234302   1.222   1.278   8.287  0.9222  1.9188 -0.8224
 7615SOL     OW34303   3.608   2.976   7.050  0.3916  0.2337  0.0737
 7615SOL    HW134304   3.523   2.955   7.089  0.4012 -1.0840 -0.6150
 7615SOL    HW234305   3.581   3.025   6.972 -0.1498  0.8880  0.6691
 7616SOL     OW34306   2.786   2.669   5.523 -0.3553  0.4196 -0.2311
 7616SOL    HW134307   2.826   2.584   5.541 -0.4854  0.6954  1.3724
 7616SOL    HW234308   2.849   2.710   5.464 -1.8876 -1.1693 -2.9621
 7617SOL     OW34309   0.486   1.625   7.662  0.5273  0.5460  0.3216
 7617SOL    HW134310   0.546   1.694   7.691 -0.5937  1.1585  1.1733
 7617SOL    HW234311   0.408   1.663   7.703  1.3710  0.9339  1.5638
 7618SOL     OW34312   3.787   1.325   3.457  0.6134 -0.1348  0.0430
 7618SOL    HW134313   3.854   1.323   3.389 -1.6247 -0.7575 -2.1313
 7618SOL    HW234314   3.821   1.396   3.512  0.8933 -1.6181  1.7801
 7619SOL     OW34315   3.318   1.804  11.128  0.0005 -0.2914 -0.7014
 7619SOL    HW134316   3.287   1.721  11.165  1.8725 -1.2811 -1.3415
 7619SOL    HW234317   3.408   1.773  11.115 -0.3316 -1.9440  0.9427
 7620SOL     OW34318   3.966   3.959   3.898 -0.2866 -0.1663 -0.4528
 7620SOL    HW134319   3.914   3.904   3.840  0.3058 -0.3383 -0.8272
 7620SOL    HW234320   4.033   3.892   3.914  0.5339  0.9495  0.8495
 7621SOL     OW34321   2.555   2.229   5.879 -0.3536  0.1285 -0.4808
 7621SOL    HW134322   2.554   2.318   5.913 -0.7924  1.2723 -3.5050
 7621SOL    HW234323   2.551   2.244   5.784 -0.0358  1.9853 -0.1955
 7622SOL     OW34324   2.261   4.170  10.856 -0.7941 -0.2316 -0.5367
 7622SOL    HW134325   2.329   4.222  10.813 -2.5516  2.4788 -0.0697
 7622SOL    HW234326   2.300   4.083  10.866  1.3130  0.7317 -0.4154
 7623SOL     OW34327   1.279   3.761   4.497  0.5735 -0.1407 -0.2425
 7623SOL    HW134328   1.271   3.689   4.560 -0.6312  0.4588  0.2788
 7623SOL    HW234329   1.217   3.731   4.430 -2.2947 -0.0020  2.3098
 7624SOL     OW34330   1.753   1.078   1.809  0.5676 -0.2737  0.4465
 7624SOL    HW134331   1.691   1.070   1.736 -0.8378  2.1325  1.3511
 7624SOL    HW234332   1.831   1.062   1.756  0.1601  0.4500 -0.3813
 7625SOL     OW34333   3.553   2.424  11.671 -0.4792  0.3078  0.2811
 7625SOL    HW134334   3.608   2.396  11.598  2.1178 -1.3178  2.8251
 7625SOL    HW234335   3.617   2.412  11.742 -0.9354  1.8784  0.9692
 7626SOL     OW34336   4.577   2.435  16.699  0.1061  0.0394  0.4261
 7626SOL    HW134337   4.637   2.468  16.633  0.1916 -0.4612  0.2529
 7626SOL    HW234338   4.498   2.476  16.663 -0.3403 -0.1989  1.1161
 7627SOL     OW34339   0.154   1.954   3.334  0.4267  0.0159  0.0184
 7627SOL    HW134340   0.118   1.875   3.375 -0.4368  0.2779 -0.2365
 7627SOL    HW234341   0.155   1.933   3.240 -0.5888  1.7671 -0.3862
 7628SOL     OW34342   4.625   1.157  14.933 -0.0280 -0.6055 -0.1253
 7628SOL    HW134343   4.551   1.158  14.873  3.2458 -1.9083 -4.2307
 7628SOL    HW234344   4.690   1.113  14.879  0.2534 -0.3334 -0.0098
 7629SOL     OW34345   3.564   0.167   3.762  0.7899 -0.4241 -0.6300
 7629SOL    HW134346   3.651   0.128   3.752  1.0176 -0.2476  0.6096
 7629SOL    HW234347   3.571   0.199   3.852 -0.3652  0.5848 -0.8966
 7630SOL     OW34348   2.365   1.854   4.417  0.2332  0.3066 -0.1387
 7630SOL    HW134349   2.356   1.766   4.379 -0.1766  0.2282  0.1455
 7630SOL    HW234350   2.273   1.879   4.421 -0.0621 -1.0280  1.3441
 7631SOL     OW34351   2.694   0.866  12.613 -0.5095 -0.2276  0.0049
 7631SOL    HW134352   2.724   0.944  12.566 -0.4985  0.5359  1.2933
 7631SOL    HW234353   2.712   0.886  12.705  4.5582  0.1518 -1.0891
 7632SOL     OW34354   2.051   4.163   8.229 -0.0204 -0.2892 -0.2138
 7632SOL    HW134355   2.046   4.089   8.168 -0.7981 -1.1820  0.9374
 7632SOL    HW234356   2.141   4.154   8.260 -0.5203  1.7800  1.8741
 7633SOL     OW34357   4.433   0.755   9.646 -0.6094 -0.2629 -0.6912
 7633SOL    HW134358   4.438   0.827   9.709 -1.7890  0.1497 -1.0644
 7633SOL    HW234359   4.397   0.815   9.581 -0.2127  1.0156  0.2682
 7634SOL     OW34360   4.692   4.403   2.345  0.5595  0.0208 -0.7139
 7634SOL    HW134361   0.007   4.379   2.260  0.4265  0.8902 -1.0153
 7634SOL    HW234362   0.001   4.324   2.390  0.8041  0.0988 -0.7419
 7635SOL     OW34363   4.291   4.654   5.100 -0.6522  0.3959 -0.2833
 7635SOL    HW134364   4.207   4.625   5.136 -0.9351  2.6121  0.8136
 7635SOL    HW234365   4.308   4.578   5.044  0.1933  0.2301  0.2010
 7636SOL     OW34366   3.638   3.635  15.580  0.1870 -0.1621  0.7035
 7636SOL    HW134367   3.598   3.717  15.553  1.3084  0.0953 -0.1705
 7636SOL    HW234368   3.729   3.662  15.572  0.1501 -0.0211  0.7677
 7637SOL     OW34369   0.664   2.382   2.016 -0.1130  0.0087  0.9729
 7637SOL    HW134370   0.693   2.314   1.954 -0.4098  0.7111  0.0608
 7637SOL    HW234371   0.648   2.458   1.960  2.3961 -0.5354 -0.5270
 7638SOL     OW34372   2.005   4.292  17.270 -0.4689 -0.6265 -0.6283
 7638SOL    HW134373   1.940   4.274  17.202 -1.4580  0.2017  0.1030
 7638SOL    HW234374   2.025   4.212  17.318  0.0337 -0.7352 -1.0150
 7639SOL     OW34375   2.296   1.968   7.750  0.0474 -0.2623 -0.3792
 7639SOL    HW134376   2.347   2.005   7.677 -0.6595 -0.9327 -1.2036
 7639SOL    HW234377   2.335   2.023   7.818  0.8462  1.9516 -2.6177
 7640SOL     OW34378   0.378   1.072   5.536  0.0556  0.1374  0.0769
 7640SOL    HW134379   0.423   1.149   5.501  1.5658 -0.1449  1.4330
 7640SOL    HW234380   0.456   1.020   5.552  0.3031  1.3553  2.7307
 7641SOL     OW34381   2.564   2.625   1.436  0.0924 -0.3401  0.6383
 7641SOL    HW134382   2.606   2.572   1.504 -1.4293 -0.7987  1.2080
 7641SOL    HW234383   2.476   2.616   1.471 -0.5750 -0.5741 -1.0963
 7642SOL     OW34384   3.783   1.710   8.698  0.4203 -0.2881 -0.0002
 7642SOL    HW134385   3.805   1.802   8.684 -2.8471  0.7904  1.8184
 7642SOL    HW234386   3.814   1.680   8.613  0.0524 -0.6806  0.0021
 7643SOL     OW34387   1.462   4.317   7.600  0.4733  0.6211  0.4858
 7643SOL    HW134388   1.420   4.265   7.668  0.7754 -1.0447 -0.5989
 7643SOL    HW234389   1.550   4.328   7.638  1.0134 -1.0245 -0.2910
 7644SOL     OW34390   3.251   2.833   6.266  0.3020 -0.2730 -0.2613
 7644SOL    HW134391   3.307   2.865   6.336 -0.5072  0.7566 -0.0832
 7644SOL    HW234392   3.200   2.912   6.249 -0.5966 -0.4590  1.6109
 7645SOL     OW34393   2.000   2.991   2.479 -0.7967 -0.1657  0.0465
 7645SOL    HW134394   2.047   2.930   2.535 -2.8091 -0.0737  1.8316
 7645SOL    HW234395   2.070   3.024   2.422 -1.4795  0.8970 -0.1831
 7646SOL     OW34396   2.789   0.259   9.228 -0.2118 -0.4142  0.1829
 7646SOL    HW134397   2.713   0.317   9.233  0.3296  0.3215 -0.1302
 7646SOL    HW234398   2.740   0.179   9.207 -0.2834 -0.2178 -0.4206
 7647SOL     OW34399   1.562   1.729   3.625  0.1128 -0.1577 -0.3404
 7647SOL    HW134400   1.556   1.651   3.681 -0.6268  0.2045  0.0940
 7647SOL    HW234401   1.650   1.760   3.644 -1.5510  3.4135  1.6128
 7648SOL     OW34402   2.285   1.790  16.079  0.1507  0.9318 -0.2046
 7648SOL    HW134403   2.298   1.714  16.023  0.5838 -0.3625  1.6272
 7648SOL    HW234404   2.263   1.861  16.018 -0.6466 -0.7427 -1.8382
 7649SOL     OW34405   4.027   0.673   3.963 -0.4330  0.4939  0.2612
 7649SOL    HW134406   4.012   0.711   4.050  2.3365  0.7180  0.6556
 7649SOL    HW234407   4.011   0.751   3.909  0.4645  0.3829 -0.1656
 7650SOL     OW34408   2.320   1.805  14.801  0.1709  0.2655 -0.1277
 7650SOL    HW134409   2.238   1.839  14.766 -1.3250  0.7767  3.9009
 7650SOL    HW234410   2.311   1.848  14.886 -0.5218 -0.6597  0.2755
 7651SOL     OW34411   2.757   0.263   5.063  0.3637 -0.0861 -0.7149
 7651SOL    HW134412   2.715   0.263   4.976 -1.1194 -1.6278  0.0028
 7651SOL    HW234413   2.811   0.184   5.060 -1.7518 -1.5968  0.7983
 7652SOL     OW34414   2.063   3.436  14.237  0.4825  0.1134 -0.2731
 7652SOL    HW134415   2.132   3.371  14.254 -0.3663 -0.4250  1.1727
 7652SOL    HW234416   2.099   3.496  14.172  1.6464 -0.4003 -0.1126
 7653SOL     OW34417   4.126   0.464   7.666 -0.3231  0.4190  0.0153
 7653SOL    HW134418   4.128   0.546   7.617 -0.6372  0.5164  0.1699
 7653SOL    HW234419   4.033   0.450   7.681 -0.3602 -0.5382 -1.1140
 7654SOL     OW34420   4.116   3.615  13.817  0.3108 -0.3813  0.0733
 7654SOL    HW134421   4.164   3.554  13.873  1.2157 -0.5519 -0.8973
 7654SOL    HW234422   4.125   3.571  13.732 -0.1053  0.6953 -0.5219
 7655SOL     OW34423   0.377   4.627  16.056 -0.3473 -0.2864 -0.0700
 7655SOL    HW134424   0.346   4.556  15.999 -0.1944 -1.0669  0.8253
 7655SOL    HW234425   0.469   4.610  16.037 -0.0118 -0.7977  2.0383
 7656SOL     OW34426   4.142   2.878   4.373  0.2611 -0.0072 -0.0981
 7656SOL    HW134427   4.184   2.962   4.355 -1.3041  1.1088  1.4184
 7656SOL    HW234428   4.198   2.814   4.329 -0.2243 -1.5151  1.4450
 7657SOL     OW34429   1.940   3.094   0.757 -0.2856 -0.8757 -0.5863
 7657SOL    HW134430   1.943   3.109   0.663 -0.1648 -2.8138 -0.8955
 7657SOL    HW234431   1.968   3.003   0.763  1.6861 -0.1710  1.1489
 7658SOL     OW34432   2.706   3.758  11.654 -0.0469 -0.3422 -0.1429
 7658SOL    HW134433   2.699   3.803  11.569  1.8423  0.9542  0.3954
 7658SOL    HW234434   2.707   3.667  11.625  1.8613 -0.3991  0.0627
 7659SOL     OW34435   2.025   3.603   8.112 -0.2688 -0.4911 -0.5984
 7659SOL    HW134436   1.996   3.690   8.138  0.5381 -0.0714 -1.1121
 7659SOL    HW234437   2.077   3.617   8.032 -0.6897  3.5458 -0.1640
 7660SOL     OW34438   0.683   0.185  12.318  0.3700  1.1169 -0.3298
 7660SOL    HW134439   0.644   0.173  12.404  1.2517 -0.8575 -0.2115
 7660SOL    HW234440   0.777   0.178  12.333 -0.3518 -0.7688  3.2540
 7661SOL     OW34441   1.506   0.348   4.790  0.0950  0.3143 -0.2845
 7661SOL    HW134442   1.483   0.436   4.820 -0.6919  0.4682 -1.3698
 7661SOL    HW234443   1.531   0.300   4.869  0.5768  2.4710  0.8958
 7662SOL     OW34444   3.966   2.801  17.677  0.3645  0.1698  0.6240
 7662SOL    HW134445   3.974   2.855   0.068 -0.4761 -0.0517  0.8627
 7662SOL    HW234446   4.023   2.853  17.620  1.5059  1.1080  2.6302
 7663SOL     OW34447   2.267   2.790   4.462 -0.4362  0.6531  0.7731
 7663SOL    HW134448   2.323   2.828   4.529  1.4300  1.6303 -1.3603
 7663SOL    HW234449   2.186   2.775   4.512 -0.3659 -1.5539  0.2124
 7664SOL     OW34450   1.457   4.163  16.905 -0.1307  0.5366  0.3905
 7664SOL    HW134451   1.399   4.166  16.982  0.4470 -0.0715  0.8411
 7664SOL    HW234452   1.521   4.096  16.926  0.5776  1.1267  0.1059
 7665SOL     OW34453   3.603   0.100   6.020  0.0836 -0.2777  0.4277
 7665SOL    HW134454   3.630   0.020   6.065  0.3629  0.2768  1.2391
 7665SOL    HW234455   3.626   0.172   6.079  0.9976  0.2563 -0.5761
 7666SOL     OW34456   2.816   4.492   1.235  0.1218  0.1072 -0.6660
 7666SOL    HW134457   2.830   4.424   1.300 -0.4729 -0.6080 -1.2902
 7666SOL    HW234458   2.897   4.544   1.239  0.8770 -1.0435 -1.0866
 7667SOL     OW34459   3.103   1.299   4.822 -0.2361 -0.0211  0.0614
 7667SOL    HW134460   3.175   1.362   4.831  0.8309 -1.2141 -0.0917
 7667SOL    HW234461   3.089   1.316   4.729  1.5356  0.6765 -0.0801
 7668SOL     OW34462   2.637   0.438   5.265  0.0887  0.2664  0.2432
 7668SOL    HW134463   2.572   0.465   5.199  1.0193 -0.2766 -0.8858
 7668SOL    HW234464   2.670   0.364   5.214 -0.7669 -0.6428  0.9881
 7669SOL     OW34465   1.913   0.933   1.636  0.4205 -0.2978 -0.4716
 7669SOL    HW134466   1.976   0.885   1.689 -0.2459  0.1867  0.7553
 7669SOL    HW234467   1.832   0.888   1.660 -0.0536  1.3472  1.0595
 7670SOL     OW34468   3.367   2.936   7.154 -0.1074  0.5720  0.0772
 7670SOL    HW134469   3.353   2.874   7.081  3.2327  2.1716 -1.8990
 7670SOL    HW234470   3.287   2.926   7.206 -0.0573  0.1495  0.0737
 7671SOL     OW34471   1.835   1.009   9.289 -0.1380  0.4767 -0.3910
 7671SOL    HW134472   1.916   0.968   9.261  0.8718  0.3119  2.7486
 7671SOL    HW234473   1.851   1.010   9.383 -1.1159  1.5060 -0.2294
 7672SOL     OW34474   2.997   4.693   2.673 -0.6041 -0.5039  0.3736
 7672SOL    HW134475   2.956   4.660   2.593 -0.2064 -0.5905  0.2036
 7672SOL    HW234476   3.074   4.636   2.685 -0.1606  0.0323  0.0773
 7673SOL     OW34477   4.057   0.767  10.820 -0.6911 -0.1991  0.4682
 7673SOL    HW134478   4.129   0.747  10.880 -0.4456 -1.4785 -0.2562
 7673SOL    HW234479   4.040   0.678  10.788 -0.4736  0.3381 -1.1140
 7674SOL     OW34480   4.703   1.604   2.571 -0.0755 -0.2986  0.5663
 7674SOL    HW134481   4.657   1.615   2.487 -0.6727 -2.8813  0.5482
 7674SOL    HW234482   0.033   1.526   2.549 -0.4654 -0.3522 -0.1565
 7675SOL     OW34483   1.799   1.767   1.614 -0.3165  0.8020 -0.1237
 7675SOL    HW134484   1.831   1.822   1.686  0.2326  2.7659 -1.8758
 7675SOL    HW234485   1.878   1.714   1.610 -1.0136 -0.3361  1.2080
 7676SOL     OW34486   1.496   3.653   0.409 -0.3719 -0.0715  0.4407
 7676SOL    HW134487   1.526   3.705   0.334  0.2601 -0.6646  0.2804
 7676SOL    HW234488   1.405   3.635   0.386  0.1082 -2.7910  0.6403
 7677SOL     OW34489   3.927   2.522   8.561 -0.1878 -1.2713 -0.3039
 7677SOL    HW134490   3.883   2.595   8.517 -1.5524 -2.1217 -0.3371
 7677SOL    HW234491   3.919   2.552   8.651  1.7621  1.1384 -0.9322
 7678SOL     OW34492   0.197   2.557   5.010  0.1732  0.3062 -0.2166
 7678SOL    HW134493   0.225   2.559   5.101  0.0465 -1.7636 -0.1258
 7678SOL    HW234494   0.120   2.613   5.009  0.3480  0.5494 -0.0056
 7679SOL     OW34495   1.369   0.231   9.355 -0.1748 -0.1638 -0.3189
 7679SOL    HW134496   1.421   0.308   9.379  0.5256 -0.6751 -0.2165
 7679SOL    HW234497   1.277   0.253   9.369 -0.2868 -1.1531  0.4603
 7680SOL     OW34498   2.912   0.711   8.979  0.3685  0.4439 -0.1959
 7680SOL    HW134499   2.992   0.663   8.959  1.2031  0.8242  2.2557
 7680SOL    HW234500   2.879   0.743   8.894 -2.1513 -1.5777  0.0120
 7681SOL     OW34501   2.365   0.848  13.656  0.2196  0.2600  0.5167
 7681SOL    HW134502   2.434   0.865  13.591  1.2339 -1.2899  1.1912
 7681SOL    HW234503   2.402   0.900  13.727  1.2170 -0.6713  0.6801
 7682SOL     OW34504   2.729   0.074   6.671 -0.0022  0.3225 -0.1009
 7682SOL    HW134505   2.786   0.130   6.723  1.1757 -1.2393  0.2615
 7682SOL    HW234506   2.655   0.073   6.732  1.6262  1.1026  1.8473
 7683SOL     OW34507   2.409   4.394   9.390  0.3065 -0.1955 -0.2683
 7683SOL    HW134508   2.407   4.345   9.472 -0.1979 -0.6043 -0.5299
 7683SOL    HW234509   2.503   4.414   9.387 -0.0067  1.1837 -0.9257
 7684SOL     OW34510   0.852   2.689   4.667  0.4313 -0.3695  0.6384
 7684SOL    HW134511   0.778   2.629   4.670  1.1428 -1.2480  0.2605
 7684SOL    HW234512   0.911   2.653   4.601  2.0660 -2.0752  3.0344
 7685SOL     OW34513   4.458   1.622  14.928  0.2979  0.1089 -0.1397
 7685SOL    HW134514   4.430   1.599  14.840 -0.2448 -1.3989  0.4190
 7685SOL    HW234515   4.538   1.573  14.914  0.3657 -0.0010  0.6039
 7686SOL     OW34516   4.238   1.997   3.011 -0.2045  0.0372  0.0639
 7686SOL    HW134517   4.265   1.939   3.082 -0.4030 -1.5390 -1.1566
 7686SOL    HW234518   4.284   1.948   2.944 -1.7554  0.3887 -1.2716
 7687SOL     OW34519   1.967   0.706   9.950 -0.0265  0.0592  0.0556
 7687SOL    HW134520   1.940   0.721   9.860  0.0463 -1.0703 -0.1547
 7687SOL    HW234521   1.884   0.682   9.990 -0.1335 -0.1316 -0.2812
 7688SOL     OW34522   4.133   4.630  10.204  0.1179  0.4246  0.0311
 7688SOL    HW134523   4.052   4.611  10.156 -0.0673 -1.7728  1.2019
 7688SOL    HW234524   4.132   4.558  10.267  2.9655 -0.6742 -1.1877
 7689SOL     OW34525   1.180   2.476   5.497 -0.5287 -0.5668 -0.4121
 7689SOL    HW134526   1.145   2.542   5.437 -2.2153 -2.4953 -1.5644
 7689SOL    HW234527   1.104   2.444   5.546 -0.4646  1.1322  0.7928
 7690SOL     OW34528   1.005   0.589   2.331  0.1828 -0.1066 -0.1212
 7690SOL    HW134529   1.048   0.667   2.364  2.5513 -2.3975  2.2118
 7690SOL    HW234530   0.913   0.609   2.350 -0.0237 -2.4380  1.4137
 7691SOL     OW34531   1.315   3.926   9.293  0.3588  0.2049 -1.0489
 7691SOL    HW134532   1.254   3.988   9.334 -0.0810 -0.4071 -0.7766
 7691SOL    HW234533   1.289   3.851   9.347  0.3998  1.3998  0.6386
 7692SOL     OW34534   2.443   3.760   6.541  0.1774 -0.1546 -0.0809
 7692SOL    HW134535   2.367   3.801   6.500  0.9790  1.4186 -0.0070
 7692SOL    HW234536   2.459   3.691   6.477  0.2997 -0.3901  0.2025
 7693SOL     OW34537   2.413   0.956   9.321  0.8629  0.1984 -0.4412
 7693SOL    HW134538   2.407   0.886   9.386 -2.0074  0.5182 -0.3497
 7693SOL    HW234539   2.493   1.000   9.351  0.4935  0.4377  0.2012
 7694SOL     OW34540   1.165   2.921   9.241 -0.5653  0.2186  0.4603
 7694SOL    HW134541   1.088   2.978   9.233 -0.6710  0.3523  2.2807
 7694SOL    HW234542   1.126   2.834   9.242 -0.0007 -0.0391 -0.2997
 7695SOL     OW34543   2.323   1.644   6.777  0.0918  0.2880 -0.4023
 7695SOL    HW134544   2.294   1.575   6.838 -0.9297  0.9471 -0.1420
 7695SOL    HW234545   2.246   1.700   6.769 -0.1523  0.2344  1.6705
 7696SOL     OW34546   3.884   2.403   5.768  0.2655  0.2551 -0.5023
 7696SOL    HW134547   3.929   2.436   5.690 -0.5685 -0.4314 -1.2648
 7696SOL    HW234548   3.796   2.388   5.734  0.8452 -1.4542 -1.2090
 7697SOL     OW34549   1.810   3.898   3.920 -0.6151  0.2261  0.0151
 7697SOL    HW134550   1.788   3.843   3.844  0.6345  2.7647 -2.1567
 7697SOL    HW234551   1.750   3.968   3.896  1.9485  1.9248 -1.4628
 7698SOL     OW34552   2.588   1.448   7.153 -0.1552 -0.0042  0.2823
 7698SOL    HW134553   2.558   1.385   7.087  0.8649 -1.4659  1.1840
 7698SOL    HW234554   2.505   1.477   7.191  0.7047 -0.6363  2.6955
 7699SOL     OW34555   1.976   2.823   6.971 -0.1788 -0.0921  0.0713
 7699SOL    HW134556   2.008   2.768   6.899 -1.8553 -0.7878 -0.1356
 7699SOL    HW234557   2.050   2.882   6.982 -1.1210  0.8294  1.4789
 7700SOL     OW34558   2.366   3.672   9.040  0.5936  0.3957 -0.1294
 7700SOL    HW134559   2.422   3.594   9.047  2.5028  1.8760  1.0566
 7700SOL    HW234560   2.278   3.635   9.035  0.8782 -0.6112  2.3861
 7701SOL     OW34561   0.054   0.035  17.144 -0.5113 -0.1651 -0.3346
 7701SOL    HW134562   0.001   0.055  17.066  0.3566 -2.2916 -1.4609
 7701SOL    HW234563   4.709   0.049  17.212 -0.1627  2.3570 -0.5311
 7702SOL     OW34564   0.723   0.285   3.796 -0.1642  0.3110 -0.1177
 7702SOL    HW134565   0.647   0.245   3.755 -1.3609  1.9917  0.4784
 7702SOL    HW234566   0.780   0.283   3.719 -1.8807  0.2304 -1.3820
 7703SOL     OW34567   0.970   2.097  13.261 -0.3538 -0.6236 -0.2647
 7703SOL    HW134568   0.924   2.039  13.199 -1.5518 -0.7261  0.7231
 7703SOL    HW234569   0.960   2.187  13.230 -1.3793 -0.0209  1.8150
 7704SOL     OW34570   3.885   0.815   5.842 -0.8679 -1.0465  0.3919
 7704SOL    HW134571   3.975   0.834   5.816 -1.0443 -0.2036  0.4212
 7704SOL    HW234572   3.883   0.728   5.801 -0.0967 -1.4884  1.2939
 7705SOL     OW34573   4.324   2.949  11.821  0.0971 -0.1784 -0.2455
 7705SOL    HW134574   4.258   2.896  11.776  1.1385 -1.7483  0.0887
 7705SOL    HW234575   4.395   2.931  11.760 -0.5865 -0.2246 -1.0288
 7706SOL     OW34576   3.287   1.033   8.534  0.2197  0.3310 -0.3225
 7706SOL    HW134577   3.315   0.942   8.524  0.6793  0.7396 -2.6051
 7706SOL    HW234578   3.259   1.033   8.626 -0.1563  1.0073 -0.4377
 7707SOL     OW34579   2.070   0.112   4.789  0.2096 -0.3104  0.5364
 7707SOL    HW134580   2.160   0.127   4.760 -0.5019  0.3588 -1.2911
 7707SOL    HW234581   2.051   0.190   4.842 -0.7411  0.4954 -0.9917
 7708SOL     OW34582   0.475   0.422   4.164 -0.5523 -0.7664 -0.5352
 7708SOL    HW134583   0.411   0.417   4.094  0.8873  1.2692 -2.0089
 7708SOL    HW234584   0.542   0.461   4.107 -0.2027 -0.7979 -0.1484
 7709SOL     OW34585   2.384   2.704   7.772  0.0098 -0.6520 -0.3772
 7709SOL    HW134586   2.386   2.769   7.702  0.3851 -1.3551 -1.0298
 7709SOL    HW234587   2.330   2.638   7.728  1.1912 -0.9515 -1.3729
 7710SOL     OW34588   2.117   1.149   1.526 -0.2729  0.6144 -0.8626
 7710SOL    HW134589   2.112   1.170   1.619  1.4925  1.8218 -1.0317
 7710SOL    HW234590   2.099   1.234   1.485 -0.1066  1.9171  1.7503
 7711SOL     OW34591   2.608   2.983   5.925  0.4088  0.5916 -0.2984
 7711SOL    HW134592   2.637   2.892   5.919  0.2236  0.5708 -0.8244
 7711SOL    HW234593   2.693   3.028   5.921  0.7697  0.0252  1.0540
 7712SOL     OW34594   2.948   4.052   0.537  0.3935  0.3917 -0.2099
 7712SOL    HW134595   2.969   4.012   0.453 -0.5548 -2.5630  0.9451
 7712SOL    HW234596   2.927   3.978   0.594 -2.1513  0.6353 -0.8578
 7713SOL     OW34597   2.651   4.554  16.549 -0.1027  0.2065  0.0771
 7713SOL    HW134598   2.614   4.585  16.467 -2.1660  0.1564  0.9850
 7713SOL    HW234599   2.707   4.629  16.567 -0.5969  0.9573 -1.5258
 7714SOL     OW34600   3.201   2.385   6.009 -0.5714 -0.4848  1.0508
 7714SOL    HW134601   3.234   2.434   6.084  3.5116  0.5229 -1.4037
 7714SOL    HW234602   3.276   2.394   5.950 -1.7078  1.0121 -0.1939
 7715SOL     OW34603   1.822   1.850   3.513 -0.1809  0.1368 -0.0746
 7715SOL    HW134604   1.891   1.873   3.450  3.0372  1.4832  3.9916
 7715SOL    HW234605   1.750   1.893   3.466 -0.0516  1.5292  1.0131
 7716SOL     OW34606   0.366   3.630  17.396  0.4807  0.1363 -0.3328
 7716SOL    HW134607   0.423   3.646  17.471 -0.3601 -2.1927  0.8363
 7716SOL    HW234608   0.433   3.622  17.328  0.5968  2.7573 -0.5227
 7717SOL     OW34609   4.056   0.277   2.515 -0.2063  0.5381  0.3192
 7717SOL    HW134610   4.011   0.361   2.520  1.6881  1.5132  0.7081
 7717SOL    HW234611   3.996   0.229   2.457  0.8051  0.6132 -0.7862
 7718SOL     OW34612   3.926   2.714   5.879  0.3353 -0.6376 -0.2576
 7718SOL    HW134613   3.968   2.798   5.899  2.2799 -1.1426 -2.2177
 7718SOL    HW234614   3.995   2.663   5.838 -0.2045 -3.0459  1.8000
 7719SOL     OW34615   1.884   0.118   5.127  0.1328 -0.0725  0.2028
 7719SOL    HW134616   1.976   0.091   5.125  0.6815  1.7026  2.0368
 7719SOL    HW234617   1.878   0.166   5.209  0.3267  1.4001 -0.6415
 7720SOL     OW34618   0.124   2.364   8.051 -0.6089  0.1244  0.2650
 7720SOL    HW134619   0.051   2.377   7.991 -0.6049  3.4762  0.9810
 7720SOL    HW234620   0.196   2.397   7.997 -1.8997  2.2701 -0.1424
 7721SOL     OW34621   0.589   4.383   3.456 -0.0919  0.5057 -0.0859
 7721SOL    HW134622   0.545   4.397   3.372  0.0531 -2.8408 -0.7303
 7721SOL    HW234623   0.668   4.339   3.425  0.2568  1.3435 -0.3921
 7722SOL     OW34624   2.320   2.414  15.697  0.3862 -0.5695  0.1037
 7722SOL    HW134625   2.226   2.397  15.689  0.2319  0.7317 -0.7697
 7722SOL    HW234626   2.340   2.361  15.775  1.5488 -1.1098 -0.5678
 7723SOL     OW34627   4.028   4.382  15.559 -0.0271 -0.1353 -0.0689
 7723SOL    HW134628   4.064   4.407  15.644 -1.3623 -0.3485  0.5552
 7723SOL    HW234629   4.102   4.395  15.499  2.3523  2.5852  3.4419
 7724SOL     OW34630   0.745   1.397   7.894  0.1071  0.7685  0.2746
 7724SOL    HW134631   0.683   1.385   7.967  0.4046  1.7158  0.6855
 7724SOL    HW234632   0.686   1.379   7.821  0.8619 -0.0579 -0.1171
 7725SOL     OW34633   2.746   3.100  10.056 -0.1628  0.5374  0.4083
 7725SOL    HW134634   2.774   3.090  10.147  0.6243 -0.5080  0.0473
 7725SOL    HW234635   2.832   3.085  10.017  0.3032 -1.4915  2.1739
 7726SOL     OW34636   3.936   0.169   5.962 -0.1883  0.1023 -0.2725
 7726SOL    HW134637   3.999   0.134   6.025 -0.5648  0.5170  0.3312
 7726SOL    HW234638   3.875   0.212   6.022  1.4654  2.7769 -0.5323
 7727SOL     OW34639   3.588   3.028   1.667 -0.1738 -0.4541 -0.0255
 7727SOL    HW134640   3.653   3.010   1.599  0.3646  1.1396  0.0746
 7727SOL    HW234641   3.584   3.124   1.664  0.7255 -0.4885 -2.5220
 7728SOL     OW34642   0.193   3.430   7.068 -0.1904  0.3727 -0.4343
 7728SOL    HW134643   0.140   3.381   7.005  0.2999  0.0451 -0.5854
 7728SOL    HW234644   0.242   3.356   7.102 -0.1610  1.1374  1.1977
 7729SOL     OW34645   4.040   2.288   8.019  0.7838 -0.1014  0.0695
 7729SOL    HW134646   4.085   2.372   8.026  1.5376 -0.5182  0.2261
 7729SOL    HW234647   4.115   2.230   8.019  1.1701  0.3952  0.2511
 7730SOL     OW34648   2.017   4.474   7.140  0.6564  0.0773 -0.4396
 7730SOL    HW134649   2.093   4.521   7.174  0.1647  0.2866  0.3698
 7730SOL    HW234650   1.982   4.541   7.082  2.4458 -1.3605 -3.2103
 7731SOL     OW34651   3.650   1.420   7.394 -0.0568 -0.4325  0.3981
 7731SOL    HW134652   3.689   1.497   7.436  0.2903 -0.8713  0.8802
 7731SOL    HW234653   3.674   1.349   7.454  1.1086  0.1536  0.6344
 7732SOL     OW34654   3.841   1.345  17.357 -0.3185 -0.4158 -0.4498
 7732SOL    HW134655   3.839   1.261  17.403  1.4568  0.7914  1.8819
 7732SOL    HW234656   3.823   1.323  17.266  1.4014 -3.8935  0.0817
 7733SOL     OW34657   4.177   4.617   3.510 -0.0070 -0.4902 -1.1464
 7733SOL    HW134658   4.161   4.695   3.457 -1.0566  1.1210  1.5106
 7733SOL    HW234659   4.187   4.543   3.450  0.1150 -1.2607 -0.1883
 7734SOL     OW34660   1.003   2.006   2.694  0.2449 -0.0995 -0.9206
 7734SOL    HW134661   1.091   1.970   2.688 -0.1779 -1.2557 -0.1547
 7734SOL    HW234662   1.032   2.097   2.691 -0.0355  0.0928  1.8943
 7735SOL     OW34663   1.212   2.028   0.357  0.6829 -0.0918  0.0367
 7735SOL    HW134664   1.238   2.071   0.276  0.9268  2.3797  1.4404
 7735SOL    HW234665   1.275   1.957   0.361 -0.2705 -0.8795  1.3494
 7736SOL     OW34666   1.528   2.264   5.310 -0.1552 -0.7760  0.2440
 7736SOL    HW134667   1.499   2.350   5.343  1.3718 -0.7769  1.5831
 7736SOL    HW234668   1.444   2.218   5.314 -0.7670  0.1025 -2.4579
 7737SOL     OW34669   1.784   2.604  14.275  0.1859 -0.1514  0.5255
 7737SOL    HW134670   1.762   2.634  14.363 -0.4796 -0.1449  0.3568
 7737SOL    HW234671   1.765   2.684  14.227 -2.0858 -1.2255 -0.3612
 7738SOL     OW34672   1.066   4.031   8.889  0.0371  0.0979 -0.4363
 7738SOL    HW134673   1.016   4.104   8.852 -0.9509  0.0803  0.8446
 7738SOL    HW234674   1.145   4.067   8.929 -0.4141  1.0875 -0.4269
 7739SOL     OW34675   2.589   1.867  10.914  0.0918 -0.1647 -0.1139
 7739SOL    HW134676   2.550   1.953  10.898 -0.1184  0.1647  2.2723
 7739SOL    HW234677   2.505   1.821  10.911  0.6299 -1.2919  2.8723
 7740SOL     OW34678   1.141   1.332   9.473  0.2297 -0.0958 -0.3604
 7740SOL    HW134679   1.133   1.371   9.386  0.6116 -0.0850 -0.3893
 7740SOL    HW234680   1.078   1.260   9.471 -0.0328  0.0647  1.8280
 7741SOL     OW34681   3.027   1.892   3.618 -0.2183 -0.3831  0.2771
 7741SOL    HW134682   3.096   1.951   3.649 -0.7660 -1.0781  2.8250
 7741SOL    HW234683   2.953   1.903   3.677  0.2342  1.1479  0.5545
 7742SOL     OW34684   4.650   1.680   7.319 -0.1172 -0.0190 -0.0101
 7742SOL    HW134685   4.707   1.757   7.318  0.1676 -0.2300  0.1077
 7742SOL    HW234686   4.678   1.633   7.397  0.0022 -1.1185 -0.7125
 7743SOL     OW34687   3.648   0.500  12.597  0.5300  0.0903  0.4159
 7743SOL    HW134688   3.687   0.439  12.535 -0.7719  0.1699 -0.4744
 7743SOL    HW234689   3.716   0.516  12.663 -0.3189 -0.1442  1.3403
 7744SOL     OW34690   2.035   4.020   7.479  0.6669 -0.2925  0.3327
 7744SOL    HW134691   2.018   3.930   7.508  0.9161 -1.4217 -3.0168
 7744SOL    HW234692   1.953   4.061   7.506  0.3838  1.3235 -2.9592
 7745SOL     OW34693   4.337   0.106   2.455  0.7338  0.0557 -0.5273
 7745SOL    HW134694   4.400   0.162   2.499  1.0798  0.0004 -0.9506
 7745SOL    HW234695   4.257   0.158   2.461 -1.2555 -3.4013  2.7892
 7746SOL     OW34696   1.951   1.493   5.924 -0.4901 -0.8516  0.3567
 7746SOL    HW134697   1.991   1.577   5.944  0.3875 -0.7876 -1.6842
 7746SOL    HW234698   1.885   1.479   5.993  0.3039  2.4111  1.7907
 7747SOL     OW34699   1.334   1.089   5.824 -0.1551  0.3468  0.1713
 7747SOL    HW134700   1.265   1.140   5.782  0.7440  1.1286 -0.3754
 7747SOL    HW234701   1.389   1.071   5.747 -0.4704 -1.1838  0.3005
 7748SOL     OW34702   3.787   4.286  15.899  0.3625 -0.0628 -0.5216
 7748SOL    HW134703   3.882   4.278  15.898  0.3418 -0.0095 -3.8215
 7748SOL    HW234704   3.779   4.374  15.861  0.6738  0.6740  1.1453
 7749SOL     OW34705   1.040   3.411   1.356 -0.4748  0.1575 -0.1094
 7749SOL    HW134706   0.989   3.491   1.353  0.5397  0.8284  0.4807
 7749SOL    HW234707   1.077   3.428   1.444  0.9963  0.1683 -0.7225
 7750SOL     OW34708   2.832   1.229   1.355  0.3085 -0.5689  0.0140
 7750SOL    HW134709   2.813   1.267   1.441 -0.9792 -1.3954  0.0997
 7750SOL    HW234710   2.925   1.207   1.364  0.4511  0.3583  0.7254
 7751SOL     OW34711   4.310   4.028   5.221  0.0242  0.8963  0.1569
 7751SOL    HW134712   4.332   4.075   5.301  1.6028 -1.0843  0.8784
 7751SOL    HW234713   4.278   3.949   5.263 -2.1843  1.3627 -0.6369
 7752SOL     OW34714   0.205   4.469   3.998 -0.1267 -0.0636 -0.4062
 7752SOL    HW134715   0.296   4.485   3.971 -0.4841  0.9700 -1.0008
 7752SOL    HW234716   0.157   4.484   3.916  1.0629  1.0127 -0.9075
 7753SOL     OW34717   1.325   2.478   3.416  0.4421 -0.8149 -0.4521
 7753SOL    HW134718   1.240   2.506   3.382 -0.2018 -0.8362  1.1769
 7753SOL    HW234719   1.330   2.390   3.377  2.1100 -0.0475 -1.9779
 7754SOL     OW34720   0.444   4.684   8.729  0.1291  0.3492 -0.4262
 7754SOL    HW134721   0.353   4.683   8.698  0.0195  1.8382 -0.1643
 7754SOL    HW234722   0.499   4.668   8.652 -1.2558 -0.3523 -1.2568
 7755SOL     OW34723   3.473   1.980   5.044  0.3406 -0.9875 -0.0648
 7755SOL    HW134724   3.512   1.893   5.035 -1.3912 -1.8676  1.0872
 7755SOL    HW234725   3.496   1.991   5.136  1.5462 -1.4316 -0.3155
 7756SOL     OW34726   2.720   2.321   1.858  0.5695  0.5862 -0.4578
 7756SOL    HW134727   2.649   2.297   1.917  1.5942 -0.3802  0.3739
 7756SOL    HW234728   2.676   2.395   1.816  0.7256  0.7932 -0.2541
 7757SOL     OW34729   0.706   0.019   1.524  0.1871 -0.3889  0.3270
 7757SOL    HW134730   0.681   4.650   1.539 -4.5081  0.9296  0.3307
 7757SOL    HW234731   0.768   0.022   1.597  0.0237 -0.6323  0.4729
 7758SOL     OW34732   3.542   4.213  15.338  0.2378 -0.3012 -0.4901
 7758SOL    HW134733   3.619   4.201  15.393  1.9058  0.8176 -2.5590
 7758SOL    HW234734   3.564   4.302  15.310  1.2869 -0.0477  1.1825
 7759SOL     OW34735   2.447   1.217   9.535 -0.1692 -0.2519  0.3469
 7759SOL    HW134736   2.408   1.222   9.621 -1.3075  2.6506 -0.3521
 7759SOL    HW234737   2.440   1.122   9.523  5.0187 -0.5966 -0.1980
 7760SOL     OW34738   3.307   4.644   3.076  0.3321 -0.2805 -0.6217
 7760SOL    HW134739   3.385   4.682   3.117  0.1224 -0.0468 -0.4443
 7760SOL    HW234740   3.235   4.666   3.134 -0.9123 -1.0462 -1.8655
 7761SOL     OW34741   3.615   2.844   2.623 -0.5282 -0.5737 -0.3157
 7761SOL    HW134742   3.624   2.938   2.642 -2.0524 -0.5913  0.5005
 7761SOL    HW234743   3.520   2.833   2.615 -0.3017 -2.6182 -0.1107
 7762SOL     OW34744   0.718   4.667   4.420  0.1319  0.4595  0.3261
 7762SOL    HW134745   0.723   4.576   4.449  0.2179  0.5111  0.4697
 7762SOL    HW234746   0.632   4.680   4.378  0.0513 -2.7887 -0.5426
 7763SOL     OW34747   2.990   2.966   2.885 -0.4226 -0.2538  0.1871
 7763SOL    HW134748   3.055   2.988   2.952  0.9920  1.2962 -1.7008
 7763SOL    HW234749   3.031   2.989   2.801 -1.6724  0.5978 -0.1851
 7764SOL     OW34750   4.090   0.701   4.457 -0.0759  0.2839  0.5084
 7764SOL    HW134751   4.062   0.784   4.496  1.4250  1.4086 -0.7950
 7764SOL    HW234752   4.023   0.642   4.492  1.1594 -1.4775 -0.1155
 7765SOL     OW34753   3.555   2.449   0.179 -0.3954 -0.3117  0.3027
 7765SOL    HW134754   3.493   2.519   0.159  0.5282  1.1177  2.5646
 7765SOL    HW234755   3.639   2.493   0.174  0.0517 -1.1558  0.3805
 7766SOL     OW34756   2.507   3.928   6.099 -0.3071  0.2912 -0.8205
 7766SOL    HW134757   2.534   3.839   6.119 -0.7521 -0.1031 -2.0040
 7766SOL    HW234758   2.594   3.967   6.112 -0.3090  0.2445 -0.6653
 7767SOL     OW34759   2.571   3.908  10.031  0.4878  0.1255  0.4135
 7767SOL    HW134760   2.637   3.866  10.086  1.6012 -1.7728 -2.4071
 7767SOL    HW234761   2.542   3.975  10.093 -1.5748  0.2596 -0.7038
 7768SOL     OW34762   1.548   1.440   5.204 -0.0126 -0.5248  0.0017
 7768SOL    HW134763   1.548   1.363   5.147  0.1581  0.4986 -1.3648
 7768SOL    HW234764   1.591   1.422   5.288  0.9775 -1.3148 -0.6714
 7769SOL     OW34765   0.154   0.634  13.988  0.3554 -0.6440  0.1660
 7769SOL    HW134766   0.131   0.716  14.032  1.5819 -0.7813  1.0659
 7769SOL    HW234767   0.207   0.596  14.058  2.3906  2.6978  0.4321
 7770SOL     OW34768   2.860   3.239   6.693 -0.0311 -0.0750 -0.4476
 7770SOL    HW134769   2.811   3.250   6.774  1.9952  0.4446  0.7248
 7770SOL    HW234770   2.797   3.273   6.630 -1.2073  0.9114  1.2922
 7771SOL     OW34771   1.957   2.421  10.145  0.1447 -0.5832 -0.4824
 7771SOL    HW134772   1.968   2.489  10.078 -2.7287  0.6980  0.3441
 7771SOL    HW234773   1.870   2.436  10.183  0.1031  0.0556 -0.8235
 7772SOL     OW34774   0.439   4.105   5.063 -0.0609  0.0702 -0.0907
 7772SOL    HW134775   0.534   4.095   5.068  0.1155 -0.1627 -3.4157
 7772SOL    HW234776   0.424   4.076   5.153 -1.0094  0.1886 -0.2162
 7773SOL     OW34777   1.216   4.101   2.649  0.4681  1.0058 -0.0169
 7773SOL    HW134778   1.282   4.033   2.666 -0.3580 -0.0216 -0.9530
 7773SOL    HW234779   1.191   4.071   2.562 -0.6327  1.1948  0.2309
 7774SOL     OW34780   4.582   4.716  10.136  0.1417  0.1238  0.3796
 7774SOL    HW134781   4.545   4.660  10.205 -0.8454  0.8918  0.4545
 7774SOL    HW234782   4.521   4.700  10.064 -1.3566  2.7041  1.0778
 7775SOL     OW34783   0.607   4.088   8.949 -0.3658  0.3234 -0.2951
 7775SOL    HW134784   0.683   4.066   9.002 -0.9671  1.9114  1.2381
 7775SOL    HW234785   0.587   4.000   8.917 -3.4165  0.8950  0.0606
 7776SOL     OW34786   2.605   1.780  13.963 -0.4063 -0.0031  0.0573
 7776SOL    HW134787   2.603   1.705  13.903 -1.5525  0.6082 -0.6792
 7776SOL    HW234788   2.609   1.733  14.046 -0.5479  1.9673  1.1802
 7777SOL     OW34789   2.616   1.545  17.615 -0.0730  0.0662  0.6779
 7777SOL    HW134790   2.656   1.585  17.538 -2.2322  0.1939 -0.3815
 7777SOL    HW234791   2.660   1.584   0.004  3.3457 -0.0644 -1.2766
 7778SOL     OW34792   0.218   3.495   3.776  0.7308 -0.5368 -0.3103
 7778SOL    HW134793   0.175   3.441   3.842  0.3032  0.0916 -0.0771
 7778SOL    HW234794   0.232   3.432   3.705  2.1534 -1.1440  0.5157
 7779SOL     OW34795   3.907   2.116   8.189 -0.0467 -0.0964  0.1685
 7779SOL    HW134796   3.967   2.167   8.244  0.9220  1.2851 -2.1579
 7779SOL    HW234797   3.915   2.147   8.098 -1.5139 -2.9979 -0.9367
 7780SOL     OW34798   2.836   1.562   7.529  0.2180  0.2471  0.2967
 7780SOL    HW134799   2.870   1.538   7.443  1.0992  0.8212  0.4720
 7780SOL    HW234800   2.743   1.543   7.524  0.4188  0.0185 -2.1306
 7781SOL     OW34801   0.115   4.287   9.702 -0.0801 -0.1568 -1.0866
 7781SOL    HW134802   0.071   4.352   9.648  0.0203  0.0002 -0.9805
 7781SOL    HW234803   0.081   4.303   9.790 -0.2444 -1.8069 -0.8482
 7782SOL     OW34804   2.183   3.136   0.074  0.1879 -0.4391 -0.1428
 7782SOL    HW134805   2.119   3.066   0.061  0.7202 -0.4406 -2.7181
 7782SOL    HW234806   2.149   3.178   0.153  2.6946 -0.4567  0.9419
 7783SOL     OW34807   1.818   2.263   2.037  0.0597  0.5628  0.5288
 7783SOL    HW134808   1.723   2.256   2.047 -0.1866  0.5342 -1.8227
 7783SOL    HW234809   1.848   2.174   2.050  0.1494  0.4533 -0.3992
 7784SOL     OW34810   1.390   0.759   7.820  0.0331 -0.0479  0.3351
 7784SOL    HW134811   1.326   0.830   7.824 -2.1643 -2.0677  0.7250
 7784SOL    HW234812   1.476   0.800   7.806 -0.3664  1.3265  1.9510
 7785SOL     OW34813   3.822   4.233   3.292 -0.2783 -0.5569 -0.0936
 7785SOL    HW134814   3.783   4.278   3.367 -0.9542  1.3965 -1.6352
 7785SOL    HW234815   3.844   4.297   3.225  1.6180 -2.8810 -1.6949
 7786SOL     OW34816   4.224   2.278   4.284 -0.3020  0.3696  0.9624
 7786SOL    HW134817   4.289   2.208   4.298 -0.7443  0.0582  1.4842
 7786SOL    HW234818   4.156   2.241   4.340 -0.9824  0.1621 -0.0026
 7787SOL     OW34819   3.785   2.476  15.107  0.1513 -0.1609 -0.2079
 7787SOL    HW134820   3.804   2.558  15.152  2.1131 -0.8622  0.2551
 7787SOL    HW234821   3.740   2.501  15.026  0.7994 -1.2522 -0.9065
 7788SOL     OW34822   3.472   4.435   5.334 -0.5541 -0.3656 -0.3270
 7788SOL    HW134823   3.526   4.507   5.368 -0.6938 -1.3582  2.0567
 7788SOL    HW234824   3.401   4.491   5.305 -0.9651 -0.1329  1.1335
 7789SOL     OW34825   0.515   2.302   8.282 -0.2088  0.6954  0.0462
 7789SOL    HW134826   0.575   2.338   8.217  0.2407 -1.2634 -0.6103
 7789SOL    HW234827   0.563   2.330   8.359  1.5675  1.5679 -1.3969
 7790SOL     OW34828   2.499   0.073  16.882  0.2373  0.0446 -0.0758
 7790SOL    HW134829   2.468   0.028  16.803  0.8531  0.3105 -0.4720
 7790SOL    HW234830   2.425   0.060  16.941  0.6126 -0.8696  0.1923
 7791SOL     OW34831   3.806   3.978  13.029 -0.2505 -0.2648 -0.3425
 7791SOL    HW134832   3.743   4.021  12.971 -0.1818 -0.4291 -0.5386
 7791SOL    HW234833   3.758   3.996  13.110 -1.0707  0.1535 -0.9256
 7792SOL     OW34834   3.675   1.486   7.663  0.4904 -0.5853 -0.0432
 7792SOL    HW134835   3.619   1.551   7.705  0.9187 -0.2824  0.0614
 7792SOL    HW234836   3.749   1.540   7.636 -0.5903  0.8763 -0.0763
 7793SOL     OW34837   4.701   2.052  14.588  0.1031  0.1860  0.5926
 7793SOL    HW134838   4.631   2.027  14.527  0.7754  1.2427 -0.6118
 7793SOL    HW234839   0.050   2.023  14.530  1.5917  0.6379  2.1634
 7794SOL     OW34840   1.806   0.522   2.489 -0.4494  0.5289  0.5499
 7794SOL    HW134841   1.892   0.489   2.464 -1.5081 -2.9270  1.4224
 7794SOL    HW234842   1.833   0.574   2.564 -0.3420  1.2650  0.0021
 7795SOL     OW34843   0.495   0.278  13.060 -0.5522 -0.5785  0.4261
 7795SOL    HW134844   0.443   0.303  13.137  0.6888  1.9398  0.4592
 7795SOL    HW234845   0.524   0.190  13.082  2.7483 -0.3876 -3.1020
 7796SOL     OW34846   0.666   3.830  10.911 -0.2290 -0.4211 -0.5895
 7796SOL    HW134847   0.674   3.860  10.821 -2.0521  0.8093 -0.3458
 7796SOL    HW234848   0.753   3.795  10.931 -0.2891 -0.1857  0.0869
 7797SOL     OW34849   2.671   4.215   9.326 -0.9501  0.1498 -0.2431
 7797SOL    HW134850   2.761   4.217   9.359 -2.3612  1.3558  3.4698
 7797SOL    HW234851   2.638   4.149   9.387  0.3096 -0.0065  0.2634
 7798SOL     OW34852   4.257   0.401   4.283 -0.2514 -0.1902  0.2357
 7798SOL    HW134853   4.244   0.430   4.193 -0.9353  0.6889  0.6264
 7798SOL    HW234854   4.166   0.383   4.308 -0.0174  1.2823  2.0726
 7799SOL     OW34855   2.206   0.786  16.005 -0.4680  0.1583  0.1196
 7799SOL    HW134856   2.254   0.705  15.992  0.2743  0.4632  1.0288
 7799SOL    HW234857   2.275   0.843  16.039  0.7348 -2.0780  1.4201
 7800SOL     OW34858   2.668   4.697  10.757  0.0201 -0.4036 -0.1202
 7800SOL    HW134859   2.764   4.694  10.757  0.0424  0.5008  0.6046
 7800SOL    HW234860   2.645   0.060  10.796 -1.3419 -2.3810  3.3760
 7801SOL     OW34861   1.332   0.217   0.488 -0.2979  0.5862 -0.3063
 7801SOL    HW134862   1.404   0.181   0.540 -1.0339  0.6469  0.7369
 7801SOL    HW234863   1.363   0.235   0.399 -0.9460  1.4272 -0.3673
 7802SOL     OW34864   0.702   2.186   9.400 -0.0527 -0.4186  0.0548
 7802SOL    HW134865   0.695   2.116   9.465 -0.6733 -0.1473  0.2790
 7802SOL    HW234866   0.716   2.266   9.452  0.5679 -0.5924  0.1545
 7803SOL     OW34867   1.148   3.954   3.517 -0.0984  0.0248 -0.5984
 7803SOL    HW134868   1.056   3.944   3.492 -0.0157  0.8530 -1.2244
 7803SOL    HW234869   1.155   3.916   3.605  0.2267  3.2044  0.7248
 7804SOL     OW34870   4.630   2.033  15.478 -0.1372 -0.0174  0.5127
 7804SOL    HW134871   4.610   2.123  15.454 -1.4300 -0.2986  0.5164
 7804SOL    HW234872   4.573   1.979  15.422 -0.4221 -1.4673  2.2181
 7805SOL     OW34873   2.243   3.031   8.989  0.3858  0.5943 -0.4441
 7805SOL    HW134874   2.260   3.062   9.078 -1.5683  0.6778 -0.1180
 7805SOL    HW234875   2.161   2.985   9.007  1.5506 -0.8947  1.1346
 7806SOL     OW34876   3.545   0.492   3.765 -0.2453  0.3278  0.0382
 7806SOL    HW134877   3.449   0.481   3.769 -0.2967  0.7678 -0.0243
 7806SOL    HW234878   3.571   0.429   3.697 -2.5468 -1.3670  0.7001
 7807SOL     OW34879   0.350   0.646  13.775  0.2485 -0.4590 -0.7297
 7807SOL    HW134880   0.375   0.657  13.866 -0.4838  0.1441 -0.5995
 7807SOL    HW234881   0.265   0.689  13.769  0.7487  0.3944 -1.6710
 7808SOL     OW34882   2.482   0.135   4.239 -0.3125  0.1906 -1.0103
 7808SOL    HW134883   2.540   0.063   4.211 -1.7378 -0.5890 -1.9440
 7808SOL    HW234884   2.513   0.190   4.167  0.3904  0.1205 -0.7655
 7809SOL     OW34885   2.042   1.890   7.688 -0.1594 -0.2585 -0.0436
 7809SOL    HW134886   2.134   1.896   7.713 -1.0557  2.4427  2.6669
 7809SOL    HW234887   2.042   1.823   7.620 -2.5436 -1.1740  0.8500
 7810SOL     OW34888   1.384   2.246  14.986 -0.7236 -0.9398 -0.3975
 7810SOL    HW134889   1.331   2.316  14.947 -2.2545 -1.5357  0.6019
 7810SOL    HW234890   1.331   2.167  14.996 -0.9241 -1.2290 -3.5564
 7811SOL     OW34891   2.530   0.425   9.161 -0.3713  0.2335 -0.2846
 7811SOL    HW134892   2.576   0.498   9.119  3.1392 -1.1404  1.2164
 7811SOL    HW234893   2.493   0.386   9.081  0.1585 -1.0675  0.1098
 7812SOL     OW34894   0.747   1.595   3.156 -0.4359  0.2615  0.2987
 7812SOL    HW134895   0.815   1.532   3.177 -0.2127  0.6975  0.8825
 7812SOL    HW234896   0.720   1.571   3.067  1.4097  0.9699 -0.4403
 7813SOL     OW34897   0.386   0.519   8.037  0.2074 -0.0789  0.1341
 7813SOL    HW134898   0.345   0.602   8.011 -0.8115 -1.3843 -2.5247
 7813SOL    HW234899   0.455   0.512   7.971  3.0771  0.3061  3.1157
 7814SOL     OW34900   2.041   3.723   3.788 -0.3145 -0.4668 -0.2128
 7814SOL    HW134901   2.013   3.635   3.813  0.8838 -0.8836 -0.3843
 7814SOL    HW234902   1.980   3.771   3.844 -1.1114 -0.2906 -1.2294
 7815SOL     OW34903   1.575   4.651   6.248  0.4952  0.3399 -0.5482
 7815SOL    HW134904   1.615   4.666   6.334 -0.3270  0.1740 -0.1386
 7815SOL    HW234905   1.535   0.016   6.233 -2.8665 -0.7514  2.4389
 7816SOL     OW34906   3.999   0.078   4.833  0.1437 -0.3356  0.1835
 7816SOL    HW134907   4.046   0.071   4.916  0.7149 -1.2470 -0.2150
 7816SOL    HW234908   4.074   0.061   4.776 -0.6939 -0.8622 -0.7681
 7817SOL     OW34909   2.202   3.845   2.290 -0.0437  0.0192  0.1650
 7817SOL    HW134910   2.163   3.865   2.205 -2.2055 -0.8524  0.9595
 7817SOL    HW234911   2.146   3.901   2.344 -1.0387 -0.4515 -0.3892
 7818SOL     OW34912   4.710   4.436   9.530  0.6889 -0.8253 -0.3310
 7818SOL    HW134913   4.650   4.506   9.556  1.7094 -0.1177  0.1094
 7818SOL    HW234914   0.039   4.474   9.458  0.1742  1.6753  0.6265
 7819SOL     OW34915   4.425   3.638   5.561  0.1987 -0.1461 -0.0735
 7819SOL    HW134916   4.331   3.631   5.546  0.1270 -2.4490  1.3655
 7819SOL    HW234917   4.454   3.578   5.492  0.2036  0.0052 -0.2021
 7820SOL     OW34918   1.889   1.169   5.666  0.6842  0.0112  0.5352
 7820SOL    HW134919   1.981   1.196   5.674  0.2100  2.2891 -1.6987
 7820SOL    HW234920   1.899   1.076   5.647  1.3219  0.7536 -2.7826
 7821SOL     OW34921   2.112   0.370   9.841  0.6034 -0.1059 -0.3664
 7821SOL    HW134922   2.183   0.327   9.795 -0.4096 -1.8675 -0.2678
 7821SOL    HW234923   2.079   0.431   9.775 -0.1177 -1.8513 -1.6016
 7822SOL     OW34924   3.324   1.835   7.461  0.1125  0.2121  0.2034
 7822SOL    HW134925   3.389   1.868   7.523 -1.2575  1.3124  1.0464
 7822SOL    HW234926   3.245   1.848   7.513 -0.2993 -0.4865 -0.2542
 7823SOL     OW34927   0.226   0.691   4.995 -0.6402  0.1936  0.1826
 7823SOL    HW134928   0.149   0.683   5.051 -0.0356 -1.8786  0.7408
 7823SOL    HW234929   0.207   0.770   4.944  0.1222  1.2809  1.5863
 7824SOL     OW34930   2.116   3.299   5.128 -0.1974  0.4684  0.1526
 7824SOL    HW134931   2.045   3.241   5.102 -0.3602  0.4402  0.6683
 7824SOL    HW234932   2.146   3.330   5.042  0.5298  1.2834  0.7001
 7825SOL     OW34933   3.550   2.636   2.434 -0.1515 -0.0874 -0.3561
 7825SOL    HW134934   3.595   2.703   2.486  0.0795  0.3824 -1.1609
 7825SOL    HW234935   3.491   2.688   2.379 -0.3105 -1.0975 -1.1480
 7826SOL     OW34936   1.921   3.196   3.470  0.1987  0.2293  0.1416
 7826SOL    HW134937   1.939   3.103   3.484  1.1758  0.0806 -1.9877
 7826SOL    HW234938   1.920   3.212   3.564 -1.0186  0.7558  0.0267
 7827SOL     OW34939   3.149   2.346   3.134 -0.2412 -0.2640 -0.6003
 7827SOL    HW134940   3.129   2.435   3.164 -0.3993 -0.9756  1.4618
 7827SOL    HW234941   3.106   2.343   3.049 -1.4837  0.2383  0.0126
 7828SOL     OW34942   0.388   0.590   7.280 -0.2478 -0.3085  0.5986
 7828SOL    HW134943   0.446   0.597   7.356  0.5882 -0.4101 -0.0310
 7828SOL    HW234944   0.304   0.605   7.325 -0.6722 -0.6039 -0.1037
 7829SOL     OW34945   2.138   0.411   3.008 -0.3839 -0.4094 -0.4651
 7829SOL    HW134946   2.160   0.477   2.942 -0.7819  0.3188  0.1280
 7829SOL    HW234947   2.210   0.423   3.070 -0.5018 -2.0086 -0.0062
 7830SOL     OW34948   2.476   2.312   9.056  0.0890 -0.3945  0.2762
 7830SOL    HW134949   2.520   2.268   9.128  0.2151 -2.1906 -0.9031
 7830SOL    HW234950   2.532   2.390   9.054 -1.5579  0.7956  0.4119
 7831SOL     OW34951   0.763   2.135  13.593 -0.2802 -0.0974 -0.0708
 7831SOL    HW134952   0.724   2.071  13.652  2.0445 -0.7648  0.7603
 7831SOL    HW234953   0.768   2.079  13.515  0.0237 -2.0037  1.3007
 7832SOL     OW34954   1.469   0.638  10.818 -0.0216  0.7532 -0.4184
 7832SOL    HW134955   1.384   0.675  10.793 -0.8988 -1.3400 -0.5387
 7832SOL    HW234956   1.504   0.609  10.734 -0.3982  2.6702 -1.2450
 7833SOL     OW34957   2.056   3.084  14.028  0.3708  0.2473 -0.2935
 7833SOL    HW134958   2.063   3.178  14.044  0.2651 -0.1212  1.8552
 7833SOL    HW234959   2.142   3.053  14.058  0.7626  0.3180 -1.3465
 7834SOL     OW34960   2.430   0.461   2.128 -0.3513  0.3572 -0.0053
 7834SOL    HW134961   2.406   0.370   2.142  2.1316 -0.6521 -2.2870
 7834SOL    HW234962   2.478   0.488   2.207 -1.9927 -2.1303  1.8362
 7835SOL     OW34963   4.687   2.400   5.398 -0.2770  0.0222  0.4479
 7835SOL    HW134964   4.639   2.352   5.330  2.3331 -1.2075 -0.5217
 7835SOL    HW234965   0.009   2.333   5.453  1.0471 -1.1325 -2.0133
 7836SOL     OW34966   2.184   1.861   9.820  0.0792 -0.9629  0.3944
 7836SOL    HW134967   2.242   1.799   9.865 -0.3209 -0.3731  1.7009
 7836SOL    HW234968   2.232   1.943   9.829 -1.3512  0.1052 -1.7001
 7837SOL     OW34969   2.530   3.204   1.484  0.6813 -0.2944 -0.0054
 7837SOL    HW134970   2.524   3.300   1.475 -0.6864 -0.4569 -0.6713
 7837SOL    HW234971   2.476   3.193   1.562  1.0597  2.0186  0.6158
 7838SOL     OW34972   1.071   4.202   0.221  0.3063 -1.0904 -0.5998
 7838SOL    HW134973   1.009   4.229   0.289  2.4448  3.0395 -0.3012
 7838SOL    HW234974   1.024   4.131   0.176 -1.1725  1.4586 -3.0441
 7839SOL     OW34975   3.326   0.157   5.927 -0.2883 -0.1975 -0.3566
 7839SOL    HW134976   3.350   0.241   5.964 -2.0659  0.7045 -1.2516
 7839SOL    HW234977   3.417   0.130   5.913 -0.2699  0.0665 -0.7347
 7840SOL     OW34978   2.291   0.164  10.246  0.0784 -0.2113 -0.6807
 7840SOL    HW134979   2.289   0.166  10.150  2.7637  2.7442 -0.6558
 7840SOL    HW234980   2.200   0.193  10.254  0.6596  1.5870 -0.7088
 7841SOL     OW34981   4.513   0.454   5.239 -0.3102 -0.0099 -0.3524
 7841SOL    HW134982   4.524   0.364   5.205  1.5980  0.7456 -1.7828
 7841SOL    HW234983   4.449   0.429   5.305  1.2867  2.1935  1.9984
 7842SOL     OW34984   3.265   0.357   3.797  0.4395  0.6775  0.5594
 7842SOL    HW134985   3.238   0.305   3.721  3.3877 -0.2991  0.2011
 7842SOL    HW234986   3.289   0.291   3.861  2.7442 -0.1219 -1.1247
 7843SOL     OW34987   3.020   0.606   6.401 -0.6533  0.0707 -0.0573
 7843SOL    HW134988   2.987   0.528   6.445 -0.9746  1.0312  1.3792
 7843SOL    HW234989   3.090   0.560   6.353 -1.0375 -0.1833 -0.3738
 7844SOL     OW34990   0.954   3.363   5.800  0.1093 -0.2628 -0.4301
 7844SOL    HW134991   1.002   3.280   5.795 -0.9284 -0.8244 -1.1116
 7844SOL    HW234992   0.873   3.336   5.843  0.4721 -0.2271  0.2793
 7845SOL     OW34993   1.841   0.216  14.260 -0.6933 -0.2753 -0.1353
 7845SOL    HW134994   1.809   0.276  14.327  1.8460  1.4763 -0.4675
 7845SOL    HW234995   1.848   0.273  14.183  0.3847 -0.7458 -0.3882
 7846SOL     OW34996   3.544   4.511   6.611 -0.8953  0.1522 -0.4871
 7846SOL    HW134997   3.560   4.434   6.665  2.2958  1.2853  0.1698
 7846SOL    HW234998   3.518   4.576   6.676 -1.5005  1.3416 -1.8959
 7847SOL     OW34999   0.068   2.204   3.393  0.8940 -0.0853 -0.3821
 7847SOL    HW135000   0.114   2.121   3.392  1.7477  0.3910 -0.7769
 7847SOL    HW235001   0.114   2.236   3.471 -1.3588  3.1753 -0.3891
 7848SOL     OW35002   2.294   3.047   4.879  0.3801  0.3816  0.0992
 7848SOL    HW135003   2.327   3.069   4.966 -1.0377  1.4121  0.3699
 7848SOL    HW235004   2.277   3.136   4.849  0.5409  1.2061  2.4599
 7849SOL     OW35005   4.324   4.139   1.313  0.4428  0.0376  0.2221
 7849SOL    HW135006   4.363   4.205   1.370  0.0212  1.2295 -0.8673
 7849SOL    HW235007   4.242   4.121   1.360 -0.7521  0.3309 -1.7703
 7850SOL     OW35008   3.969   1.424   9.534 -0.2805  0.2229 -0.0934
 7850SOL    HW135009   3.990   1.368   9.609  0.1422  1.6841  0.8730
 7850SOL    HW235010   3.896   1.476   9.567 -0.6391  0.1701 -0.7973
 7851SOL     OW35011   2.183   1.365  11.793 -0.5471 -0.5398 -0.7823
 7851SOL    HW135012   2.119   1.294  11.802 -0.2232 -0.7842 -0.3868
 7851SOL    HW235013   2.185   1.373  11.698 -1.1494 -2.9881 -1.0095
 7852SOL     OW35014   3.294   2.073   2.519  0.4346  0.8615 -0.0645
 7852SOL    HW135015   3.206   2.099   2.548  0.3122  1.7802 -1.2401
 7852SOL    HW235016   3.339   2.083   2.603  0.1562 -0.6615  0.2760
 7853SOL     OW35017   0.270   1.410  17.580  0.0143  0.1871 -0.1488
 7853SOL    HW135018   0.349   1.465  17.580  1.1661 -1.4790  0.0165
 7853SOL    HW235019   0.302   1.343  17.640 -2.0246 -0.9671 -0.3576
 7854SOL     OW35020   2.874   4.639   3.052  0.0592 -0.2809  0.3099
 7854SOL    HW135021   2.942   4.578   3.023 -0.5044 -0.8000  0.0894
 7854SOL    HW235022   2.827   4.591   3.121 -0.0424  2.3426  2.0773
 7855SOL     OW35023   1.514   0.257   7.226  0.4480 -0.0817  0.4592
 7855SOL    HW135024   1.464   0.280   7.148  1.1151  0.3860  0.1616
 7855SOL    HW235025   1.486   0.166   7.233  0.5055 -0.0863  0.6316
 7856SOL     OW35026   2.131   0.248   2.545 -0.0272 -0.2110 -0.1471
 7856SOL    HW135027   2.214   0.204   2.561  0.4171  0.5746 -0.2730
 7856SOL    HW235028   2.074   0.197   2.602  0.4183 -1.8018 -1.1291
 7857SOL     OW35029   2.693   3.840   5.445  0.1963 -0.0979  0.1021
 7857SOL    HW135030   2.646   3.878   5.519 -1.8155  0.3891 -1.3975
 7857SOL    HW235031   2.629   3.773   5.422 -0.6743  0.0117  2.2615
 7858SOL     OW35032   4.400   2.604   5.065  0.2984 -0.2548  0.3035
 7858SOL    HW135033   4.396   2.667   4.993  0.2841  0.8122  1.2429
 7858SOL    HW235034   4.360   2.522   5.035 -3.0850  1.5769 -0.1680
 7859SOL     OW35035   0.377   3.045   6.889 -0.2413  0.0147 -0.3229
 7859SOL    HW135036   0.366   2.982   6.817  2.7644  1.0799 -1.7190
 7859SOL    HW235037   0.456   3.008   6.929 -0.3749  0.8350  0.6748
 7860SOL     OW35038   3.528   0.436   0.704 -0.7598 -0.9036 -0.2085
 7860SOL    HW135039   3.590   0.486   0.758  0.5172 -1.7542 -0.8742
 7860SOL    HW235040   3.593   0.375   0.669 -1.1384 -1.6312  0.3754
 7861SOL     OW35041   3.823   2.333  12.141 -0.2080 -0.3082 -0.1049
 7861SOL    HW135042   3.876   2.254  12.131  0.0611  0.1166 -2.1167
 7861SOL    HW235043   3.892   2.398  12.149 -1.5617  1.0956  0.2398
 7862SOL     OW35044   3.079   2.922   3.743  0.0699  0.0685 -0.5565
 7862SOL    HW135045   3.144   2.898   3.676 -0.1145  3.2182 -1.8556
 7862SOL    HW235046   3.007   2.944   3.685 -1.1376  1.2009  1.3932
 7863SOL     OW35047   2.440   4.571   4.816  0.2695 -0.2880 -0.0699
 7863SOL    HW135048   2.466   4.565   4.908  1.6600 -1.8221 -0.5607
 7863SOL    HW235049   2.522   4.566   4.767 -0.2209 -3.8064 -0.5049
 7864SOL     OW35050   3.135   3.109   6.241 -0.2953  0.0113 -0.5171
 7864SOL    HW135051   3.173   3.187   6.200  0.4745  0.2223  0.5990
 7864SOL    HW235052   3.179   3.111   6.326 -0.1670 -0.1369 -0.5812
 7865SOL     OW35053   1.801   1.569   2.597 -0.2868 -0.5494  0.3047
 7865SOL    HW135054   1.855   1.591   2.674 -1.8832 -0.6154  1.4467
 7865SOL    HW235055   1.846   1.610   2.523 -3.1976 -0.3190 -1.3479
 7866SOL     OW35056   4.529   2.717  14.093  0.5343 -0.2529 -0.0975
 7866SOL    HW135057   4.582   2.649  14.052 -0.4749 -0.7474 -0.5927
 7866SOL    HW235058   4.450   2.720  14.038  1.0532 -0.5803 -0.8604
 7867SOL     OW35059   4.330   1.451   4.188  0.6642  0.7367 -0.1753
 7867SOL    HW135060   4.261   1.515   4.205 -0.7245 -0.5640 -1.0232
 7867SOL    HW235061   4.290   1.409   4.112  0.7228 -0.4368  0.4444
 7868SOL     OW35062   3.161   0.161  10.206  0.0647 -0.1502 -0.2814
 7868SOL    HW135063   3.106   0.235  10.231  2.5878  1.2952  1.0143
 7868SOL    HW235064   3.100   0.103  10.161  1.9196 -2.3314  0.0036
 7869SOL     OW35065   0.069   3.358   3.962  0.0678  0.1753 -0.5717
 7869SOL    HW135066   0.091   3.289   3.899 -1.6716 -0.2309 -0.7379
 7869SOL    HW235067   0.070   3.317   4.048 -1.0532  1.5614  0.1077
 7870SOL     OW35068   1.214   3.179   6.760 -0.9519 -0.3047 -0.2058
 7870SOL    HW135069   1.239   3.161   6.669 -0.3177 -0.8974  0.0858
 7870SOL    HW235070   1.171   3.264   6.746 -0.0586 -0.0899 -1.6773
 7871SOL     OW35071   1.480   1.260   6.686 -0.3136  0.3226 -0.5064
 7871SOL    HW135072   1.530   1.276   6.766  0.1978  1.4467 -1.0549
 7871SOL    HW235073   1.398   1.233   6.727  1.2690 -2.0405  1.1146
 7872SOL     OW35074   0.092   3.189  10.836 -0.4078  0.1949  0.3199
 7872SOL    HW135075   0.109   3.261  10.897  0.0962 -0.0458  0.4669
 7872SOL    HW235076   0.052   3.119  10.888 -1.6603  0.9218  0.3365
 7873SOL     OW35077   2.331   0.271   1.497  0.1920  0.5153  0.0779
 7873SOL    HW135078   2.289   0.356   1.485  1.9661  1.7143  2.4337
 7873SOL    HW235079   2.323   0.262   1.592  0.2573 -2.4278 -0.1903
 7874SOL     OW35080   1.327   0.084  10.493 -0.6965  0.3092  0.6225
 7874SOL    HW135081   1.236   0.111  10.482 -1.2727 -3.1474 -2.6727
 7874SOL    HW235082   1.330   0.011  10.432  0.0379  0.3912  0.5534
 7875SOL     OW35083   3.484   0.632  11.360 -0.1005 -0.0057 -0.8129
 7875SOL    HW135084   3.503   0.648  11.267 -1.0332 -1.1310 -1.1894
 7875SOL    HW235085   3.574   0.618  11.391 -0.7687 -1.8302  0.2781
 7876SOL     OW35086   3.638   0.534   5.140  0.7532 -0.4719  0.4751
 7876SOL    HW135087   3.583   0.473   5.091  0.4674 -1.5528  2.1300
 7876SOL    HW235088   3.696   0.566   5.072 -0.4180  2.2783  0.7495
 7877SOL     OW35089   2.573   2.681   0.444 -0.5078 -0.8804  0.4843
 7877SOL    HW135090   2.635   2.752   0.427 -1.0519 -0.7612 -0.9935
 7877SOL    HW235091   2.634   2.607   0.446  0.3183 -0.2039  0.1718
 7878SOL     OW35092   0.699   4.442   5.727  0.4883  0.1674  0.3478
 7878SOL    HW135093   0.759   4.383   5.682  0.1966 -0.4855  0.8197
 7878SOL    HW235094   0.628   4.382   5.748 -0.0666  1.3121  1.7679
 7879SOL     OW35095   3.173   4.514   2.651 -0.3411  0.3008 -0.3337
 7879SOL    HW135096   3.139   4.432   2.688 -0.0119  0.4534  0.2947
 7879SOL    HW235097   3.190   4.494   2.559 -1.4173  0.5673 -0.5884
 7880SOL     OW35098   4.708   3.274   7.870 -0.1611 -0.0341 -0.0361
 7880SOL    HW135099   0.060   3.320   7.912 -0.1792 -1.6826  1.7882
 7880SOL    HW235100   4.694   3.213   7.943  0.3008 -0.4254 -0.2817
 7881SOL     OW35101   1.122   2.459  16.024 -0.7061  0.1356 -0.3419
 7881SOL    HW135102   1.083   2.375  16.001  1.4823 -0.5317 -1.5771
 7881SOL    HW235103   1.051   2.510  15.985 -2.4958 -2.7379 -0.8519
 7882SOL     OW35104   3.660   3.079   4.965  0.8723 -0.1958 -0.5719
 7882SOL    HW135105   3.687   3.104   4.876 -0.5585  0.5460 -0.8012
 7882SOL    HW235106   3.566   3.060   4.954  1.2469 -1.8822 -0.9391
 7883SOL     OW35107   1.559   3.482  13.693  0.4034 -0.1214  0.4858
 7883SOL    HW135108   1.570   3.417  13.623 -1.9237 -0.9041  0.8571
 7883SOL    HW235109   1.652   3.497  13.712  0.5210  0.9576 -0.9154
 7884SOL     OW35110   4.065   3.691   1.055 -0.2924 -0.1391 -0.1408
 7884SOL    HW135111   4.008   3.708   0.981  0.9837 -2.2597 -1.6084
 7884SOL    HW235112   4.098   3.781   1.063 -0.1796 -0.3368  1.7616
 7885SOL     OW35113   3.063   4.602   8.172  0.0266  0.5982  0.0459
 7885SOL    HW135114   3.069   4.645   8.257 -2.1186  0.4787  0.2596
 7885SOL    HW235115   2.969   4.582   8.174  0.0345  0.4127 -1.2862
 7886SOL     OW35116   3.714   3.897   3.742  0.1600  0.2312 -0.0188
 7886SOL    HW135117   3.762   3.927   3.665  0.7492  1.1504  0.6971
 7886SOL    HW235118   3.678   3.981   3.771 -2.5634 -0.6698 -0.7885
 7887SOL     OW35119   2.749   4.541  14.665  1.1238 -0.4701 -0.6296
 7887SOL    HW135120   2.841   4.525  14.646  0.0516 -2.8431 -3.8409
 7887SOL    HW235121   2.740   4.462  14.719 -2.1293  1.4971  1.7374
 7888SOL     OW35122   3.336   2.795   0.531 -0.5094 -1.4099 -0.6868
 7888SOL    HW135123   3.374   2.710   0.508  1.3854 -0.1093 -2.3171
 7888SOL    HW235124   3.244   2.772   0.545 -1.7150  3.7579  0.0515
 7889SOL     OW35125   0.868   1.236   2.038 -0.2548 -0.0435  0.0984
 7889SOL    HW135126   0.947   1.209   1.990  0.6464 -1.6264  2.4688
 7889SOL    HW235127   0.919   1.252   2.118 -0.0065  0.2552 -0.1208
 7890SOL     OW35128   0.993   1.742   7.422 -0.2675 -0.3779  0.0976
 7890SOL    HW135129   1.053   1.757   7.495 -0.0135 -1.8676  0.2067
 7890SOL    HW235130   0.968   1.829   7.394  2.0411  0.5785  1.0331
 7891SOL     OW35131   4.032   2.210   4.478 -0.2937 -0.4818  0.3306
 7891SOL    HW135132   3.986   2.291   4.455  1.9763  0.9308  0.7527
 7891SOL    HW235133   3.986   2.142   4.429  0.0054 -1.2077  1.0623
 7892SOL     OW35134   2.662   2.162   3.998  0.1460  0.0387 -0.8338
 7892SOL    HW135135   2.757   2.177   4.006  0.1989 -0.7524 -0.0257
 7892SOL    HW235136   2.624   2.196   4.078  1.7012  1.5858 -0.7449
 7893SOL     OW35137   4.591   0.560   0.490 -0.0522  0.3052  0.1543
 7893SOL    HW135138   4.606   0.648   0.455  0.3101 -0.6406 -2.0648
 7893SOL    HW235139   4.643   0.507   0.431 -0.2385  2.9217 -2.3680
 7894SOL     OW35140   4.194   0.902   5.203 -0.0424 -0.0396  0.4754
 7894SOL    HW135141   4.153   0.975   5.156 -0.2508 -0.5059 -0.0663
 7894SOL    HW235142   4.285   0.911   5.173 -0.4676 -0.8922 -1.0564
 7895SOL     OW35143   0.180   4.292   3.216  0.4614  0.2427  0.2690
 7895SOL    HW135144   0.120   4.322   3.285  1.5150  0.8571  0.9132
 7895SOL    HW235145   0.118   4.295   3.143  1.1773  2.4458 -0.2644
 7896SOL     OW35146   4.112   0.914   9.576  0.0028 -0.0034 -0.0554
 7896SOL    HW135147   4.075   0.942   9.660 -1.1385 -0.7371 -0.3181
 7896SOL    HW235148   4.062   0.834   9.565  1.6376 -0.8961 -1.0643
 7897SOL     OW35149   2.038   2.335   7.319 -0.2194  0.0697 -0.1814
 7897SOL    HW135150   1.960   2.292   7.355  0.3097  1.5931  2.8131
 7897SOL    HW235151   2.073   2.273   7.255 -0.5034  2.3517 -2.5436
 7898SOL     OW35152   3.838   4.450   4.490  0.3706 -0.0037 -0.1818
 7898SOL    HW135153   3.814   4.502   4.568  0.7636  2.2419 -1.5524
 7898SOL    HW235154   3.933   4.441   4.498  0.4424  0.9088  0.0222
 7899SOL     OW35155   3.559   0.739   6.393 -0.1644  0.3265  0.4218
 7899SOL    HW135156   3.543   0.648   6.421  0.1030  1.1706  3.3340
 7899SOL    HW235157   3.489   0.779   6.444 -1.7275 -2.3724  0.3743
 7900SOL     OW35158   3.457   1.689  12.774 -0.3715 -0.7254 -0.4498
 7900SOL    HW135159   3.535   1.649  12.735 -0.2284 -0.6347 -0.2605
 7900SOL    HW235160   3.405   1.611  12.793 -1.2766  0.3522  1.4465
 7901SOL     OW35161   4.050   1.093  14.560  0.5936  0.1587  0.2172
 7901SOL    HW135162   3.974   1.070  14.506 -1.0686  1.4902  1.9932
 7901SOL    HW235163   4.064   1.177  14.516 -0.2985  0.2390  0.0728
 7902SOL     OW35164   3.460   0.367   8.162  0.0437  0.1524 -0.3403
 7902SOL    HW135165   3.402   0.402   8.229 -0.5183 -1.2384 -0.0884
 7902SOL    HW235166   3.543   0.369   8.209 -0.8960  1.1360  1.3000
 7903SOL     OW35167   0.475   1.324   4.573 -0.3762  0.0579 -0.0896
 7903SOL    HW135168   0.495   1.418   4.582 -0.1875 -0.2295  2.3828
 7903SOL    HW235169   0.442   1.320   4.483  0.1030  0.1093 -0.2636
 7904SOL     OW35170   4.486   0.668  17.129  0.4322  0.9310 -0.2461
 7904SOL    HW135171   4.485   0.574  17.149  1.1123  0.6579 -1.5319
 7904SOL    HW235172   4.569   0.670  17.081  0.8284  0.1740  0.3973
 7905SOL     OW35173   4.350   0.453   0.525  0.0914 -0.3122  0.4405
 7905SOL    HW135174   4.443   0.475   0.520  0.4286 -1.0826  3.3095
 7905SOL    HW235175   4.321   0.486   0.439 -0.3905 -0.0710  0.6943
 7906SOL     OW35176   0.609   3.037   9.314  0.2282 -0.2322  0.4621
 7906SOL    HW135177   0.529   3.085   9.334  0.1371 -0.3723  0.4341
 7906SOL    HW235178   0.569   2.951   9.325  0.2988 -0.1312  1.5208
 7907SOL     OW35179   3.264   2.128   4.947  0.2506 -0.0808  0.1713
 7907SOL    HW135180   3.256   2.086   4.861 -0.4539 -1.1223  0.7461
 7907SOL    HW235181   3.329   2.074   4.990 -3.3384 -2.9075  2.0245
 7908SOL     OW35182   1.724   2.216  12.693  0.1761 -0.6250 -0.5881
 7908SOL    HW135183   1.714   2.155  12.619 -1.9253 -0.7714 -0.1799
 7908SOL    HW235184   1.662   2.283  12.667 -0.5739 -1.2151 -0.3165
 7909SOL     OW35185   1.760   2.357   6.602 -0.1409 -0.4589 -0.0036
 7909SOL    HW135186   1.798   2.371   6.515 -2.5707  0.6337 -0.8934
 7909SOL    HW235187   1.697   2.296   6.563 -2.1070  1.7316 -0.2341
 7910SOL     OW35188   3.790   0.264   4.892  0.1795  0.2300 -0.3592
 7910SOL    HW135189   3.831   0.285   4.976  0.6558 -0.7810 -0.3354
 7910SOL    HW235190   3.865   0.215   4.858  0.0296  0.8679 -1.6128
 7911SOL     OW35191   0.845   1.883   9.256  0.4809  0.1450  0.2667
 7911SOL    HW135192   0.776   1.826   9.223  0.1661  0.4972  0.3159
 7911SOL    HW235193   0.859   1.842   9.342  0.3144  0.3153  0.3743
 7912SOL     OW35194   0.212   0.886   1.142 -0.2088 -0.0289 -0.2145
 7912SOL    HW135195   0.252   0.799   1.134 -1.9233 -0.9137  0.7774
 7912SOL    HW235196   0.134   0.862   1.191  0.8950 -0.9680  1.0937
 7913SOL     OW35197   0.075   1.684  14.459  0.5629 -0.2227  0.7064
 7913SOL    HW135198   0.115   1.725  14.535  0.6151  0.6772  0.1811
 7913SOL    HW235199   0.107   1.721  14.377 -0.1242  0.7772  0.8895
 7914SOL     OW35200   4.551   1.300  10.300  0.2331 -0.2812 -0.4094
 7914SOL    HW135201   4.465   1.285  10.261 -0.7606  1.2917  1.1983
 7914SOL    HW235202   4.521   1.314  10.390 -0.8430  0.8803 -0.9533
 7915SOL     OW35203   1.811   0.644  14.179 -0.3640 -0.3666  0.1506
 7915SOL    HW135204   1.899   0.637  14.217 -0.2317 -1.8589 -0.4346
 7915SOL    HW235205   1.768   0.717  14.224  1.0811  1.1399 -0.9155
 7916SOL     OW35206   3.198   1.838   9.251 -0.7255  0.3002  0.2052
 7916SOL    HW135207   3.252   1.814   9.175  0.5208 -1.6717  1.6882
 7916SOL    HW235208   3.111   1.843   9.211 -0.8166 -3.5238 -0.1189
 7917SOL     OW35209   1.241   0.836   1.515  0.0415 -0.7306 -0.3087
 7917SOL    HW135210   1.242   0.822   1.421  0.1237  2.6253 -0.7959
 7917SOL    HW235211   1.149   0.809   1.524 -0.4875  0.3808 -2.4299
 7918SOL     OW35212   2.771   4.100   4.624 -0.3879 -0.0470 -0.3631
 7918SOL    HW135213   2.825   4.171   4.658  0.1576 -0.1998 -0.9178
 7918SOL    HW235214   2.822   4.076   4.546  0.7630 -3.5890  1.4810
 7919SOL     OW35215   1.563   2.400   9.868  0.1070  0.0778 -0.1274
 7919SOL    HW135216   1.632   2.458   9.836  0.4537  0.0584  0.5908
 7919SOL    HW235217   1.502   2.446   9.810 -1.4092  0.4437  1.7644
 7920SOL     OW35218   0.112   3.085  10.558  0.0910  0.2842 -0.0988
 7920SOL    HW135219   0.076   3.117  10.640  1.2870  0.1799  0.4737
 7920SOL    HW235220   0.123   3.170  10.516  1.0360 -0.1236 -0.6964
 7921SOL     OW35221   4.025   4.247   7.082 -0.3041  0.1194  0.4705
 7921SOL    HW135222   3.941   4.292   7.074 -1.3921 -2.3021 -1.4937
 7921SOL    HW235223   4.076   4.301   7.020  2.1959 -0.6633  1.8650
 7922SOL     OW35224   1.603   3.627   4.841  0.3127 -0.1074  0.0090
 7922SOL    HW135225   1.576   3.636   4.933 -1.4239  0.5771 -0.5674
 7922SOL    HW235226   1.594   3.535   4.816 -1.6366  0.5206 -1.5926
 7923SOL     OW35227   4.689   3.088   4.849 -0.5254 -0.0704  0.2743
 7923SOL    HW135228   0.038   3.024   4.852  0.9922  1.4748 -2.0007
 7923SOL    HW235229   4.613   3.042   4.885  0.8996 -0.3282  2.9482
 7924SOL     OW35230   0.306   2.876   4.417 -0.1616  0.0980 -0.1207
 7924SOL    HW135231   0.357   2.954   4.396  0.7533 -0.5590 -0.3142
 7924SOL    HW235232   0.287   2.837   4.332  0.4483 -0.9771  0.2411
 7925SOL     OW35233   4.595   1.257   4.059 -0.0926 -0.5604 -0.5513
 7925SOL    HW135234   4.621   1.349   4.049 -1.0251 -0.3295 -0.8475
 7925SOL    HW235235   4.647   1.216   3.990 -1.6931  1.5398 -3.0254
 7926SOL     OW35236   1.616   3.568  16.371  0.4724 -0.6128  0.8954
 7926SOL    HW135237   1.560   3.543  16.297  0.0803 -0.0346  0.9951
 7926SOL    HW235238   1.671   3.490  16.375  0.4969 -0.7133 -1.2265
 7927SOL     OW35239   3.241   3.157   3.571  0.6407  0.1646  0.3892
 7927SOL    HW135240   3.329   3.176   3.602  1.0141 -0.1112 -0.5379
 7927SOL    HW235241   3.205   3.098   3.639  2.9439  0.5465  1.9252
 7928SOL     OW35242   3.397   0.518  15.797 -0.0155  0.1740 -0.3899
 7928SOL    HW135243   3.353   0.584  15.852  1.6124  1.8376 -1.0986
 7928SOL    HW235244   3.432   0.577  15.731  0.4924  1.6511  1.1975
 7929SOL     OW35245   3.122   2.456  11.264 -0.2220 -0.0713  0.0976
 7929SOL    HW135246   3.046   2.502  11.228  0.3767  0.3115 -0.6874
 7929SOL    HW235247   3.187   2.527  11.261  0.5587 -0.7751  0.3391
 7930SOL     OW35248   2.519   3.373  12.432 -0.2169  0.3525  0.1313
 7930SOL    HW135249   2.595   3.316  12.420  0.2764  1.2184 -0.9711
 7930SOL    HW235250   2.452   3.314  12.465  2.5031 -0.4670  4.1116
 7931SOL     OW35251   2.330   3.474  11.960 -0.1375  0.8450  0.0283
 7931SOL    HW135252   2.236   3.462  11.973 -0.2785 -0.0973 -1.7965
 7931SOL    HW235253   2.351   3.496  12.051  1.6523 -1.1499  0.1081
 7932SOL     OW35254   2.690   3.066  16.662  0.4999  0.4829  0.5482
 7932SOL    HW135255   2.735   3.103  16.586 -1.6607  1.6211 -0.1761
 7932SOL    HW235256   2.601   3.100  16.651  0.7114  0.3563 -1.6273
 7933SOL     OW35257   4.393   0.175  12.338  0.8497  0.1763  0.1614
 7933SOL    HW135258   4.483   0.195  12.315  0.9502 -0.5272 -0.0566
 7933SOL    HW235259   4.364   0.174  12.246  0.7611 -1.8460  0.1979
 7934SOL     OW35260   4.433   0.894   3.114 -1.0053 -0.0202  1.2707
 7934SOL    HW135261   4.502   0.868   3.175  0.4691 -0.0729 -0.4292
 7934SOL    HW235262   4.403   0.808   3.085 -0.8798 -1.1687  4.5952
 7935SOL     OW35263   3.994   1.940  11.608  0.0566 -0.4945 -0.0192
 7935SOL    HW135264   3.990   1.854  11.649 -0.6889 -0.6329 -0.3853
 7935SOL    HW235265   3.921   1.993  11.642  1.1027  1.1659 -0.3531
 7936SOL     OW35266   4.701   1.036   6.846  0.0216  0.2418 -0.0648
 7936SOL    HW135267   4.691   1.087   6.926 -1.9405 -0.4920  0.1750
 7936SOL    HW235268   0.048   1.084   6.800 -0.4220  0.0481 -0.9427
 7937SOL     OW35269   3.087   0.237   5.185  0.1573  0.3403 -0.2010
 7937SOL    HW135270   3.050   0.308   5.237  3.3246  1.4172  0.5525
 7937SOL    HW235271   3.066   0.271   5.098 -2.9448  1.0602  0.8308
 7938SOL     OW35272   3.954   2.947  14.387 -0.1313 -0.2501  0.3596
 7938SOL    HW135273   3.897   2.923  14.314 -1.5956 -0.8482  1.7144
 7938SOL    HW235274   3.973   3.038  14.364  0.1767 -0.3274  0.3166
 7939SOL     OW35275   4.550   2.240  12.381 -0.0818 -0.1562 -0.8094
 7939SOL    HW135276   4.548   2.145  12.375 -1.4030  0.0385 -3.4465
 7939SOL    HW235277   4.543   2.264  12.474  3.0456  0.8961 -0.8406
 7940SOL     OW35278   0.631   0.267   7.220  0.2304 -0.4069  0.3262
 7940SOL    HW135279   0.567   0.296   7.154 -0.7105 -2.3899  0.3888
 7940SOL    HW235280   0.562   0.228   7.273 -1.5894  1.2571 -0.8122
 7941SOL     OW35281   2.600   3.308  11.302  0.1149  0.4452  0.4251
 7941SOL    HW135282   2.516   3.279  11.267  0.3737 -1.1738  1.1441
 7941SOL    HW235283   2.638   3.345  11.222 -0.4296 -2.3520 -1.1113
 7942SOL     OW35284   3.092   2.458   7.135  0.2642 -0.0524  0.2843
 7942SOL    HW135285   3.163   2.459   7.070  1.1038 -1.1707  1.1900
 7942SOL    HW235286   3.127   2.483   7.221  0.4701 -1.0781  0.4969
 7943SOL     OW35287   0.109   4.637   9.390 -0.0043  0.0174  0.0160
 7943SOL    HW135288   0.092   4.691   9.313  0.6821 -2.2203 -1.6912
 7943SOL    HW235289   0.075   4.695   9.458  1.8216  0.1153  0.8193
 7944SOL     OW35290   0.395   1.847   3.082  0.0424  0.7194 -0.0191
 7944SOL    HW135291   0.302   1.870   3.084  0.0914  1.2472 -2.7246
 7944SOL    HW235292   0.449   1.920   3.050  0.1617 -0.5639 -2.7420
 7945SOL     OW35293   3.065   3.719   1.970  0.3453 -0.0586 -0.2402
 7945SOL    HW135294   2.986   3.774   1.968  0.3655 -0.0450 -0.6903
 7945SOL    HW235295   3.131   3.774   2.014  0.4707  1.4737 -2.3520
 7946SOL     OW35296   2.393   1.498  10.898 -0.0417 -0.4777  0.7208
 7946SOL    HW135297   2.482   1.482  10.866  0.9710  2.7104  2.0056
 7946SOL    HW235298   2.381   1.592  10.884  1.2968 -0.4100 -0.0534
 7947SOL     OW35299   3.569   4.024   0.093 -0.6117 -0.0835  0.1693
 7947SOL    HW135300   3.501   4.038   0.159 -0.9648 -0.8288 -0.0356
 7947SOL    HW235301   3.640   4.007   0.155  1.0533  0.5998 -1.5625
 7948SOL     OW35302   1.340   0.589  11.052 -0.1698 -0.1957  0.1740
 7948SOL    HW135303   1.372   0.672  11.088 -0.9907 -0.4891  1.5977
 7948SOL    HW235304   1.375   0.591  10.963 -0.2762  1.1908  0.1617
 7949SOL     OW35305   4.029   3.735   6.107 -0.1632  0.0368 -0.2491
 7949SOL    HW135306   4.019   3.737   6.202 -0.0061 -1.0451 -0.2065
 7949SOL    HW235307   3.968   3.667   6.078  2.3454 -2.5260  0.5352
 7950SOL     OW35308   4.466   1.909  14.940  0.2142 -0.3324  0.2962
 7950SOL    HW135309   4.519   1.887  14.864 -2.4305  1.7265 -2.1638
 7950SOL    HW235310   4.476   1.830  14.994 -2.1994  0.2170  1.5539
 7951SOL     OW35311   3.232   3.808   4.891  0.2551  0.0161 -0.6045
 7951SOL    HW135312   3.196   3.802   4.979  0.9113 -0.1270 -0.3413
 7951SOL    HW235313   3.282   3.890   4.896 -0.3379  0.4299 -1.5020
 7952SOL     OW35314   3.972   1.975   3.096  0.0879  0.0804 -0.2594
 7952SOL    HW135315   4.064   1.973   3.068  0.1197  0.8138 -0.2032
 7952SOL    HW235316   3.982   2.024   3.178  0.0327 -2.5013  1.2728
 7953SOL     OW35317   3.371   1.330   1.850 -0.2297 -0.2390 -0.4775
 7953SOL    HW135318   3.305   1.395   1.873  0.5170  0.1717  0.5079
 7953SOL    HW235319   3.321   1.274   1.790 -1.8675 -1.0399  1.6456
 7954SOL     OW35320   0.534   3.631   4.954 -0.2059 -0.5686  0.1973
 7954SOL    HW135321   0.626   3.628   4.980 -0.3187 -0.8114  0.5632
 7954SOL    HW235322   0.541   3.579   4.874  0.6918  0.3061 -0.3053
 7955SOL     OW35323   3.584   2.497   8.118  0.5207 -0.0523  0.1139
 7955SOL    HW135324   3.534   2.423   8.151 -2.4457  1.5849 -0.6903
 7955SOL    HW235325   3.507   2.554   8.113 -0.1175 -0.9462 -0.2317
 7956SOL     OW35326   0.905   1.503  17.220  0.1179  0.7179 -0.3344
 7956SOL    HW135327   0.977   1.556  17.256  0.6521 -0.4018  0.2838
 7956SOL    HW235328   0.958   1.454  17.157  0.6455  1.1291 -0.2143
 7957SOL     OW35329   0.238   4.643  11.013 -0.0859  0.2675 -0.4453
 7957SOL    HW135330   0.179   4.686  10.950  0.1625 -0.0101 -0.8692
 7957SOL    HW235331   0.267   4.566  10.963 -0.8664 -0.1936 -0.1895
 7958SOL     OW35332   2.593   1.843  14.734 -0.1518 -0.5484 -0.1936
 7958SOL    HW135333   2.577   1.831  14.641 -0.0588 -0.8182 -0.1753
 7958SOL    HW235334   2.518   1.900  14.752  0.3354  0.3573 -1.0034
 7959SOL     OW35335   2.703   1.339   8.195  0.7202 -0.0596 -0.3311
 7959SOL    HW135336   2.775   1.283   8.165  0.4490 -0.1888 -0.7464
 7959SOL    HW235337   2.653   1.273   8.242  1.9628 -0.9439 -0.2434
 7960SOL     OW35338   2.192   0.167  12.093 -0.6509  0.2172 -0.4436
 7960SOL    HW135339   2.261   0.234  12.086 -2.4996  1.9883 -1.6495
 7960SOL    HW235340   2.120   0.216  12.054  2.1066  2.0241 -3.3559
 7961SOL     OW35341   0.051   4.092   5.286  0.3752  0.3107 -0.2730
 7961SOL    HW135342   0.112   4.039   5.336  1.3776 -0.0641 -1.8811
 7961SOL    HW235343   4.698   4.089   5.346 -0.2063 -0.8466 -1.0435
 7962SOL     OW35344   1.505   3.842   9.107 -0.4389 -0.2404  0.5643
 7962SOL    HW135345   1.460   3.757   9.108 -0.3813 -0.2740 -0.3593
 7962SOL    HW235346   1.433   3.880   9.158 -0.2358 -0.0215  0.6871
 7963SOL     OW35347   3.181   0.935  13.910 -0.2603 -0.5463  0.2608
 7963SOL    HW135348   3.264   0.963  13.949  0.3447 -0.2505 -1.2145
 7963SOL    HW235349   3.144   0.890  13.986 -0.9705  0.0660  0.2775
 7964SOL     OW35350   3.907   4.543   9.082  0.0526 -0.1575  0.5293
 7964SOL    HW135351   3.824   4.592   9.083 -0.6857 -1.4067  2.1915
 7964SOL    HW235352   3.880   4.456   9.110 -0.2173  0.0597  0.9619
 7965SOL     OW35353   2.470   3.148   7.858 -0.7269 -0.7132 -0.2052
 7965SOL    HW135354   2.398   3.099   7.819 -2.3630  1.5173  0.0557
 7965SOL    HW235355   2.530   3.083   7.896 -0.1427  0.0056  0.0941
 7966SOL     OW35356   1.357   1.249   0.839  0.5579  0.4131 -0.7005
 7966SOL    HW135357   1.358   1.291   0.925  0.6561 -1.5462  0.2376
 7966SOL    HW235358   1.435   1.280   0.792  1.0417  0.0683 -0.1241
 7967SOL     OW35359   3.546   2.425   7.473 -0.3936  0.0237  0.2093
 7967SOL    HW135360   3.485   2.451   7.405  0.1059 -1.2745 -0.7414
 7967SOL    HW235361   3.495   2.359   7.520 -2.6699 -0.1463 -2.5408
 7968SOL     OW35362   2.084   3.134   4.437 -1.2296 -0.6361  0.2010
 7968SOL    HW135363   2.046   3.047   4.425 -0.1382 -1.0195 -0.4258
 7968SOL    HW235364   2.050   3.146   4.525  1.8599  2.0313  1.0375
 7969SOL     OW35365   1.325   3.206  10.872  0.3442  0.5667  0.5659
 7969SOL    HW135366   1.295   3.149  10.943 -0.3777 -2.4497 -2.1704
 7969SOL    HW235367   1.377   3.271  10.920 -0.3357  0.4440  1.4724
 7970SOL     OW35368   4.547   4.635  14.193  0.0820  0.1979 -0.1564
 7970SOL    HW135369   4.502   4.694  14.132 -0.0045  0.4698  0.1729
 7970SOL    HW235370   4.500   4.559  14.159 -2.2171  0.4126  2.5684
 7971SOL     OW35371   4.540   4.645   9.613 -0.0838 -0.3805  0.3053
 7971SOL    HW135372   4.616   4.698   9.635 -0.6109  0.3096  0.4969
 7971SOL    HW235373   4.470   4.708   9.634  0.3356  0.0940  0.2760
 7972SOL     OW35374   2.243   0.568   4.781  0.2054 -0.5666  0.6945
 7972SOL    HW135375   2.148   0.579   4.778 -0.0911 -3.3615 -0.1494
 7972SOL    HW235376   2.274   0.648   4.825 -0.4822 -0.7197  1.4487
 7973SOL     OW35377   0.853   2.791  13.746 -0.4036 -0.1915  0.2724
 7973SOL    HW135378   0.841   2.839  13.827 -2.6406  0.9929 -0.7578
 7973SOL    HW235379   0.941   2.807  13.712 -0.0345 -1.6274  0.5400
 7974SOL     OW35380   4.478   0.697   2.170  0.4547 -0.0348 -0.2115
 7974SOL    HW135381   4.436   0.676   2.087  1.3704 -2.2372 -0.1326
 7974SOL    HW235382   4.397   0.726   2.213 -0.9754 -2.2987 -1.3466
 7975SOL     OW35383   3.457   2.881   8.478 -0.0498 -0.0334  0.5885
 7975SOL    HW135384   3.490   2.865   8.390  0.5218  0.0469  0.7859
 7975SOL    HW235385   3.488   2.967   8.507  2.3133 -0.9919  0.8521
 7976SOL     OW35386   2.455   0.416   0.516 -0.4456 -0.3282  0.2032
 7976SOL    HW135387   2.436   0.329   0.481 -0.0872  0.3262 -1.6211
 7976SOL    HW235388   2.464   0.465   0.434 -1.9277 -0.0220  0.2205
 7977SOL     OW35389   1.554   0.998  13.102 -0.1263 -0.6025 -0.2370
 7977SOL    HW135390   1.580   1.030  13.015 -0.2952  1.3569  0.4446
 7977SOL    HW235391   1.514   1.076  13.140  0.5121 -0.2694 -0.2516
 7978SOL     OW35392   3.279   3.372   4.942 -0.5204  0.6160 -0.1219
 7978SOL    HW135393   3.272   3.299   4.881  0.9873  2.6150 -2.6694
 7978SOL    HW235394   3.189   3.392   4.971  0.0024  0.7067  1.4569
 7979SOL     OW35395   3.878   4.476   9.728 -0.5060 -0.0603 -0.2978
 7979SOL    HW135396   3.863   4.561   9.769 -0.4292 -0.7859  1.2144
 7979SOL    HW235397   3.843   4.421   9.798 -0.6679  0.9795  0.4190
 7980SOL     OW35398   0.733   2.078  12.414  0.3971 -0.1899  0.0654
 7980SOL    HW135399   0.649   2.095  12.456  0.0503 -0.1476 -0.6557
 7980SOL    HW235400   0.751   1.989  12.444  1.4539 -1.2717 -3.8264
 7981SOL     OW35401   2.691   2.663   7.894 -0.2494  0.2509  0.4816
 7981SOL    HW135402   2.663   2.618   7.974  0.2519 -1.8048 -0.5071
 7981SOL    HW235403   2.602   2.693   7.877 -0.2235 -0.8080 -1.5619
 7982SOL     OW35404   0.911   2.431   3.105 -0.0182  0.2977 -0.1079
 7982SOL    HW135405   0.874   2.397   3.186  1.3092 -1.0451 -0.0854
 7982SOL    HW235406   0.935   2.350   3.060 -1.5674  0.1943 -0.7654
 7983SOL     OW35407   0.550   0.350  11.618  0.2387  0.2818  0.0748
 7983SOL    HW135408   0.632   0.374  11.659 -0.9436  1.8003  1.5468
 7983SOL    HW235409   0.567   0.368  11.525 -2.3918  0.5366 -0.3691
 7984SOL     OW35410   2.424   0.658   8.366 -0.2226 -0.1140 -0.2599
 7984SOL    HW135411   2.433   0.587   8.430  1.0373 -1.4062 -1.8554
 7984SOL    HW235412   2.476   0.725   8.411 -0.8511  0.2928 -0.1430
 7985SOL     OW35413   1.110   2.879   8.290  0.4423  0.0208 -0.5279
 7985SOL    HW135414   1.178   2.918   8.346  0.5524  0.7732 -1.1842
 7985SOL    HW235415   1.150   2.796   8.264 -0.4662 -0.5726 -0.0302
 7986SOL     OW35416   0.421   2.980   8.312 -0.1072  0.2427 -0.1283
 7986SOL    HW135417   0.414   2.897   8.359 -0.2816  1.0302  1.2473
 7986SOL    HW235418   0.408   3.042   8.384 -0.6124 -2.2248  1.8955
 7987SOL     OW35419   4.646   2.788   4.655 -0.4590  0.2706  0.7431
 7987SOL    HW135420   4.678   2.698   4.663 -0.2859  0.2223 -0.4714
 7987SOL    HW235421   4.553   2.780   4.674 -0.7696  1.7851 -0.2130
 7988SOL     OW35422   1.968   3.519   6.888 -0.3986 -0.0301  0.1974
 7988SOL    HW135423   1.918   3.564   6.955  1.2614  0.6396  0.9692
 7988SOL    HW235424   1.889   3.478   6.852 -0.6362 -1.3924  2.2692
 7989SOL     OW35425   3.333   0.561   1.631  0.0225 -0.1940 -0.5055
 7989SOL    HW135426   3.335   0.505   1.709 -0.5264 -0.0963 -0.4207
 7989SOL    HW235427   3.327   0.494   1.563  1.4583 -0.7262 -0.1178
 7990SOL     OW35428   3.895   0.726   6.737 -0.1551 -0.5591  0.4607
 7990SOL    HW135429   3.814   0.716   6.787 -1.1372  1.5401 -0.6800
 7990SOL    HW235430   3.938   0.645   6.763  1.2026 -0.4203 -1.3639
 7991SOL     OW35431   0.351   4.237   8.416  0.2412  0.1305 -1.2547
 7991SOL    HW135432   0.299   4.318   8.406  0.2699  0.4624  1.4061
 7991SOL    HW235433   0.437   4.267   8.444 -0.2197 -0.8189  1.1217
 7992SOL     OW35434   4.023   2.366   3.199  0.5706 -0.1608 -0.0189
 7992SOL    HW135435   4.024   2.414   3.282  1.2996 -2.2267  1.1434
 7992SOL    HW235436   4.054   2.280   3.228  0.3238 -0.5834 -1.0115
 7993SOL     OW35437   2.739   2.215   6.296  0.3546  0.3596  0.3332
 7993SOL    HW135438   2.756   2.292   6.242  0.7049 -0.9654 -1.4260
 7993SOL    HW235439   2.717   2.161   6.220 -0.2466  0.8744  0.1379
 7994SOL     OW35440   0.189   0.466   4.363  0.0377  0.3126 -0.5851
 7994SOL    HW135441   0.165   0.425   4.279 -1.1116 -1.2300  0.5059
 7994SOL    HW235442   0.140   0.546   4.348 -0.8005 -0.0665  0.1271
 7995SOL     OW35443   2.382   1.771  14.340 -0.1442 -0.2040  0.0332
 7995SOL    HW135444   2.441   1.711  14.294 -1.5564 -0.8541 -0.9413
 7995SOL    HW235445   2.363   1.721  14.420  1.5620 -0.7598  0.0889
 7996SOL     OW35446   1.093   1.726  15.333  0.0588  0.5886 -0.4504
 7996SOL    HW135447   1.170   1.672  15.316 -0.5249 -0.3775  0.0044
 7996SOL    HW235448   1.043   1.702  15.255 -0.7098 -0.0980  0.2575
 7997SOL     OW35449   2.550   0.353   2.878  0.3657 -0.5004 -0.2738
 7997SOL    HW135450   2.491   0.279   2.892  0.8162 -0.8993 -0.5242
 7997SOL    HW235451   2.621   0.317   2.825  2.0344  0.9166  0.9767
 7998SOL     OW35452   0.276   2.174  16.086  0.4935  0.0411  0.6261
 7998SOL    HW135453   0.343   2.142  16.146  0.8972 -0.3692 -0.0443
 7998SOL    HW235454   0.324   2.242  16.038  0.9679 -1.2027 -0.6582
 7999SOL     OW35455   4.416   0.526   7.280  0.0619 -0.8261  0.1302
 7999SOL    HW135456   4.409   0.586   7.206  1.9770  0.0517  0.6531
 7999SOL    HW235457   4.511   0.522   7.291  0.4147  0.3022 -2.4718
 8000SOL     OW35458   1.172   3.496   6.822  0.1624 -0.4627 -0.5805
 8000SOL    HW135459   1.096   3.538   6.781 -0.9455 -0.9574  1.0109
 8000SOL    HW235460   1.245   3.551   6.791 -1.3031  2.7084  1.6067
 8001SOL     OW35461   3.659   3.921  10.574 -0.4933  0.0067  0.2070
 8001SOL    HW135462   3.686   3.844  10.623 -1.7210 -1.4798 -1.4392
 8001SOL    HW235463   3.628   3.975  10.647  0.7047 -0.7987  1.3048
 8002SOL     OW35464   3.861   1.693   1.240 -0.0601  0.1091 -0.0413
 8002SOL    HW135465   3.915   1.712   1.163  0.7644 -1.6276  0.1160
 8002SOL    HW235466   3.797   1.634   1.200  0.9628 -1.4856  0.6985
 8003SOL     OW35467   1.450   2.874   3.297 -0.6853  0.0181 -0.5121
 8003SOL    HW135468   1.511   2.930   3.250 -2.1531  0.8395 -1.4653
 8003SOL    HW235469   1.455   2.915   3.383 -0.7130  0.0889 -0.5443
 8004SOL     OW35470   1.604   2.363   1.230 -0.3121  0.5209 -0.4070
 8004SOL    HW135471   1.575   2.283   1.185  0.2461 -0.2931  0.6847
 8004SOL    HW235472   1.678   2.341   1.287 -0.6672 -2.9887 -1.2720
 8005SOL     OW35473   4.432   0.282   2.666 -0.1839 -0.2340 -0.3564
 8005SOL    HW135474   4.419   0.212   2.730 -1.9084  0.1298 -0.2964
 8005SOL    HW235475   4.527   0.278   2.672 -0.1981  0.0743  0.0803
 8006SOL     OW35476   2.132   2.931   1.147 -0.0610 -0.6104 -0.1627
 8006SOL    HW135477   2.068   2.938   1.218  0.1684 -0.8512  0.0657
 8006SOL    HW235478   2.074   2.889   1.084 -0.9515 -0.6543  0.6796
 8007SOL     OW35479   1.718   2.086   3.863 -0.1646 -0.4006  0.1451
 8007SOL    HW135480   1.791   2.035   3.828  0.1515  0.4946 -0.5171
 8007SOL    HW235481   1.755   2.175   3.867 -0.7662 -0.1346 -0.3720
 8008SOL     OW35482   1.181   3.981   4.739  0.4448 -0.4250 -0.4562
 8008SOL    HW135483   1.115   3.948   4.800  0.5841  0.8489  0.3805
 8008SOL    HW235484   1.256   3.925   4.759  0.3101 -0.4542 -0.0393
 8009SOL     OW35485   3.352   3.864   6.262 -0.1250  0.2898 -0.1317
 8009SOL    HW135486   3.282   3.841   6.202 -0.2080 -1.0851  0.5039
 8009SOL    HW235487   3.367   3.958   6.250  0.4798  0.3830  1.3716
 8010SOL     OW35488   4.071   1.413  11.336  0.6475 -0.0468 -0.3910
 8010SOL    HW135489   3.979   1.436  11.353  0.2549  0.2864 -3.0030
 8010SOL    HW235490   4.112   1.499  11.328  1.6873 -0.1845  3.4535
 8011SOL     OW35491   0.749   0.615   9.067 -0.2513  0.2067  0.5482
 8011SOL    HW135492   0.683   0.596   9.135 -0.6325  0.4122  0.2350
 8011SOL    HW235493   0.733   0.558   8.992 -0.9240 -1.0510  1.6432
 8012SOL     OW35494   1.514   1.084   8.388 -0.2150 -0.1761 -0.9214
 8012SOL    HW135495   1.450   1.150   8.360 -0.4132  0.0311  0.0184
 8012SOL    HW235496   1.593   1.107   8.340  0.9823  1.2754  1.7281
 8013SOL     OW35497   1.889   4.194   6.914 -0.0880  0.4650 -0.2992
 8013SOL    HW135498   1.983   4.212   6.917 -0.6391  3.2220  0.1832
 8013SOL    HW235499   1.864   4.218   7.004  0.8637 -0.5745  0.2512
 8014SOL     OW35500   0.514   2.324   2.264 -0.0150 -0.6200  0.3331
 8014SOL    HW135501   0.574   2.366   2.202 -1.2848  0.4167 -0.1863
 8014SOL    HW235502   0.513   2.235   2.228 -1.3782 -1.0748  1.5164
 8015SOL     OW35503   0.160   0.691  15.135 -0.3535  0.0592  0.3152
 8015SOL    HW135504   0.079   0.649  15.107 -0.3050  2.4136 -3.3874
 8015SOL    HW235505   0.131   0.774  15.173 -1.9828 -1.1246  1.6829
 8016SOL     OW35506   3.262   3.459   8.444 -0.4234  0.1620 -0.4659
 8016SOL    HW135507   3.319   3.388   8.473  0.1315  0.7437 -0.1409
 8016SOL    HW235508   3.197   3.416   8.388 -0.4422 -1.6156  0.9150
 8017SOL     OW35509   0.999   1.462   7.962 -0.1610 -0.3951  0.3993
 8017SOL    HW135510   1.033   1.525   7.899 -2.9669  0.0900 -0.6486
 8017SOL    HW235511   0.911   1.447   7.926 -0.0548  0.7281 -0.3419
 8018SOL     OW35512   1.712   3.240   5.546  0.0914 -0.2686 -0.3945
 8018SOL    HW135513   1.724   3.285   5.463  1.0714 -1.3791 -0.8560
 8018SOL    HW235514   1.616   3.243   5.552  0.0182 -2.8678 -0.3126
 8019SOL     OW35515   0.090   2.757  11.677 -0.8311  0.1470  0.2755
 8019SOL    HW135516   0.064   2.705  11.602  1.7139 -0.2353 -0.3404
 8019SOL    HW235517   0.070   2.848  11.653 -1.5693  0.1607  0.9253
 8020SOL     OW35518   3.774   3.028   8.429 -0.5066  0.5789  0.8108
 8020SOL    HW135519   3.711   2.970   8.385  2.4195  0.6125 -3.4458
 8020SOL    HW235520   3.854   3.004   8.382 -2.2138 -0.4556 -1.5696
 8021SOL     OW35521   2.869   4.473   9.704  0.4817 -0.2622  0.4084
 8021SOL    HW135522   2.783   4.431   9.701  0.4036  0.1104 -1.9263
 8021SOL    HW235523   2.903   4.443   9.789  1.8892 -1.8572 -0.7268
 8022SOL     OW35524   2.852   1.042   1.908  0.0038  0.7773 -0.7035
 8022SOL    HW135525   2.919   1.111   1.905  0.8339 -0.0674 -1.4654
 8022SOL    HW235526   2.845   1.027   2.002  0.2967  0.1162 -0.7862
 8023SOL     OW35527   2.434   2.202   0.180 -0.2673  0.4930  0.0811
 8023SOL    HW135528   2.359   2.181   0.237  0.0008 -0.5415  0.0597
 8023SOL    HW235529   2.398   2.182   0.094  0.9354  0.3088 -0.3679
 8024SOL     OW35530   2.040   1.093  16.383 -0.3420  1.3983 -0.2603
 8024SOL    HW135531   2.111   1.028  16.378 -0.0337  1.6676  0.6922
 8024SOL    HW235532   2.084   1.176  16.402 -0.5192  1.4442 -0.0502
 8025SOL     OW35533   1.132   3.034  12.946 -0.3990 -0.0753  0.4409
 8025SOL    HW135534   1.186   3.040  13.025 -0.7366  0.5570  0.6248
 8025SOL    HW235535   1.055   3.089  12.957 -2.3223 -3.3164  3.1186
 8026SOL     OW35536   1.427   1.530  13.355 -0.3938  0.0809 -0.3812
 8026SOL    HW135537   1.392   1.616  13.379 -1.4340 -0.4687  0.0827
 8026SOL    HW235538   1.382   1.473  13.418 -1.8379  0.1739 -1.3298
 8027SOL     OW35539   1.917   2.419   9.612  0.1055 -0.0491 -0.2611
 8027SOL    HW135540   1.972   2.488   9.647  0.4936  0.0142 -0.9810
 8027SOL    HW235541   1.932   2.349   9.675 -1.2788  1.3345  1.5942
 8028SOL     OW35542   1.264   1.807  12.366 -0.2737 -0.0634 -0.1943
 8028SOL    HW135543   1.172   1.834  12.354 -1.2253 -2.4746  1.7634
 8028SOL    HW235544   1.284   1.801  12.272 -0.1110 -3.4882  0.0660
 8029SOL     OW35545   0.758   2.636  16.496  0.4407  0.6799 -0.3603
 8029SOL    HW135546   0.715   2.571  16.552  0.3797 -0.5590 -1.8485
 8029SOL    HW235547   0.831   2.588  16.456  1.8079 -0.0414  2.9887
 8030SOL     OW35548   1.501   4.112   5.465  0.4959 -0.1807  0.4017
 8030SOL    HW135549   1.516   4.195   5.510 -1.0460  0.3504 -0.0871
 8030SOL    HW235550   1.409   4.096   5.483  0.3567  0.6102  0.3992
 8031SOL     OW35551   2.022   1.423   7.477 -0.1003 -0.0980  0.0408
 8031SOL    HW135552   2.018   1.461   7.389  0.1474  0.2538  0.1798
 8031SOL    HW235553   1.980   1.337   7.468  1.2993 -0.5812 -1.7748
 8032SOL     OW35554   2.367   3.415   9.387 -0.0031  1.1117 -0.0467
 8032SOL    HW135555   2.427   3.437   9.316 -0.7880 -1.4696 -1.5147
 8032SOL    HW235556   2.302   3.485   9.381 -1.4305 -0.2648 -0.6036
 8033SOL     OW35557   0.574   0.518   7.845  0.7357  0.5016  0.3928
 8033SOL    HW135558   0.604   0.528   7.755 -2.2526 -0.5661 -0.7153
 8033SOL    HW235559   0.586   0.606   7.881  1.5348 -0.2506  1.9430
 8034SOL     OW35560   0.091   2.006  14.935 -0.1882 -0.0210  0.0583
 8034SOL    HW135561   0.137   2.059  14.870 -0.5184 -1.0201 -0.9943
 8034SOL    HW235562   0.066   2.067  15.003  0.0155  0.9951 -0.7762
 8035SOL     OW35563   4.046   2.076  15.981  0.1738 -0.1227 -0.0483
 8035SOL    HW135564   4.000   1.991  15.974 -0.8477  0.4012  0.2488
 8035SOL    HW235565   4.123   2.054  15.929  0.6879  1.1255  0.2118
 8036SOL     OW35566   3.570   2.677  14.264 -0.1055  0.1437 -0.4063
 8036SOL    HW135567   3.655   2.637  14.247  0.7049  0.7767  2.1686
 8036SOL    HW235568   3.517   2.629  14.201  0.0530 -1.7551  0.8971
 8037SOL     OW35569   0.950   3.011   7.605  0.5285 -0.2225 -0.2075
 8037SOL    HW135570   0.881   2.947   7.589 -0.5560  0.9285 -0.1849
 8037SOL    HW235571   0.922   3.045   7.690  2.6107 -2.1653  1.2527
 8038SOL     OW35572   3.867   1.735   6.005 -0.1443  0.2184 -0.3840
 8038SOL    HW135573   3.811   1.701   6.074 -2.1445 -0.0837 -2.1668
 8038SOL    HW235574   3.842   1.828   6.006 -0.0205  0.2521 -0.4572
 8039SOL     OW35575   4.435   1.832  10.748 -0.3426  0.2571  0.2851
 8039SOL    HW135576   4.421   1.871  10.662 -2.4733 -1.6911 -0.2578
 8039SOL    HW235577   4.346   1.802  10.766  0.1900 -0.6657  1.4358
 8040SOL     OW35578   3.609   4.508   7.461  0.0246  0.1535  0.7635
 8040SOL    HW135579   3.645   4.491   7.548  0.5377  0.8054  0.6804
 8040SOL    HW235580   3.573   4.428   7.423  1.1269  0.4663 -0.9306
 8041SOL     OW35581   3.618   1.917   2.629  0.2192 -0.0500 -0.2751
 8041SOL    HW135582   3.610   1.957   2.716  2.1204  1.0401 -0.6051
 8041SOL    HW235583   3.713   1.925   2.627  0.3898 -1.8247  0.8475
 8042SOL     OW35584   4.536   4.039  12.944  0.4222 -0.1919 -0.4383
 8042SOL    HW135585   4.624   4.041  12.982  0.9018 -0.3330 -1.5317
 8042SOL    HW235586   4.561   4.026  12.852 -1.2371  0.7448 -1.0194
 8043SOL     OW35587   3.912   4.035   5.172 -0.5482  0.6747 -0.4238
 8043SOL    HW135588   3.847   4.035   5.242  1.2011  0.2741  1.2044
 8043SOL    HW235589   3.945   4.125   5.178  0.6428  0.1110  1.3053
 8044SOL     OW35590   0.391   3.850   8.575  0.0477  0.0262  0.4602
 8044SOL    HW135591   0.448   3.775   8.560 -0.9566 -0.3724 -1.3888
 8044SOL    HW235592   0.316   3.810   8.531  1.1380 -1.1208 -0.3664
 8045SOL     OW35593   4.147   1.861  15.163 -0.0702  0.5174 -0.2099
 8045SOL    HW135594   4.193   1.778  15.153 -0.1454  0.6455 -1.6772
 8045SOL    HW235595   4.143   1.875  15.068 -0.0022  0.2129 -0.2574
 8046SOL     OW35596   2.698   1.642   0.177  0.6136 -0.0590  0.1508
 8046SOL    HW135597   2.643   1.628   0.254  1.0993 -0.6451  0.3874
 8046SOL    HW235598   2.736   1.726   0.201  0.3332 -0.1150  0.8000
 8047SOL     OW35599   1.491   3.809   3.335  0.2951  0.0676  0.6749
 8047SOL    HW135600   1.445   3.891   3.319 -0.4763 -0.4436  0.2890
 8047SOL    HW235601   1.567   3.825   3.279 -0.5316  1.2698 -0.1110
 8048SOL     OW35602   4.297   1.852  16.418  0.3007 -0.2273  0.0104
 8048SOL    HW135603   4.302   1.929  16.361 -3.3292  1.0656  1.4363
 8048SOL    HW235604   4.202   1.845  16.412  0.2103 -0.7945  2.0775
 8049SOL     OW35605   1.951   2.335   8.152  0.0506 -0.5368  0.3286
 8049SOL    HW135606   1.951   2.400   8.222  0.8294 -0.4878  0.2834
 8049SOL    HW235607   1.909   2.380   8.079 -1.6264 -3.0537 -0.2851
 8050SOL     OW35608   2.676   1.619   4.528 -0.1102  0.3151  0.0554
 8050SOL    HW135609   2.582   1.611   4.542 -0.1705 -1.8049 -1.6255
 8050SOL    HW235610   2.693   1.657   4.614 -0.7040  1.0586 -0.1485
 8051SOL     OW35611   4.527   1.875   9.337  0.3533 -0.0062  0.1249
 8051SOL    HW135612   4.565   1.791   9.311  3.1690  1.1132  0.6001
 8051SOL    HW235613   4.595   1.905   9.398  0.8298 -0.5890 -0.1094
 8052SOL     OW35614   3.756   1.596  14.979 -0.1844 -0.3153 -0.1330
 8052SOL    HW135615   3.738   1.677  15.026  2.2684  1.3909 -2.1305
 8052SOL    HW235616   3.768   1.630  14.890  2.6230 -0.5558  0.1704
 8053SOL     OW35617   2.353   0.890   5.270 -0.7280 -0.0832  0.0763
 8053SOL    HW135618   2.422   0.951   5.245 -3.2840  2.9414  0.3386
 8053SOL    HW235619   2.392   0.836   5.339 -2.5610 -0.3953  0.8973
 8054SOL     OW35620   2.651   0.804  12.050  0.4107 -0.2801 -0.4458
 8054SOL    HW135621   2.589   0.747  12.004 -1.7618  0.5196  1.4818
 8054SOL    HW235622   2.607   0.806  12.136  2.0682  0.1027  0.3959
 8055SOL     OW35623   1.719   0.468   2.934  0.2442 -0.4323 -0.1069
 8055SOL    HW135624   1.707   0.507   2.848  1.4082 -2.7816 -1.3350
 8055SOL    HW235625   1.731   0.543   2.992 -1.9847  0.6974 -1.1298
 8056SOL     OW35626   4.336   3.707  14.487  0.7507 -0.1298  0.1611
 8056SOL    HW135627   4.247   3.743  14.483  1.0486  0.8410  2.4471
 8056SOL    HW235628   4.351   3.707  14.582 -1.6561 -2.9975  0.5537
 8057SOL     OW35629   2.347   2.041  14.599  0.5241 -0.1859 -0.5189
 8057SOL    HW135630   2.272   1.982  14.602 -1.1926  2.0049 -0.5430
 8057SOL    HW235631   2.348   2.054  14.504 -0.2908  0.1409 -0.4830
 8058SOL     OW35632   0.629   0.689   5.386 -0.1805  0.0768 -0.1308
 8058SOL    HW135633   0.536   0.711   5.376 -0.4335 -1.2341 -0.7436
 8058SOL    HW235634   0.628   0.606   5.433  0.5446 -1.8998 -3.5677
 8059SOL     OW35635   4.327   2.207   0.752  0.4196 -0.0025 -0.1779
 8059SOL    HW135636   4.420   2.205   0.774 -0.1703  0.9463  2.4914
 8059SOL    HW235637   4.304   2.115   0.768  1.2735  0.1591  2.0065
 8060SOL     OW35638   3.729   0.756   0.623  0.4307  0.2821  1.1113
 8060SOL    HW135639   3.780   0.829   0.658 -0.2626  0.0379  2.6186
 8060SOL    HW235640   3.703   0.699   0.695  1.9799 -1.1986  0.4906
 8061SOL     OW35641   4.092   3.946  17.091 -0.2112 -0.0838  0.0059
 8061SOL    HW135642   4.155   3.884  17.129 -0.9559 -1.0189 -0.2742
 8061SOL    HW235643   4.129   4.029  17.122  0.1467  1.4345 -4.4437
 8062SOL     OW35644   1.091   0.347   4.303 -0.0620  0.1397 -0.6847
 8062SOL    HW135645   1.013   0.292   4.289  0.6789 -1.2224  0.5044
 8062SOL    HW235646   1.091   0.379   4.213 -0.3505  0.8506 -0.4295
 8063SOL     OW35647   3.679   2.917   1.183  0.2556  0.0809 -0.3124
 8063SOL    HW135648   3.632   2.998   1.205 -0.3883 -0.6393  0.9673
 8063SOL    HW235649   3.618   2.880   1.120 -0.1554  0.8687 -0.3792
 8064SOL     OW35650   0.492   3.582   2.853 -0.0444  0.0754 -0.1352
 8064SOL    HW135651   0.508   3.655   2.793  0.4061  1.3976  1.5938
 8064SOL    HW235652   0.575   3.535   2.842  0.4240  0.7304  0.6027
 8065SOL     OW35653   3.518   2.820   3.391 -0.3835  0.0068  0.3890
 8065SOL    HW135654   3.538   2.827   3.298 -3.7602 -0.6009 -0.4026
 8065SOL    HW235655   3.575   2.749   3.421  0.4794  0.9074  0.8667
 8066SOL     OW35656   2.524   1.322   3.466 -0.4598 -0.1451 -0.1556
 8066SOL    HW135657   2.604   1.374   3.478 -0.7281 -0.1906  1.7552
 8066SOL    HW235658   2.559   1.247   3.417  2.3072  1.1979 -0.2552
 8067SOL     OW35659   1.317   1.586   0.599  0.8619  0.2904 -0.3530
 8067SOL    HW135660   1.273   1.501   0.605  2.0447 -0.3979 -1.3545
 8067SOL    HW235661   1.249   1.646   0.630 -2.1562 -3.9663  1.3219
 8068SOL     OW35662   3.947   0.867   8.575 -0.0307 -0.6272  0.2712
 8068SOL    HW135663   3.989   0.941   8.617 -1.6372 -0.1824  1.0940
 8068SOL    HW235664   4.019   0.847   8.515  0.4448 -0.1377  0.6764
 8069SOL     OW35665   1.530   3.099  13.834 -0.0024  0.7744  0.1187
 8069SOL    HW135666   1.521   3.151  13.914 -2.4299 -0.8582  0.8855
 8069SOL    HW235667   1.593   3.143  13.777  1.8132 -1.5059  0.3708
 8070SOL     OW35668   2.255   3.888   5.583 -0.6300  0.0704 -0.4768
 8070SOL    HW135669   2.193   3.821   5.554  1.2281 -1.3483 -1.2097
 8070SOL    HW235670   2.199   3.965   5.587 -0.4866  0.2614 -1.9181
 8071SOL     OW35671   2.333   2.164  14.833  0.0273 -0.1591 -0.8575
 8071SOL    HW135672   2.413   2.217  14.829  1.0713 -1.6480  0.5006
 8071SOL    HW235673   2.334   2.117  14.750  1.7683 -0.2671 -0.7852
 8072SOL     OW35674   2.531   0.552   8.026 -0.0816  0.0435  0.0785
 8072SOL    HW135675   2.539   0.645   8.005  1.5280 -0.3756 -1.1229
 8072SOL    HW235676   2.436   0.546   8.015  0.0284  0.6840 -1.3156
 8073SOL     OW35677   3.935   4.084   6.356 -0.2414 -0.8644  0.6191
 8073SOL    HW135678   4.026   4.055   6.345  0.1624  0.5996 -0.0625
 8073SOL    HW235679   3.887   4.009   6.323  1.8461 -1.8075 -0.2690
 8074SOL     OW35680   3.418   2.356  11.340  0.4675 -0.1973  0.1874
 8074SOL    HW135681   3.335   2.402  11.346  0.8328  0.4316  0.4261
 8074SOL    HW235682   3.389   2.267  11.364 -0.6000 -0.3786 -1.8132
 8075SOL     OW35683   2.211   1.926   4.071 -0.5286 -0.2278 -0.4520
 8075SOL    HW135684   2.180   2.012   4.040  0.4913  0.5282  0.6129
 8075SOL    HW235685   2.277   1.903   4.005  0.6868  0.8083  0.4063
 8076SOL     OW35686   2.115   2.522   5.114  0.4043  0.0258  0.0894
 8076SOL    HW135687   2.054   2.588   5.146  1.0124  0.7366 -0.2009
 8076SOL    HW235688   2.052   2.457   5.084 -1.5527  2.5467 -1.2872
 8077SOL     OW35689   2.751   0.622   8.230  0.4176  0.1026  0.1035
 8077SOL    HW135690   2.755   0.716   8.243 -0.5989  0.2980 -0.9269
 8077SOL    HW235691   2.672   0.610   8.176 -0.7450  1.8135  1.4214
 8078SOL     OW35692   3.670   1.961   2.919  0.2638  0.2713  0.5344
 8078SOL    HW135693   3.671   2.010   3.001  0.0503 -0.7730  1.1551
 8078SOL    HW235694   3.743   1.900   2.935 -0.6542 -1.1731 -0.8017
 8079SOL     OW35695   1.638   4.015   8.594 -0.8334  0.5410 -0.3100
 8079SOL    HW135696   1.547   4.017   8.562 -0.6502  0.0079 -0.8672
 8079SOL    HW235697   1.613   4.014   8.686  0.5910  0.8744  0.0800
 8080SOL     OW35698   3.575   1.695  17.247 -0.2302  0.0187 -0.3648
 8080SOL    HW135699   3.663   1.689  17.208 -0.1711  1.0793 -0.4121
 8080SOL    HW235700   3.576   1.791  17.241  1.1738 -0.1166 -2.2414
 8081SOL     OW35701   1.251   3.479   3.998 -0.2282 -0.5490 -0.5850
 8081SOL    HW135702   1.330   3.531   4.012 -0.7560  0.5543 -1.7172
 8081SOL    HW235703   1.282   3.394   4.029 -3.1149 -1.3557  0.1347
 8082SOL     OW35704   1.005   4.263  17.243 -0.6076  0.3752  0.2631
 8082SOL    HW135705   1.073   4.196  17.254 -2.4383 -1.2279  1.9720
 8082SOL    HW235706   1.012   4.315  17.323  0.1490  1.1041 -0.2868
 8083SOL     OW35707   0.956   1.193  17.312  0.1871  0.5030 -0.0323
 8083SOL    HW135708   0.990   1.222  17.227  1.7800  0.5586  0.6171
 8083SOL    HW235709   0.871   1.167  17.278 -0.2231  0.5052  1.0041
 8084SOL     OW35710   1.153   2.660   5.248 -0.5772 -0.0367  0.3390
 8084SOL    HW135711   1.058   2.673   5.249 -0.7569 -1.3808  1.4901
 8084SOL    HW235712   1.178   2.753   5.248  2.3396 -0.8304 -0.7412
 8085SOL     OW35713   3.098   4.414   7.870 -0.1772 -0.0166 -0.2028
 8085SOL    HW135714   3.168   4.372   7.919  0.3826  2.2468  0.9130
 8085SOL    HW235715   3.037   4.406   7.943  1.1995 -1.4532  0.7706
 8086SOL     OW35716   0.444   2.930   8.635  0.1502 -0.3285  0.1490
 8086SOL    HW135717   0.526   2.942   8.683  0.1800 -1.3000  0.3312
 8086SOL    HW235718   0.451   3.018   8.597 -0.9013  0.0375  0.7947
 8087SOL     OW35719   2.345   4.377  10.685  0.0194 -0.1710  0.1885
 8087SOL    HW135720   2.399   4.408  10.757 -0.3743  0.9142  0.0214
 8087SOL    HW235721   2.330   4.461  10.641  0.3651 -0.3309 -0.2326
 8088SOL     OW35722   2.500   3.150  17.067 -0.5003  0.4249 -0.1274
 8088SOL    HW135723   2.409   3.145  17.094  0.1144  1.7686  2.1918
 8088SOL    HW235724   2.549   3.098  17.130 -1.6359  0.7299  1.0055
 8089SOL     OW35725   0.459   4.171   6.919  0.7298 -0.3021  0.1473
 8089SOL    HW135726   0.522   4.103   6.943 -0.1453 -0.8415  0.9192
 8089SOL    HW235727   0.426   4.128   6.840  2.0105 -1.1379  0.0683
 8090SOL     OW35728   0.189   0.447   1.196 -0.1965  0.0532 -0.1086
 8090SOL    HW135729   0.234   0.503   1.260  0.5937 -0.9138  0.1752
 8090SOL    HW235730   0.166   0.381   1.261 -0.7492  0.1778 -0.1809
 8091SOL     OW35731   0.487   4.035   9.519  0.3883  0.0553 -0.1260
 8091SOL    HW135732   0.524   3.949   9.539  2.6951  0.8617 -0.9278
 8091SOL    HW235733   0.442   4.015   9.437 -0.8440 -0.3579  0.6575
 8092SOL     OW35734   2.609   2.893  11.089  0.5165  0.0564 -0.2163
 8092SOL    HW135735   2.609   2.869  11.181 -1.8266  0.3198 -0.1646
 8092SOL    HW235736   2.637   2.984  11.090  1.0018 -0.0929  0.0396
 8093SOL     OW35737   3.588   4.200   6.082  0.1284 -0.3452  0.2583
 8093SOL    HW135738   3.570   4.292   6.102 -2.3288 -0.8557  0.4485
 8093SOL    HW235739   3.554   4.192   5.993 -0.2532  0.1254  0.3602
 8094SOL     OW35740   0.647   2.038   4.894 -0.0609 -0.4264  0.7746
 8094SOL    HW135741   0.630   1.988   4.974  0.0271  0.4525  1.3423
 8094SOL    HW235742   0.716   2.097   4.924  1.9921 -2.1912 -0.4803
 8095SOL     OW35743   0.104   2.881  12.641 -0.5917 -0.2849 -0.0827
 8095SOL    HW135744   0.031   2.863  12.701  0.9516 -1.1551  1.5046
 8095SOL    HW235745   0.091   2.803  12.587  0.3503  2.7303 -4.6633
 8096SOL     OW35746   4.526   1.438   1.165 -0.6995  0.0724  0.0595
 8096SOL    HW135747   4.555   1.530   1.168 -1.4507  0.2412  2.1609
 8096SOL    HW235748   4.613   1.399   1.156 -1.6490 -1.4788 -2.4549
 8097SOL     OW35749   0.526   0.502  14.610 -0.0196  0.3456 -0.1883
 8097SOL    HW135750   0.565   0.493  14.698  0.1167 -1.1825 -0.3965
 8097SOL    HW235751   0.575   0.577  14.577  2.6723 -1.6159 -0.7109
 8098SOL     OW35752   0.098   3.064   2.697  0.0262 -0.0102 -0.3036
 8098SOL    HW135753   0.187   3.093   2.713  0.6174 -1.9434 -0.0840
 8098SOL    HW235754   0.058   3.133   2.644 -1.5970 -0.7455 -0.0593
 8099SOL     OW35755   1.054   2.557  12.070 -0.9580  0.1736  0.1304
 8099SOL    HW135756   1.002   2.584  12.146 -0.8012  0.1545  0.2441
 8099SOL    HW235757   1.144   2.579  12.093 -1.7429 -0.0026  3.3374
 8100SOL     OW35758   2.221   0.066   3.781 -0.4489  0.0382 -0.0822
 8100SOL    HW135759   2.316   0.057   3.774 -0.5327 -0.2471 -0.7743
 8100SOL    HW235760   2.198   4.694   3.772  0.0685 -0.0076 -0.8946
 8101SOL     OW35761   2.976   2.355   7.967  0.3576  0.2333  0.8654
 8101SOL    HW135762   3.068   2.376   7.985  0.7538  0.6987 -1.6712
 8101SOL    HW235763   2.949   2.321   8.052 -0.0788  1.0414  1.0394
 8102SOL     OW35764   4.539   4.065   3.258  0.1329 -0.1099 -0.8888
 8102SOL    HW135765   4.571   3.980   3.289  0.5639  0.3660 -0.0242
 8102SOL    HW235766   4.558   4.129   3.327  1.4372  0.0992 -1.4361
 8103SOL     OW35767   1.512   1.626   4.467 -0.0043  0.4891 -0.0285
 8103SOL    HW135768   1.564   1.548   4.487 -1.1417  0.3079  2.1443
 8103SOL    HW235769   1.431   1.592   4.429  0.6042  1.7590 -2.4780
 8104SOL     OW35770   1.731   2.046  16.405  0.2387  0.3400 -0.5569
 8104SOL    HW135771   1.681   2.026  16.326 -1.7532  0.4084  0.6917
 8104SOL    HW235772   1.702   1.985  16.473  1.6252 -1.0970 -1.2520
 8105SOL     OW35773   2.430   0.588   4.324  0.1787  0.2032  0.2325
 8105SOL    HW135774   2.402   0.652   4.259  0.0106 -2.0135 -1.8451
 8105SOL    HW235775   2.404   0.643   4.398 -0.3560  1.9687 -1.2880
 8106SOL     OW35776   0.975   1.331  11.469 -0.4370  0.0569  0.1212
 8106SOL    HW135777   0.980   1.367  11.380  0.0882 -0.7206 -0.1695
 8106SOL    HW235778   0.897   1.276  11.473  0.2696 -1.2556 -3.6551
 8107SOL     OW35779   1.858   4.245   6.496 -0.4056  0.3253  0.2436
 8107SOL    HW135780   1.776   4.213   6.534 -1.9525  2.1410 -1.5204
 8107SOL    HW235781   1.873   4.163   6.449  1.6770  1.1769 -0.5484
 8108SOL     OW35782   4.211   4.395   3.330  0.3103 -0.2373  0.0082
 8108SOL    HW135783   4.216   4.315   3.277 -1.2362 -1.0995  1.1810
 8108SOL    HW235784   4.147   4.443   3.278 -1.4264 -0.6102  1.8379
 8109SOL     OW35785   3.837   3.165   7.098  0.2565  0.1599  0.7068
 8109SOL    HW135786   3.870   3.164   7.188  0.9651 -1.6595  0.4372
 8109SOL    HW235787   3.749   3.126   7.098  0.6742 -0.7802  0.2272
 8110SOL     OW35788   3.560   2.391  12.263 -0.1757  0.3272  0.0291
 8110SOL    HW135789   3.520   2.346  12.189 -0.0564 -0.3992  0.4075
 8110SOL    HW235790   3.654   2.381  12.245  0.0886 -0.0630  1.5942
 8111SOL     OW35791   3.789   0.926  17.322  0.1304  0.0913 -0.3060
 8111SOL    HW135792   3.761   0.841  17.288  0.4227 -0.3559  0.5879
 8111SOL    HW235793   3.884   0.921  17.312 -0.2078 -4.1142 -1.5551
 8112SOL     OW35794   4.282   1.701   8.629  0.2204  0.3253 -0.0767
 8112SOL    HW135795   4.228   1.663   8.698  1.0330 -2.1789 -0.8299
 8112SOL    HW235796   4.274   1.793   8.656  0.3318  0.5688 -0.8849
 8113SOL     OW35797   2.224   0.730   2.116 -0.0066  0.6007 -0.0114
 8113SOL    HW135798   2.164   0.799   2.086  0.4403  1.3736  0.9027
 8113SOL    HW235799   2.166   0.656   2.130 -0.9623  1.6583  1.5962
 8114SOL     OW35800   1.481   1.090   6.458 -0.7059 -0.4131  0.0939
 8114SOL    HW135801   1.576   1.087   6.456 -0.6976  0.1167 -0.1839
 8114SOL    HW235802   1.472   1.140   6.540 -1.4470  1.0126 -0.8540
 8115SOL     OW35803   2.170   2.910   0.305 -0.4489 -0.2242  0.0701
 8115SOL    HW135804   2.123   2.943   0.228 -0.8005 -2.6790 -0.7718
 8115SOL    HW235805   2.168   2.814   0.299 -0.5194  0.0252 -4.4285
 8116SOL     OW35806   2.380   2.084   9.381  0.1582 -0.0819  0.2506
 8116SOL    HW135807   2.340   2.137   9.450  2.1103  0.8218  0.6720
 8116SOL    HW235808   2.382   1.994   9.411  1.6857 -0.0194  0.3282
 8117SOL     OW35809   3.665   2.883   0.163 -0.1778 -0.0015  0.4889
 8117SOL    HW135810   3.697   2.819   0.227 -0.1226 -2.4092 -1.9297
 8117SOL    HW235811   3.683   2.962   0.214  0.3466  1.7682 -2.4688
 8118SOL     OW35812   1.206   4.495  13.868  0.4506 -0.0106  0.6250
 8118SOL    HW135813   1.289   4.464  13.831 -0.1356 -1.9343  0.9096
 8118SOL    HW235814   1.147   4.431  13.829  1.5062  0.5112 -1.8322
 8119SOL     OW35815   0.578   0.429   5.168  0.1460 -0.2902 -0.1950
 8119SOL    HW135816   0.647   0.385   5.118 -0.3675 -0.3791 -0.8330
 8119SOL    HW235817   0.568   0.511   5.118  1.5513  0.5026  0.8412
 8120SOL     OW35818   3.157   2.149   5.859  0.5629 -0.3201 -0.2533
 8120SOL    HW135819   3.062   2.149   5.869  0.6187  0.1158  0.3126
 8120SOL    HW235820   3.180   2.198   5.938  0.7175  1.4043 -1.3761
 8121SOL     OW35821   0.030   1.960   8.112  0.3801  0.0595  0.1528
 8121SOL    HW135822   0.073   1.889   8.160  0.3009 -1.2468 -1.7455
 8121SOL    HW235823   0.108   2.014   8.102 -0.1111  0.3236 -2.3129
 8122SOL     OW35824   2.703   4.177   3.845  0.0217  0.0599  0.2149
 8122SOL    HW135825   2.705   4.254   3.901 -0.9203 -0.0519  0.3975
 8122SOL    HW235826   2.798   4.164   3.840  0.3303  2.6505 -0.9346
 8123SOL     OW35827   2.049   4.367   1.440 -0.6461  0.0104  0.1955
 8123SOL    HW135828   1.984   4.352   1.371 -0.3518 -0.1249 -0.0538
 8123SOL    HW235829   2.044   4.284   1.487 -0.1318  0.4303  0.9896
 8124SOL     OW35830   1.106   2.659   9.238  0.1009 -0.0633 -0.0379
 8124SOL    HW135831   1.011   2.648   9.241 -0.1062  2.2544  1.6116
 8124SOL    HW235832   1.128   2.598   9.167 -0.3488  0.0335 -0.2572
 8125SOL     OW35833   1.926   1.295  12.157 -1.0390  0.0726 -0.6859
 8125SOL    HW135834   1.848   1.326  12.111 -1.0984 -0.8072 -1.1977
 8125SOL    HW235835   1.997   1.341  12.112 -1.7366  0.2764 -1.5799
 8126SOL     OW35836   2.034   3.403  16.821 -0.7752 -0.0149 -0.0237
 8126SOL    HW135837   1.942   3.398  16.797 -1.3037 -2.3870  2.3831
 8126SOL    HW235838   2.058   3.494  16.807  0.6409 -0.5449 -1.0304
 8127SOL     OW35839   3.217   3.042  14.921  0.2136  0.3822 -0.0125
 8127SOL    HW135840   3.284   2.981  14.892  0.1101 -0.2012  0.9752
 8127SOL    HW235841   3.228   3.120  14.867  1.5452 -0.0054 -0.3011
 8128SOL     OW35842   1.075   0.727   4.837  0.5998  0.5982 -0.1112
 8128SOL    HW135843   0.980   0.714   4.835  0.5084  0.8859  2.2032
 8128SOL    HW235844   1.089   0.637   4.806  2.0874  0.5632  0.6789
 8129SOL     OW35845   0.678   1.019   3.238 -0.0806  0.2579  0.0293
 8129SOL    HW135846   0.659   1.083   3.170  0.0602 -1.2231 -1.4143
 8129SOL    HW235847   0.639   0.942   3.197  0.9995 -0.2034 -0.1406
 8130SOL     OW35848   0.402   0.616   2.764 -0.1414  0.5222 -0.3185
 8130SOL    HW135849   0.445   0.544   2.809 -0.7146  1.5995  1.9532
 8130SOL    HW235850   0.310   0.589   2.757  0.3881 -1.2819 -0.1445
 8131SOL     OW35851   2.295   0.026   6.219 -0.2117 -0.0263 -0.3534
 8131SOL    HW135852   2.219   0.004   6.272 -0.4611  3.0704  0.5918
 8131SOL    HW235853   2.321   0.115   6.244 -0.6430 -0.3393  1.1799
 8132SOL     OW35854   1.546   0.926   3.249 -0.1778 -0.3490 -0.2653
 8132SOL    HW135855   1.574   0.836   3.231 -0.1276 -0.4387  0.2568
 8132SOL    HW235856   1.548   0.921   3.344  3.3483  0.5620 -0.2850
 8133SOL     OW35857   4.589   2.423   9.782 -0.6069  0.6209  0.4904
 8133SOL    HW135858   4.567   2.338   9.743  0.0398  1.4145 -1.5957
 8133SOL    HW235859   4.672   2.432   9.735 -0.3075 -0.7651  0.7306
 8134SOL     OW35860   2.146   4.704   8.639  0.4180 -0.1522 -0.0211
 8134SOL    HW135861   2.167   4.630   8.696  1.9810  1.6573  1.7445
 8134SOL    HW235862   2.068   4.667   8.598  0.1562 -0.2514  0.5636
 8135SOL     OW35863   2.009   2.250   9.422  0.3022 -0.4390 -0.1236
 8135SOL    HW135864   2.093   2.240   9.466 -0.1268 -1.9520  0.3484
 8135SOL    HW235865   1.958   2.308   9.478  0.1030  0.4344 -1.2021
 8136SOL     OW35866   4.372   0.749   7.080 -0.6500 -0.8576 -0.0535
 8136SOL    HW135867   4.312   0.824   7.073  2.0836  1.4442  1.5257
 8136SOL    HW235868   4.459   0.782   7.057 -2.0498  2.7443 -0.3394
 8137SOL     OW35869   3.387   3.699   8.568 -0.2602  0.6049 -0.4169
 8137SOL    HW135870   3.382   3.699   8.664 -0.5207 -0.5229 -0.4272
 8137SOL    HW235871   3.371   3.606   8.550 -0.2833  0.8099 -1.4130
 8138SOL     OW35872   1.412   1.651   7.595  0.0722 -0.0017  0.1731
 8138SOL    HW135873   1.427   1.649   7.690 -4.3270 -2.4715  0.8133
 8138SOL    HW235874   1.391   1.562   7.567  0.0650  0.3679 -0.9854
 8139SOL     OW35875   1.237   1.467   2.716  0.6830  0.7753  0.1938
 8139SOL    HW135876   1.309   1.427   2.764  0.5537 -0.9643 -1.0486
 8139SOL    HW235877   1.273   1.544   2.671 -1.9905  1.6326 -0.5064
 8140SOL     OW35878   0.327   4.275  16.187 -0.2696  0.1058  0.0070
 8140SOL    HW135879   0.304   4.298  16.097  2.5394  0.4041 -0.6525
 8140SOL    HW235880   0.263   4.211  16.217  0.3153 -0.5972 -0.2445
 8141SOL     OW35881   0.635   2.846   4.581 -0.5717 -0.5267 -0.1871
 8141SOL    HW135882   0.646   2.813   4.491  2.2280 -1.8801  0.6507
 8141SOL    HW235883   0.721   2.831   4.620 -0.9962 -0.4986  0.7597
 8142SOL     OW35884   1.843   3.727   5.812  0.5057  0.4645  0.0348
 8142SOL    HW135885   1.771   3.703   5.871  0.0869  0.7176 -0.3751
 8142SOL    HW235886   1.908   3.667   5.847 -0.6119 -0.2891  0.8157
 8143SOL     OW35887   4.631   0.816   6.589 -0.1957 -0.1111 -0.5599
 8143SOL    HW135888   4.632   0.909   6.565  0.5601  0.2793  0.9492
 8143SOL    HW235889   4.711   0.808   6.640  0.3095  0.5195 -1.2493
 8144SOL     OW35890   1.480   1.237  16.804  0.3366 -0.6999  0.3438
 8144SOL    HW135891   1.550   1.175  16.819  0.3948 -0.8358 -0.4683
 8144SOL    HW235892   1.519   1.279  16.727  0.3685 -0.1203  0.6747
 8145SOL     OW35893   1.655   2.021  11.974  0.2442  0.3703 -0.5913
 8145SOL    HW135894   1.635   1.928  11.965 -1.1631  0.6954 -0.7767
 8145SOL    HW235895   1.748   2.023  11.952  0.1699  0.1628 -0.9348
 8146SOL     OW35896   1.358   1.832  16.344  0.5404  0.3555 -0.4590
 8146SOL    HW135897   1.363   1.756  16.287  0.5898 -0.4663  0.6392
 8146SOL    HW235898   1.291   1.881  16.296 -0.6062  0.5985  1.3772
 8147SOL     OW35899   2.261   1.287   7.607 -0.2967 -0.1465  0.6747
 8147SOL    HW135900   2.331   1.352   7.602 -1.4461  0.9598 -1.0202
 8147SOL    HW235901   2.187   1.340   7.577  1.0981  0.7542 -1.1588
 8148SOL     OW35902   0.129   1.200   5.633 -0.2809  0.5927  0.1369
 8148SOL    HW135903   0.155   1.283   5.594  2.2975 -1.0814 -1.7647
 8148SOL    HW235904   0.177   1.133   5.583 -2.1757 -0.9520  0.3857
 8149SOL     OW35905   0.394   4.615   5.989 -0.2666 -0.0105 -0.0673
 8149SOL    HW135906   0.352   4.569   5.916 -0.6764 -0.7714  0.6439
 8149SOL    HW235907   0.310   4.643   6.026  0.8013 -0.2351  2.5110
 8150SOL     OW35908   3.100   0.812  16.817  0.0170 -0.0047  0.4101
 8150SOL    HW135909   3.006   0.796  16.808 -0.1343  0.4626  1.1157
 8150SOL    HW235910   3.104   0.902  16.849 -1.9502  1.2802 -3.0604
 8151SOL     OW35911   0.233   4.400  13.230 -0.2875  0.3419  0.2320
 8151SOL    HW135912   0.232   4.445  13.146 -1.7629 -2.1551 -1.0912
 8151SOL    HW235913   0.282   4.322  13.202 -0.8125  0.1159 -0.0374
 8152SOL     OW35914   3.011   3.238  10.717  0.2903  0.2326  0.2809
 8152SOL    HW135915   3.105   3.254  10.710  0.0671  1.5159  0.0970
 8152SOL    HW235916   2.980   3.306  10.657 -0.4248  0.2000  0.6084
 8153SOL     OW35917   2.589   4.328   6.635  0.2482 -0.3825  0.2937
 8153SOL    HW135918   2.629   4.406   6.673  0.5009 -0.7720  0.8259
 8153SOL    HW235919   2.585   4.265   6.706  2.2663 -2.4327 -1.4046
 8154SOL     OW35920   3.384   0.672  16.203  0.0651 -0.4812  0.3818
 8154SOL    HW135921   3.326   0.709  16.269  0.5692  1.2763 -0.1721
 8154SOL    HW235922   3.454   0.637  16.257  0.6021 -1.4111 -0.9107
 8155SOL     OW35923   3.274   3.190   8.002  0.4101  0.3089 -0.3318
 8155SOL    HW135924   3.283   3.270   7.950 -3.0637  0.2236 -1.0562
 8155SOL    HW235925   3.194   3.220   8.044 -0.2395 -1.4215 -0.3406
 8156SOL     OW35926   2.847   3.090  10.330 -0.4991  0.4861  0.2597
 8156SOL    HW135927   2.831   3.023  10.397  1.7507 -0.1566  0.1391
 8156SOL    HW235928   2.850   3.166  10.388 -3.2949  0.0079  1.0513
 8157SOL     OW35929   4.141   0.889  13.972 -0.3136 -0.0359 -0.2718
 8157SOL    HW135930   4.231   0.872  14.000 -0.0785 -0.8748 -1.5290
 8157SOL    HW235931   4.105   0.864  14.057 -0.7370  3.3200  0.5249
 8158SOL     OW35932   4.551   1.849   0.902 -0.3824  0.1284  0.2894
 8158SOL    HW135933   4.595   1.930   0.876 -0.7867  0.7731  1.6021
 8158SOL    HW235934   4.519   1.821   0.816  0.4319  1.1777 -0.3501
 8159SOL     OW35935   0.396   2.055   9.669 -0.6158 -0.1555 -0.2530
 8159SOL    HW135936   0.427   2.037   9.758  1.2461  0.0513 -0.8598
 8159SOL    HW235937   0.476   2.039   9.619  1.7229  2.7668  2.6258
 8160SOL     OW35938   1.803   3.316   4.610  0.3181  0.0889  0.0505
 8160SOL    HW135939   1.807   3.394   4.554 -0.3783  1.2317  1.6057
 8160SOL    HW235940   1.759   3.256   4.550  0.2717 -1.8321  2.0177
 8161SOL     OW35941   2.946   0.243   5.789 -0.0636 -0.5988 -0.1176
 8161SOL    HW135942   2.932   0.269   5.880  0.4311 -0.4555 -0.0866
 8161SOL    HW235943   2.906   0.318   5.744  1.6036  0.5035  0.2576
 8162SOL     OW35944   4.322   0.492   0.245  0.1226 -0.0965  0.3334
 8162SOL    HW135945   4.332   0.575   0.198  0.0533 -0.5911 -0.5466
 8162SOL    HW235946   4.372   0.426   0.197 -1.0757 -0.3972 -0.4997
 8163SOL     OW35947   3.136   0.263   7.871 -0.3505 -0.2801  0.4098
 8163SOL    HW135948   3.044   0.244   7.851 -0.5240  1.7046 -0.7176
 8163SOL    HW235949   3.147   0.328   7.801  0.3445 -0.5413  0.2783
 8164SOL     OW35950   0.551   1.366   7.723  0.2730 -0.3102  0.5821
 8164SOL    HW135951   0.525   1.452   7.691 -2.5308 -2.2035 -2.1559
 8164SOL    HW235952   0.463   1.345   7.753  0.4785 -1.4312  0.4096
 8165SOL     OW35953   3.963   2.514  15.996 -0.2565 -0.1233  0.3274
 8165SOL    HW135954   3.960   2.515  15.900  0.0850  0.6639  0.3198
 8165SOL    HW235955   3.896   2.582  16.008 -0.8553 -0.9187  1.4569
 8166SOL     OW35956   3.825   1.514  11.107  0.6959 -0.4783  0.2157
 8166SOL    HW135957   3.804   1.421  11.100 -0.4776 -0.3712  2.5762
 8166SOL    HW235958   3.792   1.528  11.195  0.9878 -0.9371  0.3933
 8167SOL     OW35959   2.744   2.537  10.738 -0.2394  0.0610 -0.6959
 8167SOL    HW135960   2.771   2.495  10.657  2.0511 -1.3656  0.8116
 8167SOL    HW235961   2.751   2.474  10.810  1.6679  1.8221  0.6704
 8168SOL     OW35962   3.398   4.160   9.215  0.2365 -0.2898 -0.5006
 8168SOL    HW135963   3.419   4.135   9.125  2.3231 -1.5547  0.3738
 8168SOL    HW235964   3.470   4.219   9.238 -2.0466  2.2751  0.1700
 8169SOL     OW35965   2.862   2.144   3.747  0.1022 -0.3264 -0.3611
 8169SOL    HW135966   2.940   2.170   3.699 -0.4425  0.2518 -0.9380
 8169SOL    HW235967   2.873   2.212   3.813 -2.2397 -1.1113  0.8670
 8170SOL     OW35968   4.468   4.122   5.816 -0.5207 -0.2357  0.0642
 8170SOL    HW135969   4.432   4.046   5.770  0.8460 -2.9911  3.4460
 8170SOL    HW235970   4.389   4.156   5.858 -1.2989 -2.3901  0.3980
 8171SOL     OW35971   0.436   3.674  10.843 -0.1800  0.3086  0.0934
 8171SOL    HW135972   0.396   3.733  10.906 -0.8903  1.2349 -1.2347
 8171SOL    HW235973   0.526   3.708  10.844  0.3468 -1.0452 -1.3558
 8172SOL     OW35974   3.315   4.102  12.502 -0.1936  0.4904  0.2452
 8172SOL    HW135975   3.293   4.156  12.426  1.3262  0.4950 -0.1797
 8172SOL    HW235976   3.377   4.151  12.555 -0.5576  1.1954  0.0219
 8173SOL     OW35977   0.378   0.881   9.340 -0.0129  0.7804 -0.0469
 8173SOL    HW135978   0.473   0.888   9.353  0.1538 -1.2749 -0.0847
 8173SOL    HW235979   0.346   0.863   9.428  1.9066  1.4926  0.7897
 8174SOL     OW35980   0.045   0.074   9.647  0.9158 -0.2212  0.1637
 8174SOL    HW135981   0.123   0.128   9.657  0.3015  0.3312  2.0815
 8174SOL    HW235982   0.049   0.036   9.735 -1.8400  1.1331  0.8864
 8175SOL     OW35983   4.035   1.272  10.148 -0.0127  0.2871  0.1805
 8175SOL    HW135984   4.048   1.365  10.168  1.3131  0.2450 -0.5245
 8175SOL    HW235985   3.952   1.279  10.100  1.3348  3.1889 -1.7713
 8176SOL     OW35986   4.659   0.931   5.487 -0.2740  0.0950 -0.7749
 8176SOL    HW135987   4.628   0.943   5.576  0.8392 -0.5842 -0.3016
 8176SOL    HW235988   4.611   0.997   5.437 -2.8393 -0.3191  1.1347
 8177SOL     OW35989   3.561   2.873   8.225 -0.2289  0.2457 -0.0911
 8177SOL    HW135990   3.625   2.825   8.172  0.3108  1.5141 -0.5839
 8177SOL    HW235991   3.546   2.948   8.168 -0.1444  0.4289  0.1298
 8178SOL     OW35992   2.484   4.027   6.452 -0.0159 -0.2007 -0.1486
 8178SOL    HW135993   2.414   3.967   6.427 -0.1566  0.0849 -0.4541
 8178SOL    HW235994   2.532   3.989   6.526 -0.8477 -0.8232  0.0651
 8179SOL     OW35995   4.123   0.263   6.790  0.3086  0.3224  0.3833
 8179SOL    HW135996   4.183   0.329   6.754  1.0399 -0.6135 -0.1037
 8179SOL    HW235997   4.180   0.228   6.858  1.2196 -1.4716 -1.3070
 8180SOL     OW35998   2.698   1.687   6.519  0.4826  0.3550  0.4473
 8180SOL    HW135999   2.627   1.685   6.455  1.9476 -0.9626 -1.1251
 8180SOL    HW236000   2.745   1.762   6.482  0.9281  0.5390  1.3853
 8181SOL     OW36001   0.529   4.674   1.038  0.0994  0.2871  0.7608
 8181SOL    HW136002   0.444   4.676   1.083 -0.1588  2.1341  0.2020
 8181SOL    HW236003   0.551   0.046   1.046  1.3943 -0.0942  1.6608
 8182SOL     OW36004   3.617   3.911   6.626 -0.0379 -0.0703 -0.0210
 8182SOL    HW136005   3.680   3.978   6.599  0.8453 -1.9600 -2.6490
 8182SOL    HW236006   3.576   3.967   6.693  0.3655  1.8026 -1.3393
 8183SOL     OW36007   0.797   4.363  17.421  0.3199  0.3166  0.0683
 8183SOL    HW136008   0.812   4.457  17.417  0.8289  0.1634 -1.5049
 8183SOL    HW236009   0.714   4.351  17.375  0.7096  0.3086 -0.6329
 8184SOL     OW36010   1.292   2.713   0.293  0.2504  0.2115 -0.2581
 8184SOL    HW136011   1.252   2.798   0.311  0.9999  0.7166 -0.9933
 8184SOL    HW236012   1.210   2.666   0.277  1.0969 -0.5317 -2.3900
 8185SOL     OW36013   2.144   1.301   5.614 -0.0045  0.4249  0.0787
 8185SOL    HW136014   2.138   1.305   5.518 -1.1288 -0.1982  0.1283
 8185SOL    HW236015   2.176   1.387   5.641 -1.0627  0.4165  1.3438
 8186SOL     OW36016   0.063   3.371   5.667  0.2064 -0.7352  0.1542
 8186SOL    HW136017   0.045   3.331   5.582  3.1582  2.0262 -1.7688
 8186SOL    HW236018   0.147   3.330   5.692 -0.1163 -0.5722  1.5388
 8187SOL     OW36019   0.372   2.714   7.100  1.0756 -0.0150 -0.5901
 8187SOL    HW136020   0.381   2.622   7.077  1.7767 -0.0881 -0.0133
 8187SOL    HW236021   0.456   2.757   7.082  0.8719  1.8932  3.0830
 8188SOL     OW36022   0.593   0.284  12.795 -0.5660  0.4246 -0.2831
 8188SOL    HW136023   0.498   0.291  12.797 -0.7012 -1.7014 -0.2672
 8188SOL    HW236024   0.607   0.312  12.886  2.3838 -1.6093 -0.1089
 8189SOL     OW36025   3.292   1.300  17.439 -0.8784  0.2837  0.0224
 8189SOL    HW136026   3.285   1.237  17.367  1.1964  0.7651 -0.5877
 8189SOL    HW236027   3.261   1.244  17.510  0.4114  0.3191  0.6145
 8190SOL     OW36028   3.602   3.112   3.071  1.1235  0.2689 -0.1543
 8190SOL    HW136029   3.653   3.047   3.119  1.7705  0.8948 -0.0111
 8190SOL    HW236030   3.519   3.099   3.117  0.5051  0.1986 -1.2830
 8191SOL     OW36031   2.930   2.699   4.146 -0.1742  0.0385  0.1730
 8191SOL    HW136032   2.997   2.739   4.201  1.8737 -0.7837 -1.7212
 8191SOL    HW236033   2.860   2.673   4.205 -1.2952 -1.2066 -1.6673
 8192SOL     OW36034   0.305   2.407   3.624  0.0712  0.3933 -0.0759
 8192SOL    HW136035   0.368   2.382   3.691  1.0556 -4.9083 -2.9769
 8192SOL    HW236036   0.234   2.350   3.655 -1.4427  1.7039 -1.1303
 8193SOL     OW36037   1.618   2.161   6.492 -0.2979  0.5155 -0.0746
 8193SOL    HW136038   1.538   2.139   6.538 -0.2428  0.1847 -0.1337
 8193SOL    HW236039   1.610   2.100   6.418 -0.7281  3.0357 -2.0798
 8194SOL     OW36040   4.529   2.373   3.061  0.0695  0.0908 -0.2713
 8194SOL    HW136041   4.468   2.327   3.004  0.1187 -1.9457  1.3331
 8194SOL    HW236042   4.560   2.300   3.114  2.1428  1.9720  1.1158
 8195SOL     OW36043   1.547   4.322   4.063  0.0450  0.2505 -0.1663
 8195SOL    HW136044   1.522   4.282   3.980  0.0689  1.7153 -0.8870
 8195SOL    HW236045   1.638   4.349   4.067  0.1381 -0.3687  1.9411
 8196SOL     OW36046   3.481   3.390   7.756 -0.7505 -0.4984 -0.1201
 8196SOL    HW136047   3.437   3.353   7.680 -1.5989  0.9025 -0.2987
 8196SOL    HW236048   3.410   3.415   7.815 -0.1367  0.8945  0.0257
 8197SOL     OW36049   0.790   3.144   1.311  0.6247  0.4923  0.2428
 8197SOL    HW136050   0.773   3.147   1.405  0.8532  1.9066  0.2416
 8197SOL    HW236051   0.802   3.052   1.292 -1.5890  0.1492  0.5206
 8198SOL     OW36052   1.973   1.154  11.797 -0.3883  0.0735  0.3209
 8198SOL    HW136053   2.041   1.143  11.730 -0.7983 -0.4652 -0.0173
 8198SOL    HW236054   1.899   1.142  11.737 -0.1426  3.3054 -0.5890
 8199SOL     OW36055   1.929   0.432  13.406  0.2125  0.3091  0.8206
 8199SOL    HW136056   2.015   0.465  13.380 -0.0835  0.2405 -0.2463
 8199SOL    HW236057   1.954   0.384  13.485  0.9252  0.7491  0.8548
 8200SOL     OW36058   1.743   3.217  13.715 -0.3000 -0.6252 -0.0637
 8200SOL    HW136059   1.777   3.209  13.626 -1.1910  1.3647 -0.5752
 8200SOL    HW236060   1.823   3.241  13.763 -0.4284  1.4562 -0.8865
 8201SOL     OW36061   0.200   4.195   3.517  0.4361 -0.5320 -0.0439
 8201SOL    HW136062   0.155   4.161   3.439 -1.5539 -2.8754  2.1481
 8201SOL    HW236063   0.223   4.286   3.498 -0.7042 -0.8079 -2.7577
 8202SOL     OW36064   1.470   4.344   4.797  0.3200  0.0653  0.2176
 8202SOL    HW136065   1.439   4.380   4.880  3.2474  3.2621 -0.1174
 8202SOL    HW236066   1.544   4.296   4.833 -0.3165  0.6832  2.3259
 8203SOL     OW36067   2.686   1.568   1.488 -0.5482 -0.1441  0.5798
 8203SOL    HW136068   2.695   1.472   1.493  0.4647 -0.0341  0.8023
 8203SOL    HW236069   2.734   1.593   1.567  0.8633  1.8516 -0.9452
 8204SOL     OW36070   0.505   0.488  10.948 -0.5190 -0.3226  0.8165
 8204SOL    HW136071   0.518   0.506  11.041  1.0843  0.3386  0.4567
 8204SOL    HW236072   0.466   0.401  10.953 -0.6172 -0.3577 -0.6279
 8205SOL     OW36073   1.405   4.626   4.733  0.1726 -0.2518 -0.3169
 8205SOL    HW136074   1.462   4.549   4.733  2.3826  1.3781 -1.0947
 8205SOL    HW236075   1.372   4.646   4.821  1.0933  1.0064 -0.2514
 8206SOL     OW36076   0.496   2.365  15.090 -0.4394 -0.6220 -0.2499
 8206SOL    HW136077   0.412   2.398  15.123 -1.2383 -0.0515 -2.9192
 8206SOL    HW236078   0.454   2.290  15.048 -0.3802 -0.3398 -0.8076
 8207SOL     OW36079   0.196   3.348   8.642 -0.4622 -0.4016  0.3689
 8207SOL    HW136080   0.270   3.290   8.625 -0.3444  0.0496 -0.6449
 8207SOL    HW236081   0.207   3.389   8.728  1.2162 -1.4598  0.6438
 8208SOL     OW36082   0.465   1.191   4.893 -0.1600  0.1593 -0.3848
 8208SOL    HW136083   0.433   1.272   4.852  3.6206  0.9238 -1.7511
 8208SOL    HW236084   0.476   1.141   4.813  1.5693 -0.9343  0.5521
 8209SOL     OW36085   2.169   4.398   7.730 -0.3311  0.0081 -0.0349
 8209SOL    HW136086   2.192   4.306   7.747 -0.4533  0.1908  1.1031
 8209SOL    HW236087   2.137   4.389   7.640 -1.0620 -1.8553  0.4139
 8210SOL     OW36088   0.825   1.306   5.051  0.0182 -0.3909  0.6687
 8210SOL    HW136089   0.782   1.230   5.012  0.1255 -0.0809 -0.0514
 8210SOL    HW236090   0.763   1.379   5.055 -0.1253 -0.5700  1.9155
 8211SOL     OW36091   2.897   4.120   1.088 -0.2129 -0.0958  0.5950
 8211SOL    HW136092   2.869   4.134   1.179 -1.8102  0.5013  0.0040
 8211SOL    HW236093   2.960   4.191   1.076 -0.7010  0.4805  1.4160
 8212SOL     OW36094   4.308   3.343   7.831  0.2407 -0.4562 -0.4434
 8212SOL    HW136095   4.336   3.305   7.914 -2.2383  0.2537  0.7090
 8212SOL    HW236096   4.357   3.426   7.832 -1.2911  0.4164  1.6534
 8213SOL     OW36097   4.026   2.211   6.332  0.1090  0.3086  0.1050
 8213SOL    HW136098   3.996   2.120   6.331  1.1757 -0.0154 -1.2437
 8213SOL    HW236099   3.972   2.242   6.260 -1.9363  0.1870  1.5628
 8214SOL     OW36100   3.676   2.521   3.975 -0.0676 -0.1870  0.5473
 8214SOL    HW136101   3.708   2.588   3.914 -1.4329 -0.4267 -0.4324
 8214SOL    HW236102   3.643   2.451   3.919 -2.1756  0.9712  0.3288
 8215SOL     OW36103   1.162   0.716   6.339  0.4969  0.2447  0.0155
 8215SOL    HW136104   1.247   0.757   6.355  0.2683  0.8000 -0.2052
 8215SOL    HW236105   1.191   0.639   6.290 -1.2274 -0.4994  0.1547
 8216SOL     OW36106   2.569   3.476   8.576 -0.3871  0.3863  0.3090
 8216SOL    HW136107   2.483   3.433   8.584  0.1404 -1.1214 -1.9950
 8216SOL    HW236108   2.603   3.446   8.660 -0.7385 -0.8754  0.0099
 8217SOL     OW36109   0.522   3.579   8.973  0.6947  0.2184  0.2060
 8217SOL    HW136110   0.492   3.637   9.043 -1.6321  1.3107 -1.7199
 8217SOL    HW236111   0.566   3.506   9.017  2.4126  1.7913  1.1064
 8218SOL     OW36112   2.121   1.768   8.683  0.4381 -0.0776 -0.0782
 8218SOL    HW136113   2.095   1.810   8.765  1.2613 -0.4021  0.3403
 8218SOL    HW236114   2.039   1.758   8.634  0.2091  0.5577  0.1800
 8219SOL     OW36115   2.425   2.276   7.238  0.3525  0.1844  0.4503
 8219SOL    HW136116   2.480   2.299   7.163 -0.9792  1.3534 -0.1674
 8219SOL    HW236117   2.372   2.356   7.244 -0.2588 -0.0591 -1.8402
 8220SOL     OW36118   3.098   2.503  11.603 -0.6818  0.0893  0.5148
 8220SOL    HW136119   3.037   2.511  11.530  1.1142 -1.5386 -1.1362
 8220SOL    HW236120   3.139   2.589  11.607  2.5502 -1.5152  1.3410
 8221SOL     OW36121   2.274   2.292  10.567  0.3031  0.4871 -0.3115
 8221SOL    HW136122   2.248   2.270  10.478  1.7461  1.0502 -0.8692
 8221SOL    HW236123   2.342   2.226  10.575  0.2176  0.3662 -0.6021
 8222SOL     OW36124   2.873   1.779   3.150  0.1838  0.2003 -0.1637
 8222SOL    HW136125   2.815   1.812   3.218 -0.0976  0.0628 -0.3402
 8222SOL    HW236126   2.936   1.851   3.140 -0.0154  0.5443  0.9867
 8223SOL     OW36127   4.043   3.206   7.912  0.1808  0.1447  0.7632
 8223SOL    HW136128   4.083   3.293   7.916 -1.8636  1.0882  0.2305
 8223SOL    HW236129   3.952   3.233   7.900  0.9735  1.8888 -1.2695
 8224SOL     OW36130   3.439   3.395   5.386 -0.2623  0.0339 -0.2646
 8224SOL    HW136131   3.371   3.462   5.385  0.1001  0.4006 -0.1816
 8224SOL    HW236132   3.439   3.372   5.293 -0.1355 -1.2880  0.0556
 8225SOL     OW36133   2.662   4.087  17.276 -0.2174  0.2613  0.3278
 8225SOL    HW136134   2.656   4.004  17.229 -0.1263 -0.1430  1.0330
 8225SOL    HW236135   2.634   4.058  17.363 -1.3077  0.5208  0.0701
 8226SOL     OW36136   0.274   0.103  17.294  0.0169 -0.0440  0.6223
 8226SOL    HW136137   0.209   0.068  17.233 -0.0785 -0.1001  0.7582
 8226SOL    HW236138   0.221   0.154  17.354  0.9131  0.5655  0.8978
 8227SOL     OW36139   2.143   0.527   8.440 -0.1410  0.4197 -0.6218
 8227SOL    HW136140   2.106   0.496   8.523  0.0034  1.4371 -0.1749
 8227SOL    HW236141   2.234   0.549   8.458 -0.3850  1.1002 -0.2523
 8228SOL     OW36142   4.098   4.364   4.546 -0.1517  0.0936  0.0558
 8228SOL    HW136143   4.176   4.316   4.574  0.0320  1.2656  1.5465
 8228SOL    HW236144   4.148   4.436   4.507 -1.1861  0.5764 -0.3626
 8229SOL     OW36145   3.990   0.180   7.315  0.1135  0.3410  0.1508
 8229SOL    HW136146   4.079   0.202   7.344  0.9186  0.3996 -2.4064
 8229SOL    HW236147   3.953   0.133   7.390  0.6239  1.8456  1.3538
 8230SOL     OW36148   0.505   2.947   1.483  0.1650  0.0935 -0.4625
 8230SOL    HW136149   0.580   2.996   1.516 -0.6438  1.1732 -0.2127
 8230SOL    HW236150   0.497   2.864   1.529 -0.5047  0.7214  0.5418
 8231SOL     OW36151   1.656   3.622   1.235  0.6345  0.4706 -0.1221
 8231SOL    HW136152   1.751   3.619   1.246  0.6886  2.1080 -0.1568
 8231SOL    HW236153   1.627   3.539   1.197  0.1858 -0.8568  3.0379
 8232SOL     OW36154   2.724   4.481   9.393  0.3474 -0.5786  0.4904
 8232SOL    HW136155   2.662   4.525   9.452  1.1827 -1.5235  2.0486
 8232SOL    HW236156   2.805   4.498   9.440 -1.1930  2.9388  1.9241
 8233SOL     OW36157   0.698   3.949   6.621  0.1474  0.4364  0.2285
 8233SOL    HW136158   0.648   3.870   6.642  1.1780  0.1629  1.6237
 8233SOL    HW236159   0.636   4.021   6.615  0.0853  0.4113  0.5982
 8234SOL     OW36160   0.598   1.757   1.806  0.3094  0.0042 -0.6139
 8234SOL    HW136161   0.586   1.668   1.839  1.1038  0.1688  0.1036
 8234SOL    HW236162   0.691   1.779   1.811 -0.3156  2.2614  0.8469
 8235SOL     OW36163   3.687   4.568   9.387 -0.7762 -0.4209 -0.2386
 8235SOL    HW136164   3.732   4.490   9.416  1.4244  0.5093 -1.1500
 8235SOL    HW236165   3.750   4.640   9.390 -2.9756  1.3772  2.4941
 8236SOL     OW36166   3.826   4.188   3.694  0.1298 -0.5056  0.2836
 8236SOL    HW136167   3.893   4.253   3.671 -0.3601  0.5063  1.7259
 8236SOL    HW236168   3.858   4.106   3.658 -3.3726 -0.9350 -1.8667
 8237SOL     OW36169   2.552   2.328  14.831 -0.6002  0.5080 -0.0434
 8237SOL    HW136170   2.604   2.333  14.751 -0.1890 -2.0150  0.0628
 8237SOL    HW236171   2.608   2.376  14.892  1.4554 -2.3548  0.3334
 8238SOL     OW36172   4.246   3.773   7.716 -0.6934 -0.1193  0.4256
 8238SOL    HW136173   4.272   3.832   7.787 -2.6148  0.8376  0.3283
 8238SOL    HW236174   4.244   3.838   7.645 -0.0192  0.3870  0.8648
 8239SOL     OW36175   3.646   0.965   7.123 -0.1658 -0.1644  0.6010
 8239SOL    HW136176   3.560   0.936   7.155 -0.9341 -0.4347 -1.6194
 8239SOL    HW236177   3.627   1.058   7.118 -0.5364 -0.2986 -0.6448
 8240SOL     OW36178   0.262   2.599   5.956 -0.2453 -0.0717  0.2658
 8240SOL    HW136179   0.206   2.676   5.959  0.7517  0.7131 -1.1893
 8240SOL    HW236180   0.344   2.636   5.988  1.0453 -1.7823 -1.0156
 8241SOL     OW36181   2.842   0.251  11.001 -0.3610 -0.2773  0.4287
 8241SOL    HW136182   2.897   0.297  10.938  0.2748 -0.2516  0.9985
 8241SOL    HW236183   2.759   0.253  10.954  0.9031 -0.7966 -1.7867
 8242SOL     OW36184   2.107   1.629   4.036 -0.3018  0.0793  0.1476
 8242SOL    HW136185   2.144   1.710   4.070  1.0000 -0.3013 -0.3767
 8242SOL    HW236186   2.174   1.561   4.033 -0.5372 -0.2297  1.5852
 8243SOL     OW36187   2.369   1.422  10.427  0.4981 -0.2692 -0.4871
 8243SOL    HW136188   2.325   1.502  10.457 -1.8636 -0.9804 -2.0498
 8243SOL    HW236189   2.289   1.378  10.401  0.5605 -2.0020  2.2720
 8244SOL     OW36190   0.737   3.709  16.659 -0.4463  0.1960  0.3997
 8244SOL    HW136191   0.648   3.697  16.694 -1.4193  0.5064 -1.9913
 8244SOL    HW236192   0.746   3.633  16.602  0.9789 -1.0726  2.3180
 8245SOL     OW36193   0.881   3.753   8.429  0.0244 -0.1752 -0.2445
 8245SOL    HW136194   0.802   3.779   8.477  0.9782  0.4368  1.0118
 8245SOL    HW236195   0.948   3.805   8.473 -1.7778 -0.3660  2.7740
 8246SOL     OW36196   2.229   3.910   8.941 -0.0746 -0.4703 -0.2062
 8246SOL    HW136197   2.278   3.991   8.954  0.4362 -0.7851 -0.1434
 8246SOL    HW236198   2.299   3.845   8.947  0.6850  0.3721  0.0349
 8247SOL     OW36199   3.204   1.278   9.219 -0.1015 -0.2015 -0.1086
 8247SOL    HW136200   3.217   1.240   9.307 -0.0814  0.7678  0.3038
 8247SOL    HW236201   3.212   1.371   9.237 -1.3934 -0.2768  0.8914
 8248SOL     OW36202   0.225   2.059   9.024 -0.4426  0.0469 -0.0834
 8248SOL    HW136203   0.180   2.055   9.109  1.6776  1.0379  1.1026
 8248SOL    HW236204   0.152   2.069   8.963 -1.3126 -0.9704  0.7878
 8249SOL     OW36205   0.379   3.916   7.654  0.4148 -0.9692 -0.3549
 8249SOL    HW136206   0.343   3.849   7.596 -2.3615  0.7168 -0.5966
 8249SOL    HW236207   0.321   3.912   7.730 -1.3481  1.6763 -1.6027
 8250SOL     OW36208   1.472   1.308  16.350 -0.5333 -0.2953  0.6875
 8250SOL    HW136209   1.399   1.250  16.373 -1.5032  1.4737  2.0675
 8250SOL    HW236210   1.528   1.234  16.325 -0.6154  0.0229 -0.4425
 8251SOL     OW36211   1.410   1.321  14.932 -0.4592  0.1833 -0.2859
 8251SOL    HW136212   1.348   1.381  14.974  0.1178  0.4765  0.1438
 8251SOL    HW236213   1.433   1.374  14.855  0.0748 -0.4350 -0.5451
 8252SOL     OW36214   0.243   0.905   8.526  0.4096  0.1045  0.6639
 8252SOL    HW136215   0.225   0.944   8.612  0.4665 -0.7357  1.0480
 8252SOL    HW236216   0.310   0.842   8.551 -0.0837 -0.7150 -0.1229
 8253SOL     OW36217   2.636   0.617   9.448 -0.0500 -0.1992  0.6079
 8253SOL    HW136218   2.693   0.618   9.371  1.2970  0.4741  1.6191
 8253SOL    HW236219   2.708   0.636   9.509  0.6506 -1.5103  0.1958
 8254SOL     OW36220   1.732   3.012  12.730  0.2491 -0.9539 -0.5938
 8254SOL    HW136221   1.752   3.080  12.794 -1.0819  1.1933 -2.4431
 8254SOL    HW236222   1.821   2.994  12.701  0.2481  0.5481 -1.5565
 8255SOL     OW36223   4.220   1.847  16.832  0.0767  0.3432  0.2753
 8255SOL    HW136224   4.296   1.894  16.869 -0.8616  2.1291 -0.0511
 8255SOL    HW236225   4.220   1.878  16.742  0.5481 -0.5167 -0.0204
 8256SOL     OW36226   1.033   2.307   5.724  0.6840 -0.0680  0.0828
 8256SOL    HW136227   1.026   2.236   5.787  0.2677  1.4931  1.7794
 8256SOL    HW236228   1.043   2.259   5.641  0.3818  1.1904 -0.6803
 8257SOL     OW36229   2.855   4.077   5.718 -0.2291  0.1743 -0.3192
 8257SOL    HW136230   2.786   4.121   5.768 -1.9092 -1.0114 -1.5935
 8257SOL    HW236231   2.800   4.025   5.659 -0.6873 -0.6607  0.8373
 8258SOL     OW36232   0.108   3.871   7.201  0.5562 -0.3107  0.0537
 8258SOL    HW136233   0.019   3.873   7.237 -0.3645 -1.8559 -2.0886
 8258SOL    HW236234   0.089   3.893   7.110  0.1717  2.1771  0.7483
 8259SOL     OW36235   1.554   4.702  11.585 -0.1275 -0.0527  0.2773
 8259SOL    HW136236   1.631   0.003  11.532 -0.5920 -0.8915 -0.7505
 8259SOL    HW236237   1.554   0.034  11.664  0.7362  0.9270 -0.3692
 8260SOL     OW36238   4.300   3.775   8.153  0.5152 -0.0841 -0.0643
 8260SOL    HW136239   4.294   3.728   8.236  1.1610 -2.2599 -1.2546
 8260SOL    HW236240   4.345   3.708   8.103 -0.9567 -1.0621 -0.0817
 8261SOL     OW36241   4.193   1.782   5.033 -0.0276 -0.3372 -0.4506
 8261SOL    HW136242   4.115   1.736   5.063 -1.0983  0.6690 -1.6710
 8261SOL    HW236243   4.178   1.797   4.940 -0.3758  3.3347  0.1989
 8262SOL     OW36244   4.624   4.254   1.940 -0.3911  0.6211  0.3175
 8262SOL    HW136245   4.696   4.316   1.956  1.9287 -2.1217  0.4969
 8262SOL    HW236246   4.562   4.309   1.892 -0.9178 -0.8852 -0.6989
 8263SOL     OW36247   2.023   2.456   9.034 -0.4869  0.0931 -0.3853
 8263SOL    HW136248   1.975   2.526   9.079  1.5634  0.8877  0.5461
 8263SOL    HW236249   1.963   2.382   9.043  0.4892 -0.7663 -0.9263
 8264SOL     OW36250   2.632   1.373   0.773  0.2229  0.4422  0.1515
 8264SOL    HW136251   2.703   1.357   0.710  1.8997  1.2986  1.8210
 8264SOL    HW236252   2.688   1.414   0.840  1.6802  0.7503 -1.2402
 8265SOL     OW36253   1.432   4.421  13.715 -0.4176 -0.1579  0.1262
 8265SOL    HW136254   1.436   4.424  13.620  0.1161 -0.5141  0.1442
 8265SOL    HW236255   1.521   4.394  13.737  0.2225  0.2795 -1.9463
 8266SOL     OW36256   0.578   0.683   0.578  0.1138  0.0949 -0.5748
 8266SOL    HW136257   0.615   0.684   0.666 -1.3127 -2.6674  0.0621
 8266SOL    HW236258   0.488   0.651   0.587 -1.7194  4.4581 -3.4877
 8267SOL     OW36259   0.526   1.576   3.911  0.4147 -0.5171 -0.3484
 8267SOL    HW136260   0.530   1.517   3.837  0.0784  1.1553 -1.6940
 8267SOL    HW236261   0.595   1.552   3.973 -0.2234  0.5206  0.7945
 8268SOL     OW36262   0.173   0.100   6.761 -0.6880 -0.1795  0.1158
 8268SOL    HW136263   0.132   0.045   6.696 -2.1380  0.4223  0.5217
 8268SOL    HW236264   0.248   0.045   6.782  0.0296  0.1827 -1.4862
 8269SOL     OW36265   0.665   1.013  15.542 -0.2618  0.1899  0.0482
 8269SOL    HW136266   0.757   1.039  15.547  0.1271 -1.2958  0.4994
 8269SOL    HW236267   0.646   0.987  15.633 -0.7865 -1.6106 -0.5799
 8270SOL     OW36268   1.859   4.519   9.241  0.0144  0.1465 -0.4025
 8270SOL    HW136269   1.825   4.443   9.289  0.0761  0.0083 -0.5775
 8270SOL    HW236270   1.833   4.585   9.305  2.3220  0.2893  0.3796
 8271SOL     OW36271   2.384   2.932   3.435 -0.0617  0.2020  0.4922
 8271SOL    HW136272   2.333   2.853   3.417 -0.3152  0.4648  0.0537
 8271SOL    HW236273   2.471   2.895   3.447  0.2765  0.7759 -0.1777
 8272SOL     OW36274   3.507   2.996   6.379 -0.0428 -0.3211 -0.1455
 8272SOL    HW136275   3.431   3.031   6.426  0.4946  0.2073  0.3200
 8272SOL    HW236276   3.524   2.926   6.441 -1.1592  0.5625  1.1580
 8273SOL     OW36277   2.722   3.226   7.783 -0.2242  0.0318  0.2827
 8273SOL    HW136278   2.631   3.195   7.780 -0.9338  2.0029  1.2358
 8273SOL    HW236279   2.707   3.318   7.807  1.8991  0.6596 -0.8520
 8274SOL     OW36280   0.374   0.040  12.699  0.7438  0.1406  0.1451
 8274SOL    HW136281   0.372   0.078  12.787 -0.7766 -0.7802  0.5068
 8274SOL    HW236282   0.348   4.673  12.727  2.3286  0.1384  1.6021
 8275SOL     OW36283   1.049   1.368  17.505  0.7075  0.4400 -0.2116
 8275SOL    HW136284   1.035   1.300  17.439 -1.0170  1.4423 -0.8775
 8275SOL    HW236285   1.075   1.443  17.452  2.1535  0.1604  0.1023
 8276SOL     OW36286   4.398   2.217   2.529  0.1256 -0.0157  0.2876
 8276SOL    HW136287   4.313   2.188   2.562  0.2288 -0.5065  0.1139
 8276SOL    HW236288   4.394   2.307   2.497  1.8168  0.1507  0.5157
 8277SOL     OW36289   3.428   3.627   9.569  0.0405  0.3210 -0.4091
 8277SOL    HW136290   3.356   3.680   9.534 -0.3572 -0.1021 -0.2263
 8277SOL    HW236291   3.379   3.583   9.638 -0.8980  0.0630 -1.2340
 8278SOL     OW36292   1.499   2.030   1.823  0.6701 -0.0974  0.3827
 8278SOL    HW136293   1.447   2.111   1.822  1.9480  0.7003 -2.0449
 8278SOL    HW236294   1.588   2.065   1.815  0.8621 -0.7555 -0.2959
 8279SOL     OW36295   3.277   0.858   5.599  0.2601 -0.0722  0.1666
 8279SOL    HW136296   3.201   0.823   5.552 -1.1762  1.6236  1.2114
 8279SOL    HW236297   3.315   0.776   5.631 -1.2819 -0.7280  0.2988
 8280SOL     OW36298   1.886   2.194   0.484  0.0900  0.0580  0.6097
 8280SOL    HW136299   1.889   2.247   0.404  0.0327  0.5132  0.9089
 8280SOL    HW236300   1.806   2.233   0.520  0.3612  1.2415 -0.0715
 8281SOL     OW36301   3.482   2.820  11.941  0.1782  0.6856 -0.4090
 8281SOL    HW136302   3.521   2.764  12.007  0.8706  0.4261 -1.0357
 8281SOL    HW236303   3.552   2.816  11.876  0.2055  1.1011 -0.4051
 8282SOL     OW36304   1.867   0.159   4.484 -0.2657 -0.0994 -0.4833
 8282SOL    HW136305   1.951   0.182   4.445 -0.2358  2.5842  1.1479
 8282SOL    HW236306   1.858   0.240   4.535 -0.6844 -0.8602  0.6530
 8283SOL     OW36307   2.152   4.100   5.192  0.2809 -0.0355  0.7615
 8283SOL    HW136308   2.123   4.030   5.251  0.0933  0.5342  1.3415
 8283SOL    HW236309   2.073   4.152   5.180 -1.3348 -2.3677  1.2480
 8284SOL     OW36310   3.986   1.420  11.633  0.3434  0.5294 -0.6872
 8284SOL    HW136311   3.920   1.432  11.564  0.1896  0.7595 -0.4980
 8284SOL    HW236312   3.961   1.336  11.671 -2.6592  1.5768 -0.3308
 8285SOL     OW36313   2.545   2.842   9.689 -0.0310  0.3813  0.2755
 8285SOL    HW136314   2.547   2.756   9.647  0.4215  0.4939  0.0653
 8285SOL    HW236315   2.510   2.823   9.776 -1.0751 -2.1225 -0.7181
 8286SOL     OW36316   2.130   0.011  10.703 -0.0097 -0.0559 -0.1782
 8286SOL    HW136317   2.044   0.052  10.710 -0.2011 -0.6273  0.7386
 8286SOL    HW236318   2.115   4.658  10.762 -0.3999  0.8652  0.8918
 8287SOL     OW36319   4.020   2.512   9.086  0.5466 -0.5395  1.0300
 8287SOL    HW136320   4.098   2.543   9.131  0.9814 -0.2849  0.0886
 8287SOL    HW236321   3.962   2.508   9.162 -2.4857 -0.9157 -1.3095
 8288SOL     OW36322   0.325   3.208  11.404  0.0739 -0.4281  0.9123
 8288SOL    HW136323   0.398   3.178  11.350 -0.2555 -0.6757  0.6052
 8288SOL    HW236324   0.299   3.278  11.344 -1.1153 -2.9911 -1.5518
 8289SOL     OW36325   1.375   2.070   2.382 -0.3618  0.2360  0.2084
 8289SOL    HW136326   1.391   2.021   2.301  1.0427  0.0331  0.6083
 8289SOL    HW236327   1.317   2.011   2.430  0.3697 -2.3088 -2.0576
 8290SOL     OW36328   3.115   4.050   5.713  0.1448 -0.3523  0.1724
 8290SOL    HW136329   3.025   4.038   5.682  1.4604  0.8104 -3.9809
 8290SOL    HW236330   3.113   4.130   5.766 -0.4579  0.0198 -0.4128
 8291SOL     OW36331   2.361   2.414   2.475  0.5124 -0.5374 -0.3929
 8291SOL    HW136332   2.366   2.330   2.431 -0.7882 -1.7374  1.7502
 8291SOL    HW236333   2.279   2.450   2.442  0.2032 -0.2413  0.6758
 8292SOL     OW36334   1.553   1.033   5.664  0.4222  0.3059  0.1367
 8292SOL    HW136335   1.576   0.970   5.733  2.0405  2.1657  1.3022
 8292SOL    HW236336   1.602   0.994   5.592 -1.6968 -1.5324 -0.3233
 8293SOL     OW36337   1.632   2.119   0.718  0.0596  0.3839  0.0732
 8293SOL    HW136338   1.627   2.193   0.658 -1.7863 -0.4377 -0.7916
 8293SOL    HW236339   1.556   2.074   0.681 -0.8363  3.3140 -1.6656
 8294SOL     OW36340   0.753   3.484   8.355 -0.0790 -0.4939  0.0950
 8294SOL    HW136341   0.781   3.575   8.343 -2.0161 -0.1054 -1.5532
 8294SOL    HW236342   0.810   3.462   8.428  0.7249 -0.3982 -0.5150
 8295SOL     OW36343   0.086   2.273  13.508  0.5900 -0.4519  0.2213
 8295SOL    HW136344   0.027   2.208  13.470  1.5364 -1.6839  0.8340
 8295SOL    HW236345   0.062   2.261  13.600 -0.3427 -0.8396 -0.0702
 8296SOL     OW36346   1.586   0.800   1.366  0.1614 -0.1722  0.6230
 8296SOL    HW136347   1.628   0.742   1.429 -0.4938 -1.0161  0.2868
 8296SOL    HW236348   1.539   0.734   1.314  1.4655  0.3713 -1.2388
 8297SOL     OW36349   2.374   2.900   5.608  0.0801  0.5802 -0.2418
 8297SOL    HW136350   2.309   2.833   5.628  0.1565  0.4531 -0.4181
 8297SOL    HW236351   2.445   2.860   5.558  1.7851  0.3515  2.3550
 8298SOL     OW36352   2.320   3.034   7.197  0.3020 -0.1443  0.3600
 8298SOL    HW136353   2.273   3.110   7.232  0.4458 -1.0021  2.4325
 8298SOL    HW236354   2.291   2.964   7.255 -0.4763  0.3329  0.5625
 8299SOL     OW36355   3.151   2.961   7.333  0.2408 -0.1262 -0.0407
 8299SOL    HW136356   3.158   2.999   7.421 -0.8777 -1.7191  0.7360
 8299SOL    HW236357   3.095   3.033   7.302 -1.3570 -2.2737 -2.1462
 8300SOL     OW36358   2.212   2.679   3.384  0.2809  0.2995 -0.2664
 8300SOL    HW136359   2.142   2.623   3.349  1.0021 -0.9572  0.3146
 8300SOL    HW236360   2.281   2.615   3.365  0.8465  0.5865  0.8037
 8301SOL     OW36361   4.311   2.240   6.010  0.1284  0.4062  1.1384
 8301SOL    HW136362   4.317   2.203   5.922 -0.0814  1.9615  0.4695
 8301SOL    HW236363   4.275   2.162   6.053  0.6807  0.0486  0.9515
 8302SOL     OW36364   2.432   2.506   3.326  0.3083  0.2799 -0.0221
 8302SOL    HW136365   2.481   2.469   3.399  0.5569 -0.1122 -0.3840
 8302SOL    HW236366   2.498   2.486   3.259  0.1424  0.1750 -0.1550
 8303SOL     OW36367   3.617   2.156   6.252  0.4912 -0.0365  0.3936
 8303SOL    HW136368   3.541   2.201   6.217 -0.6327  0.0654  2.9268
 8303SOL    HW236369   3.689   2.207   6.214  1.5484 -1.3327  0.6245
 8304SOL     OW36370   2.866   0.944   5.459 -0.6124  0.2022  0.9704
 8304SOL    HW136371   2.841   0.943   5.367  0.8662  1.2019  0.5795
 8304SOL    HW236372   2.786   0.974   5.503 -0.4797  0.6815  0.8823
 8305SOL     OW36373   4.258   2.957  14.323 -0.2031 -0.5453 -0.2594
 8305SOL    HW136374   4.323   3.026  14.312 -1.3439  0.7803  1.3571
 8305SOL    HW236375   4.178   3.008  14.314 -0.6600 -1.1214  0.5385
 8306SOL     OW36376   2.133   3.114  15.803  0.0835  0.2114  0.4204
 8306SOL    HW136377   2.057   3.158  15.765 -1.7670 -1.9571  1.6134
 8306SOL    HW236378   2.116   3.023  15.781  2.0293 -0.4272  1.6117
 8307SOL     OW36379   3.882   4.276   7.523  0.4435  0.0662 -0.2847
 8307SOL    HW136380   3.857   4.341   7.589  3.0089  1.7675 -0.9822
 8307SOL    HW236381   3.915   4.325   7.448  0.8647 -0.4275 -0.4126
 8308SOL     OW36382   2.622   1.750   5.434  0.0223 -0.2670 -0.5439
 8308SOL    HW136383   2.533   1.758   5.400  0.1110 -0.5596 -0.8522
 8308SOL    HW236384   2.652   1.840   5.428  1.4680 -0.8455 -2.1788
 8309SOL     OW36385   0.062   1.470   0.900 -0.2761  0.2565 -0.1101
 8309SOL    HW136386   0.138   1.414   0.883 -0.3802  0.3632 -0.9303
 8309SOL    HW236387   0.009   1.456   0.822 -0.5058  1.3675 -0.1609
 8310SOL     OW36388   0.038   3.682   7.727  0.0437  0.0975  0.3558
 8310SOL    HW136389   4.672   3.699   7.691  0.2410 -0.4257 -0.3647
 8310SOL    HW236390   0.093   3.665   7.651 -0.4636 -1.3163  0.2988
 8311SOL     OW36391   0.626   3.923   7.093  0.0390  0.1192  0.0346
 8311SOL    HW136392   0.675   3.989   7.142 -0.1360  0.7656 -0.6625
 8311SOL    HW236393   0.701   3.872   7.063 -0.3455 -1.5105  1.8216
 8312SOL     OW36394   3.666   2.256  14.479  0.0001  0.5022 -0.1623
 8312SOL    HW136395   3.573   2.237  14.468  0.2353  0.0690 -1.3273
 8312SOL    HW236396   3.654   2.343  14.519  0.6932  0.2179  0.6585
 8313SOL     OW36397   3.529   1.344   1.311 -0.7012 -0.5699  0.3974
 8313SOL    HW136398   3.582   1.272   1.346  0.8880  0.9727  1.1476
 8313SOL    HW236399   3.462   1.307   1.253 -0.3748 -1.1341  0.3803
 8314SOL     OW36400   3.952   0.912   2.181  0.0887 -0.5740 -0.6221
 8314SOL    HW136401   3.912   0.978   2.238  0.8525  0.6096 -1.4487
 8314SOL    HW236402   3.896   0.837   2.202  1.2796 -1.7571 -1.6870
 8315SOL     OW36403   4.181   3.962   8.881 -0.4366  0.5205 -0.2218
 8315SOL    HW136404   4.205   4.054   8.882  0.1498  0.3764 -1.2649
 8315SOL    HW236405   4.242   3.930   8.814 -0.5351  0.6790 -0.3877
 8316SOL     OW36406   1.567   1.447   5.977  0.8023  0.3199  0.2302
 8316SOL    HW136407   1.618   1.425   5.899 -1.5749  0.3112 -1.3366
 8316SOL    HW236408   1.494   1.498   5.942  0.3614 -1.6151 -1.7103
 8317SOL     OW36409   0.821   2.317   4.690 -0.2060  0.0851  0.1799
 8317SOL    HW136410   0.762   2.393   4.695  0.9400  1.0281 -0.6070
 8317SOL    HW236411   0.754   2.252   4.713 -0.5343 -0.2982 -1.9326
 8318SOL     OW36412   1.287   3.490   7.649  0.4811 -0.6001 -0.1626
 8318SOL    HW136413   1.265   3.433   7.575  2.8475 -3.8071  1.6281
 8318SOL    HW236414   1.286   3.426   7.720 -3.8290  0.1578  0.4818
 8319SOL     OW36415   1.648   1.195   3.377 -0.3376  0.1624 -0.1345
 8319SOL    HW136416   1.739   1.224   3.365 -0.1992  0.0095  0.5911
 8319SOL    HW236417   1.643   1.101   3.391  1.2236 -0.0743 -1.1656
 8320SOL     OW36418   2.583   1.446  10.255 -0.2678 -0.2938  0.3063
 8320SOL    HW136419   2.512   1.431  10.317 -1.4600 -1.6967 -1.4361
 8320SOL    HW236420   2.533   1.490  10.187 -0.0242  0.6492  0.7214
 8321SOL     OW36421   1.733   1.211  10.054  0.0541  0.3573  0.1828
 8321SOL    HW136422   1.743   1.118  10.037 -2.0059  0.3035 -0.7740
 8321SOL    HW236423   1.641   1.214  10.081  0.1306  1.6343  0.3324
 8322SOL     OW36424   4.514   3.712   2.883  0.3098  0.2275  0.0298
 8322SOL    HW136425   4.434   3.665   2.859  0.7162  0.0210 -0.9083
 8322SOL    HW236426   4.551   3.647   2.942  0.1747 -1.2973 -1.5645
 8323SOL     OW36427   4.264   2.754   6.168  0.1791  0.5209 -0.2046
 8323SOL    HW136428   4.170   2.771   6.169  0.6167  2.9443 -0.2180
 8323SOL    HW236429   4.283   2.746   6.074  3.4922 -1.3013  0.6067
 8324SOL     OW36430   2.837   4.608   8.562  0.7355  0.4408 -0.8155
 8324SOL    HW136431   2.801   4.578   8.479  0.9849  1.8272 -1.4179
 8324SOL    HW236432   2.842   4.526   8.611 -1.2074  1.3038  0.7841
 8325SOL     OW36433   3.211   3.972   3.392 -0.2262 -0.2438  0.5384
 8325SOL    HW136434   3.271   4.043   3.416  0.3242  0.4712 -2.9230
 8325SOL    HW236435   3.217   3.974   3.296  1.7299 -1.2033  0.6391
 8326SOL     OW36436   3.401   0.355  11.221  0.0643  0.1471 -0.3136
 8326SOL    HW136437   3.398   0.431  11.279 -0.0478 -0.1833  0.1091
 8326SOL    HW236438   3.491   0.354  11.189  1.1900  0.6232  2.8277
 8327SOL     OW36439   4.344   0.868   3.938  0.0500  0.1638 -0.4063
 8327SOL    HW136440   4.274   0.866   4.004  1.9583  1.2682  1.6206
 8327SOL    HW236441   4.363   0.774   3.930 -0.8523  0.0368 -1.0564
 8328SOL     OW36442   1.137   0.471   4.766 -0.0232  0.0267 -0.3133
 8328SOL    HW136443   1.121   0.497   4.676  1.2452 -0.1284 -0.5822
 8328SOL    HW236444   1.224   0.436   4.748  0.8063  1.6837  0.4307
 8329SOL     OW36445   2.985   3.170   4.843  0.2139 -0.0816  0.2993
 8329SOL    HW136446   2.936   3.233   4.789  2.5836  0.2080 -1.5027
 8329SOL    HW236447   2.907   3.122   4.870 -2.0730  2.4682 -1.7232
 8330SOL     OW36448   2.010   3.575   3.446  0.1018  0.0280  0.0792
 8330SOL    HW136449   2.067   3.530   3.384 -1.7322  2.2253 -3.2388
 8330SOL    HW236450   1.995   3.512   3.516 -1.6174  1.7339  1.2694
 8331SOL     OW36451   1.271   2.298   5.236  0.3163 -0.1698 -0.5222
 8331SOL    HW136452   1.198   2.359   5.247  0.6797  0.1394  0.1809
 8331SOL    HW236453   1.240   2.257   5.155  0.8856 -1.4338 -0.0972
 8332SOL     OW36454   3.423   4.252   5.578  0.4296 -0.4497 -0.5642
 8332SOL    HW136455   3.450   4.172   5.622  0.0490 -0.6150 -0.6280
 8332SOL    HW236456   3.406   4.217   5.491 -1.1058 -1.3974  0.1275
 8333SOL     OW36457   2.374   0.808   3.330  0.2752  0.1650 -0.2979
 8333SOL    HW136458   2.343   0.770   3.413  1.6726  0.5988  0.4183
 8333SOL    HW236459   2.468   0.819   3.345  0.2688 -2.2543  1.6626
 8334SOL     OW36460   2.483   0.737   2.976 -0.0877  0.4496  0.2067
 8334SOL    HW136461   2.435   0.655   2.982  0.6361 -0.0916 -1.2801
 8334SOL    HW236462   2.430   0.808   3.011 -2.2214 -2.6989  3.3164
 8335SOL     OW36463   2.660   0.030   9.178  0.0573  0.1919  0.2472
 8335SOL    HW136464   2.571   0.033   9.143  0.5916  1.9643 -0.9919
 8335SOL    HW236465   2.658   4.666   9.221 -0.0129  0.3542  0.5696
 8336SOL     OW36466   0.015   3.892  10.568 -0.1100  0.1406 -0.0923
 8336SOL    HW136467   0.042   3.820  10.511  1.2386  1.0332 -0.5827
 8336SOL    HW236468   0.050   3.864  10.652  0.7760 -2.7107 -1.4040
 8337SOL     OW36469   2.523   2.632   2.563 -0.1382  0.3715  0.1711
 8337SOL    HW136470   2.575   2.668   2.492 -0.0918  0.2877  0.1627
 8337SOL    HW236471   2.502   2.553   2.513  0.4321  0.9329 -0.9495
 8338SOL     OW36472   2.130   0.805   8.769 -0.1880  0.0591  0.6026
 8338SOL    HW136473   2.201   0.811   8.705 -0.1366 -0.5014  0.6021
 8338SOL    HW236474   2.054   0.820   8.713 -0.9911 -0.9840  1.4173
 8339SOL     OW36475   3.658   3.501  10.470 -0.2435 -0.5505 -0.0949
 8339SOL    HW136476   3.737   3.460  10.505  1.1353 -0.4924 -3.1182
 8339SOL    HW236477   3.662   3.457  10.386 -0.4156  0.5617 -0.6921
 8340SOL     OW36478   0.623   4.079   7.761 -0.1444  0.4182 -0.4261
 8340SOL    HW136479   0.577   4.026   7.826  2.7180 -1.3557  0.1669
 8340SOL    HW236480   0.661   4.007   7.711 -0.3901 -0.0517  0.0604
 8341SOL     OW36481   4.637   2.513   4.702  0.5587  0.4019 -0.2821
 8341SOL    HW136482   4.694   2.436   4.711 -1.3653 -0.8361  1.4481
 8341SOL    HW236483   4.609   2.500   4.611 -1.2270 -3.1230  0.7547
 8342SOL     OW36484   2.094   0.759   2.989  0.3388  0.3613  0.0210
 8342SOL    HW136485   2.097   0.696   3.062 -1.7889 -1.8074 -1.7607
 8342SOL    HW236486   2.148   0.715   2.924 -2.1434  0.1293 -1.8962
 8343SOL     OW36487   4.557   3.759   5.996 -0.2758 -0.0742  0.2483
 8343SOL    HW136488   4.578   3.789   5.907  3.4406 -0.8954  0.8698
 8343SOL    HW236489   4.629   3.796   6.046 -0.4042 -0.6748  0.8749
 8344SOL     OW36490   2.071   0.966  14.731  0.0072 -0.2070  0.3531
 8344SOL    HW136491   2.099   0.881  14.764  0.1126 -0.7228 -1.0628
 8344SOL    HW236492   1.993   0.936  14.684  0.0518  1.0610 -0.5583
 8345SOL     OW36493   0.513   1.786   4.183  0.3352 -0.0628  0.5393
 8345SOL    HW136494   0.558   1.704   4.166  2.4598  1.2671 -0.2818
 8345SOL    HW236495   0.577   1.831   4.238 -0.5794  1.5812  0.2735
 8346SOL     OW36496   0.726   1.536   3.444 -0.0966 -0.0131 -0.8845
 8346SOL    HW136497   0.640   1.558   3.407  1.6119  1.5938 -3.9262
 8346SOL    HW236498   0.771   1.513   3.363 -0.8771 -1.5291 -0.8877
 8347SOL     OW36499   3.920   4.329   2.485  0.1440 -0.1186  0.0002
 8347SOL    HW136500   3.873   4.364   2.410 -1.3082 -0.1134  0.9200
 8347SOL    HW236501   3.853   4.268   2.514  1.1941 -0.5292  1.5758
 8348SOL     OW36502   3.329   4.341   8.030 -0.2440 -0.0205 -0.6832
 8348SOL    HW136503   3.293   4.318   8.115 -0.5561  1.4203 -0.4162
 8348SOL    HW236504   3.416   4.304   8.040 -0.4667  0.0091  1.3596
 8349SOL     OW36505   2.745   3.413   7.284 -0.2111 -0.3611 -0.1445
 8349SOL    HW136506   2.688   3.352   7.237 -1.7216  1.1539 -0.2748
 8349SOL    HW236507   2.675   3.461   7.328  0.3239  0.6296 -0.3695
 8350SOL     OW36508   1.555   1.282   8.179  0.0010 -0.1089  0.2735
 8350SOL    HW136509   1.479   1.260   8.233  0.1892  0.9259  0.9534
 8350SOL    HW236510   1.527   1.317   8.095 -3.5919 -0.4120  1.3461
 8351SOL     OW36511   3.062   3.094   9.673 -0.6156 -0.6970  0.0359
 8351SOL    HW136512   3.038   3.090   9.580  0.4992 -0.3779 -0.2618
 8351SOL    HW236513   3.130   3.160   9.663  0.0253 -1.1843  1.1882
 8352SOL     OW36514   0.944   0.412   1.948  0.4083  0.1363  0.0614
 8352SOL    HW136515   1.034   0.393   1.923  0.1768 -0.3510 -0.3972
 8352SOL    HW236516   0.899   0.346   1.895  0.0046  0.3514  0.1376
 8353SOL     OW36517   3.601   2.327   1.213  0.4754  0.1677 -0.0551
 8353SOL    HW136518   3.684   2.321   1.260  0.3600 -2.4791 -0.1811
 8353SOL    HW236519   3.608   2.285   1.127 -0.1773  0.3087 -0.1742
 8354SOL     OW36520   4.417   3.573   8.066 -0.8777  0.1451  0.6674
 8354SOL    HW136521   4.437   3.508   8.133 -0.7774  0.8680  1.3348
 8354SOL    HW236522   4.464   3.549   7.986 -1.2858 -0.7452  0.6970
 8355SOL     OW36523   3.573   2.670   1.960  0.0756 -0.3146  0.6030
 8355SOL    HW136524   3.528   2.588   1.939 -0.0715  0.1566 -0.9209
 8355SOL    HW236525   3.527   2.696   2.040 -0.0947  2.1334 -0.3034
 8356SOL     OW36526   3.646   1.419   1.832 -0.1132  0.6113 -0.1649
 8356SOL    HW136527   3.639   1.462   1.747 -1.0124  0.3685 -0.2122
 8356SOL    HW236528   3.563   1.372   1.843  0.0036  0.2889 -0.6574
 8357SOL     OW36529   4.514   1.124   2.313 -0.1756  0.0775  0.3514
 8357SOL    HW136530   4.469   1.208   2.309  3.7679  2.1860  0.1628
 8357SOL    HW236531   4.458   1.095   2.385 -0.6540  0.4008  0.1128
 8358SOL     OW36532   3.365   0.716  17.281 -0.3050 -0.1813 -0.5675
 8358SOL    HW136533   3.348   0.767  17.202  0.3258  0.9109 -0.0005
 8358SOL    HW236534   3.456   0.690  17.270 -0.8218 -2.6334  0.8360
 8359SOL     OW36535   2.904   3.472   7.604 -0.2972  0.2631  0.3897
 8359SOL    HW136536   2.877   3.381   7.588 -0.6414  0.5933 -0.8942
 8359SOL    HW236537   2.994   3.462   7.572 -1.6216 -0.1993 -3.2511
 8360SOL     OW36538   0.015   2.526   1.987  0.0361 -0.2433 -0.6001
 8360SOL    HW136539   0.073   2.602   1.989 -1.5558  0.9020  0.7471
 8360SOL    HW236540   4.704   2.516   1.897 -1.2457 -0.1214 -0.1531
 8361SOL     OW36541   1.487   4.663   9.318  0.2194  0.2083 -0.0084
 8361SOL    HW136542   1.433   0.012   9.284 -0.2505 -0.5019 -0.7146
 8361SOL    HW236543   1.453   4.648   9.406 -0.7951 -3.6461 -1.0631
 8362SOL     OW36544   4.151   2.152   3.803  0.5515 -0.2637  0.1454
 8362SOL    HW136545   4.207   2.212   3.754  0.9197 -1.7640 -1.2813
 8362SOL    HW236546   4.171   2.066   3.765 -1.4578 -0.3633 -0.7030
 8363SOL     OW36547   0.329   0.928   6.198 -0.0684 -0.0591 -0.3851
 8363SOL    HW136548   0.344   0.943   6.291  0.1673 -1.4298 -0.2099
 8363SOL    HW236549   0.333   0.834   6.182 -1.5494  0.1677 -2.0077
 8364SOL     OW36550   0.847   1.679   2.044  0.0442  0.6509  0.4421
 8364SOL    HW136551   0.841   1.726   1.961  0.2803 -0.7740 -0.3796
 8364SOL    HW236552   0.804   1.599   2.015 -0.2159  0.7402  0.5766
 8365SOL     OW36553   0.947   2.744  11.792  0.1673  0.3672  0.1020
 8365SOL    HW136554   1.035   2.729  11.757  0.0751 -0.2414  0.1162
 8365SOL    HW236555   0.925   2.666  11.844 -3.7187 -0.4835 -2.7874
 8366SOL     OW36556   1.131   4.054  16.798 -0.3700 -1.0257  0.0198
 8366SOL    HW136557   1.183   3.983  16.758  0.9913  0.1425 -0.2757
 8366SOL    HW236558   1.164   4.054  16.888  1.9202 -0.2161 -0.8120
 8367SOL     OW36559   1.082   2.727   4.182 -0.3140  0.2115 -0.5264
 8367SOL    HW136560   1.056   2.759   4.095 -1.0536  1.2475  0.0704
 8367SOL    HW236561   1.176   2.709   4.184 -0.9404 -2.8227  0.2328
 8368SOL     OW36562   2.744   1.995   1.136  0.1231  0.6395  0.1312
 8368SOL    HW136563   2.689   1.933   1.090  0.5012 -0.3161  0.9694
 8368SOL    HW236564   2.829   1.952   1.140 -0.1365 -0.0106 -1.4692
 8369SOL     OW36565   3.883   2.580  15.755  0.2187  0.5045 -0.2401
 8369SOL    HW136566   3.829   2.659  15.749  0.0286  0.5670  2.2498
 8369SOL    HW236567   3.848   2.525  15.685 -1.7121 -1.4433  2.2499
 8370SOL     OW36568   4.062   1.454   8.324  0.4925  0.7937  0.1131
 8370SOL    HW136569   4.154   1.452   8.298  0.7135 -0.6668  0.9824
 8370SOL    HW236570   4.022   1.446   8.237  1.7946 -0.4770 -0.3748
 8371SOL     OW36571   4.402   3.266   8.086 -0.0405 -0.8820  0.0231
 8371SOL    HW136572   4.411   3.172   8.097 -0.3819 -0.9372 -0.1568
 8371SOL    HW236573   4.429   3.303   8.171 -1.1610 -0.4883  0.2259
 8372SOL     OW36574   0.314   4.642  13.082 -0.4584  0.2887 -0.2843
 8372SOL    HW136575   0.291   4.707  13.016 -0.0607 -1.5754 -2.2437
 8372SOL    HW236576   0.348   4.689  13.158 -1.9010  0.2057  0.4102
 8373SOL     OW36577   2.920   3.028   5.447  0.4470  0.7850 -0.2643
 8373SOL    HW136578   2.982   3.096   5.473 -0.1778  1.1592  0.2544
 8373SOL    HW236579   2.933   3.022   5.353  0.4722 -0.5314 -0.1771
 8374SOL     OW36580   1.417   0.303   0.220 -0.5794 -0.3253  0.5266
 8374SOL    HW136581   1.378   0.391   0.217  1.6008  0.5721 -1.2440
 8374SOL    HW236582   1.455   0.290   0.133 -0.3633  0.8450  0.4428
 8375SOL     OW36583   3.628   0.223   8.394  0.2006 -0.6126  0.2402
 8375SOL    HW136584   3.692   0.168   8.348 -2.0887 -1.0788 -2.3816
 8375SOL    HW236585   3.564   0.157   8.420  0.0562 -0.8947 -0.8101
 8376SOL     OW36586   3.495   0.819   6.788 -0.3950 -0.0524  0.2416
 8376SOL    HW136587   3.441   0.806   6.866  0.9693 -0.5011  1.1300
 8376SOL    HW236588   3.480   0.736   6.743  0.0597  0.0585 -0.1194
 8377SOL     OW36589   1.681   3.763  15.679  0.5986  0.3635  0.1660
 8377SOL    HW136590   1.726   3.724  15.754 -0.8286 -2.7800 -0.6202
 8377SOL    HW236591   1.729   3.724  15.607 -0.6386 -0.7573 -0.0576
 8378SOL     OW36592   1.688   0.444   2.049 -0.0636 -1.1556  0.3059
 8378SOL    HW136593   1.593   0.453   2.040  0.3430  0.9186 -1.6916
 8378SOL    HW236594   1.712   0.486   2.131  0.4233 -1.8389  0.5134
 8379SOL     OW36595   0.323   1.763   3.804 -0.5432 -0.1898 -0.0564
 8379SOL    HW136596   0.262   1.712   3.858 -0.5601 -0.2758 -0.1573
 8379SOL    HW236597   0.398   1.703   3.806 -1.0304 -0.8236 -1.1697
 8380SOL     OW36598   4.260   4.137   7.287  0.5873 -0.6004  0.5016
 8380SOL    HW136599   4.343   4.176   7.313 -0.0249  1.1936 -0.1948
 8380SOL    HW236600   4.236   4.189   7.210 -1.4437 -1.7165  0.3778
 8381SOL     OW36601   0.507   3.478   0.997  0.3422  0.6508 -0.8272
 8381SOL    HW136602   0.583   3.536   0.989  1.4750 -0.9624 -1.9410
 8381SOL    HW236603   0.524   3.421   1.072 -0.9478  0.8075 -0.4176
 8382SOL     OW36604   1.165   1.525  16.126 -0.1038 -0.5955 -0.4014
 8382SOL    HW136605   1.143   1.616  16.108 -0.7266 -0.5247  0.7310
 8382SOL    HW236606   1.222   1.542  16.201 -0.9271  1.5465 -0.2663
 8383SOL     OW36607   3.471   0.592   4.250  0.0922 -0.0693  0.0269
 8383SOL    HW136608   3.500   0.592   4.159 -0.2582 -2.6921 -0.0894
 8383SOL    HW236609   3.487   0.502   4.276  1.5106 -0.0079 -0.6415
 8384SOL     OW36610   0.691   1.478   2.906 -0.2364 -0.5079 -0.4520
 8384SOL    HW136611   0.643   1.443   2.831 -0.6532 -0.8251 -0.0380
 8384SOL    HW236612   0.780   1.497   2.876 -0.2689 -1.7988 -1.3235
 8385SOL     OW36613   2.467   3.058  15.409 -0.3437  0.2383  0.5649
 8385SOL    HW136614   2.425   3.069  15.494 -0.0559  1.3559  0.5519
 8385SOL    HW236615   2.536   3.124  15.405 -2.5313  2.5548  1.3471
 8386SOL     OW36616   1.719   0.407   4.103 -0.0530 -0.1748 -0.5705
 8386SOL    HW136617   1.683   0.462   4.173  2.6180  1.2809 -0.3296
 8386SOL    HW236618   1.764   0.469   4.046 -0.4697  0.0131 -0.6941
 8387SOL     OW36619   1.455   4.523   9.999  0.2763 -0.4336 -0.6044
 8387SOL    HW136620   1.400   4.500  10.074 -0.2766  1.4696 -0.4211
 8387SOL    HW236621   1.517   4.584  10.038 -0.5832  0.4115 -0.5490
 8388SOL     OW36622   4.510   2.758  14.381 -0.3805  0.6603  0.1658
 8388SOL    HW136623   4.598   2.741  14.347 -1.0587 -2.1937 -0.1746
 8388SOL    HW236624   4.461   2.771  14.300  0.7352 -2.0571 -0.9445
 8389SOL     OW36625   4.076   4.144   6.691  0.2732 -0.6116 -0.1040
 8389SOL    HW136626   4.040   4.064   6.730 -0.0379 -0.2885  0.2685
 8389SOL    HW236627   4.115   4.117   6.608  1.5120  0.7468  0.0356
 8390SOL     OW36628   1.900   4.587   6.093 -0.9228 -0.0093  0.0606
 8390SOL    HW136629   1.923   4.507   6.141 -1.2093 -1.3123 -1.9818
 8390SOL    HW236630   1.930   4.567   6.004 -1.3577  2.4070 -0.6181
 8391SOL     OW36631   1.245   1.151   6.332  0.7507 -0.0182 -0.2598
 8391SOL    HW136632   1.310   1.099   6.378  1.2328 -1.7510 -2.9085
 8391SOL    HW236633   1.298   1.196   6.266  0.7270  1.7800  0.9511
 8392SOL     OW36634   0.588   1.029   6.156  0.5580 -0.4542  0.4032
 8392SOL    HW136635   0.502   0.996   6.181 -0.0967 -0.7629 -2.2817
 8392SOL    HW236636   0.637   1.017   6.237  0.1304  0.8837  0.8581
 8393SOL     OW36637   4.062   0.310   8.220 -0.0490  0.6423  0.1761
 8393SOL    HW136638   4.086   0.284   8.131 -1.4698 -1.8559  0.5213
 8393SOL    HW236639   3.970   0.335   8.218 -0.7100 -1.9270 -1.1982
 8394SOL     OW36640   2.793   3.137   2.793 -0.1493 -0.2672  0.2148
 8394SOL    HW136641   2.754   3.077   2.729  0.8251 -2.2087  1.4271
 8394SOL    HW236642   2.868   3.091   2.832  0.5235  0.3233 -0.3883
 8395SOL     OW36643   1.135   2.996   2.217  0.5189 -0.0224 -0.0482
 8395SOL    HW136644   1.173   3.078   2.186 -0.1144  0.8551  1.5340
 8395SOL    HW236645   1.046   3.027   2.233 -0.4017 -3.0390  0.7429
 8396SOL     OW36646   1.617   4.338   3.058  0.0110 -0.1134  1.0738
 8396SOL    HW136647   1.652   4.419   3.094  0.2569  0.6961 -0.9985
 8396SOL    HW236648   1.574   4.293   3.130  0.7090 -1.6049  0.5739
 8397SOL     OW36649   1.188   1.459   6.130  0.4518 -0.2654 -0.3376
 8397SOL    HW136650   1.241   1.379   6.129  0.6531 -0.1284 -0.6268
 8397SOL    HW236651   1.258   1.523   6.143  1.1691 -0.6358 -2.3506
 8398SOL     OW36652   3.200   1.515  13.087  0.1980  0.2903  0.3279
 8398SOL    HW136653   3.261   1.516  13.013  0.3728  1.2071  0.4786
 8398SOL    HW236654   3.214   1.428  13.123 -1.8322  0.4029  1.4008
 8399SOL     OW36655   2.463   4.080   3.305  0.2172 -0.3828  0.1031
 8399SOL    HW136656   2.486   4.001   3.257  1.1398  0.1894 -0.3985
 8399SOL    HW236657   2.421   4.050   3.385 -0.7352 -0.7861 -0.5468
 8400SOL     OW36658   3.983   3.271   3.556 -0.1611  0.1498 -0.2752
 8400SOL    HW136659   3.907   3.221   3.527 -1.8524  1.4812  1.8629
 8400SOL    HW236660   3.962   3.362   3.534 -0.3801  0.4332  1.0706
 8401SOL     OW36661   2.859   2.795  16.774  0.4524  0.4417  0.0919
 8401SOL    HW136662   2.951   2.772  16.759 -0.1101 -0.0909 -2.5329
 8401SOL    HW236663   2.864   2.878  16.820  1.0734  0.3465  0.1948
 8402SOL     OW36664   0.603   4.264   7.517 -0.0598 -0.3256  0.2610
 8402SOL    HW136665   0.562   4.236   7.599 -2.1891  0.6441 -0.4565
 8402SOL    HW236666   0.578   4.355   7.506  0.7917 -0.1382 -0.1048
 8403SOL     OW36667   4.383   3.992   7.548  0.3813 -0.4333  0.0207
 8403SOL    HW136668   4.407   3.969   7.458 -0.6725 -1.2140 -0.0545
 8403SOL    HW236669   4.451   4.049   7.584 -1.0930  1.1364  0.3411
 8404SOL     OW36670   0.561   2.832  13.704 -0.2015 -0.0073 -0.0839
 8404SOL    HW136671   0.603   2.873  13.629 -0.9779  0.7852 -0.0825
 8404SOL    HW236672   0.644   2.809  13.746  0.1555 -0.2510 -0.9236
 8405SOL     OW36673   0.127   2.622  11.909 -0.1148  0.3548 -0.6500
 8405SOL    HW136674   0.119   2.674  11.829  0.4868  1.2771 -0.0989
 8405SOL    HW236675   0.186   2.556  11.873 -1.2191 -0.4224 -1.0375
 8406SOL     OW36676   4.024   1.744   3.946  0.4263  0.4834  0.2020
 8406SOL    HW136677   4.003   1.819   4.002  0.0216  1.3981 -1.1801
 8406SOL    HW236678   4.053   1.790   3.868  0.2923  1.0678  0.4939
 8407SOL     OW36679   3.306   1.409   3.785  0.5539  0.2170 -0.0076
 8407SOL    HW136680   3.235   1.469   3.762  0.6227  0.2577 -0.1175
 8407SOL    HW236681   3.360   1.403   3.706 -0.2670 -0.3908 -0.5228
 8408SOL     OW36682   1.747   3.386   6.733  0.5573 -0.0017  0.1089
 8408SOL    HW136683   1.730   3.420   6.645 -0.8003 -0.1706  0.2973
 8408SOL    HW236684   1.664   3.406   6.777 -0.4157 -1.6739 -0.9930
 8409SOL     OW36685   2.378   3.926   7.334 -0.5694 -0.3341 -0.4049
 8409SOL    HW136686   2.407   4.001   7.386  2.4012 -0.5529 -1.7097
 8409SOL    HW236687   2.298   3.903   7.381  0.8972 -0.9921  1.8237
 8410SOL     OW36688   0.832   2.663  17.409 -0.2777  0.2552  0.2242
 8410SOL    HW136689   0.774   2.712  17.467 -1.5918  0.1109 -0.9510
 8410SOL    HW236690   0.879   2.736  17.370  0.0894  0.9844  2.0617
 8411SOL     OW36691   3.033   1.258   1.916 -0.1229 -0.8290  0.1563
 8411SOL    HW136692   3.100   1.310   1.960  0.2935 -1.3826  0.1812
 8411SOL    HW236693   3.062   1.274   1.826 -0.7235 -2.3801 -0.3087
 8412SOL     OW36694   4.389   4.578   6.191  0.5336 -0.1201 -0.8182
 8412SOL    HW136695   4.332   4.538   6.257 -1.5775 -1.3755 -3.4465
 8412SOL    HW236696   4.452   4.507   6.179  1.5675  0.3795  1.6525
 8413SOL     OW36697   3.170   3.796   0.694 -1.1068  0.4857  0.1413
 8413SOL    HW136698   3.080   3.816   0.670 -1.9251 -0.6691  2.2783
 8413SOL    HW236699   3.207   3.884   0.706 -0.6857  0.5498 -1.6937
 8414SOL     OW36700   2.869   0.740  11.774 -0.4395  0.0103 -0.9260
 8414SOL    HW136701   2.958   0.722  11.804 -0.4572 -1.2314 -1.6160
 8414SOL    HW236702   2.888   0.748  11.680 -0.2487  0.0932 -0.8797
 8415SOL     OW36703   3.921   1.612   5.382  0.4267 -0.3281  0.1140
 8415SOL    HW136704   3.844   1.556   5.378  0.7799 -0.6666 -1.8501
 8415SOL    HW236705   3.914   1.632   5.476 -0.0560 -1.2451  0.2771
 8416SOL     OW36706   4.702   1.195  15.342  0.3630 -0.5262 -0.2258
 8416SOL    HW136707   4.652   1.204  15.424  0.2992 -1.1184 -0.1990
 8416SOL    HW236708   4.675   1.278  15.303  0.7721 -1.2394 -1.9897
 8417SOL     OW36709   3.783   3.280   7.814  0.6669  0.2413  0.7192
 8417SOL    HW136710   3.775   3.223   7.738 -0.0650  1.0206  0.2233
 8417SOL    HW236711   3.706   3.333   7.797  0.7075 -0.5451 -1.8596
 8418SOL     OW36712   0.576   1.078   4.646 -0.3338  0.5208  0.3865
 8418SOL    HW136713   0.513   1.138   4.607  0.1253  0.9434  0.2854
 8418SOL    HW236714   0.662   1.118   4.632 -0.2596  1.5278  3.5128
 8419SOL     OW36715   1.159   4.260   4.190 -0.1365 -0.2853 -0.3918
 8419SOL    HW136716   1.065   4.245   4.205 -0.1339 -0.2238 -0.3102
 8419SOL    HW236717   1.172   4.323   4.261 -2.1687 -0.2826 -0.0277
 8420SOL     OW36718   3.344   3.051  11.273 -0.2174  0.3188 -0.0034
 8420SOL    HW136719   3.416   2.990  11.283 -0.1152  0.6311  1.1571
 8420SOL    HW236720   3.279   3.019  11.336 -0.7947 -0.4432 -0.9738
 8421SOL     OW36721   3.572   4.678   8.060  0.2192  0.4899 -0.3473
 8421SOL    HW136722   3.481   4.683   8.089 -0.2028  5.2821 -2.4756
 8421SOL    HW236723   3.606   4.623   8.130  1.6740 -0.3212 -1.6947
 8422SOL     OW36724   4.390   2.565   3.183  0.4557 -0.1009 -0.2726
 8422SOL    HW136725   4.415   2.498   3.120  2.2947  0.1904  0.1351
 8422SOL    HW236726   4.312   2.601   3.140 -0.5088  0.3701  1.8630
 8423SOL     OW36727   2.449   1.220  10.094 -0.0011 -0.4164 -0.4133
 8423SOL    HW136728   2.459   1.310  10.065  0.6012 -0.5058 -0.4839
 8423SOL    HW236729   2.369   1.196  10.047  1.0892 -3.8219 -0.5457
 8424SOL     OW36730   2.862   3.884   1.955  0.3175  0.3092  0.1818
 8424SOL    HW136731   2.791   3.859   1.896  1.7010 -1.0538 -0.9071
 8424SOL    HW236732   2.823   3.968   1.978  2.0168  1.4389 -1.0924
 8425SOL     OW36733   1.742   3.139   6.283  0.1935  0.1224 -0.3370
 8425SOL    HW136734   1.686   3.179   6.349 -0.2524 -0.4549 -0.3723
 8425SOL    HW236735   1.786   3.076   6.339  0.8102  1.2967  0.4923
 8426SOL     OW36736   2.091   4.667   6.403 -0.1976 -0.1195  0.3726
 8426SOL    HW136737   2.039   4.586   6.402  2.0601 -1.6051  1.7096
 8426SOL    HW236738   2.032   0.007   6.358 -1.7002 -2.4823 -0.8807
 8427SOL     OW36739   0.198   1.770  11.820 -0.5189 -0.2407  0.7968
 8427SOL    HW136740   0.254   1.702  11.784  0.0812 -0.1305  1.5359
 8427SOL    HW236741   0.151   1.715  11.883 -2.1106  1.7629  1.3447
 8428SOL     OW36742   3.786   0.692   0.322  0.1269  0.1845  0.2390
 8428SOL    HW136743   3.750   0.741   0.396 -1.2446 -0.4291 -0.0216
 8428SOL    HW236744   3.869   0.660   0.358  0.3615 -1.7390 -1.9740
 8429SOL     OW36745   3.678   2.527  14.579 -0.4418 -0.5577  0.2087
 8429SOL    HW136746   3.587   2.555  14.588 -0.6259  0.0479 -3.4561
 8429SOL    HW236747   3.721   2.612  14.575  0.3919 -1.0551 -1.1538
 8430SOL     OW36748   0.409   4.209  13.120  0.2121  0.7747  0.6716
 8430SOL    HW136749   0.399   4.141  13.187  1.9767  2.9176  3.1331
 8430SOL    HW236750   0.477   4.165  13.069  0.5277 -0.7678  2.4283
 8431SOL     OW36751   2.781   1.458   0.969  0.1323  0.0787  0.1042
 8431SOL    HW136752   2.770   1.542   1.013  0.9339  0.7485 -0.9765
 8431SOL    HW236753   2.874   1.435   0.973 -0.0639 -1.0937 -1.8417
 8432SOL     OW36754   1.523   3.929   7.880 -0.2374 -0.3616  0.9288
 8432SOL    HW136755   1.490   3.845   7.849  0.0018  0.3122 -1.1876
 8432SOL    HW236756   1.582   3.952   7.808 -1.1901  0.1875  0.3335
 8433SOL     OW36757   0.655   4.464   1.291 -0.7232 -0.1565  0.2933
 8433SOL    HW136758   0.736   4.506   1.264  0.5640 -1.3098  2.4062
 8433SOL    HW236759   0.616   4.442   1.206  1.6499 -1.3492 -0.4732
 8434SOL     OW36760   1.101   1.878   3.233  0.4668 -0.0499  0.0757
 8434SOL    HW136761   1.107   1.831   3.150 -0.8921 -3.0626  1.6950
 8434SOL    HW236762   1.030   1.837   3.282  0.3138 -0.7476 -0.7301
 8435SOL     OW36763   2.483   1.188   7.071  0.3490  0.2316  0.2396
 8435SOL    HW136764   2.438   1.187   6.987 -0.8808  2.1211  0.8940
 8435SOL    HW236765   2.408   1.173   7.128  0.4216  0.9496  0.5203
 8436SOL     OW36766   0.702   2.501  17.230 -0.3625 -0.1356 -0.2127
 8436SOL    HW136767   0.748   2.514  17.147  0.6163 -1.6772  0.0970
 8436SOL    HW236768   0.745   2.550  17.300  2.2100 -1.4796 -0.8645
 8437SOL     OW36769   0.335   2.430   7.124  0.3676 -0.1391  0.3892
 8437SOL    HW136770   0.388   2.401   7.050  0.2443  1.0240 -0.1480
 8437SOL    HW236771   0.262   2.480   7.088  1.3753 -0.2509 -1.7911
 8438SOL     OW36772   3.926   4.544  13.625  0.5103 -0.1669 -0.2480
 8438SOL    HW136773   3.847   4.530  13.572  0.9143  1.0829 -1.2007
 8438SOL    HW236774   3.897   4.520  13.712 -2.9124  0.9205 -1.0827
 8439SOL     OW36775   0.033   1.718   1.770 -0.0864 -0.1265 -0.0946
 8439SOL    HW136776   4.677   1.665   1.792  0.3785 -0.3842  0.8912
 8439SOL    HW236777   0.046   1.692   1.679  1.5187  1.3507 -0.2745
 8440SOL     OW36778   4.226   3.216   5.944  0.1492  0.0011 -0.4091
 8440SOL    HW136779   4.270   3.302   5.943  0.9257 -0.3878  0.3576
 8440SOL    HW236780   4.159   3.239   5.880  0.6999 -0.4868 -1.1424
 8441SOL     OW36781   4.689   0.932   4.077  0.1238  0.2016 -0.1258
 8441SOL    HW136782   4.610   0.898   4.121  0.0826 -0.4954 -0.7338
 8441SOL    HW236783   0.015   0.851   4.099  0.9536  0.7429  0.0825
 8442SOL     OW36784   1.962   0.023  15.636  0.1032  0.1116 -0.0495
 8442SOL    HW136785   1.937   0.067  15.717 -2.5673 -1.4721 -0.0306
 8442SOL    HW236786   2.026   0.080  15.592  0.8329 -0.7919 -0.1539
 8443SOL     OW36787   4.650   1.223   7.050 -0.4718  0.0034 -0.0897
 8443SOL    HW136788   4.555   1.211   7.052 -0.4903  0.1073 -0.3579
 8443SOL    HW236789   4.673   1.268   7.132 -0.9889  2.8256 -1.4935
 8444SOL     OW36790   0.386   0.804   6.578  0.0881  0.0816 -0.1178
 8444SOL    HW136791   0.405   0.885   6.529  1.4452  0.6533  1.3653
 8444SOL    HW236792   0.473   0.801   6.617 -0.2513 -0.9083  0.5440
 8445SOL     OW36793   1.931   1.999   2.038  0.1916  0.0357  0.4411
 8445SOL    HW136794   1.862   1.943   2.074  0.0912 -0.9862 -1.3245
 8445SOL    HW236795   2.011   1.956   2.069  0.1632 -0.3451 -0.0110
 8446SOL     OW36796   4.214   2.675  14.285  0.0428  0.6504 -0.5445
 8446SOL    HW136797   4.120   2.683  14.305  0.0021 -0.0767 -0.4391
 8446SOL    HW236798   4.231   2.768  14.275  1.4464  0.4336 -0.2162
 8447SOL     OW36799   3.065   3.949   6.514  0.0513 -0.4701  0.6165
 8447SOL    HW136800   3.069   3.860   6.547  1.0490 -0.2742  1.0427
 8447SOL    HW236801   2.986   3.983   6.556  0.4090 -1.1184  1.8042
 8448SOL     OW36802   3.094   1.545  16.830  0.1779 -0.4221  0.0340
 8448SOL    HW136803   3.049   1.621  16.794 -0.6485 -0.9554 -0.0718
 8448SOL    HW236804   3.186   1.570  16.842  0.2225  0.3381 -1.8881
 8449SOL     OW36805   0.383   0.800   4.183  0.4332  0.1171 -0.1447
 8449SOL    HW136806   0.461   0.761   4.221  1.0986  2.3564  0.7607
 8449SOL    HW236807   0.415   0.889   4.196 -2.8500  0.8572  3.0784
 8450SOL     OW36808   3.863   3.976  17.235 -0.4017  0.5376 -0.0595
 8450SOL    HW136809   3.837   4.062  17.201 -1.6832  0.8021  1.5989
 8450SOL    HW236810   3.943   3.956  17.186 -0.6059  1.1893 -0.6640
 8451SOL     OW36811   3.460   2.186  17.641  0.0940 -0.0914  0.3357
 8451SOL    HW136812   3.398   2.167  17.571  2.1379  2.1014 -2.0638
 8451SOL    HW236813   3.523   2.240  17.593 -0.6087  0.4471  0.0148
 8452SOL     OW36814   1.854   0.050   9.691  0.5870 -0.1401  0.1217
 8452SOL    HW136815   1.868   0.095   9.775 -1.7440  1.6525 -0.4661
 8452SOL    HW236816   1.760   0.066   9.685  0.6954  1.0912  1.7499
 8453SOL     OW36817   0.971   3.476   4.664  0.0005 -0.6625  0.1479
 8453SOL    HW136818   0.930   3.562   4.674  0.1640 -0.5339 -0.2983
 8453SOL    HW236819   0.948   3.431   4.745  0.3315 -0.1138  0.5468
 8454SOL     OW36820   2.040   0.542   9.640 -0.1477 -0.0614 -0.2962
 8454SOL    HW136821   2.080   0.542   9.553  0.6385  0.5291  0.0590
 8454SOL    HW236822   1.997   0.627   9.632 -0.7844 -0.4031 -0.4846
 8455SOL     OW36823   3.819   4.041   6.925 -0.1837  0.6534  0.7375
 8455SOL    HW136824   3.725   4.057   6.909 -0.2133  1.2722  1.5365
 8455SOL    HW236825   3.847   4.128   6.955  3.4473 -0.6391  0.9733
 8456SOL     OW36826   4.053   3.028  15.986 -0.3185  0.3446 -0.0876
 8456SOL    HW136827   3.972   2.995  15.947 -0.5539 -0.1260  0.8202
 8456SOL    HW236828   4.025   3.077  16.063  2.5504  2.1682 -0.2193
 8457SOL     OW36829   1.670   1.601  13.213 -0.1722  0.4212  0.0545
 8457SOL    HW136830   1.583   1.600  13.253 -1.0323 -2.3108 -1.8778
 8457SOL    HW236831   1.718   1.541  13.270 -0.0569  0.0993 -0.3850
 8458SOL     OW36832   3.089   0.993   3.592  0.2641  0.8471 -0.3284
 8458SOL    HW136833   3.049   0.942   3.522 -0.0255 -0.3002  0.6747
 8458SOL    HW236834   3.172   1.023   3.556  1.2811 -0.5186  0.8679
 8459SOL     OW36835   2.020   0.766   1.845  0.1856 -0.1311 -0.7908
 8459SOL    HW136836   2.029   0.672   1.857  0.5459  0.0213  0.1742
 8459SOL    HW236837   1.985   0.799   1.928 -0.7794 -0.1653 -1.1910
 8460SOL     OW36838   3.068   0.563   4.461  0.4667 -0.2835  0.6301
 8460SOL    HW136839   3.114   0.587   4.381  0.0476  0.4889  0.6272
 8460SOL    HW236840   2.977   0.582   4.439  0.0830 -0.7908  1.7753
 8461SOL     OW36841   2.032   4.114  13.993  0.1876 -0.3570 -0.0023
 8461SOL    HW136842   1.969   4.184  14.009 -0.6577 -0.7831 -1.4017
 8461SOL    HW236843   2.108   4.168  13.970 -1.8144  2.9043  1.1389
 8462SOL     OW36844   4.318   4.110   6.985 -0.4397 -0.2414 -0.3834
 8462SOL    HW136845   4.267   4.164   6.923 -1.8663 -2.1048 -0.8477
 8462SOL    HW236846   4.258   4.039   7.008  0.3149 -0.2049  1.6900
 8463SOL     OW36847   1.264   1.466   4.055  0.6923  0.3382 -0.1348
 8463SOL    HW136848   1.319   1.515   3.993  0.6012  1.3949  0.6199
 8463SOL    HW236849   1.184   1.519   4.048  0.4231  0.0792  1.0727
 8464SOL     OW36850   0.902   0.350   5.527  0.6072  0.0919  0.0750
 8464SOL    HW136851   0.952   0.269   5.515  0.4023  0.2111 -1.5102
 8464SOL    HW236852   0.973   0.412   5.511  1.6508 -0.9862  0.4544
 8465SOL     OW36853   1.362   0.637  12.874 -0.5206  0.1045 -0.3368
 8465SOL    HW136854   1.292   0.645  12.810 -0.9204 -3.4362 -0.3563
 8465SOL    HW236855   1.400   0.724  12.887  0.6946 -0.5268  0.3820
 8466SOL     OW36856   4.517   1.660  17.465 -0.1265 -0.6553  0.1027
 8466SOL    HW136857   4.597   1.608  17.472 -0.4280 -1.2831 -1.3141
 8466SOL    HW236858   4.453   1.590  17.461  1.3046 -2.0995  2.2626
 8467SOL     OW36859   4.487   2.663   7.189 -0.2614  0.1802  0.1957
 8467SOL    HW136860   4.437   2.717   7.127 -0.9915 -0.6717  0.0353
 8467SOL    HW236861   4.509   2.732   7.251  1.7293 -0.1074 -0.1824
 8468SOL     OW36862   1.784   0.943  14.506  0.0336 -0.4369  0.4289
 8468SOL    HW136863   1.701   0.928  14.460  1.2801  2.4004 -2.7625
 8468SOL    HW236864   1.833   0.988  14.437  1.6515  0.4006  2.1311
 8469SOL     OW36865   1.526   2.317   6.082 -0.0823 -0.5375 -0.3872
 8469SOL    HW136866   1.479   2.264   6.146  1.6691  1.2185  2.3254
 8469SOL    HW236867   1.615   2.284   6.089 -0.6523 -2.0496 -0.3414
 8470SOL     OW36868   3.961   2.726   4.923  0.0764 -0.4727  0.6240
 8470SOL    HW136869   4.028   2.785   4.889 -0.7998  0.3374  0.3361
 8470SOL    HW236870   3.912   2.715   4.842  2.1099 -1.3016 -0.4986
 8471SOL     OW36871   0.152   2.082  10.477 -0.1263 -0.6820  0.2790
 8471SOL    HW136872   0.198   2.022  10.536  1.4565 -0.0414 -0.3045
 8471SOL    HW236873   0.207   2.088  10.399 -0.7794 -0.7209 -0.1865
 8472SOL     OW36874   1.071   2.940  11.351  0.5218 -0.8280 -0.6421
 8472SOL    HW136875   1.009   3.006  11.382  2.2569  0.9579 -0.9216
 8472SOL    HW236876   1.145   2.986  11.392 -1.7269  1.1831  1.1577
 8473SOL     OW36877   3.712   4.580   5.401  0.6930  0.4489 -0.6112
 8473SOL    HW136878   3.774   4.602   5.471  0.1496 -0.7759  0.2582
 8473SOL    HW236879   3.655   4.656   5.388 -1.6265 -1.4918 -1.7185
 8474SOL     OW36880   4.046   0.461   0.286  0.2618 -0.6477  0.0651
 8474SOL    HW136881   4.040   0.524   0.358 -0.2481 -1.7248  0.9548
 8474SOL    HW236882   4.138   0.458   0.259  0.5933 -1.2341  1.2524
 8475SOL     OW36883   0.135   2.215   1.903  0.0791 -0.2010  0.3313
 8475SOL    HW136884   0.086   2.190   1.982 -1.2347  1.4365  0.0236
 8475SOL    HW236885   0.208   2.262   1.944  1.1678 -1.0194 -0.6858
 8476SOL     OW36886   2.907   3.307   3.887 -0.0747 -0.4377  0.0420
 8476SOL    HW136887   2.843   3.370   3.921  2.3851  1.1804  1.7090
 8476SOL    HW236888   2.851   3.253   3.831 -0.0556  0.3794 -0.7647
 8477SOL     OW36889   1.463   4.566   3.267 -0.4720  0.4153 -0.0581
 8477SOL    HW136890   1.517   4.601   3.338  1.1946 -2.1919 -0.0584
 8477SOL    HW236891   1.416   4.488   3.299  1.1222  0.2948  2.0160
 8478SOL     OW36892   3.940   2.081   3.495 -0.0368  0.4853  0.7548
 8478SOL    HW136893   3.876   2.026   3.450  0.6905 -0.7161  1.1925
 8478SOL    HW236894   3.884   2.143   3.542  0.0436 -1.0569  2.9235
 8479SOL     OW36895   0.010   3.655   8.187  0.1741  0.0066  0.0431
 8479SOL    HW136896   4.692   3.742   8.195  0.8478  0.1927  1.3503
 8479SOL    HW236897   4.710   3.620   8.274  0.0969 -1.7950 -0.7097
 8480SOL     OW36898   1.408   3.963   2.997  0.6305 -0.1593  0.4861
 8480SOL    HW136899   1.447   4.014   2.926 -0.0861 -0.6278 -0.2414
 8480SOL    HW236900   1.486   3.920   3.034  0.4321 -0.2060  0.8541
 8481SOL     OW36901   3.432   1.864   6.576 -0.2670 -0.5840  0.4280
 8481SOL    HW136902   3.390   1.920   6.641 -0.2546 -1.9697  1.6422
 8481SOL    HW236903   3.512   1.833   6.618  0.0672  0.1435  0.3209
 8482SOL     OW36904   0.716   4.685   3.324 -0.6833  0.0834  0.0762
 8482SOL    HW136905   0.771   4.639   3.261  0.5223 -2.2744  2.8833
 8482SOL    HW236906   0.689   4.614   3.382 -1.0971  0.1646 -0.0121
 8483SOL     OW36907   0.393   2.710   4.190  0.6768  0.2200 -0.3038
 8483SOL    HW136908   0.455   2.639   4.207  0.0954 -0.7262 -2.1051
 8483SOL    HW236909   0.454   2.773   4.151 -1.1546  1.6161 -0.9535
 8484SOL     OW36910   2.913   2.871   9.542  0.1390 -0.5632 -0.2754
 8484SOL    HW136911   2.886   2.897   9.454  1.8512 -1.0778 -0.9471
 8484SOL    HW236912   2.844   2.900   9.602 -1.9967 -0.9081 -2.5769
 8485SOL     OW36913   0.063   1.189  16.566  0.0774  0.0036  0.2678
 8485SOL    HW136914   0.078   1.270  16.614  3.5133  0.8206 -2.2068
 8485SOL    HW236915   0.156   1.170  16.550  0.2483  1.0509  0.0289
 8486SOL     OW36916   0.467   3.132   3.292  0.1009 -0.2387 -0.2622
 8486SOL    HW136917   0.537   3.111   3.230  2.0929  1.4815  1.3901
 8486SOL    HW236918   0.521   3.123   3.371 -1.4822 -1.7324  0.6329
 8487SOL     OW36919   2.111   2.249  10.335  0.3578  0.4709  0.4332
 8487SOL    HW136920   2.178   2.231  10.269  2.1878  1.4142  2.0337
 8487SOL    HW236921   2.095   2.339  10.308 -0.5295 -0.2299 -1.3280
 8488SOL     OW36922   1.894   0.286   5.363 -0.1339  0.3047 -0.0654
 8488SOL    HW136923   1.831   0.357   5.352 -0.9918 -0.1657  1.7847
 8488SOL    HW236924   1.975   0.325   5.333  1.3952 -3.2398 -0.5760
 8489SOL     OW36925   0.359   4.065   7.922  0.2244 -0.2015 -0.2225
 8489SOL    HW136926   0.352   4.075   8.017 -2.7101  0.1064 -0.5008
 8489SOL    HW236927   0.295   3.995   7.913  0.0556 -0.1551  0.6094
 8490SOL     OW36928   0.258   2.906   3.777 -0.0264 -0.4578 -0.3919
 8490SOL    HW136929   0.246   2.814   3.801 -0.5669  0.1906  1.7729
 8490SOL    HW236930   0.345   2.902   3.737  0.3514 -0.1840  0.4127
 8491SOL     OW36931   0.735   0.380   4.921  0.0930 -0.0035 -0.0826
 8491SOL    HW136932   0.779   0.360   4.838  1.4470  0.0029  0.6393
 8491SOL    HW236933   0.732   0.291   4.955 -0.5429 -1.0581 -2.9229
 8492SOL     OW36934   3.153   4.076  16.165  0.4158 -0.7803  0.0497
 8492SOL    HW136935   3.100   4.035  16.233  1.0575  1.5735  1.9617
 8492SOL    HW236936   3.242   4.045  16.178  1.1866  1.8427  1.1261
 8493SOL     OW36937   4.330   0.384   4.848  0.1887  0.1711  0.1185
 8493SOL    HW136938   4.317   0.299   4.888 -1.0622  0.1449 -0.3508
 8493SOL    HW236939   4.419   0.360   4.822  0.5117  0.6516  0.7764
 8494SOL     OW36940   1.219   1.312   0.560  0.0785  0.1316 -0.2584
 8494SOL    HW136941   1.206   1.239   0.620  0.5362  1.9530  2.0751
 8494SOL    HW236942   1.290   1.289   0.500 -1.1398  0.2939 -1.7852
 8495SOL     OW36943   3.182   4.346   9.211 -0.3052  0.0061  0.6680
 8495SOL    HW136944   3.229   4.264   9.200  1.8135  1.4013 -0.7483
 8495SOL    HW236945   3.166   4.350   9.306  1.4465 -2.0206  1.0431
 8496SOL     OW36946   2.532   1.221  15.528  0.2034 -0.4447  0.0030
 8496SOL    HW136947   2.529   1.161  15.602  0.2892  0.0808  0.4281
 8496SOL    HW236948   2.579   1.300  15.556 -2.1820  0.4514  1.4968
 8497SOL     OW36949   4.425   2.324  11.202 -0.0919 -0.3841 -0.1977
 8497SOL    HW136950   4.382   2.239  11.212  0.6606 -0.6783  0.5266
 8497SOL    HW236951   4.472   2.328  11.118  0.4982 -2.7060  0.0231
 8498SOL     OW36952   2.100   1.670   2.193  0.3256 -0.4205 -0.5644
 8498SOL    HW136953   2.187   1.700   2.168 -0.7864  3.1160 -0.1714
 8498SOL    HW236954   2.047   1.741   2.155  0.5640  0.4043  0.6577
 8499SOL     OW36955   0.446   0.152   7.882 -0.1135  0.1339  0.3096
 8499SOL    HW136956   0.522   0.209   7.871 -1.3950  1.0487 -3.9979
 8499SOL    HW236957   0.472   0.077   7.828  0.8337  0.6542  0.0451
 8500SOL     OW36958   1.317   2.611  12.618 -0.0676 -0.4513 -0.4802
 8500SOL    HW136959   1.348   2.566  12.539 -0.1416  0.2974 -0.9409
 8500SOL    HW236960   1.393   2.630  12.673 -2.1810  1.8624  1.6537
 8501SOL     OW36961   1.787   0.408  14.007  0.7919 -0.3767 -0.1696
 8501SOL    HW136962   1.825   0.410  13.919 -0.0375  2.0685 -0.4643
 8501SOL    HW236963   1.780   0.497  14.042 -0.9905 -0.7849  0.5162
 8502SOL     OW36964   2.674   3.647  10.650  0.6859  0.4242  0.2971
 8502SOL    HW136965   2.765   3.631  10.677  0.4988  2.3817  2.0609
 8502SOL    HW236966   2.663   3.720  10.711  0.3919  0.8423 -0.2599
 8503SOL     OW36967   3.140   0.204  15.338  0.5251  0.2911 -0.4447
 8503SOL    HW136968   3.094   0.157  15.408 -2.6634  1.1942 -1.9174
 8503SOL    HW236969   3.078   0.276  15.330  0.5853  0.2748 -1.0536
 8504SOL     OW36970   4.372   0.125   9.715 -0.3858 -0.6112 -0.5731
 8504SOL    HW136971   4.347   0.105   9.805 -0.7750 -0.4089 -0.6378
 8504SOL    HW236972   4.286   0.160   9.692  0.8077  0.6880 -3.0886
 8505SOL     OW36973   3.410   1.870   8.083  0.5099 -0.0522 -0.0801
 8505SOL    HW136974   3.476   1.820   8.132 -0.6642 -0.2134  1.3194
 8505SOL    HW236975   3.442   1.861   7.993 -0.5246 -2.0062 -0.2468
 8506SOL     OW36976   4.160   4.403   7.793 -0.2879  0.4716  0.0042
 8506SOL    HW136977   4.238   4.457   7.794 -0.8889  1.3293  0.5340
 8506SOL    HW236978   4.194   4.324   7.750 -1.3185  1.2188 -2.2009
 8507SOL     OW36979   2.925   3.076   8.327  0.3388 -0.0710  0.2678
 8507SOL    HW136980   2.868   3.019   8.379  1.6187 -1.5802  0.0176
 8507SOL    HW236981   2.874   3.154   8.305 -0.4925 -0.2939  1.4229
 8508SOL     OW36982   0.669   1.998   9.584  0.0888  0.5673 -0.8691
 8508SOL    HW136983   0.701   2.063   9.646 -1.2448 -0.6112  1.0463
 8508SOL    HW236984   0.751   1.949   9.573  0.9415  2.1279 -1.4395
 8509SOL     OW36985   3.533   1.556   2.319  0.1008 -0.1875  0.1894
 8509SOL    HW136986   3.474   1.622   2.283 -0.9056 -1.1989  0.0038
 8509SOL    HW236987   3.542   1.483   2.258 -0.4868 -0.3242  0.2637
 8510SOL     OW36988   2.414   2.109  10.374 -0.0283 -0.5318  0.4345
 8510SOL    HW136989   2.367   2.048  10.430  0.9440 -1.3859  0.3268
 8510SOL    HW236990   2.474   2.151  10.436 -0.0534  0.6038 -0.2989
 8511SOL     OW36991   3.979   1.926  15.575  0.3536  0.6755  0.2933
 8511SOL    HW136992   3.944   1.970  15.497 -0.4996 -1.8466 -0.7592
 8511SOL    HW236993   4.063   1.969  15.590  0.6942 -0.5513  1.8503
 8512SOL     OW36994   2.979   2.218   9.319  0.4105  0.2521 -0.7901
 8512SOL    HW136995   3.070   2.216   9.287  0.4257 -0.1491 -0.7135
 8512SOL    HW236996   2.926   2.225   9.239  0.2414 -2.3722 -0.9093
 8513SOL     OW36997   1.204   1.198  11.564  0.1883 -0.1633 -0.1820
 8513SOL    HW136998   1.170   1.116  11.531  1.0351 -0.8005  0.5096
 8513SOL    HW236999   1.146   1.259  11.518  0.9564  0.4871 -0.2868
 8514SOL     OW37000   3.832   0.085  10.819  1.0808 -0.3083  0.5778
 8514SOL    HW137001   3.812   0.129  10.902  0.7528  3.3510 -1.4226
 8514SOL    HW237002   3.868   0.159  10.769  0.0637  0.0662  0.3937
 8515SOL     OW37003   1.662   1.955  10.293  0.1826 -0.1346  0.3733
 8515SOL    HW137004   1.646   1.896  10.219  0.8733 -0.6575  0.6373
 8515SOL    HW237005   1.715   2.021  10.248  0.0032  0.1582  0.5937
 8516SOL     OW37006   3.143   4.031   8.014 -0.6567 -0.3263  0.0999
 8516SOL    HW137007   3.117   3.943   8.041  0.0509 -0.6138 -0.1728
 8516SOL    HW237008   3.167   4.010   7.924  2.1417 -1.7343  1.1889
 8517SOL     OW37009   3.869   1.554  15.305  0.0176  0.0711  0.2929
 8517SOL    HW137010   3.914   1.473  15.283 -0.8385 -0.1504 -0.6549
 8517SOL    HW237011   3.781   1.522  15.323 -0.7365  2.0947  0.1861
 8518SOL     OW37012   1.946   0.920   3.946 -0.1780  0.3307 -0.1562
 8518SOL    HW137013   2.010   0.979   3.986  0.3083  0.3312 -0.9155
 8518SOL    HW237014   1.871   0.939   4.002 -1.2111 -0.5376 -1.2356
 8519SOL     OW37015   0.648   1.557  16.752  0.1657  0.0637 -0.1282
 8519SOL    HW137016   0.556   1.584  16.750  1.5305  4.9023  0.8136
 8519SOL    HW237017   0.663   1.530  16.842  0.0426 -1.7918 -0.6760
 8520SOL     OW37018   0.406   4.628   4.222  0.2342  0.5044  0.9163
 8520SOL    HW137019   0.438   4.718   4.226 -0.2972  0.7692 -0.7564
 8520SOL    HW237020   0.372   4.628   4.133 -0.9763 -2.3908  1.3746
 8521SOL     OW37021   0.832   2.459   6.619 -0.1865  0.7523  0.2134
 8521SOL    HW137022   0.751   2.411   6.605  0.7680 -0.3939 -1.3884
 8521SOL    HW237023   0.869   2.471   6.531 -0.0776  1.9739  0.4281
 8522SOL     OW37024   0.167   4.162   2.807 -0.2423  0.2720 -0.2090
 8522SOL    HW137025   0.214   4.086   2.840 -0.5283 -0.0859 -0.6209
 8522SOL    HW237026   0.216   4.198   2.733  1.1843  0.3358  0.7619
 8523SOL     OW37027   0.812   1.554   9.145  0.1173  0.4050  0.1523
 8523SOL    HW137028   0.757   1.630   9.125 -1.5274 -0.5548  0.9835
 8523SOL    HW237029   0.771   1.490   9.087  1.7542  0.4564 -1.0530
 8524SOL     OW37030   1.032   1.259   2.360 -0.1941  0.5068 -0.2477
 8524SOL    HW137031   1.041   1.348   2.394  2.2857 -0.2951  1.2145
 8524SOL    HW237032   1.031   1.214   2.445 -3.1050  0.7961 -0.1054
 8525SOL     OW37033   1.535   1.496   2.181  0.1614 -0.0794  0.2356
 8525SOL    HW137034   1.553   1.475   2.273 -0.6928  3.3614  1.1885
 8525SOL    HW237035   1.625   1.518   2.160  0.5042  0.7611  2.6061
 8526SOL     OW37036   1.787   1.643   5.702 -0.0705 -0.3104  0.2315
 8526SOL    HW137037   1.797   1.738   5.696  0.2158 -0.3636 -0.1480
 8526SOL    HW237038   1.751   1.631   5.790 -0.5480 -1.6211 -0.1461
 8527SOL     OW37039   2.842   0.695  12.300 -0.1623 -0.4768  0.2530
 8527SOL    HW137040   2.777   0.752  12.342  0.0802  0.1586 -0.2408
 8527SOL    HW237041   2.896   0.670  12.375  1.0536  2.0186  0.1981
 8528SOL     OW37042   1.150   4.573  13.435 -0.0670  0.4855  0.1184
 8528SOL    HW137043   1.072   4.562  13.490  0.2495  2.4951  0.9299
 8528SOL    HW237044   1.137   4.661  13.400  0.1698 -0.0064 -1.2242
 8529SOL     OW37045   2.209   3.268   8.823 -0.2814  0.2627  0.4037
 8529SOL    HW137046   2.240   3.187   8.864 -2.8100 -0.4839  0.8278
 8529SOL    HW237047   2.131   3.227   8.786  0.0250 -0.5360  0.6545
 8530SOL     OW37048   0.733   4.193   6.828 -0.1045 -0.3555 -0.5193
 8530SOL    HW137049   0.808   4.137   6.844 -0.6296 -0.6574  0.8370
 8530SOL    HW237050   0.705   4.133   6.759 -0.5782  0.6968 -1.2531
 8531SOL     OW37051   3.483   4.452   7.076 -0.5370 -0.3278 -0.5501
 8531SOL    HW137052   3.429   4.450   7.155  1.2380 -0.2230  0.6382
 8531SOL    HW237053   3.526   4.538   7.076 -0.4267 -0.3948 -3.5139
 8532SOL     OW37054   2.177   0.928   9.006 -0.2824 -0.3091  0.1761
 8532SOL    HW137055   2.249   0.989   8.990 -1.2321  0.2593 -1.8309
 8532SOL    HW237056   2.149   0.911   8.916 -0.6739  0.9739  0.0616
 8533SOL     OW37057   4.232   0.735   7.388  1.1297  0.1067 -0.5433
 8533SOL    HW137058   4.309   0.742   7.332 -0.9042  2.1003 -3.0949
 8533SOL    HW237059   4.165   0.723   7.321  1.0159  0.3544 -0.4743
 8534SOL     OW37060   3.093   0.912  17.218  0.3081  0.3107  0.2971
 8534SOL    HW137061   3.099   0.932  17.125 -1.9130  0.8285  0.2649
 8534SOL    HW237062   2.998   0.907  17.227  0.1281  1.1253 -1.1988
 8535SOL     OW37063   1.367   2.409   5.692  0.1854 -0.2487 -0.2542
 8535SOL    HW137064   1.294   2.414   5.630  1.1477 -0.9530 -1.4371
 8535SOL    HW237065   1.439   2.425   5.632  0.9395 -2.8242 -0.0356
 8536SOL     OW37066   0.219   2.945  12.919 -0.2485  0.2015 -0.4224
 8536SOL    HW137067   0.202   2.905  12.834 -2.6830 -0.9533  0.6125
 8536SOL    HW237068   0.190   3.036  12.914 -2.2435 -0.5457 -2.3983
 8537SOL     OW37069   0.991   0.736  17.337  0.3984  0.4169  0.2973
 8537SOL    HW137070   1.030   0.813  17.379 -0.9019  1.4534 -0.3895
 8537SOL    HW237071   0.935   0.697  17.404  2.4177  0.8451  2.2461
 8538SOL     OW37072   0.378   3.194   8.932  0.0666 -0.0773 -0.0328
 8538SOL    HW137073   0.356   3.263   8.869  1.4825  0.1957 -0.2173
 8538SOL    HW237074   0.443   3.240   8.984  0.8384  0.3090 -1.3310
 8539SOL     OW37075   1.537   1.611  10.646  0.2987 -0.2367 -0.6017
 8539SOL    HW137076   1.584   1.691  10.623 -0.5033 -0.6841 -3.7652
 8539SOL    HW237077   1.590   1.549  10.595  0.5653  0.8049 -1.5857
 8540SOL     OW37078   2.526   4.482  11.116 -0.6332 -0.6010  0.5189
 8540SOL    HW137079   2.592   4.413  11.124  1.7352  1.4041 -1.6822
 8540SOL    HW237080   2.490   4.469  11.028 -0.2287 -1.0751  0.4261
 8541SOL     OW37081   0.515   1.111   9.701  0.6285 -0.3847  0.7600
 8541SOL    HW137082   0.439   1.062   9.732  0.6665  0.2862  1.9193
 8541SOL    HW237083   0.538   1.054   9.628  0.0445 -0.5190  0.6798
 8542SOL     OW37084   2.590   1.780   5.745 -0.0387 -0.2313 -0.4741
 8542SOL    HW137085   2.640   1.795   5.824  1.8375  3.0298 -2.3136
 8542SOL    HW237086   2.664   1.758   5.689  1.2242  1.6698  0.4945
 8543SOL     OW37087   4.213   0.212  12.531  0.0891 -0.5062  0.3213
 8543SOL    HW137088   4.270   0.179  12.462  0.9477 -1.2645  1.3932
 8543SOL    HW237089   4.152   0.268  12.482 -0.6578  1.2217  3.2506
 8544SOL     OW37090   2.915   0.800  11.519  0.3273  0.0323  0.2074
 8544SOL    HW137091   2.874   0.764  11.441  2.0300 -2.1343  0.3091
 8544SOL    HW237092   2.984   0.849  11.474  0.7247  0.1640  0.9495
 8545SOL     OW37093   3.330   1.138   5.483 -0.4979  0.1057 -0.2733
 8545SOL    HW137094   3.336   1.045   5.502  3.2229  0.1235 -1.4695
 8545SOL    HW237095   3.310   1.147   5.389 -2.7680  0.4989  0.2408
 8546SOL     OW37096   0.420   0.378   7.092  0.8558  0.7622  0.3841
 8546SOL    HW137097   0.445   0.446   7.154  0.1191  2.8336 -1.5826
 8546SOL    HW237098   0.328   0.399   7.075  0.8907  1.4703  1.0541
 8547SOL     OW37099   0.918   3.773   3.845  0.0478  0.5335  0.0038
 8547SOL    HW137100   0.862   3.824   3.904 -0.6139 -0.9620  0.6581
 8547SOL    HW237101   0.955   3.721   3.916  1.5601  0.4075 -0.8744
 8548SOL     OW37102   3.618   0.851  12.378  0.1224 -0.4592  0.0496
 8548SOL    HW137103   3.689   0.802  12.420 -0.7727  1.3340  3.6397
 8548SOL    HW237104   3.563   0.868  12.454  1.1068 -4.2037  1.6286
 8549SOL     OW37105   3.286   1.507  12.806  0.3574  0.3473  0.1885
 8549SOL    HW137106   3.225   1.574  12.777  3.6015  1.9485 -2.8496
 8549SOL    HW237107   3.279   1.442  12.737  1.0612 -1.1213  1.4940
 8550SOL     OW37108   2.307   2.328   8.069  0.7745  0.2726 -0.1011
 8550SOL    HW137109   2.262   2.402   8.110  1.4029  1.0530 -0.8226
 8550SOL    HW237110   2.352   2.293   8.145  0.3134  1.6701  0.8156
 8551SOL     OW37111   0.159   2.368  10.455 -0.5207  0.0399 -0.1103
 8551SOL    HW137112   0.192   2.281  10.475 -0.2477  0.7138  2.3976
 8551SOL    HW237113   0.100   2.380  10.529  0.5920  0.6398  0.6851
 8552SOL     OW37114   1.203   1.171  13.024 -0.4032 -0.1982 -0.1587
 8552SOL    HW137115   1.137   1.194  12.958 -1.1031 -1.2964  0.1477
 8552SOL    HW237116   1.154   1.216  13.093 -1.0496  2.9742 -2.6762
 8553SOL     OW37117   1.589   4.097   4.252  0.3363  0.1861 -0.2777
 8553SOL    HW137118   1.584   4.185   4.215  1.0816 -0.0462 -0.9255
 8553SOL    HW237119   1.509   4.059   4.215  1.0604 -1.3781 -0.2170
 8554SOL     OW37120   2.526   1.323   8.594 -0.6408  0.1296 -0.2689
 8554SOL    HW137121   2.527   1.404   8.544  1.5576  1.1292  1.4161
 8554SOL    HW237122   2.445   1.335   8.643  0.1428 -3.0793  1.8192
 8555SOL     OW37123   0.083   1.945   6.176 -0.2167 -0.0862 -0.8329
 8555SOL    HW137124   0.064   1.943   6.082  0.8592  0.4168 -1.0619
 8555SOL    HW237125   0.000   1.979   6.209  0.2649  0.5674 -0.2987
 8556SOL     OW37126   4.287   4.152   4.206 -0.0649 -0.2052  0.6678
 8556SOL    HW137127   4.378   4.183   4.204  0.5264 -2.1199 -2.3696
 8556SOL    HW237128   4.253   4.149   4.116  1.1408  3.1490  0.1070
 8557SOL     OW37129   4.412   1.579   3.816 -0.0898 -0.7397  0.5221
 8557SOL    HW137130   4.387   1.587   3.724  0.6355  2.1396  0.5810
 8557SOL    HW237131   4.422   1.485   3.834 -0.6634 -1.1775 -1.4547
 8558SOL     OW37132   4.041   4.334   5.653 -0.0876 -0.0309 -0.4384
 8558SOL    HW137133   3.960   4.349   5.604 -0.9341 -3.2432 -0.0740
 8558SOL    HW237134   4.027   4.368   5.741 -2.2736 -0.5544 -0.5782
 8559SOL     OW37135   3.062   4.387   5.752 -0.0635  0.2057 -0.3799
 8559SOL    HW137136   3.021   4.354   5.832  1.0690  0.6015  0.3657
 8559SOL    HW237137   3.015   4.469   5.736 -2.0549 -0.8375  0.1419
 8560SOL     OW37138   3.947   3.856   8.806 -0.4630 -0.6071 -0.3179
 8560SOL    HW137139   4.041   3.869   8.819 -0.8926  2.8147 -0.6982
 8560SOL    HW237140   3.942   3.810   8.722 -1.1279  1.2478 -1.3040
 8561SOL     OW37141   3.318   0.355  11.651  0.8498  0.4944  0.2207
 8561SOL    HW137142   3.346   0.283  11.595 -0.4017 -1.1971  1.7757
 8561SOL    HW237143   3.224   0.339  11.644  0.5898  1.4110  1.6269
 8562SOL     OW37144   2.763   2.763  14.582 -0.4190  0.2805  0.0647
 8562SOL    HW137145   2.738   2.796  14.495  1.7183  0.4066 -0.5036
 8562SOL    HW237146   2.733   2.835  14.637 -1.9469 -0.5480  0.3310
 8563SOL     OW37147   0.607   4.711  11.230 -0.3704  0.4668 -0.1979
 8563SOL    HW137148   0.582   0.039  11.151 -1.1418 -0.9743 -0.8381
 8563SOL    HW237149   0.673   0.052  11.263  0.3739  0.2899 -1.3814
 8564SOL     OW37150   2.611   2.941   7.934 -0.2994  0.3073 -0.0301
 8564SOL    HW137151   2.674   2.869   7.940 -0.5671  0.2026  1.5653
 8564SOL    HW237152   2.603   2.961   8.027 -0.4036 -2.0658  0.4688
 8565SOL     OW37153   3.866   0.524   6.014  0.2861  0.2935  0.1822
 8565SOL    HW137154   3.817   0.497   5.936  3.2829  0.9709 -1.9252
 8565SOL    HW237155   3.959   0.513   5.992 -0.0329 -0.0578 -1.0228
 8566SOL     OW37156   4.092   0.841  16.178  0.7078 -0.1059  0.4919
 8566SOL    HW137157   4.067   0.927  16.214 -1.5117 -0.1235 -1.0068
 8566SOL    HW237158   4.033   0.847  16.103  3.0154 -0.0332 -1.3255
 8567SOL     OW37159   0.851   0.351  14.839  0.4594  0.1250 -0.0385
 8567SOL    HW137160   0.907   0.422  14.806 -1.0818  0.8291 -1.1164
 8567SOL    HW237161   0.865   0.297  14.761 -0.6547  0.8264 -0.7234
 8568SOL     OW37162   2.598   0.222  10.867 -0.3233 -0.2297  0.3804
 8568SOL    HW137163   2.504   0.213  10.887 -0.1169 -2.7508  0.1770
 8568SOL    HW237164   2.608   0.317  10.861  1.0566 -0.3758  0.4831
 8569SOL     OW37165   0.763   4.408   7.069  0.0179  0.1818 -0.4383
 8569SOL    HW137166   0.746   4.324   7.026 -2.9612  1.2652 -1.3670
 8569SOL    HW237167   0.810   4.380   7.148 -0.6284  0.1840 -0.0570
 8570SOL     OW37168   3.859   1.382   5.767  0.1803  0.2625  0.2704
 8570SOL    HW137169   3.870   1.463   5.717 -1.1704 -0.2382 -0.8458
 8570SOL    HW237170   3.764   1.387   5.780  0.3876  2.0557  1.0094
 8571SOL     OW37171   4.063   2.687   0.681 -0.0544 -0.2147 -0.2237
 8571SOL    HW137172   4.021   2.607   0.649  0.6360 -0.8293  0.4229
 8571SOL    HW237173   4.067   2.741   0.602 -0.9567  0.3129  0.0946
 8572SOL     OW37174   0.404   2.268  11.247 -0.4350  0.4405 -0.0178
 8572SOL    HW137175   0.402   2.183  11.292  0.9438 -0.7441 -2.1941
 8572SOL    HW237176   0.314   2.283  11.219 -0.4736  0.1498 -0.0453
 8573SOL     OW37177   2.602   2.230   4.252 -0.5812  0.0630  0.1478
 8573SOL    HW137178   2.613   2.296   4.320  0.0848  0.4870 -0.3756
 8573SOL    HW237179   2.514   2.199   4.273 -1.0223  0.2959 -1.3487
 8574SOL     OW37180   0.789   1.886  15.469 -0.1598 -0.0792  0.0729
 8574SOL    HW137181   0.699   1.891  15.436 -0.7248 -1.6759  1.4262
 8574SOL    HW237182   0.824   1.972  15.445 -0.8853  0.1836 -0.0634
 8575SOL     OW37183   3.481   0.542   6.864 -0.6071  0.2317  0.2262
 8575SOL    HW137184   3.512   0.451   6.864  0.3362  0.5548 -0.0541
 8575SOL    HW237185   3.556   0.578   6.912 -0.4231 -1.6662  1.4140
 8576SOL     OW37186   1.102   1.405   5.078  0.2508 -0.2205 -0.2573
 8576SOL    HW137187   1.013   1.381   5.104  0.7506 -0.3512  1.3311
 8576SOL    HW237188   1.125   1.340   5.012  1.5042 -0.0664  0.0390
 8577SOL     OW37189   3.177   3.668   1.470 -0.0001 -0.1496  0.0729
 8577SOL    HW137190   3.134   3.722   1.536  4.0901  1.3307  1.5450
 8577SOL    HW237191   3.107   3.610   1.441 -0.7379  1.1634 -0.7166
 8578SOL     OW37192   4.473   3.180   7.633  0.8057 -0.4187  0.0677
 8578SOL    HW137193   4.433   3.243   7.692  0.5898 -0.8998  0.4298
 8578SOL    HW237194   4.552   3.224   7.600  0.7545 -1.6704 -1.7313
 8579SOL     OW37195   1.918   0.127   8.835  0.2968 -0.4316 -0.4322
 8579SOL    HW137196   1.881   0.045   8.803 -0.0989  0.0493 -1.2051
 8579SOL    HW237197   1.857   0.197   8.810 -0.2155  0.1707  2.5260
 8580SOL     OW37198   4.297   2.141   8.541  0.0263  0.4107  0.5334
 8580SOL    HW137199   4.224   2.164   8.599 -0.3885  1.8528 -0.5566
 8580SOL    HW237200   4.368   2.203   8.558 -0.0649  0.0739  2.1710
 8581SOL     OW37201   4.521   3.445  14.576  0.0050  0.1839 -0.2635
 8581SOL    HW137202   4.539   3.400  14.659  1.7555 -0.7608 -1.1450
 8581SOL    HW237203   4.513   3.538  14.593  0.0234 -0.1261  1.4512
 8582SOL     OW37204   1.740   1.719   2.933  0.1663  0.5203  0.2335
 8582SOL    HW137205   1.789   1.697   3.013 -0.0550  0.4589  0.3508
 8582SOL    HW237206   1.805   1.697   2.866  0.8276  1.4292  0.5657
 8583SOL     OW37207   4.182   2.768   2.254  0.3963  0.1816 -0.0906
 8583SOL    HW137208   4.262   2.815   2.273 -0.0577  1.1197 -0.4848
 8583SOL    HW237209   4.133   2.775   2.336  2.1018  1.4411  0.8171
 8584SOL     OW37210   0.254   1.880   1.507  0.5778  0.1158 -0.0079
 8584SOL    HW137211   0.252   1.795   1.463  3.0466  0.1291 -0.1382
 8584SOL    HW237212   0.302   1.849   1.584 -2.5728 -0.6967  1.5981
 8585SOL     OW37213   3.251   3.465   1.014 -0.9110  0.5242 -0.1972
 8585SOL    HW137214   3.288   3.486   0.928  1.7505 -1.4576  0.4548
 8585SOL    HW237215   3.216   3.552   1.032 -0.4154  0.4628  1.0914
 8586SOL     OW37216   1.402   0.906   5.418 -0.4459 -0.1876  0.3609
 8586SOL    HW137217   1.497   0.910   5.426 -0.2673 -0.5242 -1.6730
 8586SOL    HW237218   1.376   0.985   5.466 -0.4799 -0.3814  0.6574
 8587SOL     OW37219   4.255   1.359  15.074 -0.7901 -0.0107 -0.0482
 8587SOL    HW137220   4.269   1.268  15.049 -0.3271  0.0465  0.0090
 8587SOL    HW237221   4.177   1.383  15.023 -0.0712  0.0695 -1.1217
 8588SOL     OW37222   1.234   0.503   6.187  0.3471  0.1812  0.3116
 8588SOL    HW137223   1.315   0.502   6.136  0.4371  2.2974  0.4051
 8588SOL    HW237224   1.210   0.414   6.160  1.2690  0.3740 -1.0954
 8589SOL     OW37225   3.503   2.033  11.039  0.3279 -0.2434 -0.8599
 8589SOL    HW137226   3.490   2.078  10.955 -1.8153 -0.8342 -0.8364
 8589SOL    HW237227   3.414   2.026  11.073  0.4751  0.0017 -0.4259
 8590SOL     OW37228   3.512   3.457   6.411 -0.1450  0.0040  0.0505
 8590SOL    HW137229   3.487   3.549   6.422 -1.3907 -0.3489  0.1982
 8590SOL    HW237230   3.437   3.407   6.445  0.9734 -0.7443  1.4373
 8591SOL     OW37231   2.700   1.692  15.125  0.1830 -0.1028  0.0537
 8591SOL    HW137232   2.656   1.777  15.132 -2.1096 -1.2147 -1.1629
 8591SOL    HW237233   2.731   1.693  15.034  0.1408 -1.0921  0.0268
 8592SOL     OW37234   0.301   3.000   6.043 -0.3065 -0.2954  0.6023
 8592SOL    HW137235   0.233   3.064   6.064  1.0549  1.6468 -0.8954
 8592SOL    HW237236   0.235   2.938   6.014 -0.9658  1.2523 -1.1935
 8593SOL     OW37237   1.402   0.880   9.003 -0.2422  0.3671  0.0066
 8593SOL    HW137238   1.332   0.943   9.017 -1.4982 -0.6873 -1.6997
 8593SOL    HW237239   1.390   0.840   9.089 -0.3093 -1.6931 -0.9740
 8594SOL     OW37240   3.224   0.234  17.455  0.5991  0.1896  0.3968
 8594SOL    HW137241   3.170   0.167  17.413 -1.2886  0.3156  2.6162
 8594SOL    HW237242   3.268   0.199  17.532 -1.3344  0.2059  1.5191
 8595SOL     OW37243   1.476   3.385   2.319  0.4520 -0.0072  0.4590
 8595SOL    HW137244   1.507   3.406   2.231  0.5824  0.5334  0.6383
 8595SOL    HW237245   1.524   3.303   2.332 -0.0906 -0.7531 -2.0923
 8596SOL     OW37246   4.197   1.264   2.524  0.1415  0.0596  0.2510
 8596SOL    HW137247   4.263   1.300   2.465 -2.6686  0.2270 -2.8073
 8596SOL    HW237248   4.121   1.320   2.507 -1.2019 -2.3677 -1.8597
 8597SOL     OW37249   4.285   1.577   4.622  0.2868  0.2935  0.3540
 8597SOL    HW137250   4.339   1.505   4.655  0.7698 -0.1046 -1.2715
 8597SOL    HW237251   4.210   1.524   4.592 -0.3015  0.9140  0.7486
 8598SOL     OW37252   0.244   3.048   8.106  0.2175  0.3947 -0.2586
 8598SOL    HW137253   0.301   3.020   8.178  0.0997  0.0179 -0.3165
 8598SOL    HW237254   0.312   3.060   8.039  0.0718  0.5911 -0.3715
 8599SOL     OW37255   2.885   0.155   9.650  0.7854  0.9821 -0.4270
 8599SOL    HW137256   2.940   0.221   9.609  1.8944  0.9947  1.0965
 8599SOL    HW237257   2.804   0.198   9.623  0.3793  0.0786 -0.6678
 8600SOL     OW37258   2.549   3.118   9.871 -0.5386 -0.3140 -0.3665
 8600SOL    HW137259   2.584   3.095   9.785  0.9796 -0.5083  0.2999
 8600SOL    HW237260   2.622   3.093   9.928 -0.4586  0.8355  0.0362
 8601SOL     OW37261   0.105   0.573   2.593  0.2968  0.0360  0.1710
 8601SOL    HW137262   0.164   0.505   2.560 -0.7080  0.0333 -1.6529
 8601SOL    HW237263   0.100   0.634   2.520  0.0755  0.5788  0.6398
 8602SOL     OW37264   4.708   4.703   1.943  0.3707  0.6669 -0.4782
 8602SOL    HW137265   0.064   0.029   1.975  0.5770  0.4663 -0.6787
 8602SOL    HW237266   0.025   4.671   1.861 -0.8608 -2.5352  0.1802
 8603SOL     OW37267   2.751   3.578   8.422 -0.3748 -0.2120 -0.3714
 8603SOL    HW137268   2.706   3.640   8.364  1.9058  0.3586 -1.5421
 8603SOL    HW237269   2.679   3.549   8.477  0.6318 -1.9508  0.0387
 8604SOL     OW37270   3.710   1.436  14.261 -1.2314 -0.0475 -0.3452
 8604SOL    HW137271   3.685   1.382  14.336 -0.8767 -1.0034 -0.9052
 8604SOL    HW237272   3.681   1.523  14.288  1.3958  0.2229  1.6264
 8605SOL     OW37273   0.811   3.002  11.738 -0.4271 -0.3673  0.4771
 8605SOL    HW137274   0.872   2.928  11.742  0.6422  0.5135  0.4003
 8605SOL    HW237275   0.857   3.048  11.808 -1.1640 -2.3486  2.2936
 8606SOL     OW37276   0.105   0.371   4.124 -0.0736  0.1861  0.0742
 8606SOL    HW137277   0.118   0.281   4.093 -0.4956  1.2141 -3.0884
 8606SOL    HW237278   0.166   0.412   4.062 -0.0113 -1.6290 -1.0798
 8607SOL     OW37279   0.767   3.974   4.695 -0.2245  0.6260  0.6144
 8607SOL    HW137280   0.786   4.066   4.674 -0.9906  1.0208  1.6487
 8607SOL    HW237281   0.672   3.976   4.679 -0.2892 -2.2847  0.7989
 8608SOL     OW37282   2.075   2.948   6.321  0.2552  1.0524 -0.2865
 8608SOL    HW137283   2.160   2.904   6.332 -1.1152 -1.3997  0.5015
 8608SOL    HW237284   2.043   2.917   6.237  0.1927 -2.0847  0.9030
 8609SOL     OW37285   1.141   2.821   7.091 -0.0456  0.3637 -0.1541
 8609SOL    HW137286   1.225   2.791   7.056  0.3298 -0.7750  1.7568
 8609SOL    HW237287   1.149   2.905   7.046  0.4444  0.3376 -0.1142
 8610SOL     OW37288   0.567   0.090   2.791 -1.1147  0.6303 -0.1859
 8610SOL    HW137289   0.636   0.087   2.726  0.3832  0.8103  1.3987
 8610SOL    HW237290   0.606   0.071   2.877  1.1674 -0.6266 -1.5132
 8611SOL     OW37291   1.360   3.223   8.079  0.3993 -0.0385  0.6668
 8611SOL    HW137292   1.445   3.253   8.110  1.2160 -0.1881 -1.4631
 8611SOL    HW237293   1.317   3.207   8.164  0.2322  1.8926  0.9400
 8612SOL     OW37294   1.215   4.235   3.654 -0.0161  0.1910 -0.2628
 8612SOL    HW137295   1.138   4.181   3.670 -1.3000  1.9941 -0.2357
 8612SOL    HW237296   1.212   4.290   3.733  0.5280 -1.4806  0.9166
 8613SOL     OW37297   4.315   0.671   7.682 -0.1128  0.2331 -0.6431
 8613SOL    HW137298   4.364   0.750   7.660 -2.0571  1.2009 -1.5234
 8613SOL    HW237299   4.368   0.608   7.634 -1.4020 -0.2585 -1.4344
 8614SOL     OW37300   2.794   3.976   3.305 -0.2941  0.6438 -0.0284
 8614SOL    HW137301   2.719   3.919   3.289  0.5027 -0.5631  0.4931
 8614SOL    HW237302   2.778   3.981   3.400 -1.2521  0.6260 -0.1868
 8615SOL     OW37303   0.223   3.039   7.357 -0.2127 -0.4209 -0.2251
 8615SOL    HW137304   0.264   3.123   7.336  0.6225 -0.9772 -0.8250
 8615SOL    HW237305   0.189   3.060   7.444 -1.7902 -2.1983 -0.4046
 8616SOL     OW37306   3.261   2.960   1.362 -0.5666 -0.1040  0.0300
 8616SOL    HW137307   3.269   2.915   1.278  0.5878 -0.7113  0.4632
 8616SOL    HW237308   3.169   2.948   1.385 -0.9385  1.6040 -0.5701
 8617SOL     OW37309   2.744   3.469  14.718  0.1743 -0.1865  0.0171
 8617SOL    HW137310   2.774   3.545  14.669 -1.5270 -1.5824 -3.1656
 8617SOL    HW237311   2.660   3.492  14.759  1.2000  0.1840  1.9408
 8618SOL     OW37312   0.454   3.857  11.440  0.5651 -0.0436  0.4746
 8618SOL    HW137313   0.464   3.774  11.487  2.6398  1.2215  2.2778
 8618SOL    HW237314   0.533   3.893  11.481 -0.3956  2.3416  0.2058
 8619SOL     OW37315   3.703   0.716   4.353 -0.0435  0.2631  0.2534
 8619SOL    HW137316   3.628   0.683   4.304 -0.5105  1.4980  0.1517
 8619SOL    HW237317   3.667   0.793   4.395 -0.0699 -0.6874  1.9677
 8620SOL     OW37318   0.718   0.719   7.676  0.5350 -0.1965 -0.1199
 8620SOL    HW137319   0.794   0.747   7.624 -0.5327 -0.3042 -1.7458
 8620SOL    HW237320   0.647   0.777   7.646  0.9058  0.2018 -0.2386
 8621SOL     OW37321   0.205   4.626   8.603 -0.4169 -0.0134  0.1185
 8621SOL    HW137322   0.188   4.705   8.553 -1.4851 -1.4308 -1.7493
 8621SOL    HW237323   0.211   4.561   8.534  0.9960  0.9630 -0.6665
 8622SOL     OW37324   4.138   2.818  11.638  0.6585 -0.6710 -0.1521
 8622SOL    HW137325   4.116   2.730  11.666  0.3010 -1.2721 -2.3630
 8622SOL    HW237326   4.148   2.808  11.544 -0.7652  0.1518 -0.3767
 8623SOL     OW37327   0.013   4.382   9.954 -0.2823 -0.1839 -0.2184
 8623SOL    HW137328   4.657   4.353  10.003  0.4139  1.9915  2.1730
 8623SOL    HW237329   0.085   4.341  10.001  0.8490  1.9801 -0.0484
 8624SOL     OW37330   4.097   2.249   2.257 -0.1737 -0.1882  0.5944
 8624SOL    HW137331   4.008   2.232   2.226 -0.3263  0.8215  0.4725
 8624SOL    HW237332   4.097   2.343   2.238  1.2724 -0.4191 -0.5837
 8625SOL     OW37333   3.560   1.953   5.280  0.3090 -0.3325  0.4536
 8625SOL    HW137334   3.644   1.922   5.246  0.5547 -0.1448  0.8906
 8625SOL    HW237335   3.592   2.003   5.355 -0.2556 -0.0619  0.5158
 8626SOL     OW37336   3.515   1.421   6.100 -0.2892  0.1911  0.2355
 8626SOL    HW137337   3.440   1.430   6.041  0.3987 -1.5613 -0.9187
 8626SOL    HW237338   3.522   1.326   6.090  1.8454  0.7605 -3.6448
 8627SOL     OW37339   0.971   2.688   4.912  0.6004 -0.0153 -0.0029
 8627SOL    HW137340   0.946   2.695   4.819 -1.0494  0.0656  0.4523
 8627SOL    HW237341   1.003   2.598   4.913 -2.4467 -1.1194 -1.0321
 8628SOL     OW37342   1.119   1.812   4.750 -0.2587 -0.3869  0.1649
 8628SOL    HW137343   1.132   1.755   4.826  1.6230  0.9722  0.8593
 8628SOL    HW237344   1.211   1.837   4.740 -0.9519  2.0559 -0.1116
 8629SOL     OW37345   3.348   0.324   2.237 -0.0415 -0.5676  0.1160
 8629SOL    HW137346   3.317   0.257   2.298  1.8391 -0.2073  1.4793
 8629SOL    HW237347   3.430   0.357   2.275 -0.2876 -0.8648  0.9055
 8630SOL     OW37348   0.834   0.263  13.594 -0.5284 -0.6667 -0.0466
 8630SOL    HW137349   0.790   0.342  13.626  0.8880 -0.7276  2.0667
 8630SOL    HW237350   0.821   0.212  13.674  0.8797  1.4733  1.5289
 8631SOL     OW37351   2.446   3.609   9.870  0.0994 -0.3853  0.0262
 8631SOL    HW137352   2.507   3.539   9.889 -0.5810 -1.2519 -0.9699
 8631SOL    HW237353   2.494   3.685   9.902 -2.8295  2.0846 -1.3799
 8632SOL     OW37354   0.178   1.225   5.117  0.0894  0.2111  0.1907
 8632SOL    HW137355   0.207   1.305   5.074  1.7239 -0.4395  0.0763
 8632SOL    HW237356   0.111   1.255   5.179 -1.7626 -0.9777 -1.2383
 8633SOL     OW37357   3.306   2.507  11.022 -0.1091  0.1118 -0.1565
 8633SOL    HW137358   3.326   2.532  11.112 -3.7182 -0.0753  0.6727
 8633SOL    HW237359   3.211   2.501  11.014  0.0783  0.7601 -2.8188
 8634SOL     OW37360   4.132   1.664   5.957 -0.1342  0.2064 -0.0423
 8634SOL    HW137361   4.065   1.733   5.955  0.7017  1.0183  0.3442
 8634SOL    HW237362   4.087   1.603   6.016 -0.3865 -0.4575 -0.9178
 8635SOL     OW37363   2.802   4.212  15.795  0.2054  0.6719 -0.5473
 8635SOL    HW137364   2.707   4.223  15.788 -0.2818 -2.9710  0.5131
 8635SOL    HW237365   2.814   4.119  15.816  0.8788  1.3182  1.9297
 8636SOL     OW37366   1.700   3.273   7.949  0.1092  0.5711  0.4459
 8636SOL    HW137367   1.677   3.234   8.034 -3.5449 -0.2069 -0.9077
 8636SOL    HW237368   1.667   3.205   7.890  0.2571  1.4100 -0.5924
 8637SOL     OW37369   4.176   1.912   4.414  0.2076  0.0973  0.5593
 8637SOL    HW137370   4.252   1.970   4.410  1.2731 -1.3114  0.4781
 8637SOL    HW237371   4.124   1.951   4.484  0.0833 -0.1334  0.5943
 8638SOL     OW37372   0.738   2.334   1.306 -0.2289  0.5222 -0.3987
 8638SOL    HW137373   0.774   2.272   1.242  0.2018  1.1443 -0.7590
 8638SOL    HW237374   0.663   2.370   1.259  1.5254  1.6012 -2.3698
 8639SOL     OW37375   1.557   4.522   1.967 -0.3990  0.0482  0.2568
 8639SOL    HW137376   1.591   4.518   2.057  1.2722  2.5214 -0.2828
 8639SOL    HW237377   1.509   4.439   1.969  1.4607 -1.0204  0.4378
 8640SOL     OW37378   3.268   0.659   7.567  0.1569 -0.2476  0.0761
 8640SOL    HW137379   3.172   0.658   7.572  0.1307 -1.0024 -0.4767
 8640SOL    HW237380   3.284   0.747   7.533  0.7592  0.5844  2.4900
 8641SOL     OW37381   3.991   0.645   0.493  0.5948  0.2244  0.1536
 8641SOL    HW137382   4.058   0.710   0.513 -1.8724  2.3808  1.4875
 8641SOL    HW237383   3.960   0.626   0.582  2.9222 -1.0800  0.6737
 8642SOL     OW37384   4.119   3.678   3.364  0.3829 -0.5226  0.1788
 8642SOL    HW137385   4.176   3.746   3.402 -2.2388  0.2415  2.7412
 8642SOL    HW237386   4.181   3.618   3.323  0.4730 -0.8370  0.7720
 8643SOL     OW37387   0.814   0.724   5.185  0.7108  0.0192  0.3026
 8643SOL    HW137388   0.851   0.640   5.160  2.0081  0.3858  0.9367
 8643SOL    HW237389   0.751   0.703   5.254  2.4345 -0.4472  1.7641
 8644SOL     OW37390   3.386   3.456   3.563 -0.1792  0.5467 -0.6088
 8644SOL    HW137391   3.291   3.464   3.562 -0.3766 -1.7474 -1.0711
 8644SOL    HW237392   3.417   3.544   3.585 -1.2537  0.6273  0.6012
 8645SOL     OW37393   0.306   3.754  13.376 -0.2674 -0.3509  0.2752
 8645SOL    HW137394   0.338   3.835  13.334 -2.4556 -0.6993 -2.0691
 8645SOL    HW237395   0.215   3.776  13.394 -0.5400 -0.2513 -1.1815
 8646SOL     OW37396   1.322   1.955   4.393 -0.4049 -0.1656 -0.5224
 8646SOL    HW137397   1.279   2.000   4.319  1.4534 -0.3663 -1.7223
 8646SOL    HW237398   1.297   2.020   4.459  0.5192 -2.5580  2.1681
 8647SOL     OW37399   0.516   0.350   2.863  0.2170 -0.1027 -0.1675
 8647SOL    HW137400   0.580   0.288   2.828  2.1148  0.2448  2.6250
 8647SOL    HW237401   0.453   0.289   2.902  0.5781  0.4433  1.2792
 8648SOL     OW37402   3.689   4.502   3.951  0.3340  0.3125  0.8437
 8648SOL    HW137403   3.718   4.519   4.040  1.8458 -2.0268  0.7954
 8648SOL    HW237404   3.690   4.406   3.944 -1.2024  0.4136 -0.8202
 8649SOL     OW37405   4.054   1.083   5.071  0.3201 -0.6027  0.1254
 8649SOL    HW137406   3.972   1.109   5.113  0.2061  1.0880 -1.1542
 8649SOL    HW237407   4.024   1.057   4.984  0.8870 -1.3952  0.1698
 8650SOL     OW37408   1.995   3.321   4.259  0.2385 -0.3859 -0.2648
 8650SOL    HW137409   2.047   3.373   4.320 -2.8514  0.7127  1.4186
 8650SOL    HW237410   2.011   3.234   4.297  2.7355 -0.8590 -2.3579
 8651SOL     OW37411   0.682   3.839   9.546  0.1618  0.8173  0.0273
 8651SOL    HW137412   0.610   3.791   9.588  1.0613  0.6696  1.3962
 8651SOL    HW237413   0.762   3.800   9.579 -1.3851 -1.9594  0.5298
 8652SOL     OW37414   1.964   3.537  15.735  0.3973  0.1569  0.1696
 8652SOL    HW137415   1.893   3.584  15.778 -0.2992 -1.6234  0.9283
 8652SOL    HW237416   1.966   3.589  15.654 -2.7261 -0.3304 -0.2200
 8653SOL     OW37417   3.791   2.209  15.191 -0.8421 -0.2327  0.0561
 8653SOL    HW137418   3.844   2.260  15.130  0.1974  2.6385  3.3722
 8653SOL    HW237419   3.753   2.281  15.241 -0.1239  1.8709 -2.3861
 8654SOL     OW37420   3.042   2.060   5.394  0.6747 -0.0003  0.1009
 8654SOL    HW137421   3.083   2.067   5.308 -1.1273  1.0917 -0.6579
 8654SOL    HW237422   3.058   2.147   5.431 -0.0918  0.5996 -0.9553
 8655SOL     OW37423   4.150   2.183   2.666  0.3257  0.3632 -0.0369
 8655SOL    HW137424   4.114   2.107   2.712 -0.2614  0.8282  0.2561
 8655SOL    HW237425   4.072   2.226   2.631  0.5683  1.0491  0.2684
 8656SOL     OW37426   0.338   1.056   5.238  0.2949  0.1885  0.2508
 8656SOL    HW137427   0.324   1.063   5.332 -1.5930  1.0147 -0.0861
 8656SOL    HW237428   0.279   1.113   5.189 -0.3890  1.2121  2.2559
 8657SOL     OW37429   2.902   1.588   8.930  0.1949 -0.1053 -0.0843
 8657SOL    HW137430   2.912   1.513   8.871  1.0094  0.3934 -0.5891
 8657SOL    HW237431   2.826   1.623   8.885  1.3414  0.6747 -1.3971
 8658SOL     OW37432   4.703   2.465  15.471  0.2508  0.3726 -0.0334
 8658SOL    HW137433   0.022   2.524  15.407  1.2361  0.8889  1.0701
 8658SOL    HW237434   4.640   2.524  15.512 -0.5393 -0.0970 -0.5542
 8659SOL     OW37435   2.598   0.676  15.575  0.5504  0.0406 -0.0550
 8659SOL    HW137436   2.617   0.585  15.555  1.0387  0.1452 -0.0769
 8659SOL    HW237437   2.548   0.700  15.496 -0.1880  0.0780  0.4267
 8660SOL     OW37438   1.137   0.164   5.703 -0.1052  0.4296  0.1276
 8660SOL    HW137439   1.110   0.146   5.793 -3.1602 -0.4981 -0.9890
 8660SOL    HW237440   1.215   0.219   5.712 -1.3516  2.1781  0.2647
 8661SOL     OW37441   2.241   0.461   3.567 -0.0440 -0.1808 -1.1661
 8661SOL    HW137442   2.161   0.412   3.581  1.1536 -1.2199  2.2191
 8661SOL    HW237443   2.205   0.542   3.531  1.1589  1.8323  2.1164
 8662SOL     OW37444   1.061   4.531   8.506  0.2837  0.2744  0.0853
 8662SOL    HW137445   1.024   4.494   8.586  1.3884 -2.5004 -0.6774
 8662SOL    HW237446   1.138   4.574   8.541  1.0164 -0.9749  0.0311
 8663SOL     OW37447   3.180   1.154   8.282 -0.4154  0.2602 -0.2275
 8663SOL    HW137448   3.234   1.123   8.355  0.3911 -0.0636 -0.9574
 8663SOL    HW237449   3.194   1.248   8.286 -0.1967  0.1554  1.4084
 8664SOL     OW37450   1.610   4.239   6.595  0.2543 -0.2769  0.5630
 8664SOL    HW137451   1.548   4.311   6.584  1.4202  0.5427 -0.6464
 8664SOL    HW237452   1.556   4.164   6.572  1.0244 -0.4176 -0.8061
 8665SOL     OW37453   1.503   2.179   7.243  0.3295  0.5495 -0.1303
 8665SOL    HW137454   1.514   2.125   7.322 -3.3366 -1.5389 -1.0349
 8665SOL    HW237455   1.445   2.118   7.197 -0.2848 -1.7755  3.6496
 8666SOL     OW37456   3.918   2.112   4.974 -0.0558 -0.4259 -0.1606
 8666SOL    HW137457   3.986   2.133   5.038  1.2927 -1.3845 -1.2860
 8666SOL    HW237458   3.929   2.018   4.959 -2.0029 -0.8909  1.2829
 8667SOL     OW37459   3.370   2.706   8.134 -0.5560  0.3883 -0.0032
 8667SOL    HW137460   3.316   2.746   8.202 -0.5352  0.6807 -0.1569
 8667SOL    HW237461   3.452   2.751   8.158 -0.7152  0.5608  0.2138
 8668SOL     OW37462   0.732   0.723  13.886 -0.8013  0.0295  0.3629
 8668SOL    HW137463   0.763   0.783  13.818 -0.5361 -0.4612  0.0519
 8668SOL    HW237464   0.684   0.786  13.940  0.5963  0.6718  0.8642
 8669SOL     OW37465   2.499   4.259   7.531 -0.0951 -0.3648 -0.1434
 8669SOL    HW137466   2.442   4.186   7.555 -1.3641  0.4533 -0.6287
 8669SOL    HW237467   2.587   4.223   7.543 -0.0988 -0.4183 -0.2731
 8670SOL     OW37468   1.556   2.844   6.172 -0.1427  0.3160 -0.0811
 8670SOL    HW137469   1.568   2.750   6.161  3.0698  0.5717  1.3123
 8670SOL    HW237470   1.520   2.854   6.260 -0.1253  1.0132 -0.1540
 8671SOL     OW37471   3.888   2.419  11.567  0.2541  0.2713 -0.3515
 8671SOL    HW137472   3.948   2.353  11.532  1.1870  1.8084 -1.7159
 8671SOL    HW237473   3.802   2.388  11.539  1.5577 -3.4379 -0.1754
 8672SOL     OW37474   1.201   4.145  16.483  0.7168  0.4624  0.4307
 8672SOL    HW137475   1.256   4.205  16.532  0.7097  0.1444  0.8351
 8672SOL    HW237476   1.225   4.166  16.393 -0.3630  2.3855  0.6024
 8673SOL     OW37477   2.184   4.338  11.954 -0.1909 -1.0567 -0.6419
 8673SOL    HW137478   2.275   4.325  11.927  0.0297  1.5279 -1.1764
 8673SOL    HW237479   2.139   4.340  11.870 -0.5756  0.3199 -0.4090
 8674SOL     OW37480   3.965   1.313   8.870 -0.1611  0.2326 -0.2007
 8674SOL    HW137481   4.009   1.393   8.841  0.5653  0.4125  1.3975
 8674SOL    HW237482   3.879   1.353   8.877  0.3137  1.2826 -0.4146
 8675SOL     OW37483   1.951   2.322   1.794  0.4142 -0.0595 -0.6438
 8675SOL    HW137484   1.881   2.273   1.835  0.0222 -0.3625 -1.6580
 8675SOL    HW237485   1.971   2.384   1.864  0.4089  0.1792 -0.8530
 8676SOL     OW37486   4.175   0.765   3.194 -0.1032 -0.4275  0.2208
 8676SOL    HW137487   4.133   0.752   3.279 -0.9946  0.0670 -0.1399
 8676SOL    HW237488   4.242   0.698   3.204  0.1439 -0.3771 -1.0193
 8677SOL     OW37489   4.039   2.610   8.026  0.2971 -0.2628  0.2671
 8677SOL    HW137490   4.009   2.625   7.937  1.9411 -1.9018 -0.5543
 8677SOL    HW237491   4.132   2.625   8.015  0.4086 -0.8571  0.3805
 8678SOL     OW37492   2.809   3.831   2.656 -0.1201 -0.2707 -0.2744
 8678SOL    HW137493   2.736   3.784   2.697 -0.4518  1.4229  1.0822
 8678SOL    HW237494   2.816   3.901   2.721 -0.1777 -0.2755 -0.2625
 8679SOL     OW37495   0.228   4.504   8.350 -0.5770 -0.1783  0.1527
 8679SOL    HW137496   0.262   4.502   8.261 -0.5793  1.4195  0.1216
 8679SOL    HW237497   0.136   4.501   8.322 -0.2869  1.9764 -0.9970
 8680SOL     OW37498   2.501   4.509   2.736  0.3244  0.1015  0.0896
 8680SOL    HW137499   2.554   4.585   2.759 -1.1011  0.9124  0.6986
 8680SOL    HW237500   2.483   4.462   2.817  3.0011  1.0223  1.2077
 8681SOL     OW37501   0.819   1.142  13.867  0.5439 -0.3550  0.4760
 8681SOL    HW137502   0.833   1.234  13.843 -0.1226 -0.3460  0.1100
 8681SOL    HW237503   0.802   1.137  13.961 -1.5289  0.4977  0.1420
 8682SOL     OW37504   4.150   0.712   1.521 -0.1470  0.1585  0.2647
 8682SOL    HW137505   4.061   0.704   1.558 -0.1522 -1.4525 -0.0983
 8682SOL    HW237506   4.143   0.797   1.479  1.4738  0.8882  1.4693
 8683SOL     OW37507   4.667   2.077   8.911 -0.1321 -0.0413  0.0697
 8683SOL    HW137508   4.575   2.090   8.891  0.0324  0.7270 -0.2069
 8683SOL    HW237509   4.672   2.142   8.981 -0.7069  0.3044 -0.2148
 8684SOL     OW37510   3.155   4.547   4.443  0.0582  0.6601 -0.5317
 8684SOL    HW137511   3.070   4.585   4.464 -0.7404 -2.6091  1.9991
 8684SOL    HW237512   3.142   4.452   4.445  2.0498  0.3562 -1.6590
 8685SOL     OW37513   4.405   0.587  13.273 -0.6714 -0.3496 -0.1141
 8685SOL    HW137514   4.430   0.575  13.182  0.0566 -2.7590  0.4157
 8685SOL    HW237515   4.388   0.681  13.273 -1.3615 -0.4450  3.0736
 8686SOL     OW37516   1.900   4.160   8.973 -0.2182  0.7578  0.1292
 8686SOL    HW137517   1.815   4.200   8.955 -0.0582  0.9278 -0.2562
 8686SOL    HW237518   1.937   4.160   8.884  1.4040  1.9126  0.8163
 8687SOL     OW37519   3.653   1.787   6.867 -0.3701  0.2021  0.1862
 8687SOL    HW137520   3.629   1.870   6.909 -0.5527  0.0154  0.4479
 8687SOL    HW237521   3.742   1.802   6.836 -0.4921 -0.5840 -0.5662
 8688SOL     OW37522   3.327   0.036   4.499 -0.3251 -0.4609  0.1898
 8688SOL    HW137523   3.289   4.685   4.449  0.5740  0.5872 -2.0148
 8688SOL    HW237524   3.273   0.043   4.577 -4.3441 -0.4478 -2.5557
 8689SOL     OW37525   0.234   1.144   2.886 -0.0728 -0.1891 -0.2087
 8689SOL    HW137526   0.224   1.190   2.803 -0.0148 -2.2065 -1.3488
 8689SOL    HW237527   0.145   1.169   2.909 -0.0125  1.1660 -1.4131
 8690SOL     OW37528   2.448   2.337  17.244 -0.2450 -0.1588 -0.2233
 8690SOL    HW137529   2.475   2.265  17.301 -0.5577  0.1374  0.2994
 8690SOL    HW237530   2.447   2.401  17.316  1.9024 -0.4948  0.1096
 8691SOL     OW37531   0.735   4.057   7.413  0.4617 -0.5920 -0.3636
 8691SOL    HW137532   0.761   4.105   7.335 -0.7200  0.7948  0.1074
 8691SOL    HW237533   0.673   4.111   7.462  1.3895 -0.6661  0.9079
 8692SOL     OW37534   4.130   1.257   2.782 -0.7279  0.2310 -0.0215
 8692SOL    HW137535   4.186   1.185   2.813  0.6559  0.6134 -1.6665
 8692SOL    HW237536   4.151   1.268   2.689  0.9663 -0.6104  0.2423
 8693SOL     OW37537   2.830   4.680   7.362  0.3490  0.0945 -0.2547
 8693SOL    HW137538   2.775   0.009   7.422  1.6592  1.9544 -0.6235
 8693SOL    HW237539   2.863   4.619   7.428 -0.1044 -2.3856 -2.3222
 8694SOL     OW37540   3.918   1.489   3.703 -0.3731  0.4897 -0.9089
 8694SOL    HW137541   3.852   1.556   3.683 -1.2831  0.0527  0.6644
 8694SOL    HW237542   3.868   1.417   3.741  0.1484 -0.0089 -1.1651
 8695SOL     OW37543   4.555   4.000   5.516  0.1231 -0.3487  0.3192
 8695SOL    HW137544   4.480   3.984   5.574  0.3284  1.0433  0.9644
 8695SOL    HW237545   4.518   4.058   5.450 -1.8926  0.0628  1.7860
 8696SOL     OW37546   3.245   4.258   4.192 -0.2728 -0.3689  0.4593
 8696SOL    HW137547   3.334   4.277   4.220 -0.1172 -0.4803  0.0462
 8696SOL    HW237548   3.259   4.169   4.158 -0.9347 -0.6055  0.8023
 8697SOL     OW37549   3.905   2.346  16.232 -0.0459 -0.2526  0.3514
 8697SOL    HW137550   3.855   2.421  16.264  1.5833  0.0758  2.1321
 8697SOL    HW237551   3.942   2.319  16.317  0.7779 -1.2779 -0.3315
 8698SOL     OW37552   4.517   3.095   8.837  0.3405 -0.9743 -0.2779
 8698SOL    HW137553   4.546   3.019   8.787  2.4181  0.8628 -1.8353
 8698SOL    HW237554   4.428   3.113   8.804  0.4373 -0.5812 -0.3180
 8699SOL     OW37555   3.275   1.917   6.835 -0.1457  0.1178 -0.1681
 8699SOL    HW137556   3.223   1.969   6.897 -0.3537 -2.5116  1.8812
 8699SOL    HW237557   3.319   1.866   6.903 -1.8341  0.3137  1.0692
 8700SOL     OW37558   3.547   2.699   3.124  0.4270  0.0451  0.4238
 8700SOL    HW137559   3.517   2.615   3.088 -0.7103 -1.1464  4.2141
 8700SOL    HW237560   3.642   2.690   3.117  0.1183 -1.9262 -1.1945
 8701SOL     OW37561   3.631   2.112   8.080 -0.3371 -0.1280 -0.6816
 8701SOL    HW137562   3.708   2.125   8.136  0.4605  2.6754 -2.4761
 8701SOL    HW237563   3.568   2.058   8.129  0.3716 -0.8436 -0.5571
 8702SOL     OW37564   0.290   3.597  12.327 -0.2946  0.4208 -0.0589
 8702SOL    HW137565   0.219   3.592  12.391  0.4421 -1.2193  0.6355
 8702SOL    HW237566   0.297   3.691  12.336 -1.9569  0.6432 -0.9706
 8703SOL     OW37567   2.477   4.300   5.718  0.0461  0.6276  0.9674
 8703SOL    HW137568   2.411   4.310   5.786 -1.1943 -1.0761 -0.0023
 8703SOL    HW237569   2.436   4.351   5.648  0.9719 -1.2204 -0.9321
 8704SOL     OW37570   4.197   4.684   2.709  0.0061 -0.0226  0.5579
 8704SOL    HW137571   4.219   4.591   2.706 -3.7208 -0.8336 -1.4373
 8704SOL    HW237572   4.126   4.683   2.645  0.9576 -0.9538 -0.4650
 8705SOL     OW37573   2.159   2.027   5.194  0.3186 -0.6192  0.8332
 8705SOL    HW137574   2.166   1.968   5.119 -2.7531  0.2174 -0.1149
 8705SOL    HW237575   2.230   2.089   5.173  0.4968 -1.0001  0.3215
 8706SOL     OW37576   3.298   2.789   3.090 -0.2439 -0.4395 -0.5827
 8706SOL    HW137577   3.390   2.774   3.109 -0.2805  0.0151 -0.0330
 8706SOL    HW237578   3.313   2.865   3.034 -1.2798 -0.5292 -0.9789
 8707SOL     OW37579   1.420   2.809   6.427  0.2387 -0.0450  0.0844
 8707SOL    HW137580   1.328   2.787   6.407 -0.3034  1.4887  0.9431
 8707SOL    HW237581   1.431   2.755   6.505  3.2985 -2.1080 -1.7575
 8708SOL     OW37582   3.012   2.270   0.360  0.1168 -0.3427  0.6397
 8708SOL    HW137583   3.061   2.223   0.293  0.4326  1.6502 -0.5289
 8708SOL    HW237584   2.932   2.291   0.311  0.0916 -1.3958  0.2353
 8709SOL     OW37585   3.418   3.554   6.833  0.3995 -0.2925 -0.1015
 8709SOL    HW137586   3.351   3.574   6.769 -0.6575 -0.6044  0.9072
 8709SOL    HW237587   3.497   3.599   6.801  1.8043 -1.5397  1.5595
 8710SOL     OW37588   4.192   1.755  10.028  0.4284  0.2522  0.3526
 8710SOL    HW137589   4.165   1.668  10.000  0.3094  0.2090  0.6006
 8710SOL    HW237590   4.274   1.765   9.980  0.1098  1.3042  0.0306
 8711SOL     OW37591   4.094   4.123  16.858 -0.1035  0.1372  0.1961
 8711SOL    HW137592   4.069   4.051  16.916  0.2102 -1.6022 -1.8419
 8711SOL    HW237593   4.018   4.122  16.800 -0.0161  0.1403  0.0817
 8712SOL     OW37594   4.380   0.756   9.235  0.1007 -0.3601 -0.1402
 8712SOL    HW137595   4.458   0.784   9.283 -0.8234  1.1320  0.5155
 8712SOL    HW237596   4.322   0.826   9.267 -1.5912 -3.2514  3.0521
 8713SOL     OW37597   1.361   3.608   9.127  0.2452 -0.1337 -0.2304
 8713SOL    HW137598   1.398   3.521   9.142 -1.6560 -0.9672 -0.4069
 8713SOL    HW237599   1.296   3.619   9.197  0.4678 -0.5017  0.0334
 8714SOL     OW37600   0.373   2.488   6.617  0.5401  0.3025 -0.1082
 8714SOL    HW137601   0.375   2.542   6.538 -0.0177  0.3871 -0.0642
 8714SOL    HW237602   0.312   2.536   6.673  1.5023  1.1153  0.2323
 8715SOL     OW37603   2.264   0.848   8.241  0.1560  0.4974  0.1053
 8715SOL    HW137604   2.239   0.797   8.164  0.1490 -0.6312  0.8670
 8715SOL    HW237605   2.340   0.798   8.272  1.4745  1.5407 -1.3975
 8716SOL     OW37606   0.784   1.709   2.334  0.5143  0.1967 -0.5837
 8716SOL    HW137607   0.861   1.721   2.390 -0.5318  0.7010  0.7477
 8716SOL    HW237608   0.820   1.666   2.256  1.7798 -0.4983  0.3957
 8717SOL     OW37609   3.636   0.504  14.534 -0.3764 -0.0776  0.3060
 8717SOL    HW137610   3.564   0.455  14.573  1.0541 -0.6537  2.2316
 8717SOL    HW237611   3.592   0.567  14.476 -0.2371  3.5114  4.0706
 8718SOL     OW37612   3.048   2.056   3.209 -0.5049  0.1432  0.2388
 8718SOL    HW137613   2.964   2.070   3.252 -1.4327  0.3185 -1.5933
 8718SOL    HW237614   3.032   2.118   3.137  0.1366 -1.6783 -1.4827
 8719SOL     OW37615   3.400   4.368  15.752  0.7415  0.5521 -0.1151
 8719SOL    HW137616   3.358   4.358  15.838 -1.2289  0.9608 -1.0174
 8719SOL    HW237617   3.363   4.451  15.723  0.9649  0.5525 -0.3985
 8720SOL     OW37618   4.326   2.974  12.961 -0.7468 -0.1019 -0.7573
 8720SOL    HW137619   4.334   2.935  12.874  0.6429 -1.4500 -0.0106
 8720SOL    HW237620   4.345   2.897  13.015  1.3549  0.1414 -1.1524
 8721SOL     OW37621   0.794   4.612   8.288  0.4913  0.6959 -0.4561
 8721SOL    HW137622   0.771   4.564   8.209  1.4661  0.6031 -0.6779
 8721SOL    HW237623   0.889   4.619   8.279  0.4776 -0.1576 -1.2914
 8722SOL     OW37624   0.365   1.103  11.783 -0.5878  0.4614 -0.2807
 8722SOL    HW137625   0.294   1.136  11.837  2.1388  2.9988  1.7021
 8722SOL    HW237626   0.419   1.060  11.849 -0.3812 -0.6156 -1.1464
 8723SOL     OW37627   1.523   2.211  16.536  0.3248 -0.1291  0.4265
 8723SOL    HW137628   1.613   2.182  16.545  0.5953  0.1361 -1.4489
 8723SOL    HW237629   1.540   2.256  16.454  1.3422  0.9780  1.2416
 8724SOL     OW37630   3.714   3.578   4.604  0.7975  0.6253 -0.0941
 8724SOL    HW137631   3.635   3.587   4.551 -0.6930 -1.2593  1.8387
 8724SOL    HW237632   3.723   3.666   4.639 -2.3837  1.4355 -1.3196
 8725SOL     OW37633   1.595   1.293   8.680  0.4489 -0.0074  0.2086
 8725SOL    HW137634   1.611   1.253   8.765  0.4479 -0.2104  0.1120
 8725SOL    HW237635   1.678   1.332   8.653  0.2204 -0.9232 -1.7934
 8726SOL     OW37636   2.080   3.853  10.045 -0.0883 -0.4563  0.0387
 8726SOL    HW137637   2.110   3.943  10.046 -0.9080 -0.1703 -0.8822
 8726SOL    HW237638   2.004   3.855  10.103  0.4164 -1.6270  0.7532
 8727SOL     OW37639   0.233   1.455   5.024  0.6909 -0.1613 -0.5558
 8727SOL    HW137640   0.266   1.487   4.940  0.5116 -0.3845 -0.7099
 8727SOL    HW237641   0.255   1.533   5.075 -0.8697 -0.0600 -0.0419
 8728SOL     OW37642   1.414   2.269   3.996  0.3076  0.6661  0.5337
 8728SOL    HW137643   1.446   2.330   3.930 -1.0590  0.6055 -0.1871
 8728SOL    HW237644   1.397   2.204   3.927 -0.1672 -0.8023  2.0526
 8729SOL     OW37645   4.372   2.728  13.065 -0.0228 -0.1835 -0.2394
 8729SOL    HW137646   4.328   2.674  13.131  0.7151  0.1226  0.5052
 8729SOL    HW237647   4.462   2.722  13.097  0.6410 -1.2354 -2.3489
 8730SOL     OW37648   3.441   3.478   3.057 -0.2479 -0.2502  0.4843
 8730SOL    HW137649   3.515   3.534   3.081  0.2347 -0.7349  0.1406
 8730SOL    HW237650   3.371   3.528   3.097 -2.5087 -1.3734 -2.0974
 8731SOL     OW37651   4.380   2.138   5.770  0.3270  0.2104  0.2453
 8731SOL    HW137652   4.348   2.180   5.691  1.3119  2.3034  0.9598
 8731SOL    HW237653   4.468   2.175   5.775  0.4858  0.0318 -1.4240
 8732SOL     OW37654   3.184   0.434  11.076  0.1156 -0.3945  0.1332
 8732SOL    HW137655   3.205   0.520  11.041 -2.6963  0.1156 -0.2412
 8732SOL    HW237656   3.268   0.392  11.097  1.0457  1.3453 -0.1177
 8733SOL     OW37657   1.022   2.126   5.426  0.4734 -0.2597  0.1983
 8733SOL    HW137658   1.114   2.107   5.409  0.4301 -1.4566  1.3309
 8733SOL    HW237659   1.000   2.188   5.357 -0.6177 -0.2093  0.5901
 8734SOL     OW37660   1.804   2.455   7.623 -0.0669  0.3211  0.0856
 8734SOL    HW137661   1.846   2.515   7.561  2.6511  1.2014  2.8062
 8734SOL    HW237662   1.712   2.469   7.598  0.0847 -2.5059 -2.0941
 8735SOL     OW37663   2.102   2.221  13.473  0.5697  0.2811  0.1634
 8735SOL    HW137664   2.136   2.202  13.560  0.4370  0.0912  0.1747
 8735SOL    HW237665   2.007   2.226  13.485  0.4927  0.9834 -0.7935
 8736SOL     OW37666   1.569   0.388   2.490 -0.0325  0.7934 -1.0136
 8736SOL    HW137667   1.659   0.419   2.491  0.3755 -0.3968 -1.9897
 8736SOL    HW237668   1.556   0.365   2.398  1.2689  1.7991 -1.4412
 8737SOL     OW37669   2.979   1.276   6.050 -0.2070  0.0882  0.1672
 8737SOL    HW137670   2.989   1.289   5.956 -0.0903  3.2513  0.6158
 8737SOL    HW237671   2.994   1.366   6.081 -1.2123 -0.3601  1.9705
 8738SOL     OW37672   0.682   1.238   8.362  0.4914  0.0955  0.5916
 8738SOL    HW137673   0.754   1.254   8.423  1.3030 -3.6952  0.6035
 8738SOL    HW237674   0.725   1.259   8.279  0.0880 -1.9732 -0.1436
 8739SOL     OW37675   2.768   4.141   2.025  0.4203  0.0262 -0.0993
 8739SOL    HW137676   2.690   4.193   2.048  0.5335  1.6792 -3.4288
 8739SOL    HW237677   2.839   4.200   2.052 -0.2366 -0.0476  1.8220
 8740SOL     OW37678   0.732   0.843   8.136  0.3531  0.1318  0.3865
 8740SOL    HW137679   0.756   0.912   8.075 -1.3473 -0.9108 -1.4500
 8740SOL    HW237680   0.796   0.855   8.207  0.1721  1.9030  0.2333
 8741SOL     OW37681   0.084   0.728   7.755  0.5411 -0.4354  0.0332
 8741SOL    HW137682   0.040   0.748   7.673  0.0916  0.1332  0.4068
 8741SOL    HW237683   0.117   0.644   7.726 -0.2465 -1.0893  0.9974
 8742SOL     OW37684   0.648   4.290  13.712  0.2762 -0.0734 -0.0552
 8742SOL    HW137685   0.622   4.205  13.747  0.1941 -0.3148 -0.6988
 8742SOL    HW237686   0.594   4.346  13.768  0.8031  0.0056  0.3760
 8743SOL     OW37687   0.887   4.575  13.128 -0.5062 -0.6925 -0.0568
 8743SOL    HW137688   0.876   4.572  13.033  1.2150 -0.7717 -0.2522
 8743SOL    HW237689   0.905   4.670  13.127 -0.4387 -0.7027  0.6234
 8744SOL     OW37690   0.648   0.374   3.264 -0.0667  0.2241 -0.3205
 8744SOL    HW137691   0.613   0.459   3.290 -1.0162 -0.4384  0.5547
 8744SOL    HW237692   0.741   0.389   3.282 -0.1602  0.4731 -0.0384
 8745SOL     OW37693   1.410   0.852   6.353  0.2254  0.1189  0.1643
 8745SOL    HW137694   1.444   0.874   6.266  0.5787  1.3885  0.6265
 8745SOL    HW237695   1.440   0.929   6.402  3.6225  1.1171 -3.4467
 8746SOL     OW37696   0.001   4.685  16.270  0.4046  0.6645 -0.3454
 8746SOL    HW137697   0.094   4.683  16.291  1.2447 -3.0706 -4.4314
 8746SOL    HW237698   4.696   0.054  16.290 -1.7313  0.2419 -1.2211
 8747SOL     OW37699   4.354   2.902  12.690  0.0728 -0.3367  1.2752
 8747SOL    HW137700   4.406   2.827  12.660 -2.9238 -0.7292 -2.9552
 8747SOL    HW237701   4.307   2.934  12.613 -0.5967 -3.5915  0.3340
 8748SOL     OW37702   4.291   3.567   2.863  0.4089 -0.4130 -0.2657
 8748SOL    HW137703   4.292   3.515   2.783  0.5320  1.9139 -1.8053
 8748SOL    HW237704   4.263   3.500   2.926 -1.6341  1.2396  0.5932
 8749SOL     OW37705   2.296   0.985  12.587  0.1810  0.2703  0.4361
 8749SOL    HW137706   2.333   1.065  12.625  1.3675  1.0726 -2.4007
 8749SOL    HW237707   2.354   0.927  12.637  1.0287 -0.0002 -0.8407
 8750SOL     OW37708   0.200   3.426  10.996 -0.9528  0.6386 -0.4163
 8750SOL    HW137709   0.186   3.514  11.030 -1.6533  1.2114 -2.2254
 8750SOL    HW237710   0.273   3.399  11.051  0.7332  1.9375 -2.0211
 8751SOL     OW37711   3.249   3.932   6.843 -0.0928  0.1610  0.1601
 8751SOL    HW137712   3.284   3.877   6.913  1.0180 -0.4237 -0.8584
 8751SOL    HW237713   3.250   3.876   6.765  0.4183  0.5336 -0.0963
 8752SOL     OW37714   2.140   4.504   4.488 -0.4377 -0.4147 -0.2834
 8752SOL    HW137715   2.046   4.518   4.480 -0.7290 -2.1105  0.2176
 8752SOL    HW237716   2.139   4.493   4.583 -0.8796 -0.0580 -0.2492
 8753SOL     OW37717   3.296   3.600   5.525  0.0964 -0.3159  0.2200
 8753SOL    HW137718   3.261   3.682   5.561 -1.9147 -0.8099 -0.6467
 8753SOL    HW237719   3.386   3.604   5.559  0.3240 -2.8754 -0.1282
 8754SOL     OW37720   2.706   2.057   6.054 -0.2434 -0.1351  0.6575
 8754SOL    HW137721   2.640   2.106   6.004  0.9902  1.6844  0.8136
 8754SOL    HW237722   2.691   1.966   6.029 -0.0422  0.1837 -0.6318
 8755SOL     OW37723   2.989   1.351   0.052  0.6794  0.4660  0.0355
 8755SOL    HW137724   3.026   1.437   0.034 -0.2549  0.9208  0.3126
 8755SOL    HW237725   3.062   1.299   0.018 -1.7733 -2.1897 -1.1495
 8756SOL     OW37726   1.948   1.791  12.906 -0.1291 -0.5333  0.1681
 8756SOL    HW137727   1.945   1.836  12.821 -0.3043 -3.8675 -1.5675
 8756SOL    HW237728   1.855   1.767  12.913  0.0779 -2.0835 -2.7174
 8757SOL     OW37729   2.755   4.511   2.065  0.4450  0.0250  0.1868
 8757SOL    HW137730   2.817   4.454   2.109  1.7444  0.7433 -0.7286
 8757SOL    HW237731   2.682   4.451   2.047  0.3395  0.5134 -1.0246
 8758SOL     OW37732   3.096   1.203  16.417  0.1273 -0.2141  0.0430
 8758SOL    HW137733   3.178   1.205  16.466 -0.7441  0.0375  1.5007
 8758SOL    HW237734   3.075   1.110  16.417 -3.1299  0.5231 -1.0375
 8759SOL     OW37735   2.756   3.343   5.540  0.4482  0.0872  0.3172
 8759SOL    HW137736   2.844   3.361   5.574  0.5083 -0.0031  0.2067
 8759SOL    HW237737   2.723   3.280   5.605 -0.0316 -1.5589 -1.5384
 8760SOL     OW37738   1.942   2.545  13.394  0.0063  0.1402  0.2679
 8760SOL    HW137739   1.896   2.473  13.351 -2.2292  0.9943  1.2113
 8760SOL    HW237740   1.870   2.609  13.395 -0.4604 -0.3914  0.4946
 8761SOL     OW37741   1.034   0.893  12.989 -0.5721 -0.1929 -0.1383
 8761SOL    HW137742   1.095   0.900  13.062 -1.8027 -0.8790  0.9587
 8761SOL    HW237743   1.032   0.799  12.975 -0.4719 -0.3898  1.1326
 8762SOL     OW37744   2.452   2.233   8.274  0.3094 -0.0098 -0.2236
 8762SOL    HW137745   2.481   2.239   8.365 -1.8103  0.1788  0.4476
 8762SOL    HW237746   2.435   2.139   8.274  0.4886 -0.0406 -0.7839
 8763SOL     OW37747   2.336   0.993   4.986 -0.1816 -0.1445 -0.0126
 8763SOL    HW137748   2.325   1.077   4.941 -0.2864 -0.9175 -1.4415
 8763SOL    HW237749   2.295   1.007   5.071 -1.1636 -1.2920 -0.2954
 8764SOL     OW37750   1.581   4.703  15.502  0.2713  1.1571 -0.6742
 8764SOL    HW137751   1.606   0.063  15.547 -2.3890  1.8990 -0.5425
 8764SOL    HW237752   1.641   4.637  15.537 -0.9460  0.0536 -0.6853
 8765SOL     OW37753   0.805   4.040   9.409 -0.3674 -0.2600 -0.4152
 8765SOL    HW137754   0.806   4.092   9.490 -0.1599 -1.8388  0.6082
 8765SOL    HW237755   0.751   3.965   9.434  0.4935 -0.3850  1.0885
 8766SOL     OW37756   2.749   0.950  16.044 -0.2119 -0.3654  0.0008
 8766SOL    HW137757   2.719   0.967  15.955  2.1481  0.1017 -0.7079
 8766SOL    HW237758   2.800   1.031  16.056  0.4979 -0.7454 -0.4578
 8767SOL     OW37759   4.302   4.721   9.970 -0.5624  0.2330 -0.1450
 8767SOL    HW137760   4.261   4.701  10.055 -0.1274  0.0640  0.0221
 8767SOL    HW237761   4.232   4.701   9.907 -0.3737  0.4737 -0.4266
 8768SOL     OW37762   0.119   0.224   5.688 -0.4859  0.0568 -0.1368
 8768SOL    HW137763   0.193   0.171   5.657 -1.0300 -0.7513 -0.0450
 8768SOL    HW237764   0.156   0.266   5.766 -0.2965 -1.3102  0.5182
 8769SOL     OW37765   1.975   2.757   8.101  0.1622  0.3836 -0.3492
 8769SOL    HW137766   2.045   2.794   8.047  0.7258 -0.4843 -0.2116
 8769SOL    HW237767   2.020   2.757   8.185  0.1304  0.4856 -0.3317
 8770SOL     OW37768   4.350   2.179   6.600  0.5258  0.1443  0.3623
 8770SOL    HW137769   4.390   2.133   6.674 -1.2093 -2.7489 -0.4898
 8770SOL    HW237770   4.290   2.243   6.638  1.1370 -0.0532  1.6469
 8771SOL     OW37771   4.060   1.241   7.024  0.0141  0.3479  0.6699
 8771SOL    HW137772   4.077   1.332   7.047  0.1761 -0.4085  3.5647
 8771SOL    HW237773   3.982   1.249   6.969  0.2464  0.2452  0.3251
 8772SOL     OW37774   0.346   0.357   6.606 -0.3614  0.4370  0.3840
 8772SOL    HW137775   0.429   0.391   6.640  0.4849 -0.3514 -0.9102
 8772SOL    HW237776   0.376   0.268   6.591  0.7301  0.4681  2.3955
 8773SOL     OW37777   4.521   0.830   9.015 -0.3246  0.4611  0.2072
 8773SOL    HW137778   4.485   0.766   9.076 -0.3365  0.5281  0.2694
 8773SOL    HW237779   4.448   0.890   9.002 -0.3671  0.7784  1.8666
 8774SOL     OW37780   0.928   4.720   0.743 -0.2417 -0.4728  0.5341
 8774SOL    HW137781   0.866   0.066   0.714 -0.5264 -0.9494  0.0476
 8774SOL    HW237782   0.865   4.649   0.752  0.1422 -0.9765 -0.7172
 8775SOL     OW37783   0.154   1.189  12.012 -1.2200  0.0581  0.3728
 8775SOL    HW137784   0.111   1.251  11.953  2.0206  1.0697 -0.8963
 8775SOL    HW237785   0.241   1.228  12.018 -0.8699 -0.4616 -1.1429
 8776SOL     OW37786   1.584   2.360  17.129  0.7310  0.5636 -0.2386
 8776SOL    HW137787   1.564   2.325  17.215  0.6321 -2.2636 -1.3967
 8776SOL    HW237788   1.581   2.454  17.145 -2.6922  0.9730 -3.2766
 8777SOL     OW37789   1.953   3.496   3.918 -0.0808 -0.4370  0.2062
 8777SOL    HW137790   1.925   3.405   3.913  0.7133 -0.6059 -1.1409
 8777SOL    HW237791   2.024   3.500   3.983 -0.0545  0.4616  0.1216
 8778SOL     OW37792   0.113   3.030   8.680 -0.5107  0.1023 -0.3137
 8778SOL    HW137793   0.121   3.125   8.680 -0.3790  0.0941 -1.3196
 8778SOL    HW237794   0.130   3.012   8.773 -1.4440  0.2429 -0.1174
 8779SOL     OW37795   3.305   2.517   8.440 -0.5161  0.1322  0.0839
 8779SOL    HW137796   3.378   2.491   8.496 -0.8287 -1.3126 -0.1753
 8779SOL    HW237797   3.281   2.602   8.475  1.6512  0.8469 -0.1726
 8780SOL     OW37798   1.218   0.059   9.166 -0.0831  0.3187  0.4695
 8780SOL    HW137799   1.238   0.125   9.233 -1.7387  0.4007  0.8766
 8780SOL    HW237800   1.166   4.717   9.216  1.2682 -0.9091  0.3247
 8781SOL     OW37801   4.094   2.252   8.337  0.3627 -0.4182 -0.9294
 8781SOL    HW137802   4.098   2.234   8.431  4.0019  1.8687 -0.6420
 8781SOL    HW237803   4.185   2.275   8.319  0.0333  1.3984 -0.3033
 8782SOL     OW37804   2.898   0.522   0.659 -0.3754  0.3755  0.3370
 8782SOL    HW137805   2.837   0.528   0.586  0.5061  1.5802 -0.2922
 8782SOL    HW237806   2.837   0.558   0.723 -0.1048  0.0504  0.7818
 8783SOL     OW37807   1.494   4.074   1.158 -0.3353  0.4208  0.5920
 8783SOL    HW137808   1.447   4.103   1.236 -3.7639 -1.4814 -0.7525
 8783SOL    HW237809   1.519   4.160   1.125 -2.7030  0.6831 -0.5208
 8784SOL     OW37810   2.287   0.344  11.418  0.2117  0.8777 -0.2870
 8784SOL    HW137811   2.323   0.347  11.329 -0.9254  0.1882 -0.7633
 8784SOL    HW237812   2.249   0.431  11.429  0.7197  1.3546 -2.2890
 8785SOL     OW37813   3.884   0.220  11.692  0.1849 -0.2334  0.9761
 8785SOL    HW137814   3.799   0.264  11.697 -0.2602 -1.0650  0.5952
 8785SOL    HW237815   3.937   0.293  11.659 -2.0429  1.6091  1.5396
 8786SOL     OW37816   1.056   2.968   2.769  0.0915 -0.3788 -0.4372
 8786SOL    HW137817   1.135   3.023   2.769  1.2352 -2.0450  1.4882
 8786SOL    HW237818   1.061   2.936   2.679  0.0433 -0.2056 -0.5012
 8787SOL     OW37819   1.875   3.224   3.200  0.0225  0.6874  0.1635
 8787SOL    HW137820   1.873   3.207   3.294 -0.1437 -0.8910 -0.1238
 8787SOL    HW237821   1.881   3.137   3.159 -0.5204  0.9392 -0.4477
 8788SOL     OW37822   1.623   2.528   3.084  0.1318  0.4147  0.2358
 8788SOL    HW137823   1.616   2.434   3.069  1.2401  0.6010 -1.4117
 8788SOL    HW237824   1.592   2.539   3.174  2.1788  2.1016  0.7385
 8789SOL     OW37825   3.024   4.536   0.913  0.6336 -0.4233 -0.7798
 8789SOL    HW137826   2.941   4.576   0.938  1.2070  0.2746  0.0231
 8789SOL    HW237827   3.088   4.581   0.969 -0.4090 -0.4971  0.4648
 8790SOL     OW37828   1.362   3.340   2.970 -0.5229 -0.6765  0.3486
 8790SOL    HW137829   1.448   3.305   2.949 -0.6354 -1.6192  1.4488
 8790SOL    HW237830   1.368   3.362   3.063 -3.7781 -0.0139  0.4155
 8791SOL     OW37831   4.516   3.408   5.414  0.2513  0.0140  0.2755
 8791SOL    HW137832   4.492   3.338   5.353  1.5951  0.2894 -0.5707
 8791SOL    HW237833   4.607   3.421   5.389 -0.2415  0.8494 -1.0794
 8792SOL     OW37834   4.613   0.306  11.085  0.2285  0.1477  0.3163
 8792SOL    HW137835   4.708   0.295  11.090  0.2122  0.2133  0.7503
 8792SOL    HW237836   4.593   0.213  11.094 -1.0933  0.2263 -1.7695
 8793SOL     OW37837   3.062   0.777  11.227  0.4730 -0.0284 -0.3239
 8793SOL    HW137838   3.142   0.745  11.187  0.8634  0.4255  0.0872
 8793SOL    HW237839   3.014   0.829  11.163 -1.3277 -1.7614 -0.3723
 8794SOL     OW37840   3.394   1.291  15.045  0.0550 -0.5636 -0.0072
 8794SOL    HW137841   3.328   1.335  14.991  0.0081 -0.1933  0.3556
 8794SOL    HW237842   3.340   1.225  15.087  0.7345 -1.2088 -0.1550
 8795SOL     OW37843   1.205   0.864   3.734  0.1570  0.2331 -0.1384
 8795SOL    HW137844   1.190   0.887   3.826  2.3723 -1.2787  0.6013
 8795SOL    HW237845   1.285   0.915   3.720  0.0088  1.0327  1.9096
 8796SOL     OW37846   0.201   4.505  11.233 -0.3553  0.0867 -0.4260
 8796SOL    HW137847   0.233   4.556  11.159 -0.9010  0.9376 -0.0851
 8796SOL    HW237848   0.176   4.421  11.194 -0.4914  0.8862 -2.0355
 8797SOL     OW37849   0.201   2.661   3.900  0.8093 -0.1163  0.1025
 8797SOL    HW137850   0.170   2.715   3.972  1.5938  1.1270 -0.4786
 8797SOL    HW237851   0.136   2.591   3.893 -1.3416  2.0472 -1.6318
 8798SOL     OW37852   2.837   0.576  17.260 -0.5919  0.3634 -0.1559
 8798SOL    HW137853   2.923   0.554  17.225 -1.5094 -0.1663 -2.0674
 8798SOL    HW237854   2.791   0.577  17.176 -0.3699  1.7372 -0.2587
 8799SOL     OW37855   0.387   3.415  11.215  1.3357  0.4133  0.0949
 8799SOL    HW137856   0.469   3.392  11.259  0.8221 -0.7232  0.4497
 8799SOL    HW237857   0.364   3.491  11.268 -0.3749 -0.7215  0.9544
 8800SOL     OW37858   1.798   3.191   7.310  0.4472 -0.5526 -0.4278
 8800SOL    HW137859   1.801   3.150   7.223 -1.8095 -0.1759 -0.6890
 8800SOL    HW237860   1.703   3.200   7.316  0.0978 -2.7984 -2.4228
 8801SOL     OW37861   2.456   3.895  16.132 -0.4808  0.1337 -0.7816
 8801SOL    HW137862   2.390   3.826  16.125  0.2535 -0.4766 -1.7693
 8801SOL    HW237863   2.528   3.852  16.085  1.1632  0.3850  1.5068
 8802SOL     OW37864   3.329   1.991   4.709  0.3296  0.3781  0.3372
 8802SOL    HW137865   3.379   1.924   4.757  1.6859  2.0512  1.2678
 8802SOL    HW237866   3.341   1.979   4.615  0.4992  0.6389  0.3248
 8803SOL     OW37867   0.959   2.583   3.567 -0.3661  0.6034  0.5280
 8803SOL    HW137868   0.879   2.623   3.533 -0.0032  0.2483 -0.7659
 8803SOL    HW237869   1.026   2.609   3.503 -0.9708 -0.1803 -0.4314
 8804SOL     OW37870   0.138   1.977   3.804 -0.2326 -0.5240 -0.6285
 8804SOL    HW137871   0.073   1.910   3.829 -2.4393  2.2159  0.9956
 8804SOL    HW237872   0.209   1.914   3.790  3.0995  3.2435 -0.5581
 8805SOL     OW37873   3.093   4.564  15.882 -0.0247 -0.4854 -0.4324
 8805SOL    HW137874   3.072   4.476  15.914 -0.1320  0.1281  1.1861
 8805SOL    HW237875   3.120   4.540  15.793 -1.1958  3.1856 -1.7564
 8806SOL     OW37876   0.857   2.630  12.605  0.5416  0.0980  0.4257
 8806SOL    HW137877   0.806   2.675  12.537  0.3456  0.7062  0.9801
 8806SOL    HW237878   0.801   2.557  12.632  1.7621 -0.9244  0.2282
 8807SOL     OW37879   2.464   1.042  13.807  0.0383  0.6837  0.5371
 8807SOL    HW137880   2.481   1.117  13.749 -2.1674 -1.2989 -2.6835
 8807SOL    HW237881   2.419   1.098  13.869 -1.6630  0.3314 -0.3855
 8808SOL     OW37882   1.066   1.070   3.318  0.8465 -0.5410 -0.0187
 8808SOL    HW137883   1.064   0.978   3.294  2.6363 -1.0990  1.9691
 8808SOL    HW237884   0.978   1.100   3.340  0.1387 -0.7761 -2.5301
 8809SOL     OW37885   1.892   3.358  10.708 -0.0083 -0.2486  0.1704
 8809SOL    HW137886   1.801   3.338  10.729 -0.1746 -1.0163 -1.2708
 8809SOL    HW237887   1.922   3.268  10.703 -0.5420 -0.3812 -0.6150
 8810SOL     OW37888   1.692   3.017   0.996 -0.2136  0.1715 -0.2191
 8810SOL    HW137889   1.629   2.981   0.935 -1.4736  0.5418  0.8707
 8810SOL    HW237890   1.662   2.977   1.078 -0.0955 -1.1173 -0.8121
 8811SOL     OW37891   0.956   0.010   2.452  0.2607 -0.1123 -0.3989
 8811SOL    HW137892   0.954   0.074   2.381  0.4369  1.8204  1.3303
 8811SOL    HW237893   1.023   4.669   2.425  1.1572  1.0315 -0.8034
 8812SOL     OW37894   1.895   0.672   1.470 -0.7419  0.6200 -0.0443
 8812SOL    HW137895   1.919   0.636   1.385  1.4518 -3.2542  2.2216
 8812SOL    HW237896   1.935   0.759   1.468  1.2463 -0.2806 -0.2192
 8813SOL     OW37897   3.155   1.353   6.701 -0.6302 -0.7261 -0.0781
 8813SOL    HW137898   3.093   1.285   6.727  0.3827 -0.9863  1.6593
 8813SOL    HW237899   3.160   1.332   6.608 -0.8231 -0.2879 -0.1872
 8814SOL     OW37900   3.921   2.691   3.466  0.2211  0.2076  0.0252
 8814SOL    HW137901   3.850   2.734   3.514 -1.1886 -2.0297 -0.0491
 8814SOL    HW237902   4.001   2.733   3.497  0.7608 -1.0449  0.3022
 8815SOL     OW37903   2.752   3.517   4.003  0.3648  0.4006  0.1552
 8815SOL    HW137904   2.744   3.454   4.074 -1.1132 -0.8508 -1.1428
 8815SOL    HW237905   2.668   3.512   3.957  1.1887 -0.2454 -1.2623
 8816SOL     OW37906   1.847   1.435   5.485 -0.0396 -0.5542  0.3454
 8816SOL    HW137907   1.877   1.370   5.548 -0.0100 -1.1786 -0.3089
 8816SOL    HW237908   1.869   1.518   5.528  1.9554 -1.5028  1.1164
 8817SOL     OW37909   3.342   1.172   6.823 -0.5835 -0.3241  0.1779
 8817SOL    HW137910   3.278   1.224   6.774  1.3653  2.0265  0.1444
 8817SOL    HW237911   3.408   1.234   6.853  0.7958 -0.7366 -1.9901
 8818SOL     OW37912   2.620   2.626  11.030 -0.7558 -0.3978  0.1919
 8818SOL    HW137913   2.604   2.720  11.042 -0.2035 -0.5298  1.9091
 8818SOL    HW237914   2.561   2.608  10.956 -1.2500  0.7488  0.3024
 8819SOL     OW37915   0.609   2.953   5.158  0.0864  0.6078  0.0920
 8819SOL    HW137916   0.626   2.864   5.127  3.3915  0.8004  1.3408
 8819SOL    HW237917   0.613   2.932   5.252  2.3691  2.5055  0.3970
 8820SOL     OW37918   3.879   1.300   9.306 -0.0287  0.3000 -0.0974
 8820SOL    HW137919   3.957   1.304   9.251  1.5555 -2.8031  1.9408
 8820SOL    HW237920   3.919   1.337   9.384  0.7427 -1.5997  0.3916
 8821SOL     OW37921   4.069   4.570   3.186  0.0116 -0.3795  0.5707
 8821SOL    HW137922   4.125   4.603   3.116 -0.2187 -2.1105 -0.4312
 8821SOL    HW237923   4.050   4.648   3.237 -0.9115  1.7907 -3.1091
 8822SOL     OW37924   2.413   2.902   4.672 -0.4706  0.1180  0.3200
 8822SOL    HW137925   2.434   2.973   4.612  0.5185 -1.0481 -0.7164
 8822SOL    HW237926   2.372   2.949   4.744 -5.3948 -0.2128 -2.3009
 8823SOL     OW37927   1.891   4.354  12.059 -0.6430 -0.0318 -0.2888
 8823SOL    HW137928   1.839   4.352  11.978  0.0868  0.0080 -0.7623
 8823SOL    HW237929   1.941   4.275  12.040 -0.5125  0.4889 -2.1776
 8824SOL     OW37930   1.464   1.901   0.641  0.4810 -0.9222 -0.5181
 8824SOL    HW137931   1.480   1.846   0.564  0.5105  1.3876 -2.1831
 8824SOL    HW237932   1.371   1.921   0.630  0.7412  0.0505 -0.9950
 8825SOL     OW37933   1.004   3.768   0.438  0.4338  0.3687 -0.1078
 8825SOL    HW137934   0.961   3.705   0.380  2.5077  0.5007 -1.8044
 8825SOL    HW237935   1.049   3.822   0.373 -0.0698 -0.1014 -0.8526
 8826SOL     OW37936   2.468   3.235  13.835  0.0614  0.5255 -0.0316
 8826SOL    HW137937   2.503   3.166  13.892  1.3537  3.4028  2.7163
 8826SOL    HW237938   2.444   3.195  13.752  1.2375  3.2346 -1.6823
 8827SOL     OW37939   2.663   0.807   3.313 -0.2573 -0.0580 -0.0775
 8827SOL    HW137940   2.721   0.764   3.250  1.4244 -0.4172  1.7250
 8827SOL    HW237941   2.698   0.767   3.392  1.2401 -0.0316 -0.7356
 8828SOL     OW37942   3.332   2.075   4.136 -0.1348  0.0858  0.6989
 8828SOL    HW137943   3.243   2.086   4.169 -0.2108  1.0584  0.1717
 8828SOL    HW237944   3.348   1.981   4.142  0.1348  0.2033  1.7666
 8829SOL     OW37945   3.094   4.439   8.875 -0.7128  0.0436 -0.6038
 8829SOL    HW137946   3.117   4.347   8.865 -1.7947 -0.1498 -1.2618
 8829SOL    HW237947   3.125   4.470   8.790 -2.3881 -0.4998 -1.4057
 8830SOL     OW37948   3.818   1.781   6.640 -0.1708 -0.4833  0.0380
 8830SOL    HW137949   3.749   1.719   6.617  0.2930  0.1747 -3.1219
 8830SOL    HW237950   3.890   1.752   6.583 -1.0589 -2.9475  0.2067
 8831SOL     OW37951   4.683   1.543   8.542 -0.0814 -0.6922 -0.0460
 8831SOL    HW137952   4.642   1.460   8.515 -2.1208  0.4361 -0.4194
 8831SOL    HW237953   0.055   1.524   8.531  0.1417  0.6512 -0.4181
 8832SOL     OW37954   0.567   0.274  16.832  0.2340 -0.2097  0.3316
 8832SOL    HW137955   0.533   0.218  16.902  0.1029 -1.2603 -0.5735
 8832SOL    HW237956   0.586   0.356  16.878 -3.1860  0.4101  0.6797
 8833SOL     OW37957   4.308   3.199   2.789 -0.4372  0.2496 -0.3690
 8833SOL    HW137958   4.399   3.171   2.793 -0.6241 -0.1609  1.0675
 8833SOL    HW237959   4.317   3.284   2.747  0.8556  1.2990  2.0723
 8834SOL     OW37960   2.792   0.416  17.503  0.3723  0.4090 -0.2302
 8834SOL    HW137961   2.713   0.455  17.464 -0.2167 -0.2552  0.3131
 8834SOL    HW237962   2.855   0.455  17.442  2.3920  0.0217  1.6404
 8835SOL     OW37963   1.398   0.024   7.310 -0.3245  0.3050  0.2380
 8835SOL    HW137964   1.381   4.653   7.329  1.6986 -0.1282 -0.0482
 8835SOL    HW237965   1.461   0.054   7.376 -0.7519 -1.2197  1.3306
 8836SOL     OW37966   3.127   1.670   0.439  0.0931 -0.1387  0.0910
 8836SOL    HW137967   3.064   1.628   0.498 -0.6810  1.0030  0.0684
 8836SOL    HW237968   3.150   1.735   0.505  0.2539  0.9875 -1.0746
 8837SOL     OW37969   4.514   4.014   6.259  0.1118 -0.3966  1.2162
 8837SOL    HW137970   4.483   4.002   6.349 -0.3698 -1.1488  0.9469
 8837SOL    HW237971   4.564   3.933   6.244  0.9495  0.5035 -0.8732
 8838SOL     OW37972   0.606   4.502  14.982  0.3999  0.2945 -0.0594
 8838SOL    HW137973   0.594   4.521  14.889 -1.1275 -3.3192 -0.5814
 8838SOL    HW237974   0.519   4.516  15.018 -0.5298 -1.8220 -1.4696
 8839SOL     OW37975   3.150   1.856   7.661  0.0331  0.4982  0.2797
 8839SOL    HW137976   3.182   1.925   7.720  1.9146  0.6573 -0.8997
 8839SOL    HW237977   3.082   1.812   7.711  0.0280 -0.1561 -0.3074
 8840SOL     OW37978   3.284   4.479  13.213  0.4072 -0.2281 -0.4308
 8840SOL    HW137979   3.264   4.387  13.194  0.3300 -0.2122 -0.4283
 8840SOL    HW237980   3.234   4.507  13.136 -0.0155  2.4575  0.8318
 8841SOL     OW37981   1.424   3.635  11.357  0.5549  0.4018  0.6553
 8841SOL    HW137982   1.467   3.550  11.360 -2.6541 -1.1836  1.5699
 8841SOL    HW237983   1.471   3.669  11.281  0.3882 -0.6664  0.0828
 8842SOL     OW37984   3.742   2.406   8.764  0.1268 -0.1032 -0.1679
 8842SOL    HW137985   3.663   2.358   8.789  0.5924 -0.9365 -0.3131
 8842SOL    HW237986   3.707   2.494   8.750  0.1688  0.0735  0.8509
 8843SOL     OW37987   3.996   2.763   3.782  0.0591 -0.3566 -0.6924
 8843SOL    HW137988   4.089   2.757   3.758  0.3483  1.0335  0.0644
 8843SOL    HW237989   3.995   2.749   3.876  0.7973 -1.9857 -0.9189
 8844SOL     OW37990   3.906   1.653   5.717 -0.3268  0.2705 -0.0517
 8844SOL    HW137991   3.893   1.682   5.807 -1.6264  0.2957 -0.2405
 8844SOL    HW237992   3.989   1.698   5.703  0.7161 -1.0311  2.0218
 8845SOL     OW37993   2.919   0.886   4.337  0.2441 -0.2743 -0.0300
 8845SOL    HW137994   2.936   0.871   4.244 -2.4672 -2.1616 -0.2106
 8845SOL    HW237995   2.885   0.799   4.356 -0.1951 -0.2907 -0.8620
 8846SOL     OW37996   4.096   4.701  16.901  0.8372 -0.1065  0.2545
 8846SOL    HW137997   4.015   0.026  16.880  2.2402  1.3793 -1.7884
 8846SOL    HW237998   4.153   0.031  16.844 -0.0233 -1.8355 -2.1175
 8847SOL     OW37999   3.496   3.877   7.282  0.8248  0.2347 -0.4533
 8847SOL    HW138000   3.472   3.969   7.293 -1.5925 -0.4395 -0.0885
 8847SOL    HW238001   3.567   3.891   7.220  0.8985 -0.1899 -0.4631
 8848SOL     OW38002   3.188   1.268   6.448 -0.1448 -0.0411  0.5797
 8848SOL    HW138003   3.151   1.182   6.427  1.7868 -0.3022 -1.6908
 8848SOL    HW238004   3.252   1.268   6.377 -0.8090 -0.9341 -0.0187
 8849SOL     OW38005   0.777   1.027   9.091 -0.1741  0.8095  0.0292
 8849SOL    HW138006   0.809   1.090   9.156  0.5382  1.5800 -1.0715
 8849SOL    HW238007   0.853   1.004   9.037  0.7301  0.8618  1.2858
 8850SOL     OW38008   1.580   1.510   7.925 -0.2068 -0.1763  0.0771
 8850SOL    HW138009   1.661   1.520   7.875 -0.0690 -0.8934  0.1462
 8850SOL    HW238010   1.597   1.560   8.004  3.5176 -2.3036  0.6565
 8851SOL     OW38011   3.455   2.986   9.704 -1.0981  0.0342 -0.0368
 8851SOL    HW138012   3.401   3.048   9.754 -1.1373  0.3930 -0.5280
 8851SOL    HW238013   3.528   2.965   9.763 -3.4068 -0.5790  2.6169
 8852SOL     OW38014   2.706   0.607   7.530 -0.1554  0.6678  0.3319
 8852SOL    HW138015   2.629   0.559   7.562 -0.6757  1.2135 -0.0884
 8852SOL    HW238016   2.658   0.678   7.487 -0.9083 -1.2171 -1.9590
 8853SOL     OW38017   3.543   0.975  13.930 -0.0087 -0.3059  0.0275
 8853SOL    HW138018   3.606   0.935  13.871  1.4435  1.8294  0.1231
 8853SOL    HW238019   3.602   1.025  13.986 -0.7360  0.2476  0.3148
 8854SOL     OW38020   3.601   3.662   5.583  0.3919 -0.0194  0.3554
 8854SOL    HW138021   3.692   3.674   5.559  0.1328  1.3013  0.0779
 8854SOL    HW238022   3.562   3.683   5.498 -0.5535  2.8489  1.5247
 8855SOL     OW38023   2.657   4.319   8.565 -0.3951  0.7547  0.1857
 8855SOL    HW138024   2.598   4.255   8.606  0.1945 -0.5531 -0.9989
 8855SOL    HW238025   2.713   4.331   8.642  0.9976  1.0511 -0.8979
 8856SOL     OW38026   4.654   4.089   7.261  0.5258 -0.0222  0.2282
 8856SOL    HW138027   4.651   4.133   7.177 -0.8100  1.9450  1.3072
 8856SOL    HW238028   0.008   4.133   7.302 -1.0368  0.6377  2.3968
 8857SOL     OW38029   1.128   1.736   4.356  0.7296  0.0803  0.5101
 8857SOL    HW138030   1.070   1.807   4.383 -2.0027 -2.1067  0.3284
 8857SOL    HW238031   1.209   1.786   4.345 -0.7132  2.4446  0.8314
 8858SOL     OW38032   4.617   3.467   4.407  0.4789  0.2537 -0.2656
 8858SOL    HW138033   4.536   3.516   4.395  0.9505  1.0502 -0.2289
 8858SOL    HW238034   4.664   3.508   4.335  1.1570  2.3435  1.3395
 8859SOL     OW38035   0.240   1.082   9.769  0.1212 -0.3978 -0.2524
 8859SOL    HW138036   0.223   1.079   9.864 -0.7523 -1.0476 -0.4251
 8859SOL    HW238037   0.226   1.176   9.760 -0.4274 -0.5354 -0.8589
 8860SOL     OW38038   3.626   4.661   5.775  0.3858  0.2317  0.2043
 8860SOL    HW138039   3.601   4.719   5.703  1.0123 -0.2075 -0.3697
 8860SOL    HW238040   3.611   0.002   5.846 -2.6986  1.3642 -1.4090
 8861SOL     OW38041   0.929   0.614  14.702 -0.6419  0.1685  0.2914
 8861SOL    HW138042   0.954   0.670  14.775  1.3483 -0.3498 -0.0010
 8861SOL    HW238043   0.967   0.659  14.627 -1.4521  1.2650  0.5361
 8862SOL     OW38044   3.245   2.764   5.580  0.5072 -0.3955 -0.0817
 8862SOL    HW138045   3.271   2.831   5.516  0.1893  1.5712  1.8656
 8862SOL    HW238046   3.210   2.828   5.641  0.7448  1.0264 -1.4193
 8863SOL     OW38047   3.776   4.702   8.389 -0.4367  0.5045  0.6849
 8863SOL    HW138048   3.855   4.675   8.341 -0.5950  0.2350  0.5766
 8863SOL    HW238049   3.711   4.638   8.360 -0.0679  0.3882  0.0987
 8864SOL     OW38050   1.333   4.058   4.380  0.4819 -0.6640  0.0110
 8864SOL    HW138051   1.382   4.122   4.431 -1.7550  2.5771 -1.8719
 8864SOL    HW238052   1.281   4.110   4.319 -0.4275  0.5233  1.7800
 8865SOL     OW38053   4.696   1.397   5.943 -0.5854  0.3160  0.1541
 8865SOL    HW138054   0.066   1.379   5.963 -0.9899 -0.5796  1.2254
 8865SOL    HW238055   4.664   1.320   5.896  0.4357  0.0152 -0.0427
 8866SOL     OW38056   4.186   4.151  14.364  0.4074 -0.1535  0.2078
 8866SOL    HW138057   4.271   4.196  14.364  1.5031 -2.2286 -0.0762
 8866SOL    HW238058   4.201   4.074  14.309  1.5531 -0.6806  1.2704
 8867SOL     OW38059   1.699   2.871  11.413 -0.1084 -0.1586  0.3404
 8867SOL    HW138060   1.694   2.893  11.320 -1.3098 -0.4146  0.3464
 8867SOL    HW238061   1.619   2.823  11.433  1.5935 -3.2630 -0.2048
 8868SOL     OW38062   0.366   4.635   7.405  0.2324  0.2009  0.4315
 8868SOL    HW138063   0.311   4.601   7.475 -0.7058  0.6896 -0.0530
 8868SOL    HW238064   0.318   4.608   7.326 -0.6747  0.0900  1.0243
 8869SOL     OW38065   3.131   2.244   1.128 -0.1629 -0.2194  0.6103
 8869SOL    HW138066   3.130   2.279   1.039 -1.9471 -0.7229  0.4417
 8869SOL    HW238067   3.208   2.283   1.170 -1.3244  1.1152  1.4693
 8870SOL     OW38068   1.046   3.513   9.010  0.4830  0.0009  0.5777
 8870SOL    HW138069   1.015   3.593   8.966 -2.2534 -1.2378  0.2457
 8870SOL    HW238070   1.141   3.522   9.004  0.2529  0.3715 -2.5789
 8871SOL     OW38071   2.046   2.216   9.998  0.1920 -0.5928  0.1352
 8871SOL    HW138072   2.035   2.292  10.055  3.0701  0.1182 -0.2943
 8871SOL    HW238073   2.138   2.197  10.011  1.0289  1.8457 -2.0220
 8872SOL     OW38074   4.619   1.154  12.437 -0.3065  0.0627  0.3813
 8872SOL    HW138075   4.580   1.068  12.454 -0.0988 -0.3932 -1.4394
 8872SOL    HW238076   4.551   1.210  12.474 -0.1938  0.0979  0.5347
 8873SOL     OW38077   4.280   3.034  10.578  0.1291  0.0419 -0.2556
 8873SOL    HW138078   4.211   3.009  10.639  0.5093  1.8384  0.8945
 8873SOL    HW238079   4.337   3.093  10.628  1.0825 -0.3753 -0.8400
 8874SOL     OW38080   0.217   3.560  15.095  0.1675  0.0844  0.0570
 8874SOL    HW138081   0.181   3.637  15.051  1.6147  0.7022 -0.0184
 8874SOL    HW238082   0.305   3.594  15.110  0.9834 -1.4163 -1.3775
 8875SOL     OW38083   4.475   1.379  15.267  0.5663 -0.1427  0.0584
 8875SOL    HW138084   4.398   1.371  15.211  1.4857 -1.6537 -1.0024
 8875SOL    HW238085   4.454   1.351  15.357 -1.0735 -0.0378 -0.2871
 8876SOL     OW38086   0.979   2.267   8.644  0.1604 -0.1277 -0.1328
 8876SOL    HW138087   1.073   2.278   8.632  0.6558 -2.1846  1.9184
 8876SOL    HW238088   0.982   2.246   8.737 -1.1246 -0.1173 -0.0849
 8877SOL     OW38089   1.949   3.129   8.743  0.5538 -0.2673  0.1159
 8877SOL    HW138090   1.869   3.171   8.714 -0.6596 -1.9008  1.0975
 8877SOL    HW238091   1.994   3.138   8.659  0.2941  0.8067  0.0948
 8878SOL     OW38092   2.785   3.158  12.473  0.1019 -0.1273  0.4359
 8878SOL    HW138093   2.781   3.104  12.394  0.0465  1.6996 -0.8107
 8878SOL    HW238094   2.857   3.114  12.518  1.1682 -1.4241 -2.5379
 8879SOL     OW38095   3.230   2.718   1.161  0.6861  0.6323  0.0208
 8879SOL    HW138096   3.152   2.707   1.106  1.1621  1.4865 -0.8372
 8879SOL    HW238097   3.202   2.684   1.246 -3.1585  1.5086 -0.9005
 8880SOL     OW38098   2.718   0.639   5.572  0.1769 -0.0431 -0.4683
 8880SOL    HW138099   2.702   0.545   5.565 -2.1957  0.3788 -0.6305
 8880SOL    HW238100   2.721   0.655   5.478 -0.7903 -0.8076 -0.6239
 8881SOL     OW38101   2.037   2.475   1.999  0.0989  0.8123  0.0403
 8881SOL    HW138102   2.118   2.424   1.996 -1.1048 -1.1902  1.4127
 8881SOL    HW238103   2.063   2.567   1.996  2.5054  0.1579  0.5370
 8882SOL     OW38104   1.946   1.081   5.034 -0.1745 -0.3945  0.1746
 8882SOL    HW138105   1.877   1.063   5.098  0.3023 -0.4841  0.6578
 8882SOL    HW238106   1.987   1.148   5.090  1.2402 -0.4917 -0.7418
 8883SOL     OW38107   3.039   0.020   0.121 -0.1775 -0.6417 -0.3944
 8883SOL    HW138108   3.007   0.091   0.065  2.5026  0.4670 -0.5440
 8883SOL    HW238109   3.122   0.057   0.152 -1.2345  1.7227 -0.4017
 8884SOL     OW38110   1.906   4.233   5.188  0.0379  0.7801 -0.0266
 8884SOL    HW138111   1.826   4.187   5.210 -0.3406  1.3448 -0.2310
 8884SOL    HW238112   1.879   4.309   5.136 -0.8888  0.3228 -0.2030
 8885SOL     OW38113   4.288   2.467   4.590  0.0040  0.1584 -0.1449
 8885SOL    HW138114   4.359   2.463   4.527  0.1139 -1.5862  0.0935
 8885SOL    HW238115   4.323   2.401   4.649 -0.5213  0.0655  0.0698
 8886SOL     OW38116   2.884   1.548  14.669 -0.3538 -0.2119 -0.3300
 8886SOL    HW138117   2.912   1.523  14.581  0.7376  1.1169 -0.3557
 8886SOL    HW238118   2.815   1.484  14.688  1.1193 -1.3963  1.1209
 8887SOL     OW38119   1.489   4.409   7.034 -0.0484  0.1005  0.5449
 8887SOL    HW138120   1.491   4.337   7.097 -0.6147 -0.6090 -0.2465
 8887SOL    HW238121   1.560   4.455   7.079  0.0190  0.0876  0.4528
 8888SOL     OW38122   2.257   2.408   7.737  0.2587 -0.2243 -0.0627
 8888SOL    HW138123   2.202   2.331   7.754 -1.2360  0.6558 -0.8765
 8888SOL    HW238124   2.270   2.400   7.643 -0.7108 -0.1739 -0.2057
 8889SOL     OW38125   3.042   2.253   0.843  0.1624 -0.7724  0.0864
 8889SOL    HW138126   2.947   2.252   0.832  0.3731 -3.0720 -1.4328
 8889SOL    HW238127   3.058   2.237   0.750  0.8513  1.5613 -0.2016
 8890SOL     OW38128   1.667   3.216   9.077 -0.1842  0.2376 -0.0677
 8890SOL    HW138129   1.721   3.289   9.106  0.9370 -0.6148  0.0318
 8890SOL    HW238130   1.712   3.139   9.113 -1.6076 -0.0822  1.0096
 8891SOL     OW38131   3.108   4.283   5.434  0.2471 -0.5532  0.0373
 8891SOL    HW138132   3.036   4.340   5.408  1.4325  0.5563 -0.8360
 8891SOL    HW238133   3.058   4.202   5.427 -0.9318  0.2041 -0.2914
 8892SOL     OW38134   0.117   1.492   5.584  0.2773 -0.1612  0.1384
 8892SOL    HW138135   0.197   1.508   5.633 -0.6234  0.2107  1.4840
 8892SOL    HW238136   0.049   1.517   5.646 -0.8279 -0.3839 -0.9842
 8893SOL     OW38137   0.024   0.979   8.389  0.0177  0.6283 -0.0934
 8893SOL    HW138138   0.103   0.940   8.427  0.7962  0.6251 -1.7417
 8893SOL    HW238139   0.030   0.948   8.299  0.2232 -0.3294  0.2436
 8894SOL     OW38140   1.035   1.270   6.902 -0.0809  0.1526 -0.0614
 8894SOL    HW138141   1.060   1.285   6.811 -1.4653 -0.2371 -0.5147
 8894SOL    HW238142   0.944   1.244   6.891 -0.0164  1.4688 -3.6631
 8895SOL     OW38143   2.895   1.170   7.432 -0.2144 -0.4952  0.1248
 8895SOL    HW138144   2.850   1.243   7.390 -0.4602 -1.1312 -0.7169
 8895SOL    HW238145   2.983   1.206   7.439  0.4141 -2.2681  1.6516
 8896SOL     OW38146   0.989   0.631   0.669 -0.3566 -0.7272  0.3661
 8896SOL    HW138147   1.051   0.577   0.619 -0.7499 -0.6230 -0.2324
 8896SOL    HW238148   0.933   0.650   0.594  1.7432 -1.3377 -1.3713
 8897SOL     OW38149   2.597   2.196   9.283  0.2618  0.1976  0.1796
 8897SOL    HW138150   2.661   2.159   9.344  0.0793 -1.2458 -0.5169
 8897SOL    HW238151   2.516   2.148   9.300 -0.3157  1.3126  0.5977
 8898SOL     OW38152   0.515   0.175   4.313 -0.0328  0.4547 -0.0547
 8898SOL    HW138153   0.538   0.266   4.294 -1.1208  0.9426  0.9966
 8898SOL    HW238154   0.420   0.185   4.316 -0.1666 -1.2500  0.9718
 8899SOL     OW38155   1.690   0.068   5.779  0.6364  0.2075  0.6464
 8899SOL    HW138156   1.689   0.105   5.867  1.2926  1.5300  0.1104
 8899SOL    HW238157   1.741   0.134   5.731 -0.3872 -0.0469 -0.7929
 8900SOL     OW38158   1.251   4.509   4.954  0.2277  0.2207 -0.1968
 8900SOL    HW138159   1.185   4.442   4.941  0.0539  0.6525 -1.5609
 8900SOL    HW238160   1.225   4.572   4.887 -0.5821 -0.3431 -0.4037
 8901SOL     OW38161   1.580   1.211  14.085  0.3770  0.4279  0.0744
 8901SOL    HW138162   1.528   1.249  14.155 -1.8432 -0.2789 -1.2035
 8901SOL    HW238163   1.643   1.280  14.063  1.3385  0.0163  1.5547
 8902SOL     OW38164   3.668   4.493  13.575  0.6597 -0.3908 -0.1871
 8902SOL    HW138165   3.669   4.584  13.606 -4.0949 -0.2375 -0.4895
 8902SOL    HW238166   3.607   4.505  13.502  2.4506  1.9666 -1.3091
 8903SOL     OW38167   2.100   3.829   5.885 -0.5312  0.2026  0.3281
 8903SOL    HW138168   2.033   3.801   5.823  1.3430 -1.5760 -0.8845
 8903SOL    HW238169   2.142   3.903   5.841 -0.5792  1.1471  1.8651
 8904SOL     OW38170   3.428   0.068   8.760 -0.3719 -0.3673 -0.1081
 8904SOL    HW138171   3.458   4.702   8.788  0.8255 -0.2904 -1.1521
 8904SOL    HW238172   3.418   0.053   8.666  0.6036 -1.6951 -0.0047
 8905SOL     OW38173   3.065   2.755   0.565 -0.1949  0.1723 -0.3989
 8905SOL    HW138174   3.056   2.661   0.552  0.7316 -0.0870  0.7888
 8905SOL    HW238175   3.001   2.792   0.504  0.2650  1.1632 -0.2815
 8906SOL     OW38176   0.788   0.654  13.301 -0.4249 -0.1434  0.1485
 8906SOL    HW138177   0.788   0.744  13.267  0.2903  0.1853  1.0185
 8906SOL    HW238178   0.819   0.667  13.390  0.2033 -0.6422  0.0020
 8907SOL     OW38179   2.260   3.818  12.359  0.2509 -0.0416 -0.6784
 8907SOL    HW138180   2.257   3.816  12.455 -2.7215  0.1609 -0.7834
 8907SOL    HW238181   2.351   3.791  12.370 -0.2970 -1.3154  0.6503
 8908SOL     OW38182   3.847   3.230  12.962  0.1537 -0.9564  0.0337
 8908SOL    HW138183   3.930   3.186  12.946  0.0961 -1.4089  0.9284
 8908SOL    HW238184   3.881   3.315  12.990 -0.9293 -0.5654  0.1670
 8909SOL     OW38185   4.347   4.015   3.964  0.1987  0.2236  0.4588
 8909SOL    HW138186   4.434   3.975   3.959  0.6956  1.3173  0.5596
 8909SOL    HW238187   4.286   3.941   3.954  0.6410  0.1061 -1.4431
 8910SOL     OW38188   0.827   2.182   7.029  0.3463  0.3617  0.0422
 8910SOL    HW138189   0.761   2.241   7.063  1.3114  1.8787 -0.7272
 8910SOL    HW238190   0.850   2.227   6.947 -2.4243 -2.5955 -2.3860
 8911SOL     OW38191   1.597   4.165   6.900  0.0582 -0.4262 -0.2210
 8911SOL    HW138192   1.562   4.191   6.815 -1.1096  3.6162  1.4785
 8911SOL    HW238193   1.691   4.166   6.880  0.3206 -0.1145  0.9901
 8912SOL     OW38194   2.313   3.277   4.558  0.1866  0.2603 -0.5077
 8912SOL    HW138195   2.322   3.371   4.573  0.0026  0.0784  0.7362
 8912SOL    HW238196   2.236   3.254   4.610  1.0737  0.5590  0.9361
 8913SOL     OW38197   0.014   3.774   2.469  0.2424  0.0916  0.3904
 8913SOL    HW138198   0.105   3.794   2.492 -0.3070  1.9900  0.9096
 8913SOL    HW238199   4.719   3.850   2.413  2.4379  0.7260  0.6004
 8914SOL     OW38200   1.914   3.747  12.038 -0.4273  0.0824  0.0478
 8914SOL    HW138201   1.992   3.713  11.996 -0.5689 -0.2023  0.0149
 8914SOL    HW238202   1.949   3.758  12.127  0.0838  0.5826 -0.2199
 8915SOL     OW38203   2.194   0.565   1.456 -0.1212 -0.5545 -0.2390
 8915SOL    HW138204   2.284   0.597   1.446  0.0417 -0.6660  0.8758
 8915SOL    HW238205   2.154   0.646   1.488  0.5770 -0.6935  1.0026
 8916SOL     OW38206   4.628   2.235   4.902  0.5959  0.4182  0.6726
 8916SOL    HW138207   4.672   2.188   4.973  0.9417  0.5084  0.5170
 8916SOL    HW238208   4.679   2.316   4.902  2.1672 -0.5508 -0.1927
 8917SOL     OW38209   1.245   3.423   8.387 -0.0887 -0.2252  0.2126
 8917SOL    HW138210   1.236   3.512   8.353 -0.2953 -0.5421 -0.5642
 8917SOL    HW238211   1.201   3.434   8.471 -2.2902  1.1120 -1.1248
 8918SOL     OW38212   2.876   1.444   9.372  0.2573  0.2277 -0.1929
 8918SOL    HW138213   2.971   1.441   9.370  0.2239 -1.0010 -0.0250
 8918SOL    HW238214   2.857   1.452   9.279 -0.2489  1.4389  0.0133
 8919SOL     OW38215   2.270   2.361   1.927 -0.3419  0.3649  0.0468
 8919SOL    HW138216   2.277   2.434   1.865 -0.0049 -0.9081 -1.4377
 8919SOL    HW238217   2.319   2.305   1.866  1.2085  0.4197  1.2625
 8920SOL     OW38218   2.407   1.057   2.686 -0.9353  0.0348  0.1012
 8920SOL    HW138219   2.405   1.092   2.775 -0.2167  0.7377 -0.1662
 8920SOL    HW238220   2.311   1.048   2.685 -1.0662  1.1611  1.7122
 8921SOL     OW38221   0.731   0.898   9.747 -0.1093 -0.2545  0.4547
 8921SOL    HW138222   0.714   0.990   9.765 -1.2622 -0.6006  1.1434
 8921SOL    HW238223   0.768   0.912   9.660  2.3871 -3.6867  0.9563
 8922SOL     OW38224   3.680   1.009   8.572  0.0986 -0.0075  0.3720
 8922SOL    HW138225   3.725   0.988   8.491 -1.1162  1.3080 -0.6422
 8922SOL    HW238226   3.612   1.067   8.540  1.3097  2.1423  1.6906
 8923SOL     OW38227   0.138   1.509   8.163 -0.4673 -0.1462  0.0636
 8923SOL    HW138228   0.125   1.432   8.219  0.0710 -0.3753 -0.1292
 8923SOL    HW238229   0.085   1.581   8.196  1.0361  0.9148  0.1219
 8924SOL     OW38230   3.977   2.936   0.247  0.2635 -0.0667 -0.1346
 8924SOL    HW138231   3.943   2.856   0.287 -0.6898  0.2084 -0.3858
 8924SOL    HW238232   4.046   2.968   0.304  2.0416 -0.9503 -1.7776
 8925SOL     OW38233   0.848   0.169   4.288  0.0747  0.0823 -0.6606
 8925SOL    HW138234   0.773   0.118   4.320  0.2081  0.0039 -0.4755
 8925SOL    HW238235   0.848   0.239   4.353  2.8953 -2.5651  2.1651
 8926SOL     OW38236   2.823   4.531   4.217 -0.0425  0.0160 -0.1222
 8926SOL    HW138237   2.905   4.488   4.193  1.2081  1.9958  0.6006
 8926SOL    HW238238   2.843   4.576   4.299  0.0482 -0.8525  0.3335
 8927SOL     OW38239   2.729   0.443  11.272 -0.5952  0.2054  0.2183
 8927SOL    HW138240   2.687   0.525  11.246  0.4520  0.6728  0.0157
 8927SOL    HW238241   2.820   0.471  11.273 -0.5369  0.0853 -1.1367
 8928SOL     OW38242   4.555   3.058   3.511 -0.6291 -0.0829  0.1831
 8928SOL    HW138243   4.536   2.998   3.583  2.1021  1.3032  2.0555
 8928SOL    HW238244   4.534   3.141   3.554  2.7738  0.1504  1.3933
 8929SOL     OW38245   3.730   3.757  12.774  0.2324  0.8047  0.0476
 8929SOL    HW138246   3.735   3.675  12.723  1.1780  2.0514 -1.8663
 8929SOL    HW238247   3.640   3.744  12.802  0.6439 -2.7334 -0.1854
 8930SOL     OW38248   3.086   1.941  17.527  0.3562  0.3330 -0.0964
 8930SOL    HW138249   3.002   1.974  17.494  1.4089  2.8692 -0.1717
 8930SOL    HW238250   3.083   1.846  17.512  0.0063  0.2518  0.4547
 8931SOL     OW38251   3.370   3.942  17.604 -0.1582  0.0999 -0.8069
 8931SOL    HW138252   3.441   3.985  17.651  0.3205 -1.3193 -0.2351
 8931SOL    HW238253   3.359   4.001  17.529 -2.0744 -1.5082 -1.8013
 8932SOL     OW38254   2.589   1.294   6.459 -0.2728  0.3954  0.1311
 8932SOL    HW138255   2.577   1.279   6.366 -0.1529  2.0553 -0.1486
 8932SOL    HW238256   2.520   1.358   6.479  1.1469  2.1324 -0.5063
 8933SOL     OW38257   2.658   0.099  12.684 -0.5545  0.4069  0.0576
 8933SOL    HW138258   2.573   0.083  12.642 -0.3718 -0.2169 -0.0747
 8933SOL    HW238259   2.650   0.194  12.695 -1.3156  0.5240 -1.5983
 8934SOL     OW38260   3.456   1.891  10.673  0.2122  0.3067  0.5983
 8934SOL    HW138261   3.538   1.892  10.722  0.3565 -1.3422  0.4094
 8934SOL    HW238262   3.425   1.807  10.706 -0.8496  0.4877  0.0533
 8935SOL     OW38263   4.610   2.669  10.751 -0.3667 -0.9500 -0.4191
 8935SOL    HW138264   4.603   2.748  10.697 -2.2340  0.4534  1.8868
 8935SOL    HW238265   4.620   2.600  10.685  2.7310 -1.1581  0.2519
 8936SOL     OW38266   3.494   2.320  17.171  0.0679 -0.1144 -0.1769
 8936SOL    HW138267   3.514   2.325  17.077  1.4054 -0.6757  0.0781
 8936SOL    HW238268   3.575   2.304  17.220  0.1445  0.7478 -0.0206
 8937SOL     OW38269   4.185   0.764   2.925  0.3094  0.2934  0.1257
 8937SOL    HW138270   4.243   0.688   2.931  0.1599  0.2050  0.4564
 8937SOL    HW238271   4.161   0.776   3.017  1.8799  1.2791  0.4109
 8938SOL     OW38272   1.014   4.452   4.661 -0.2935 -0.0459  0.0179
 8938SOL    HW138273   1.074   4.380   4.680  0.3713  1.2030  2.6581
 8938SOL    HW238274   0.953   4.406   4.604 -1.8200  3.2241 -0.9944
 8939SOL     OW38275   0.842   4.044  13.749 -0.6518  0.2094  0.5241
 8939SOL    HW138276   0.786   4.004  13.683 -0.3240  0.0761  0.3286
 8939SOL    HW238277   0.888   4.105  13.691 -1.2117  0.0182 -0.1122
 8940SOL     OW38278   4.384   0.529   3.477 -0.3930 -0.2225  0.3923
 8940SOL    HW138279   4.379   0.445   3.522  0.2657 -0.3547  0.2151
 8940SOL    HW238280   4.427   0.581   3.545  1.0625 -2.7940  1.4366
 8941SOL     OW38281   2.053   1.981  14.299  0.0173  0.2929 -0.1622
 8941SOL    HW138282   2.019   1.899  14.335 -1.0284  0.6373 -0.3824
 8941SOL    HW238283   1.976   2.027  14.267  0.6865  2.4747  1.4309
 8942SOL     OW38284   1.871   4.646   7.498 -0.3392  0.2628 -0.3875
 8942SOL    HW138285   1.954   4.689   7.520 -2.0679  2.8476  1.0547
 8942SOL    HW238286   1.865   4.593   7.577  1.8861 -2.2118 -1.8888
 8943SOL     OW38287   4.656   2.231  16.907 -0.6695  0.3848  0.6777
 8943SOL    HW138288   4.617   2.263  16.826 -2.4373 -0.4846  1.1961
 8943SOL    HW238289   4.574   2.230  16.956 -0.0841  0.4740  1.6584
 8944SOL     OW38290   2.692   3.176   1.717 -0.3715 -0.4185 -0.3336
 8944SOL    HW138291   2.682   3.187   1.622  2.3530 -0.4352 -0.6361
 8944SOL    HW238292   2.624   3.111   1.735  2.2350 -3.2634 -0.5434
 8945SOL     OW38293   0.058   4.613   3.046 -0.5007 -0.3769  0.0213
 8945SOL    HW138294   0.003   4.627   3.123  0.6147 -0.3896  0.8319
 8945SOL    HW238295   0.070   4.518   3.044 -0.4520 -0.3422 -1.0606
 8946SOL     OW38296   2.133   3.454   5.804 -0.1167 -0.2589  0.6932
 8946SOL    HW138297   2.063   3.389   5.797  1.5185 -1.9751  0.1584
 8946SOL    HW238298   2.115   3.501   5.885  0.5494 -0.5961  1.0341
 8947SOL     OW38299   1.952   3.309   2.375  0.1511  0.2095  0.3499
 8947SOL    HW138300   1.945   3.278   2.285  2.2653 -0.7489  0.5158
 8947SOL    HW238301   1.951   3.229   2.427 -2.1097 -0.0092 -0.0264
 8948SOL     OW38302   3.322   0.249   9.042  0.2690  0.0581  0.8390
 8948SOL    HW138303   3.243   0.230   8.992 -0.2811  1.0926  1.3195
 8948SOL    HW238304   3.340   0.343   9.036 -2.0752  0.4772  0.1371
 8949SOL     OW38305   0.341   0.668   8.983  0.0022  0.0875 -0.4252
 8949SOL    HW138306   0.369   0.587   9.026  0.1753  0.3580 -0.0255
 8949SOL    HW238307   0.249   0.642   8.977 -0.4414  1.4140  0.7368
 8950SOL     OW38308   2.037   2.041  15.343  0.0362 -0.1630  0.1944
 8950SOL    HW138309   2.010   1.969  15.287 -0.5724 -0.3531  0.7401
 8950SOL    HW238310   2.075   2.099  15.277 -1.3849  0.6719  0.1159
 8951SOL     OW38311   2.510   0.981   3.537 -0.0109 -0.0122 -0.1019
 8951SOL    HW138312   2.603   0.997   3.525 -0.2276  0.5692 -1.0022
 8951SOL    HW238313   2.504   0.988   3.632  1.3308 -1.6388  0.0948
 8952SOL     OW38314   0.520   3.713   6.697  0.0032  0.5350 -0.0365
 8952SOL    HW138315   0.518   3.709   6.793 -0.8827 -0.0119 -0.0730
 8952SOL    HW238316   0.457   3.644   6.676  1.4128 -1.0400  0.8815
 8953SOL     OW38317   0.082   0.662   8.558  0.4707 -0.0177 -0.3692
 8953SOL    HW138318   0.079   0.715   8.637  0.3778  1.6499 -1.5051
 8953SOL    HW238319   0.174   0.672   8.534  0.6175 -0.5434 -0.0368
 8954SOL     OW38320   3.047   3.925   2.232 -0.0923  0.2430 -0.4318
 8954SOL    HW138321   3.116   3.911   2.167 -1.3781 -1.1139 -1.5067
 8954SOL    HW238322   3.050   4.021   2.225  0.1070  0.2526 -0.2206
 8955SOL     OW38323   1.889   4.092   9.263  0.5142  0.7625  0.9790
 8955SOL    HW138324   1.797   4.116   9.252  0.7158  2.4504  2.9572
 8955SOL    HW238325   1.922   4.081   9.174  0.7353 -0.9270  1.2738
 8956SOL     OW38326   1.832   4.550   7.741 -0.0416  0.0436 -1.6116
 8956SOL    HW138327   1.781   4.629   7.763  0.0887 -0.0595 -0.9406
 8956SOL    HW238328   1.890   4.550   7.817 -2.3947  2.1118  0.1900
 8957SOL     OW38329   1.440   3.816   7.328 -0.4627  0.0438 -0.2258
 8957SOL    HW138330   1.365   3.862   7.365  0.5520  0.6258  1.1148
 8957SOL    HW238331   1.423   3.822   7.234 -0.4976 -0.1573 -0.2322
 8958SOL     OW38332   3.059   4.707   8.435  0.1733  0.2448 -0.0275
 8958SOL    HW138333   3.028   0.073   8.410 -1.1208 -1.0769 -3.0777
 8958SOL    HW238334   2.984   4.678   8.486 -0.3780 -1.0232 -1.5692
 8959SOL     OW38335   1.398   1.816  10.770  0.2393 -0.1160  0.5804
 8959SOL    HW138336   1.438   1.732  10.748  1.2381  0.2325  1.0987
 8959SOL    HW238337   1.474   1.866  10.798 -0.6202  1.6352 -0.1995
 8960SOL     OW38338   0.081   0.295  16.944 -0.4472  0.0644  0.0581
 8960SOL    HW138339   0.006   0.239  16.961 -0.2398  0.1617  1.2926
 8960SOL    HW238340   0.056   0.370  16.891 -1.2888 -0.4057 -0.2050
 8961SOL     OW38341   4.176   0.917   4.161  0.1995  0.0168 -0.3430
 8961SOL    HW138342   4.100   0.868   4.195 -0.6725  1.0614 -0.7807
 8961SOL    HW238343   4.131   0.981   4.106  0.1655 -0.5683 -0.9944
 8962SOL     OW38344   1.310   1.183   3.320  0.3720  0.4799  0.3172
 8962SOL    HW138345   1.228   1.136   3.308  0.7618  0.3868 -1.9256
 8962SOL    HW238346   1.306   1.205   3.413  0.9257  1.1018  0.1993
 8963SOL     OW38347   2.118   0.992   6.261  0.0732  0.4763  0.2023
 8963SOL    HW138348   2.099   0.940   6.183  0.2868  1.4845 -0.5260
 8963SOL    HW238349   2.102   0.931   6.333  0.8828 -0.6204 -0.5531
 8964SOL     OW38350   3.791   0.761   7.571 -0.0813 -0.2699  0.2314
 8964SOL    HW138351   3.878   0.732   7.599  0.5298  0.5980 -0.7507
 8964SOL    HW238352   3.785   0.695   7.502 -1.1505 -1.6307  1.6331
 8965SOL     OW38353   4.542   3.048  14.525 -0.2117 -0.1110 -0.7398
 8965SOL    HW138354   4.544   3.106  14.601  2.6754  0.2932 -1.1175
 8965SOL    HW238355   4.636   3.045  14.510 -0.3059 -0.6054 -1.2656
 8966SOL     OW38356   2.030   4.348   3.175 -0.2193 -0.2191 -0.0611
 8966SOL    HW138357   2.096   4.338   3.105 -2.6455  0.6473 -2.4724
 8966SOL    HW238358   2.013   4.442   3.176  2.0495  0.1753  1.2835
 8967SOL     OW38359   3.964   0.773   7.901  0.0487 -0.6703  0.2094
 8967SOL    HW138360   4.003   0.692   7.935  0.4021 -0.5443  0.1060
 8967SOL    HW238361   4.000   0.787   7.813  1.0190 -0.7626  0.5920
 8968SOL     OW38362   2.442   2.414   8.770  0.7434 -0.3828 -0.8067
 8968SOL    HW138363   2.412   2.499   8.804  2.4983  0.2263 -0.7519
 8968SOL    HW238364   2.473   2.382   8.855 -1.7712 -1.1737 -0.1712
 8969SOL     OW38365   4.439   0.607   5.513  0.6081 -0.1033 -0.2308
 8969SOL    HW138366   4.519   0.555   5.509  0.4400 -0.4184  0.4685
 8969SOL    HW238367   4.448   0.636   5.604  0.4601 -1.8019  0.3116
 8970SOL     OW38368   2.354   1.514   2.437 -0.4613  0.3806  0.4781
 8970SOL    HW138369   2.282   1.482   2.491 -1.8375  1.8598 -0.4782
 8970SOL    HW238370   2.350   1.441   2.376 -0.9495  0.4690  0.4045
 8971SOL     OW38371   1.743   0.004   9.390  0.1319  0.5340  0.1899
 8971SOL    HW138372   1.758   4.696   9.480 -2.0914  0.8378  0.6625
 8971SOL    HW238373   1.650   4.705   9.390  0.2583 -0.0673  0.5127
 8972SOL     OW38374   1.338   2.112   8.927  0.5762 -0.5653  0.1560
 8972SOL    HW138375   1.365   2.192   8.972  1.4607 -2.0851  2.3497
 8972SOL    HW238376   1.317   2.061   9.005 -3.7849 -0.0406 -0.6841
 8973SOL     OW38377   0.282   2.178   6.046  0.3760  0.4831  0.0008
 8973SOL    HW138378   0.202   2.157   6.094  2.1118 -2.5722  1.5809
 8973SOL    HW238379   0.254   2.247   5.985  0.8537  1.4032  0.8154
 8974SOL     OW38380   2.660   3.546   6.300  0.9075 -0.3403  0.3194
 8974SOL    HW138381   2.679   3.576   6.211  0.3356 -0.2010  0.2460
 8974SOL    HW238382   2.565   3.551   6.298  1.0487  2.2762 -0.2015
 8975SOL     OW38383   0.039   4.327   2.978  0.4335 -0.6163  0.2938
 8975SOL    HW138384   0.093   4.273   2.920  1.4615  1.6225 -0.8149
 8975SOL    HW238385   4.671   4.296   2.960 -0.4276  1.7510  0.5538
 8976SOL     OW38386   2.006   0.955   5.965  0.0348 -0.1920  0.4541
 8976SOL    HW138387   2.081   0.896   5.955  1.7898  2.4651 -1.8787
 8976SOL    HW238388   1.995   0.978   5.873 -1.4606 -0.4308  0.5812
 8977SOL     OW38389   3.362   1.431   4.764 -0.9984  0.0733 -0.1972
 8977SOL    HW138390   3.383   1.377   4.689 -0.6897  0.5875 -0.4791
 8977SOL    HW238391   3.364   1.519   4.728  1.1072 -0.5635 -1.6285
 8978SOL     OW38392   1.260   1.473  15.891  0.5777  0.1751  0.2471
 8978SOL    HW138393   1.347   1.451  15.923  1.0293  0.4826 -0.7663
 8978SOL    HW238394   1.206   1.492  15.968 -0.0821  1.5437 -0.5354
 8979SOL     OW38395   3.258   3.888   8.894  0.0707 -0.9932 -0.4914
 8979SOL    HW138396   3.311   3.809   8.890  0.4204 -0.6948 -1.6498
 8979SOL    HW238397   3.169   3.854   8.901 -0.0732 -0.4947  0.1870
 8980SOL     OW38398   3.822   2.746  16.051 -0.5118 -0.0008  0.2562
 8980SOL    HW138399   3.826   2.806  15.976  1.5900 -1.3468 -0.6889
 8980SOL    HW238400   3.772   2.787  16.121  0.4380  0.9215  0.3793
 8981SOL     OW38401   1.536   4.584   5.017 -0.5923  0.2476 -0.1657
 8981SOL    HW138402   1.568   4.550   5.100 -3.9610  0.7690  1.3591
 8981SOL    HW238403   1.449   4.543   5.027 -0.4060  0.0891  0.7865
 8982SOL     OW38404   2.551   0.137   3.391  0.5362  0.0998 -0.3569
 8982SOL    HW138405   2.640   0.105   3.409  0.3057 -0.2011  0.2402
 8982SOL    HW238406   2.535   0.090   3.308  1.2035  0.2325 -0.5666
 8983SOL     OW38407   0.517   2.488   2.474  0.2120  0.6738 -0.1922
 8983SOL    HW138408   0.528   2.416   2.411 -1.4331  1.1026 -0.9783
 8983SOL    HW238409   0.435   2.527   2.444 -0.5581  0.7357  1.9927
 8984SOL     OW38410   4.494   1.082   5.331  0.0933  0.1723  0.4503
 8984SOL    HW138411   4.410   1.129   5.336  0.2939  0.4631  1.1368
 8984SOL    HW238412   4.472   1.012   5.270  1.1235  0.8174 -0.6428
 8985SOL     OW38413   2.620   4.130   0.786  0.5450 -0.9250 -0.2295
 8985SOL    HW138414   2.524   4.138   0.787  0.5097 -1.4249  0.3773
 8985SOL    HW238415   2.628   4.080   0.704  0.3004 -0.6166 -0.4405
 8986SOL     OW38416   0.296   3.412   6.291  0.5028 -0.7031  0.5388
 8986SOL    HW138417   0.206   3.379   6.290 -0.3275  1.5038  2.3807
 8986SOL    HW238418   0.324   3.358   6.217  2.1936 -1.3721  1.6911
 8987SOL     OW38419   2.809   2.340   5.674 -0.0447  0.8142  0.2742
 8987SOL    HW138420   2.896   2.321   5.638 -0.7714 -0.6230 -0.6875
 8987SOL    HW238421   2.812   2.280   5.748  0.0518  0.7431  0.2127
 8988SOL     OW38422   2.379   1.972  11.279  0.5272  0.4353 -0.1940
 8988SOL    HW138423   2.448   1.908  11.291 -0.0739  0.4280  3.3232
 8988SOL    HW238424   2.305   1.938  11.329 -1.2554  1.8280 -1.8820
 8989SOL     OW38425   2.800   2.792   2.150  0.0384 -0.5117 -0.1646
 8989SOL    HW138426   2.764   2.843   2.078  2.8539  2.3578  0.4892
 8989SOL    HW238427   2.880   2.758   2.108  0.1938 -1.0375  0.5531
 8990SOL     OW38428   0.534   3.009   1.208 -0.7289 -0.1223 -0.0971
 8990SOL    HW138429   0.528   2.918   1.179 -1.0462 -0.2508  0.3769
 8990SOL    HW238430   0.551   3.002   1.302  2.4039  1.5526 -0.5154
 8991SOL     OW38431   0.027   3.340  12.332 -0.3282  0.3870  0.5584
 8991SOL    HW138432   4.682   3.295  12.384 -0.6793 -2.2389 -2.1302
 8991SOL    HW238433   0.106   3.318  12.382  0.0657  0.6486  0.0534
 8992SOL     OW38434   3.897   1.567  17.149 -0.1467  0.2182  0.0604
 8992SOL    HW138435   3.839   1.542  17.077  1.9832 -2.5124 -0.6796
 8992SOL    HW238436   3.943   1.643  17.112  0.7690 -0.1704  0.4167
 8993SOL     OW38437   4.476   3.185   5.241 -0.0057  0.3563  0.3397
 8993SOL    HW138438   4.394   3.138   5.228  0.4377  0.1416 -1.7299
 8993SOL    HW238439   4.535   3.110   5.246 -0.4052  0.0518  0.4872
 8994SOL     OW38440   3.964   3.367  13.466  0.6958  0.2536  0.0963
 8994SOL    HW138441   4.041   3.353  13.522  1.3987  0.3310 -0.8496
 8994SOL    HW238442   3.957   3.462  13.480  1.3243  0.0860  1.5866
 8995SOL     OW38443   4.128   1.786   5.616  0.4679  0.0807 -0.0642
 8995SOL    HW138444   4.172   1.843   5.679  0.0125  0.7764 -0.3766
 8995SOL    HW238445   4.113   1.849   5.546  1.0302  0.5054  0.1973
 8996SOL     OW38446   3.567   1.675  11.078  0.0595  0.6194 -0.0009
 8996SOL    HW138447   3.562   1.592  11.029  1.6868 -0.0675  1.0045
 8996SOL    HW238448   3.624   1.645  11.148  1.0958 -0.4635 -1.2896
 8997SOL     OW38449   1.916   2.662  11.541  0.1304  0.3063  0.3503
 8997SOL    HW138450   1.868   2.711  11.474  1.4366 -2.0652 -2.3217
 8997SOL    HW238451   1.858   2.687  11.613  0.2373  0.4607  0.3834
 8998SOL     OW38452   2.621   0.960   3.808 -0.2601 -0.1430  0.2427
 8998SOL    HW138453   2.711   0.945   3.837  0.1133  0.8866 -0.4138
 8998SOL    HW238454   2.586   0.873   3.827 -1.7390  0.5301  0.6327
 8999SOL     OW38455   2.111   0.364   5.728  0.0854  0.5266  0.1594
 8999SOL    HW138456   2.093   0.304   5.800 -1.5503  1.6582  0.7038
 8999SOL    HW238457   2.139   0.296   5.667 -0.0963  0.9296 -0.3757
 9000SOL     OW38458   3.417   2.312   7.676  0.0811  0.1362 -0.1653
 9000SOL    HW138459   3.327   2.340   7.659 -0.6951 -0.7496  2.4974
 9000SOL    HW238460   3.422   2.281   7.766  3.0182  3.9223  0.9390
 9001SOL     OW38461   1.132   2.182  15.462 -0.3455 -0.1757  0.1844
 9001SOL    HW138462   1.131   2.087  15.464  0.4050 -0.1799  0.2665
 9001SOL    HW238463   1.214   2.197  15.508 -1.8239 -1.2433  3.2022
 9002SOL     OW38464   1.458   2.378  12.790  0.0171  0.1322  0.3418
 9002SOL    HW138465   1.404   2.301  12.776 -2.5295  1.9667  0.0664
 9002SOL    HW238466   1.495   2.404  12.706  0.1036 -0.8407  0.0759
 9003SOL     OW38467   1.972   1.480   4.934 -0.1529 -0.2824  0.0994
 9003SOL    HW138468   1.919   1.482   4.854 -1.2201  0.7482  0.8239
 9003SOL    HW238469   1.915   1.502   5.007  0.4877 -0.1490  0.5555
 9004SOL     OW38470   2.265   1.472   2.761 -0.1333 -0.3972  0.0508
 9004SOL    HW138471   2.266   1.500   2.853 -1.1606 -0.4141  0.0718
 9004SOL    HW238472   2.323   1.396   2.760  2.5338  1.6110  0.8589
 9005SOL     OW38473   0.087   0.355   3.680 -0.1192 -0.1576  0.1731
 9005SOL    HW138474   0.026   0.377   3.750 -0.9286  2.3175 -1.3142
 9005SOL    HW238475   0.133   0.436   3.658 -0.9284 -0.3039 -2.0217
 9006SOL     OW38476   2.253   2.743  12.218 -0.1246  0.3288 -0.3741
 9006SOL    HW138477   2.279   2.651  12.214  0.0205  0.3935 -0.8783
 9006SOL    HW238478   2.342   2.777  12.224 -0.1879  0.2499  1.0596
 9007SOL     OW38479   0.816   0.143   9.664 -0.6115 -0.5108 -0.0746
 9007SOL    HW138480   0.774   0.068   9.621 -0.1597 -0.2656 -0.9522
 9007SOL    HW238481   0.905   0.120   9.637  0.2854  1.3402  1.3832
 9008SOL     OW38482   2.172   0.778  14.914  0.1330 -1.0549 -0.0428
 9008SOL    HW138483   2.085   0.750  14.941  0.2313  0.2675  1.6685
 9008SOL    HW238484   2.223   0.702  14.943 -1.3471 -1.8314  0.5376
 9009SOL     OW38485   3.916   4.508  16.135 -0.2067  0.0628  0.4910
 9009SOL    HW138486   3.987   4.535  16.077  0.2153  0.4045  1.1667
 9009SOL    HW238487   3.857   4.582  16.153  0.3293  0.5708  0.1356
 9010SOL     OW38488   4.288   1.125   4.512 -0.5992  0.1669 -0.2298
 9010SOL    HW138489   4.261   1.049   4.563 -1.0874 -0.1227 -0.9262
 9010SOL    HW238490   4.383   1.128   4.524 -0.8234 -0.3030  1.6761
 9011SOL     OW38491   2.825   2.573   1.125 -0.6151 -0.4600 -0.0181
 9011SOL    HW138492   2.741   2.605   1.094 -0.9281 -1.8793 -0.6431
 9011SOL    HW238493   2.816   2.480   1.101 -0.5253 -0.1988 -1.0637
 9012SOL     OW38494   3.182   2.694   3.982  0.2433 -0.3198  0.0135
 9012SOL    HW138495   3.110   2.758   3.985 -1.3124 -2.1543  1.5019
 9012SOL    HW238496   3.232   2.712   4.061 -2.2113 -0.3256  1.5634
 9013SOL     OW38497   3.129   3.340   8.185 -0.4021 -0.6519  0.1687
 9013SOL    HW138498   3.043   3.372   8.158 -1.5381 -1.0545  3.3659
 9013SOL    HW238499   3.182   3.419   8.169 -1.9112  0.5517  1.1358
 9014SOL     OW38500   3.041   0.154   3.120 -0.1818  0.0010  0.0795
 9014SOL    HW138501   3.099   0.172   3.045 -1.5070 -2.8125 -1.6298
 9014SOL    HW238502   2.981   0.095   3.076  0.2325 -0.5932  0.3037
 9015SOL     OW38503   0.464   2.663   3.782  0.5558  0.0689  0.2444
 9015SOL    HW138504   0.475   2.593   3.717 -1.6126 -0.3294  0.2952
 9015SOL    HW238505   0.375   2.645   3.812  1.3389  0.0350  2.5036
 9016SOL     OW38506   0.316   2.324  13.717 -0.5111  0.2076  0.3097
 9016SOL    HW138507   0.262   2.249  13.741  0.5476 -0.7131 -0.1976
 9016SOL    HW238508   0.274   2.349  13.635  0.2344  0.8053  0.1081
 9017SOL     OW38509   0.637   2.658  12.055  0.5396  0.1916  0.0920
 9017SOL    HW138510   0.608   2.718  12.123 -0.2930  0.5577 -0.5787
 9017SOL    HW238511   0.555   2.675  12.007  0.2699 -0.8041  0.2010
 9018SOL     OW38512   1.946   2.135   1.222 -0.0479  0.2620  0.3550
 9018SOL    HW138513   1.873   2.194   1.238 -0.9925 -0.7787 -0.1478
 9018SOL    HW238514   1.914   2.056   1.264 -1.0857  1.6403  2.1489
 9019SOL     OW38515   0.766   0.170  13.841  0.2987 -0.8087  0.2202
 9019SOL    HW138516   0.682   0.209  13.868 -0.2581 -3.3710  2.2363
 9019SOL    HW238517   0.730   0.081  13.847  0.1486 -0.4942  3.8876
 9020SOL     OW38518   1.855   3.542   9.521  0.0792 -0.2355 -0.7670
 9020SOL    HW138519   1.937   3.577   9.557 -0.7134 -0.2793  1.1241
 9020SOL    HW238520   1.812   3.619   9.484  1.3685  1.2835  0.8914
 9021SOL     OW38521   1.393   2.900  14.663 -0.5000 -0.3227 -0.2265
 9021SOL    HW138522   1.366   2.982  14.621 -2.1040 -1.2233 -0.9696
 9021SOL    HW238523   1.459   2.937  14.722 -2.5110  0.8591  1.2757
 9022SOL     OW38524   3.841   0.140   5.493  0.0482  0.5468  0.6132
 9022SOL    HW138525   3.874   0.228   5.475 -1.0540  0.6440 -0.8875
 9022SOL    HW238526   3.761   0.169   5.537 -1.0081 -0.3332 -0.7254
 9023SOL     OW38527   1.474   3.747   3.648 -0.4944 -0.0284 -0.3564
 9023SOL    HW138528   1.471   3.704   3.562 -1.3763  0.7835 -0.7297
 9023SOL    HW238529   1.387   3.787   3.659 -0.0392  1.2085 -1.2999
 9024SOL     OW38530   1.083   1.706   5.819  1.1866 -0.4353 -0.3646
 9024SOL    HW138531   1.116   1.700   5.729  2.5856 -1.4062  0.2214
 9024SOL    HW238532   0.998   1.662   5.808  1.2451 -0.3360 -1.1928
 9025SOL     OW38533   1.617   1.755  11.278 -0.0742 -0.3187  0.1690
 9025SOL    HW138534   1.545   1.750  11.215  0.8891 -1.6662 -0.8354
 9025SOL    HW238535   1.629   1.849  11.289 -0.2351 -0.4937  1.8605
 9026SOL     OW38536   0.551   2.066   3.022 -0.5011  0.6732 -0.0095
 9026SOL    HW138537   0.490   2.133   3.052 -0.6755 -0.0445  1.2622
 9026SOL    HW238538   0.554   2.083   2.928 -0.1297 -1.2194 -0.3393
 9027SOL     OW38539   2.444   1.596   1.139 -0.6575 -0.1653 -0.1215
 9027SOL    HW138540   2.439   1.544   1.058  1.6360  0.4261 -0.6276
 9027SOL    HW238541   2.499   1.537   1.190  0.5422  1.3013  0.2613
 9028SOL     OW38542   2.482   0.453   7.577 -0.0020  0.3455  0.6459
 9028SOL    HW138543   2.485   0.361   7.604  2.3070  0.6698  1.4765
 9028SOL    HW238544   2.394   0.459   7.541  0.0120 -0.5427  0.4599
 9029SOL     OW38545   0.503   1.856   5.065 -0.3091 -0.6774 -0.4188
 9029SOL    HW138546   0.427   1.867   5.122  0.8075 -1.7079  1.2707
 9029SOL    HW238547   0.573   1.824   5.122  0.8238  1.4287 -0.6038
 9030SOL     OW38548   0.891   0.391  17.215 -0.5343  0.2968  0.3768
 9030SOL    HW138549   0.877   0.435  17.299 -0.2775  0.0816  0.5320
 9030SOL    HW238550   0.890   0.464  17.152 -3.4441 -1.6395 -1.7864
 9031SOL     OW38551   3.092   0.797   8.755  0.3820 -0.4766  0.1397
 9031SOL    HW138552   3.034   0.840   8.692 -0.4761 -1.7310  0.0725
 9031SOL    HW238553   3.117   0.882   8.793  1.1197  0.2426 -1.9495
 9032SOL     OW38554   1.194   1.157   1.088 -0.5889 -0.1080  0.1249
 9032SOL    HW138555   1.212   1.158   1.182  0.9198  0.6109 -0.1687
 9032SOL    HW238556   1.261   1.095   1.060 -0.5789  1.5775 -3.6270
 9033SOL     OW38557   4.295   3.825   3.624  0.4967  0.4777  0.0480
 9033SOL    HW138558   4.384   3.839   3.655  1.5176  0.6244 -2.9521
 9033SOL    HW238559   4.261   3.914   3.617 -0.1665  0.2301  0.0634
 9034SOL     OW38560   0.129   2.634   3.577 -0.0737  0.3790  0.6676
 9034SOL    HW138561   0.180   2.554   3.588  0.5794  0.6510 -0.4295
 9034SOL    HW238562   0.197   2.699   3.558  0.7467 -0.3273  1.1974
 9035SOL     OW38563   2.567   3.826   3.752  0.2578 -0.0390  0.1312
 9035SOL    HW138564   2.597   3.755   3.694 -0.2905  0.7332 -1.0859
 9035SOL    HW238565   2.477   3.796   3.766 -0.2066  2.0018  1.4886
 9036SOL     OW38566   0.841   0.664   3.175 -0.2776  0.2684 -0.2053
 9036SOL    HW138567   0.764   0.671   3.231 -0.9040  0.0767 -1.0266
 9036SOL    HW238568   0.803   0.662   3.087 -0.9037  0.9797  0.0527
 9037SOL     OW38569   3.562   4.105   6.875  0.0659  0.4562  0.4279
 9037SOL    HW138570   3.528   4.186   6.837  0.1136  0.8492  1.2295
 9037SOL    HW238571   3.513   4.087   6.956 -1.0081 -0.1546 -0.3514
 9038SOL     OW38572   2.600   3.024   8.209 -0.1592 -0.8912  0.1185
 9038SOL    HW138573   2.599   3.117   8.233  1.4835 -0.9281  0.3450
 9038SOL    HW238574   2.660   2.991   8.275 -1.2575 -1.6108  0.7498
 9039SOL     OW38575   3.192   4.246  10.902  0.1076 -0.0237 -0.5148
 9039SOL    HW138576   3.238   4.269  10.821 -0.0044 -1.7008 -1.0572
 9039SOL    HW238577   3.164   4.332  10.931 -0.4831  0.2217 -1.8020
 9040SOL     OW38578   2.348   3.254   6.964  0.1062  0.2170 -0.4361
 9040SOL    HW138579   2.265   3.255   7.011  0.0787  2.1486 -0.5253
 9040SOL    HW238580   2.401   3.303   7.027  0.9177  0.8585 -1.6226
 9041SOL     OW38581   2.956   3.085   1.158 -0.0032  0.1929  0.3594
 9041SOL    HW138582   2.978   3.041   1.076  0.7692  2.0841 -0.4463
 9041SOL    HW238583   2.981   3.017   1.222  0.9558  0.5449  0.3440
 9042SOL     OW38584   1.873   3.603  12.625  0.1913 -0.7659  0.0605
 9042SOL    HW138585   1.801   3.573  12.681 -1.0061 -1.1988 -1.7078
 9042SOL    HW238586   1.815   3.646  12.562 -0.5948 -0.2201  1.1397
 9043SOL     OW38587   1.348   2.010   5.418 -0.2578  0.0944 -0.2883
 9043SOL    HW138588   1.424   2.033   5.471 -0.6453 -1.3186  0.8697
 9043SOL    HW238589   1.288   1.978   5.486 -0.0307  2.5249  1.0595
 9044SOL     OW38590   2.659   0.421   7.125 -0.1920  0.5788  0.5146
 9044SOL    HW138591   2.699   0.487   7.182 -2.4632  2.1549  0.2612
 9044SOL    HW238592   2.570   0.431   7.159 -0.0011  2.5310  0.4428
 9045SOL     OW38593   0.008   4.039   3.043  0.2125  0.2091  0.6787
 9045SOL    HW138594   4.695   4.035   2.953  0.4521  2.6397  0.4774
 9045SOL    HW238595   4.650   4.053   3.095  0.3302  1.7003  0.4775
 9046SOL     OW38596   1.242   4.293   3.916  0.3768 -0.0051  0.1708
 9046SOL    HW138597   1.211   4.264   4.002 -1.2744  3.9714  0.9462
 9046SOL    HW238598   1.300   4.360   3.953 -1.5563  2.1054 -0.6314
 9047SOL     OW38599   4.057   2.217   9.078 -0.5649  0.3031  0.0665
 9047SOL    HW138600   4.013   2.301   9.065 -0.6818  0.3070  0.5021
 9047SOL    HW238601   4.072   2.188   8.988 -1.2357 -0.3560  0.1658
 9048SOL     OW38602   3.010   4.323  15.966 -0.3718  0.3142  0.6756
 9048SOL    HW138603   2.967   4.283  15.890  1.3658  0.2048 -0.2732
 9048SOL    HW238604   2.958   4.282  16.035  2.1721 -2.0536  1.2260
 9049SOL     OW38605   3.735   2.545   5.981  0.4075 -0.6985  0.3785
 9049SOL    HW138606   3.678   2.616   6.011 -0.9753 -0.8581 -1.9386
 9049SOL    HW238607   3.818   2.588   5.957 -1.3232  1.3630 -1.8847
 9050SOL     OW38608   2.331   3.168   3.556  0.2208  0.0268  0.3258
 9050SOL    HW138609   2.350   3.075   3.537  1.5195  0.4635 -0.5322
 9050SOL    HW238610   2.301   3.190   3.468 -2.3796 -0.3965  1.0977
 9051SOL     OW38611   4.694   3.733  15.011  0.2727  0.2007 -0.0854
 9051SOL    HW138612   0.045   3.781  15.050 -0.0296 -0.4310  1.2430
 9051SOL    HW238613   4.645   3.804  14.969 -0.0489  0.5889  0.9507
 9052SOL     OW38614   1.315   1.762   0.360 -0.1047 -0.0946  0.5947
 9052SOL    HW138615   1.397   1.742   0.315 -1.9885 -0.7814 -2.5396
 9052SOL    HW238616   1.327   1.685   0.415  1.5653  1.2075  2.0544
 9053SOL     OW38617   0.367   4.042  13.354 -0.5417 -0.1547  0.3009
 9053SOL    HW138618   0.311   4.054  13.431 -0.7623 -3.1788  0.6369
 9053SOL    HW238619   0.453   4.064  13.388 -0.3322  0.7950 -0.8596
 9054SOL     OW38620   2.958   1.789   9.102 -1.1786  0.0713  0.1212
 9054SOL    HW138621   2.922   1.711   9.060  2.6200 -1.8924  0.5226
 9054SOL    HW238622   2.882   1.818   9.153  0.7375  2.3474  1.6225
 9055SOL     OW38623   4.587   0.210   0.912 -0.3557  0.0450  0.3000
 9055SOL    HW138624   4.671   0.207   0.867 -0.5313  0.3462 -0.0469
 9055SOL    HW238625   4.527   0.244   0.846 -0.5162  0.5153  0.6925
 9056SOL     OW38626   0.356   0.975   3.059  0.0038  0.5306 -0.1041
 9056SOL    HW138627   0.327   1.055   3.016  0.5980  1.8314  1.9033
 9056SOL    HW238628   0.396   0.941   2.979  0.2701 -0.7353  0.5669
 9057SOL     OW38629   2.698   1.133  15.322 -0.6490  0.1899 -0.6036
 9057SOL    HW138630   2.647   1.178  15.389  2.6004  1.2354  1.2058
 9057SOL    HW238631   2.711   1.046  15.359  2.6118  1.5494  1.5065
 9058SOL     OW38632   2.567   0.891   9.109 -0.5902 -0.0402  0.7686
 9058SOL    HW138633   2.644   0.943   9.132 -0.5123  0.9958 -1.9375
 9058SOL    HW238634   2.503   0.908   9.178  0.7047 -1.1141  2.2571
 9059SOL     OW38635   2.867   4.552  15.491  0.0662 -0.2181  0.1440
 9059SOL    HW138636   2.906   4.472  15.525 -0.2600 -1.1403 -1.6134
 9059SOL    HW238637   2.804   4.512  15.431 -2.9923  2.4151  1.6139
 9060SOL     OW38638   2.764   2.363   7.064 -0.2503  0.6292  0.2994
 9060SOL    HW138639   2.830   2.295   7.079 -2.8124 -1.6349  1.3012
 9060SOL    HW238640   2.785   2.406   7.147  1.4054 -1.7931  1.1183
 9061SOL     OW38641   1.104   0.588   7.773 -0.0775 -0.2160  0.3930
 9061SOL    HW138642   1.111   0.496   7.750 -2.0640 -0.5906  1.2632
 9061SOL    HW238643   1.179   0.629   7.730 -1.0992  1.0362 -0.2341
 9062SOL     OW38644   0.799   3.290   8.820  0.5616 -0.1859  0.4435
 9062SOL    HW138645   0.845   3.220   8.773 -0.6546 -0.5316 -0.2351
 9062SOL    HW238646   0.827   3.279   8.911  1.2612 -3.6659 -0.1914
 9063SOL     OW38647   0.750   4.624  17.333 -0.7280  0.5088  0.3959
 9063SOL    HW138648   0.750   4.712  17.296  2.6162 -0.3075 -1.5019
 9063SOL    HW238649   0.665   4.600  17.295 -1.2186 -0.1025  1.8699
 9064SOL     OW38650   4.362   1.916   6.151 -0.1287 -0.3166  0.1789
 9064SOL    HW138651   4.281   1.947   6.111 -0.7183 -3.6847 -1.2491
 9064SOL    HW238652   4.363   1.976   6.225 -2.1562 -0.6887  0.4863
 9065SOL     OW38653   1.685   0.871   5.498  0.5148  0.2397  0.1133
 9065SOL    HW138654   1.659   0.779   5.497 -0.1355  0.4151  1.6337
 9065SOL    HW238655   1.754   0.884   5.433  2.0647 -1.6780  1.3767
 9066SOL     OW38656   1.403   1.801   6.681  0.0251 -0.5048 -0.1047
 9066SOL    HW138657   1.338   1.816   6.750  0.5638 -1.9422  0.7181
 9066SOL    HW238658   1.347   1.753   6.620 -1.3758  1.4636 -0.3890
 9067SOL     OW38659   4.255   3.105   8.741 -0.6418  0.1879  0.6526
 9067SOL    HW138660   4.214   3.051   8.673 -0.3815  1.5211 -0.5469
 9067SOL    HW238661   4.211   3.075   8.820 -1.1953 -0.7400 -0.0060
 9068SOL     OW38662   2.987   2.973  10.831 -0.2031 -0.9789  0.3135
 9068SOL    HW138663   2.990   3.066  10.811  0.0675 -1.7415 -3.1359
 9068SOL    HW238664   3.082   2.967  10.822  0.2035  1.7948  2.7213
 9069SOL     OW38665   3.123   1.524   1.524 -0.7422  0.4660 -0.2231
 9069SOL    HW138666   3.207   1.570   1.528  0.1925 -1.3024  0.3861
 9069SOL    HW238667   3.144   1.505   1.432 -0.2949  0.5463 -0.1369
 9070SOL     OW38668   3.922   1.956  16.943  0.1665 -0.0404 -0.0278
 9070SOL    HW138669   3.832   1.927  16.926  0.6307 -0.4794 -1.7891
 9070SOL    HW238670   3.955   1.885  16.999  2.8275  0.6539 -0.7299
 9071SOL     OW38671   2.193   0.351   7.691  0.1439  0.0249  0.5021
 9071SOL    HW138672   2.187   0.430   7.744  0.5065 -0.1007  0.7308
 9071SOL    HW238673   2.161   0.285   7.751 -0.8502  0.2474  0.2163
 9072SOL     OW38674   0.598   4.224  16.896  0.3630 -0.1356  0.2741
 9072SOL    HW138675   0.664   4.266  16.951  0.3539  3.0632 -2.2014
 9072SOL    HW238676   0.597   4.129  16.909  1.8903 -0.0507  0.9773
 9073SOL     OW38677   2.659   0.323   8.548 -0.0288 -0.3876  0.1832
 9073SOL    HW138678   2.715   0.400   8.538 -1.2994  0.3866 -1.0375
 9073SOL    HW238679   2.687   0.256   8.485  1.5731  0.3129  0.1604
 9074SOL     OW38680   2.294   3.199   4.229 -0.1594 -0.5227 -0.1589
 9074SOL    HW138681   2.333   3.112   4.221  1.3390  0.2676 -1.3628
 9074SOL    HW238682   2.261   3.180   4.317 -1.8320 -1.8168 -1.0727
 9075SOL     OW38683   4.592   0.550   9.537 -0.0344  0.2226  0.5184
 9075SOL    HW138684   4.543   0.626   9.570 -1.9782  0.0223 -1.9789
 9075SOL    HW238685   4.572   0.491   9.609 -1.0614 -0.4126 -0.3018
 9076SOL     OW38686   4.159   0.457  14.438 -0.5627  0.4705  0.5909
 9076SOL    HW138687   4.142   0.365  14.454  1.1699  0.5506  2.8912
 9076SOL    HW238688   4.225   0.449  14.369 -0.0924  0.7751  1.0063
 9077SOL     OW38689   4.053   4.105   3.347  0.3479 -0.1609 -0.3348
 9077SOL    HW138690   3.985   4.140   3.290 -0.5990  1.3287  1.7233
 9077SOL    HW238691   4.128   4.116   3.288 -1.0197  1.6222 -1.7548
 9078SOL     OW38692   1.451   0.078   1.238 -0.1884 -0.0481 -0.2683
 9078SOL    HW138693   1.481   4.708   1.238  1.2016  0.4191  0.9929
 9078SOL    HW238694   1.357   0.077   1.257  0.1622 -4.0778  1.2484
 9079SOL     OW38695   1.929   1.252   4.335 -0.1636 -0.0801 -0.1314
 9079SOL    HW138696   1.929   1.205   4.252 -1.7764 -0.3859  0.0388
 9079SOL    HW238697   1.989   1.199   4.387  1.2140  0.6921 -0.9347
 9080SOL     OW38698   0.140   2.955   5.221 -0.0664 -0.1723 -0.3177
 9080SOL    HW138699   0.187   2.935   5.140  0.0405  1.9554 -0.7756
 9080SOL    HW238700   0.194   3.023   5.262 -2.8755  0.8525  1.7177
 9081SOL     OW38701   1.910   0.118   2.633  0.2534 -0.2027  0.5821
 9081SOL    HW138702   1.848   0.062   2.680 -0.2668 -0.7891 -0.8125
 9081SOL    HW238703   1.896   0.198   2.685 -3.9476 -1.2774  1.1398
 9082SOL     OW38704   1.182   0.742  17.685 -0.0374  0.1728  0.3678
 9082SOL    HW138705   1.137   0.720   0.080 -0.6033 -1.7649 -0.4529
 9082SOL    HW238706   1.248   0.673  17.672  0.3696  0.8391 -1.0596
 9083SOL     OW38707   2.955   4.631   9.506  0.3418 -0.4338 -0.2384
 9083SOL    HW138708   2.951   4.572   9.582  0.6134  1.2389  1.0620
 9083SOL    HW238709   2.909   4.708   9.540 -0.9167 -1.2292 -0.1383
 9084SOL     OW38710   2.274   3.013   5.361  0.1723  0.5133  0.6778
 9084SOL    HW138711   2.201   3.067   5.390  1.3167  2.0136  0.7318
 9084SOL    HW238712   2.301   2.972   5.444  1.6799  0.1326  0.0046
 9085SOL     OW38713   1.692   3.093   1.354  0.3344 -0.4186  0.0478
 9085SOL    HW138714   1.651   3.022   1.306 -0.4773 -0.3957  0.7087
 9085SOL    HW238715   1.624   3.104   1.420  0.7379  0.3839  0.3347
 9086SOL     OW38716   2.580   0.098  10.023  0.1284  0.1904  0.4395
 9086SOL    HW138717   2.653   0.109  10.084  0.4081  2.9142 -0.4064
 9086SOL    HW238718   2.600   0.014   9.982 -1.6432  0.2983 -0.6105
 9087SOL     OW38719   0.706   0.008  15.231 -0.4990  0.1878 -0.2800
 9087SOL    HW138720   0.739   0.065  15.162  0.2023 -1.0400 -0.9527
 9087SOL    HW238721   0.730   4.643  15.197 -1.3147  0.2557 -1.0294
 9088SOL     OW38722   0.153   3.285  10.337  0.0692  0.1619  0.4823
 9088SOL    HW138723   0.160   3.256  10.246  0.5264 -0.9066  0.8529
 9088SOL    HW238724   0.095   3.358  10.315 -0.6625 -0.3630  0.6588
 9089SOL     OW38725   2.077   1.920  15.088 -0.0622 -0.2281 -0.1005
 9089SOL    HW138726   2.170   1.902  15.097  0.1238  0.8974  0.2286
 9089SOL    HW238727   2.074   2.014  15.108  1.7716 -0.9387  3.4202
 9090SOL     OW38728   1.924   3.528   4.978 -0.0944  0.1866  0.0025
 9090SOL    HW138729   1.959   3.540   4.890 -2.8082  2.8485 -0.7148
 9090SOL    HW238730   1.829   3.525   4.966  0.1773 -2.3613 -1.4688
 9091SOL     OW38731   0.319   1.885  15.322  0.1055 -0.0583  0.6827
 9091SOL    HW138732   0.354   1.824  15.388 -0.0781 -1.5888 -0.6370
 9091SOL    HW238733   0.246   1.925  15.369 -0.6314  0.1701 -0.6650
 9092SOL     OW38734   3.016   0.187  11.684  0.1073 -0.3032  0.3644
 9092SOL    HW138735   2.930   0.160  11.650 -1.6492  2.4268  2.5901
 9092SOL    HW238736   3.018   0.278  11.652  2.9975 -0.3877  0.3077
 9093SOL     OW38737   2.325   0.174   7.276  0.1302 -0.6203 -0.5985
 9093SOL    HW138738   2.323   0.079   7.262 -0.2403 -0.8624  1.0787
 9093SOL    HW238739   2.352   0.188   7.185  0.8460 -1.7167 -0.5627
 9094SOL     OW38740   1.917   0.332   3.459  0.0201 -0.2347 -0.3186
 9094SOL    HW138741   1.943   0.249   3.498 -0.1811  0.9937  2.4017
 9094SOL    HW238742   1.914   0.389   3.535 -0.3936  0.4837 -0.8703
 9095SOL     OW38743   2.235   0.606   2.811 -0.1892  0.2640 -0.4754
 9095SOL    HW138744   2.240   0.658   2.731 -1.8632  1.3504  0.1278
 9095SOL    HW238745   2.310   0.552   2.789  0.2467  1.4152 -1.8536
 9096SOL     OW38746   1.468   2.758   0.777 -0.2093  0.0848  0.4365
 9096SOL    HW138747   1.504   2.691   0.835 -0.9648  0.0587  0.8747
 9096SOL    HW238748   1.373   2.744   0.787 -0.5370  0.7904 -1.6036
 9097SOL     OW38749   0.215   0.089   8.380 -0.3021 -0.3755  0.5242
 9097SOL    HW138750   0.256   0.031   8.317 -1.6709 -0.8303  0.0467
 9097SOL    HW238751   0.216   0.174   8.336  3.6908 -1.6662 -1.8481
 9098SOL     OW38752   2.655   0.475   4.240 -0.3747 -0.4441  0.2538
 9098SOL    HW138753   2.573   0.520   4.263  0.7944  0.9480  1.7390
 9098SOL    HW238754   2.640   0.437   4.154  0.1273  0.8719 -0.4150
 9099SOL     OW38755   4.470   4.143   0.038  0.2634  0.2217  0.3193
 9099SOL    HW138756   4.522   4.206  17.675  0.3756 -1.3619 -1.5261
 9099SOL    HW238757   4.525   4.140   0.116  1.5446  0.7381 -0.5705
 9100SOL     OW38758   0.079   0.739   8.019  0.0330 -0.0413  0.1871
 9100SOL    HW138759   0.163   0.784   8.007  0.7664 -1.7068 -1.0427
 9100SOL    HW238760   0.048   0.727   7.929  3.8774  0.9359 -1.2777
 9101SOL     OW38761   1.433   0.402   8.722 -0.2703  0.2753  0.5975
 9101SOL    HW138762   1.362   0.460   8.750 -1.5618 -0.5011 -1.0385
 9101SOL    HW238763   1.394   0.351   8.651 -2.2476 -0.9417  2.5782
 9102SOL     OW38764   1.624   1.697   7.441 -0.1233 -0.0522 -1.0014
 9102SOL    HW138765   1.637   1.607   7.471  0.2734  0.1402 -0.5889
 9102SOL    HW238766   1.551   1.721   7.498  0.8411  0.9442 -0.2019
 9103SOL     OW38767   2.470   0.570  13.863 -0.5729 -0.0019  0.2178
 9103SOL    HW138768   2.471   0.615  13.948  0.7274  0.1814  0.1086
 9103SOL    HW238769   2.492   0.635  13.796  1.1840 -1.5836 -0.7372
 9104SOL     OW38770   4.186   1.687   4.278  0.4647  0.3728 -0.3793
 9104SOL    HW138771   4.180   1.776   4.314 -0.6544  0.3992 -0.6005
 9104SOL    HW238772   4.106   1.646   4.312 -0.4829  1.9157 -0.7124
 9105SOL     OW38773   2.555   1.280   7.388  0.5109  0.1961  0.4099
 9105SOL    HW138774   2.595   1.304   7.305  2.6713 -0.8916  1.1289
 9105SOL    HW238775   2.562   1.185   7.398  1.0965 -0.0457 -2.2455
 9106SOL     OW38776   2.419   4.195  16.021  0.9059 -0.4199 -0.6893
 9106SOL    HW138777   2.471   4.199  15.941  1.4853 -0.2229 -0.2969
 9106SOL    HW238778   2.426   4.102  16.041  0.9655 -0.1707  0.4437
 9107SOL     OW38779   3.036   1.812  16.676 -0.1809 -0.7388 -0.4031
 9107SOL    HW138780   3.125   1.848  16.677  0.2795 -1.8858 -0.2559
 9107SOL    HW238781   3.024   1.799  16.582 -1.8338  0.6377 -0.3896
 9108SOL     OW38782   2.452   3.090   6.763  0.5172 -0.0159  0.5433
 9108SOL    HW138783   2.521   3.054   6.819 -1.3898 -2.7065  1.1910
 9108SOL    HW238784   2.396   3.133   6.827 -1.6675 -2.5753  0.3807
 9109SOL     OW38785   2.530   2.672   1.856 -0.4433  0.3116 -0.1793
 9109SOL    HW138786   2.588   2.637   1.788 -0.3182  0.0802  0.0461
 9109SOL    HW238787   2.449   2.652   1.809  0.5545  1.5647 -2.4316
 9110SOL     OW38788   1.035   3.750   2.764 -0.6015  0.1239  0.0430
 9110SOL    HW138789   0.950   3.748   2.809 -0.4110 -0.5914  0.3734
 9110SOL    HW238790   1.091   3.792   2.830 -0.7726  1.0469 -0.4058
 9111SOL     OW38791   1.308   2.336  11.761  0.0138 -0.4055  0.0124
 9111SOL    HW138792   1.240   2.269  11.753 -0.1490 -0.4622  1.9099
 9111SOL    HW238793   1.376   2.272  11.782 -0.0787 -1.1399 -1.9521
 9112SOL     OW38794   2.694   0.579   2.589  0.3162  0.3813  0.1546
 9112SOL    HW138795   2.674   0.672   2.597 -0.0937  0.5677 -2.9235
 9112SOL    HW238796   2.695   0.547   2.679 -0.2178  2.3622  0.8612
 9113SOL     OW38797   1.483   2.536  16.629  0.1067 -0.1078  0.0485
 9113SOL    HW138798   1.539   2.480  16.575 -2.1359  0.8621 -3.3344
 9113SOL    HW238799   1.437   2.584  16.560 -0.9455 -1.0077  0.1257
 9114SOL     OW38800   2.762   2.422   6.130  0.4688  0.1870  0.0920
 9114SOL    HW138801   2.813   2.473   6.193 -0.6685  0.9114  0.4404
 9114SOL    HW238802   2.812   2.435   6.050  0.8250 -0.9040  0.1408
 9115SOL     OW38803   0.181   1.144   6.673 -0.1509 -0.4300  0.8041
 9115SOL    HW138804   0.176   1.215   6.610 -0.8405 -0.7918  0.4484
 9115SOL    HW238805   0.212   1.068   6.623 -2.1291 -0.3320 -0.5659
 9116SOL     OW38806   1.644   3.476   6.499  0.4555  0.0058 -0.7270
 9116SOL    HW138807   1.624   3.553   6.445 -0.8629 -0.1291 -0.4214
 9116SOL    HW238808   1.729   3.467   6.456  0.4681  2.4440 -1.2109
 9117SOL     OW38809   4.249   3.930  14.235  0.4943 -0.2787 -0.0693
 9117SOL    HW138810   4.292   3.845  14.243  0.1292 -0.4567  0.0022
 9117SOL    HW238811   4.318   3.983  14.195 -0.2227  0.1479 -0.7432
 9118SOL     OW38812   1.432   0.210   8.261 -0.5519  0.0272 -0.3736
 9118SOL    HW138813   1.387   0.290   8.234  0.1251  0.3520 -0.5520
 9118SOL    HW238814   1.519   0.218   8.220  0.1050  1.4766  1.2902
 9119SOL     OW38815   3.605   2.695   8.762  0.2749  0.6066  0.0170
 9119SOL    HW138816   3.666   2.769   8.766 -1.1805  1.8100 -0.1744
 9119SOL    HW238817   3.522   2.743   8.764  0.6364  1.0848  2.7492
 9120SOL     OW38818   2.144   2.237   3.811  0.0413  0.1860  0.2340
 9120SOL    HW138819   2.149   2.146   3.781 -1.1720 -0.0071  0.6353
 9120SOL    HW238820   2.118   2.278   3.729 -2.1070  1.5537  1.6139
 9121SOL     OW38821   3.576   1.793   1.713 -0.1083 -0.1036 -0.1830
 9121SOL    HW138822   3.546   1.804   1.803  3.0112  1.3384  0.7110
 9121SOL    HW238823   3.667   1.761   1.716 -0.1386 -0.0380  1.4255
 9122SOL     OW38824   0.747   1.448   1.934 -0.7363 -0.1436 -0.1748
 9122SOL    HW138825   0.784   1.370   1.976 -0.6918  0.0100  0.0746
 9122SOL    HW238826   0.757   1.425   1.842  1.5547  2.5270 -0.6099
 9123SOL     OW38827   2.068   1.922   5.482  0.5484 -0.0409 -0.3314
 9123SOL    HW138828   2.034   2.010   5.466  0.5799  0.1965  0.9620
 9123SOL    HW238829   2.117   1.914   5.400  0.1327  0.8718 -0.6809
 9124SOL     OW38830   4.555   3.963   2.806 -0.1026 -0.8700 -0.0549
 9124SOL    HW138831   4.534   3.953   2.713 -2.2679  0.2569  0.2930
 9124SOL    HW238832   4.562   3.874   2.840 -1.9894 -1.4167 -1.0792
 9125SOL     OW38833   4.605   1.506  14.556  0.3756  0.1311  0.5679
 9125SOL    HW138834   4.632   1.485  14.645  0.9945 -0.3895  0.2543
 9125SOL    HW238835   4.675   1.563  14.524  1.3649 -0.3345  1.8849
 9126SOL     OW38836   0.514   0.163   9.609 -0.6237 -0.1192  0.4194
 9126SOL    HW138837   0.555   0.206   9.684  2.8153 -1.3254 -0.7838
 9126SOL    HW238838   0.563   0.081   9.604  0.6447  0.4594  3.1277
 9127SOL     OW38839   2.889   3.301  17.551  0.4139  0.3663  0.5475
 9127SOL    HW138840   2.910   3.362  17.622  1.1663 -1.0525  1.5449
 9127SOL    HW238841   2.804   3.338  17.527  0.2899  0.1459  0.6469
 9128SOL     OW38842   1.192   1.812  10.940 -0.2311  0.2320  0.5881
 9128SOL    HW138843   1.136   1.753  10.889  1.4066  0.5240 -1.5333
 9128SOL    HW238844   1.267   1.823  10.882  0.8543 -1.3171  1.6799
 9129SOL     OW38845   0.042   2.562  12.928  0.1202 -0.2203 -0.1555
 9129SOL    HW138846   4.714   2.490  12.891  0.1800 -0.9841  1.2424
 9129SOL    HW238847   0.124   2.556  12.879  1.1125  1.7333  1.2535
 9130SOL     OW38848   2.185   0.813   6.432 -0.1874 -0.3815 -0.9829
 9130SOL    HW138849   2.123   0.757   6.478  0.5964 -1.6794 -1.5126
 9130SOL    HW238850   2.220   0.750   6.369  2.2920 -0.7608  0.8056
 9131SOL     OW38851   1.182   2.257   8.052 -0.2569 -0.0907  0.1337
 9131SOL    HW138852   1.100   2.263   8.004  0.1327 -1.4525 -0.6979
 9131SOL    HW238853   1.238   2.296   7.985  0.5621  1.4058  1.6954
 9132SOL     OW38854   1.746   3.759   4.666  0.0796 -0.4702 -0.2967
 9132SOL    HW138855   1.691   3.708   4.726 -0.3978 -0.5569 -0.8085
 9132SOL    HW238856   1.682   3.822   4.631 -1.7455 -0.9687  2.1123
 9133SOL     OW38857   3.740   3.357   3.844 -0.3326  0.4463 -0.2716
 9133SOL    HW138858   3.752   3.358   3.749  2.2089  1.9176  0.0350
 9133SOL    HW238859   3.748   3.451   3.861  0.3083 -0.6510  5.3367
 9134SOL     OW38860   3.167   2.722   8.624 -0.1276  0.2177 -0.6258
 9134SOL    HW138861   3.116   2.641   8.625 -0.3770  0.3811  0.4888
 9134SOL    HW238862   3.143   2.752   8.712 -1.6692  1.5026 -1.4848
 9135SOL     OW38863   0.539   0.763   3.555 -0.3154  0.2130 -0.4249
 9135SOL    HW138864   0.581   0.765   3.641  2.7089 -1.9897 -1.8566
 9135SOL    HW238865   0.563   0.848   3.520  0.5257 -0.1854 -0.8258
 9136SOL     OW38866   1.103   1.523   4.625 -0.3292  0.4728  0.6068
 9136SOL    HW138867   1.040   1.545   4.694 -0.1570  0.6866  0.6945
 9136SOL    HW238868   1.182   1.575   4.640 -0.1018  0.2352  0.2296
 9137SOL     OW38869   3.501   2.582   3.594 -0.4501 -0.0159 -0.0995
 9137SOL    HW138870   3.466   2.545   3.513 -2.7939  0.4609  0.6972
 9137SOL    HW238871   3.461   2.530   3.663  0.8049  0.2626  0.8366
 9138SOL     OW38872   3.086   3.146   8.560 -0.3506 -0.1867 -0.3458
 9138SOL    HW138873   2.991   3.144   8.551 -0.3681  2.2768 -0.7212
 9138SOL    HW238874   3.109   3.130   8.468 -1.1615  3.7027 -1.2116
 9139SOL     OW38875   2.667   3.312  16.937 -0.3458 -0.1890  0.1099
 9139SOL    HW138876   2.609   3.253  16.985  0.7070  0.1615  1.7945
 9139SOL    HW238877   2.603   3.383  16.925 -0.8402 -0.3104  2.0979
 9140SOL     OW38878   2.865   1.404   7.194 -0.1762  0.4532 -0.2732
 9140SOL    HW138879   2.917   1.410   7.113  1.9285 -1.2692  0.9565
 9140SOL    HW238880   2.778   1.425   7.160  0.7005  1.1269 -2.1018
 9141SOL     OW38881   3.535   3.127   4.182  0.2104  0.3054  0.3967
 9141SOL    HW138882   3.582   3.150   4.102 -0.5788 -0.1243 -0.1992
 9141SOL    HW238883   3.520   3.035   4.160  1.0798  0.3779 -0.4874
 9142SOL     OW38884   3.284   1.434   4.384  0.1966 -0.2606 -0.6044
 9142SOL    HW138885   3.242   1.402   4.464 -1.6503  0.7755 -1.1586
 9142SOL    HW238886   3.263   1.364   4.322 -2.3744 -1.8769  2.1053
 9143SOL     OW38887   2.256   4.022  17.243  0.7994  0.1993  0.1954
 9143SOL    HW138888   2.281   3.939  17.203  1.0156  0.7083 -0.7304
 9143SOL    HW238889   2.242   4.070  17.162 -0.0705  1.0647  0.8621
 9144SOL     OW38890   0.839   0.117   5.014  0.1701 -0.3923 -0.0819
 9144SOL    HW138891   0.895   0.048   5.049  1.5742 -0.1803 -1.8605
 9144SOL    HW238892   0.764   0.106   5.072 -1.3092 -1.7883 -2.2603
 9145SOL     OW38893   2.521   1.111   5.236  0.2840  0.3229  0.3633
 9145SOL    HW138894   2.614   1.114   5.213 -0.2631  1.4266 -1.6870
 9145SOL    HW238895   2.497   1.194   5.194  1.5334  0.5922  0.1911
 9146SOL     OW38896   4.578   4.186   3.564 -0.1944 -0.7440 -0.0237
 9146SOL    HW138897   4.632   4.109   3.585 -1.2834 -1.7214 -0.7624
 9146SOL    HW238898   4.646   4.250   3.545 -2.9410  1.0702 -3.7932
 9147SOL     OW38899   1.598   3.934   6.212 -0.0509  0.9135  0.3842
 9147SOL    HW138900   1.621   4.006   6.154 -0.5831 -0.3953 -1.4778
 9147SOL    HW238901   1.510   3.919   6.177  0.1947 -1.9081  0.9462
 9148SOL     OW38902   0.132   1.642   3.999  0.2159 -0.2043 -0.3463
 9148SOL    HW138903   0.047   1.671   3.965  0.0350  0.4014  0.6159
 9148SOL    HW238904   0.128   1.669   4.091  0.0762 -0.1675 -0.3619
 9149SOL     OW38905   0.794   2.521   2.521  0.2311  0.2790  0.0240
 9149SOL    HW138906   0.706   2.485   2.509 -0.3408  2.2597 -1.6458
 9149SOL    HW238907   0.829   2.469   2.594 -0.0962 -0.1202 -0.1090
 9150SOL     OW38908   2.949   0.241  11.286  0.3059  0.2954 -0.0113
 9150SOL    HW138909   2.929   0.261  11.194  0.7324  3.9587  0.6741
 9150SOL    HW238910   3.039   0.272  11.291  0.3349  0.4356 -1.3722
 9151SOL     OW38911   1.889   4.270   4.722  0.0127  0.1691  0.2742
 9151SOL    HW138912   1.850   4.230   4.645  0.3608 -1.4501  0.9227
 9151SOL    HW238913   1.816   4.283   4.783  0.3897  1.1709  0.5097
 9152SOL     OW38914   0.013   2.081   5.095 -0.5838 -0.0267 -0.0105
 9152SOL    HW138915   0.069   2.119   5.162  1.7384 -3.4143 -0.0551
 9152SOL    HW238916   0.038   1.989   5.096 -2.8510 -0.6203  1.5816
 9153SOL     OW38917   3.608   1.516   9.024 -0.3088  0.0998 -0.2412
 9153SOL    HW138918   3.601   1.452   9.096  0.2985  0.3052 -0.0061
 9153SOL    HW238919   3.553   1.593   9.039  0.2410  0.1415  1.6029
 9154SOL     OW38920   1.569   1.614   1.046 -0.5860 -0.2615  0.3590
 9154SOL    HW138921   1.497   1.550   1.043 -0.0271 -0.9924  2.1883
 9154SOL    HW238922   1.593   1.622   0.954  0.8235  1.0729  0.8605
 9155SOL     OW38923   4.504   1.611   8.765  0.1708  0.0372  0.7835
 9155SOL    HW138924   4.554   1.588   8.686 -0.6898 -0.8403  0.4964
 9155SOL    HW238925   4.425   1.642   8.719 -0.8127 -1.6732  1.3357
 9156SOL     OW38926   1.974   4.569  15.397  0.3768 -0.7796  0.1067
 9156SOL    HW138927   1.894   4.527  15.364 -0.0772  0.4343 -0.3504
 9156SOL    HW238928   1.943   4.613  15.476  0.4069  1.3194 -1.0640
 9157SOL     OW38929   2.142   3.609   8.765  0.4350  0.2773  0.4136
 9157SOL    HW138930   2.120   3.560   8.844 -0.9216  0.4390  0.1439
 9157SOL    HW238931   2.061   3.659   8.754  0.2295 -0.1048  0.1935
 9158SOL     OW38932   2.876   3.025   6.169  0.2324  0.0548  0.1869
 9158SOL    HW138933   2.961   3.062   6.192 -0.7156  1.1541  1.8727
 9158SOL    HW238934   2.895   2.985   6.084 -0.9147 -1.4234  0.6208
 9159SOL     OW38935   2.677   3.105  12.718 -0.3776 -0.0710 -0.4239
 9159SOL    HW138936   2.708   3.016  12.702  1.1607  0.9170 -2.9864
 9159SOL    HW238937   2.707   3.138  12.633 -2.1010  0.8129 -0.6979
 9160SOL     OW38938   3.171   4.178   3.918  0.3607 -0.1114 -0.4540
 9160SOL    HW138939   3.187   4.143   4.006  2.5835  1.6137 -0.1737
 9160SOL    HW238940   3.135   4.265   3.932  0.7871 -0.0288  0.1519
 9161SOL     OW38941   1.765   2.519   1.612  0.0445 -0.0232  0.9786
 9161SOL    HW138942   1.673   2.542   1.598 -0.0810 -2.1717 -1.7143
 9161SOL    HW238943   1.765   2.546   1.704 -1.9298  3.7269 -0.1203
 9162SOL     OW38944   0.267   0.939  12.003  0.0777 -0.3411  0.4858
 9162SOL    HW138945   0.196   0.881  11.977  0.2525 -0.5557  0.4879
 9162SOL    HW238946   0.223   1.017  12.038  3.4336  2.0415 -0.5342
 9163SOL     OW38947   2.223   3.267  16.951 -0.4737  0.5272  0.1199
 9163SOL    HW138948   2.211   3.336  17.016  1.6745  1.5018 -0.5217
 9163SOL    HW238949   2.161   3.296  16.884 -0.5204 -3.5651 -1.6346
 9164SOL     OW38950   2.867   3.516   4.389 -0.6629 -0.3359 -0.1168
 9164SOL    HW138951   2.955   3.500   4.353 -0.5505  0.1838 -0.0834
 9164SOL    HW238952   2.843   3.589   4.331  1.2450 -0.1960 -0.7437
 9165SOL     OW38953   0.411   4.698   3.148  0.4637 -0.1504  0.0104
 9165SOL    HW138954   0.344   4.718   3.213  1.6732  2.0865  0.5776
 9165SOL    HW238955   0.401   4.603   3.139  0.9671  0.0126 -2.2597
 9166SOL     OW38956   1.164   3.254   5.301  0.2235 -0.1657  0.4403
 9166SOL    HW138957   1.199   3.206   5.226 -3.0708 -3.1200  0.8353
 9166SOL    HW238958   1.070   3.249   5.284  0.0444 -3.4958  2.5566
 9167SOL     OW38959   0.761   4.524   2.946 -0.3939 -0.2315  0.7459
 9167SOL    HW138960   0.722   4.606   2.975 -0.7036  0.2236 -0.9470
 9167SOL    HW238961   0.828   4.521   3.014 -1.1928  1.2219  1.6117
 9168SOL     OW38962   2.494   2.580   8.397 -1.0875 -0.6111  0.2539
 9168SOL    HW138963   2.436   2.655   8.412  2.2043  1.8217  0.7891
 9168SOL    HW238964   2.433   2.507   8.408 -1.4152  0.2697  4.2561
 9169SOL     OW38965   0.316   0.747  13.511 -0.1029  0.6417  0.3472
 9169SOL    HW138966   0.265   0.721  13.588 -1.2104  2.3576  0.1767
 9169SOL    HW238967   0.348   0.826  13.555  2.5623  0.2040 -0.8133
 9170SOL     OW38968   1.645   3.189   4.165 -0.8233 -0.4743 -0.0057
 9170SOL    HW138969   1.567   3.215   4.116 -0.0721  0.0477 -0.9147
 9170SOL    HW238970   1.711   3.233   4.112 -1.4631  3.3956  2.3691
 9171SOL     OW38971   2.842   4.359   2.813 -0.4173  0.3958  0.5064
 9171SOL    HW138972   2.909   4.418   2.847 -1.3074 -0.0688  3.0664
 9171SOL    HW238973   2.796   4.350   2.896 -1.2224  0.1018  0.0366
 9172SOL     OW38974   0.612   1.240   3.057 -0.0971 -0.0068  0.4201
 9172SOL    HW138975   0.624   1.328   3.020 -0.0310 -0.3441 -0.3672
 9172SOL    HW238976   0.630   1.187   2.979  0.8109  0.2521  0.4580
 9173SOL     OW38977   4.588   0.267  17.610 -0.2388 -0.4102  0.2199
 9173SOL    HW138978   4.536   0.257   0.003 -0.7517  2.7963  0.2961
 9173SOL    HW238979   4.623   0.178  17.612 -0.9239 -0.7158 -1.2581
 9174SOL     OW38980   1.365   2.193  16.760 -0.1322  0.2304 -0.0738
 9174SOL    HW138981   1.329   2.112  16.724  0.9120 -0.1387 -0.2918
 9174SOL    HW238982   1.419   2.213  16.684  0.5990  0.7225  0.5757
 9175SOL     OW38983   2.215   1.305   6.629 -0.1707 -0.3905  0.1810
 9175SOL    HW138984   2.181   1.357   6.556  0.6416  0.2057  0.2239
 9175SOL    HW238985   2.196   1.221   6.589 -0.4019 -0.6116  0.7577
 9176SOL     OW38986   2.956   4.127   3.752  0.5788 -0.3374  0.2146
 9176SOL    HW138987   2.982   4.078   3.675  2.6218  0.4525  0.4171
 9176SOL    HW238988   3.037   4.124   3.802  0.1326 -1.4023  0.8562
 9177SOL     OW38989   3.332   4.347  13.857 -0.4054  0.1672 -0.1261
 9177SOL    HW138990   3.335   4.276  13.920  3.0172  1.0637  0.7399
 9177SOL    HW238991   3.280   4.414  13.901  0.2497  0.6831 -0.1393
 9178SOL     OW38992   0.699   3.030   0.515 -0.4799  0.2371 -0.1642
 9178SOL    HW138993   0.617   3.063   0.552 -0.3166  1.0054 -0.4724
 9178SOL    HW238994   0.662   2.993   0.435 -2.1783 -1.3622  1.3570
 9179SOL     OW38995   0.995   0.677   3.884 -0.7498 -0.4421 -0.2745
 9179SOL    HW138996   0.937   0.726   3.942  0.6804 -0.5194  1.2239
 9179SOL    HW238997   1.028   0.755   3.839 -1.9546 -0.7159 -1.6129
 9180SOL     OW38998   2.875   1.238   0.262 -0.2199 -0.0316 -0.0913
 9180SOL    HW138999   2.893   1.303   0.195  0.0530  0.1767  0.1832
 9180SOL    HW239000   2.953   1.184   0.255 -0.2885 -0.3761  1.7082
 9181SOL     OW39001   0.621   4.617   8.520 -0.0481 -0.5443 -0.5706
 9181SOL    HW139002   0.699   4.654   8.560 -0.9937  0.9698 -0.1064
 9181SOL    HW239003   0.651   4.595   8.432  0.5553  2.6772 -1.1641
 9182SOL     OW39004   0.320   4.661  12.229 -0.7325  0.6849  0.1323
 9182SOL    HW139005   0.379   4.591  12.257 -0.9331  0.4696  0.0109
 9182SOL    HW239006   0.344   4.721  12.300 -1.4591 -0.0265  0.9841
 9183SOL     OW39007   2.962   2.519  17.685  0.4046  0.6427  0.4164
 9183SOL    HW139008   3.057   2.526  17.678  0.0617  3.1124 -1.7989
 9183SOL    HW239009   2.941   2.570  17.606  0.3356  1.1415  0.7602
 9184SOL     OW39010   0.684   1.714   7.020 -0.0084  0.2239 -0.1394
 9184SOL    HW139011   0.760   1.770   7.002  1.3417 -0.9915  1.8887
 9184SOL    HW239012   0.721   1.641   6.971  1.8804  1.2738 -0.3074
 9185SOL     OW39013   3.171   3.880   6.052  0.3731 -0.1568 -0.4458
 9185SOL    HW139014   3.187   3.966   6.013  1.0164  0.1984  0.6009
 9185SOL    HW239015   3.077   3.865   6.037  0.4288 -0.4473 -0.4968
 9186SOL     OW39016   1.560   4.714   8.021 -0.1967 -0.2712  0.0061
 9186SOL    HW139017   1.641   4.698   8.070 -0.4104 -3.6722 -0.7236
 9186SOL    HW239018   1.490   4.688   8.081  0.8169  0.9927  1.7383
 9187SOL     OW39019   3.811   2.646   2.723 -0.0734 -0.0941  0.0089
 9187SOL    HW139020   3.794   2.738   2.743 -2.2154 -0.4303 -0.2332
 9187SOL    HW239021   3.741   2.620   2.662 -1.4131 -1.1704  1.9983
 9188SOL     OW39022   0.676   0.520   6.390  0.1903 -0.0706 -0.3554
 9188SOL    HW139023   0.585   0.528   6.418 -0.5761  0.3589 -2.9609
 9188SOL    HW239024   0.684   0.425   6.377  1.7931  0.0689 -0.4748
 9189SOL     OW39025   4.252   3.095   3.055  1.1967 -0.0052 -0.3591
 9189SOL    HW139026   4.284   3.142   2.978 -0.0214 -2.8794 -2.6640
 9189SOL    HW239027   4.307   3.017   3.047  2.3377  0.6344  1.3517
 9190SOL     OW39028   4.545   4.533   5.162  0.0750 -0.4332  0.6548
 9190SOL    HW139029   4.503   4.450   5.185  0.1115 -0.7600 -0.4370
 9190SOL    HW239030   4.469   4.591   5.163 -1.5358 -2.5614  0.4655
 9191SOL     OW39031   4.388   3.421   2.645  0.3037 -0.0285 -0.6319
 9191SOL    HW139032   4.402   3.379   2.561  0.5474 -0.0734 -0.5670
 9191SOL    HW239033   4.448   3.495   2.646 -0.1829  0.3666 -2.0605
 9192SOL     OW39034   2.282   2.873   1.661  0.3774 -0.4627 -0.0016
 9192SOL    HW139035   2.234   2.865   1.744 -0.1254  3.1813  0.0538
 9192SOL    HW239036   2.311   2.964   1.663 -2.9699  0.5614  1.3737
 9193SOL     OW39037   4.282   3.439  14.872 -0.3188  0.3207  0.0255
 9193SOL    HW139038   4.282   3.344  14.873 -0.4898  0.3198 -0.1828
 9193SOL    HW239039   4.282   3.453  14.967 -2.2053 -2.1830  0.4005
 9194SOL     OW39040   3.405   1.309   5.240 -0.0957  0.6601  0.0091
 9194SOL    HW139041   3.455   1.379   5.199  0.7719  0.8294  1.3585
 9194SOL    HW239042   3.315   1.330   5.218 -0.5087 -1.2096 -0.1407
 9195SOL     OW39043   1.782   4.664   2.456  0.0773 -0.1286 -0.2322
 9195SOL    HW139044   1.859   4.721   2.459 -1.2759  1.7329 -0.9215
 9195SOL    HW239045   1.727   4.704   2.524  0.1097 -0.9358  0.2740
 9196SOL     OW39046   4.612   1.089   6.518 -0.6469 -0.0956  0.1216
 9196SOL    HW139047   4.656   1.166   6.555  1.5499 -1.1120 -0.4275
 9196SOL    HW239048   4.525   1.129   6.517 -0.3481  0.5434 -0.4324
 9197SOL     OW39049   3.622   4.074  14.441  0.7521  0.0167 -0.4777
 9197SOL    HW139050   3.529   4.080  14.463  0.7079  1.0645 -0.9217
 9197SOL    HW239051   3.616   4.104  14.350  3.6201  2.7408  0.2397
 9198SOL     OW39052   4.579   0.792   3.397 -0.1569 -0.0188  0.1753
 9198SOL    HW139053   4.605   0.701   3.385 -0.4894  0.0637 -1.2199
 9198SOL    HW239054   4.542   0.788   3.485 -0.6951 -0.9111 -0.0941
 9199SOL     OW39055   3.085   0.548   5.688  0.4571 -0.4303 -0.3556
 9199SOL    HW139056   3.063   0.640   5.674  3.2623 -0.0038 -1.7498
 9199SOL    HW239057   3.180   0.547   5.689  0.4897  1.2184 -2.3521
 9200SOL     OW39058   4.404   1.239   6.553  0.1477  0.1442 -0.2787
 9200SOL    HW139059   4.335   1.272   6.611 -1.5284 -2.7019 -0.6313
 9200SOL    HW239060   4.356   1.211   6.475  0.1661  3.6579 -1.5741
 9201SOL     OW39061   3.900   3.739   5.107 -0.2653  0.4697  0.1455
 9201SOL    HW139062   3.932   3.829   5.103 -1.8349  1.1981  3.6685
 9201SOL    HW239063   3.816   3.739   5.061 -0.5228 -0.1562  0.6158
 9202SOL     OW39064   2.772   4.569   8.087 -0.1834 -0.5181 -0.5398
 9202SOL    HW139065   2.710   4.562   8.160 -0.9609  0.5550 -1.1106
 9202SOL    HW239066   2.742   4.513   8.016  1.0259 -1.8407 -0.0196
 9203SOL     OW39067   4.698   0.059  14.378  0.3934 -0.1983 -0.4407
 9203SOL    HW139068   4.655   0.005  14.312 -0.2514  0.1286 -0.2876
 9203SOL    HW239069   0.042   0.117  14.337 -1.0468  3.4356  2.4284
 9204SOL     OW39070   0.333   1.314   6.869  0.2470  1.0936 -0.0275
 9204SOL    HW139071   0.290   1.233   6.840 -0.0289  0.9692  0.7016
 9204SOL    HW239072   0.305   1.373   6.800 -2.9560 -0.2582  0.1040
 9205SOL     OW39073   0.299   1.672   5.771 -0.3997 -0.5611  0.5499
 9205SOL    HW139074   0.272   1.631   5.853  0.3644  0.5120  1.3544
 9205SOL    HW239075   0.233   1.741   5.777 -0.2062 -0.3235 -0.0519
 9206SOL     OW39076   0.607   2.805   3.950 -0.4372  0.1424 -0.6541
 9206SOL    HW139077   0.663   2.843   3.883 -0.5479  1.4292 -0.0195
 9206SOL    HW239078   0.546   2.754   3.896 -2.5979  2.3433 -0.3209
 9207SOL     OW39079   1.110   2.241   2.098  0.6084 -0.0794  0.3992
 9207SOL    HW139080   1.088   2.235   2.191  0.2239  1.4753  0.4010
 9207SOL    HW239081   1.191   2.292   2.099 -0.2098  1.2133  0.4690
 9208SOL     OW39082   1.934   0.177  11.711  0.3775  0.1897  0.0493
 9208SOL    HW139083   1.865   0.241  11.728  0.5659  0.2011  0.7534
 9208SOL    HW239084   1.895   0.107  11.659  2.1426  2.3956 -4.2764
 9209SOL     OW39085   3.815   2.198   5.393 -0.7067 -0.0838  0.0133
 9209SOL    HW139086   3.769   2.274   5.359  1.8803  1.7454  0.6178
 9209SOL    HW239087   3.904   2.223   5.371 -0.6083  0.1314  0.6431
 9210SOL     OW39088   2.289   3.417   8.615  0.0755 -0.3509  0.2435
 9210SOL    HW139089   2.273   3.495   8.667  1.3413 -0.1663  0.3602
 9210SOL    HW239090   2.262   3.354   8.682 -1.0360 -0.1473 -0.0296
 9211SOL     OW39091   0.413   3.027   5.439  0.0500  0.4227  0.3645
 9211SOL    HW139092   0.364   2.996   5.515 -0.2384  2.9959  1.2314
 9211SOL    HW239093   0.482   2.961   5.438  1.1060  1.5340 -0.4635
 9212SOL     OW39094   1.646   1.999   5.926  0.4462 -0.6580  0.0400
 9212SOL    HW139095   1.580   1.991   5.996  0.0671 -0.4109 -0.2882
 9212SOL    HW239096   1.684   2.082   5.954 -1.3153 -0.0759  0.7266
 9213SOL     OW39097   3.149   3.931   7.205  0.1631  0.1037 -0.2132
 9213SOL    HW139098   3.071   3.899   7.250  1.1057  1.0847  2.1122
 9213SOL    HW239099   3.177   3.851   7.159 -0.3647  1.4777 -2.9078
 9214SOL     OW39100   1.254   4.281   8.067  0.3036 -0.0281  0.2804
 9214SOL    HW139101   1.270   4.250   7.978 -0.9998 -0.2938  0.1392
 9214SOL    HW239102   1.294   4.204   8.107 -0.1187 -0.9638 -1.1043
 9215SOL     OW39103   1.998   3.838   8.227 -0.3767  1.0327 -0.1340
 9215SOL    HW139104   1.921   3.826   8.282 -0.3772 -0.8068 -0.5558
 9215SOL    HW239105   2.065   3.825   8.295 -0.6318 -2.2419 -0.5094
 9216SOL     OW39106   3.034   1.785   5.505 -0.1485 -0.1412  0.0572
 9216SOL    HW139107   3.012   1.869   5.465 -0.6867 -0.0931  0.4553
 9216SOL    HW239108   3.125   1.808   5.524  0.3890 -1.4099 -1.0056
 9217SOL     OW39109   1.964   0.202   0.371 -0.2065 -0.5716  0.4946
 9217SOL    HW139110   2.001   0.290   0.366 -1.4570  0.0209  1.4959
 9217SOL    HW239111   1.940   0.174   0.283  0.2952  0.4368  0.0335
 9218SOL     OW39112   0.956   3.856   7.312 -0.5247  0.0786 -0.5687
 9218SOL    HW139113   0.883   3.884   7.258  0.6462 -1.4516 -2.9411
 9218SOL    HW239114   0.923   3.784   7.366  0.0299  1.0639  1.0816
 9219SOL     OW39115   3.494   2.622   1.204  0.5078 -0.5400 -0.3158
 9219SOL    HW139116   3.501   2.645   1.296 -2.8222  2.1940 -0.7428
 9219SOL    HW239117   3.561   2.555   1.193  0.3841 -0.8313  0.7009
 9220SOL     OW39118   4.156   0.557  10.302  0.3018  0.4232  0.4827
 9220SOL    HW139119   4.178   0.468  10.329  0.5425  0.9267  1.9640
 9220SOL    HW239120   4.191   0.553  10.213 -1.8589  0.4744 -0.3862
 9221SOL     OW39121   2.472   0.310  10.410  0.0425 -0.3680 -0.4024
 9221SOL    HW139122   2.411   0.298  10.483  0.9081 -0.2075  0.3558
 9221SOL    HW239123   2.421   0.262  10.346 -1.7084  1.4333 -0.3326
 9222SOL     OW39124   3.465   2.184  10.795  0.6234 -0.4690  0.0235
 9222SOL    HW139125   3.519   2.227  10.730  0.4149  0.1397  0.2511
 9222SOL    HW239126   3.413   2.124  10.742  1.7633 -0.1563 -1.4439
 9223SOL     OW39127   4.407   1.072  14.784 -0.2806 -0.2158  0.4358
 9223SOL    HW139128   4.397   1.150  14.729  1.9861  0.1124  0.4999
 9223SOL    HW239129   4.319   1.036  14.770 -0.4560  0.0556  0.8430
 9224SOL     OW39130   0.444   2.319   6.902 -0.3972 -0.0888 -0.1189
 9224SOL    HW139131   0.510   2.350   6.840  1.6778 -3.9270  0.1667
 9224SOL    HW239132   0.386   2.275   6.841 -0.0523  0.1132 -0.5981
 9225SOL     OW39133   3.494   1.596  14.770 -0.1262  0.3185 -0.4348
 9225SOL    HW139134   3.572   1.553  14.734  0.9933  1.3714  0.7271
 9225SOL    HW239135   3.539   1.659  14.827  1.0887  2.7835 -4.1644
 9226SOL     OW39136   3.995   0.540   0.780  0.4657 -0.0574  0.1726
 9226SOL    HW139137   4.038   0.463   0.742 -0.7273 -1.8460  2.4958
 9226SOL    HW239138   4.054   0.561   0.852  1.3056  0.1747 -0.5689
 9227SOL     OW39139   3.651   2.839  16.252 -0.0042  0.6320  0.1937
 9227SOL    HW139140   3.656   2.744  16.257  1.0410  0.6362 -0.7022
 9227SOL    HW239141   3.586   2.854  16.320 -0.3038 -0.2516  0.1076
 9228SOL     OW39142   4.419   3.217   4.058 -0.0891 -0.3240  0.1943
 9228SOL    HW139143   4.496   3.181   4.101  0.3826 -0.4703 -0.7821
 9228SOL    HW239144   4.465   3.272   3.995  0.2939 -0.6389  0.2045
 9229SOL     OW39145   1.815   1.979   4.181  0.3171  0.3769  0.1120
 9229SOL    HW139146   1.723   1.993   4.157  0.0387 -2.4279 -0.4649
 9229SOL    HW239147   1.805   2.019   4.268  0.2878 -1.8598  1.1515
 9230SOL     OW39148   3.243   1.432  14.856 -0.1127 -0.5682 -0.0214
 9230SOL    HW139149   3.324   1.452  14.808 -0.4189  2.0386  0.5530
 9230SOL    HW239150   3.191   1.512  14.847 -1.1639 -1.2658 -0.1464
 9231SOL     OW39151   0.657   3.569  15.701 -0.5820  0.1466  0.0691
 9231SOL    HW139152   0.578   3.596  15.654  0.7570  0.2373 -2.1086
 9231SOL    HW239153   0.677   3.497  15.642  0.5042  0.5213 -0.0239
 9232SOL     OW39154   4.693   0.276   9.425  0.1330  0.1344  0.6596
 9232SOL    HW139155   4.685   0.371   9.423  0.9382  0.1802 -0.1213
 9232SOL    HW239156   0.068   0.270   9.425  0.1292  0.1347 -0.1965
 9233SOL     OW39157   4.697   0.257   2.696 -0.0458 -0.0357  0.1411
 9233SOL    HW139158   0.015   0.176   2.728  0.4125  0.3729  0.6171
 9233SOL    HW239159   0.043   0.288   2.634 -0.0649 -1.7952 -0.7482
 9234SOL     OW39160   1.886   1.767   7.353  0.0763  0.3584  0.1536
 9234SOL    HW139161   1.799   1.766   7.392 -0.9460  0.2472 -2.1231
 9234SOL    HW239162   1.877   1.849   7.305  0.8304 -1.2792 -2.7711
 9235SOL     OW39163   1.102   0.328  17.563  0.2825  0.0506  0.4831
 9235SOL    HW139164   1.148   0.391  17.508 -1.7824  0.3925 -0.8511
 9235SOL    HW239165   1.020   0.378  17.571  0.9667  1.5038 -1.5493
 9236SOL     OW39166   1.142   1.739   9.419  0.2220 -0.3451 -0.0590
 9236SOL    HW139167   1.107   1.674   9.480 -0.1069 -0.0193  0.1005
 9236SOL    HW239168   1.192   1.803   9.468  0.8561 -1.7361  1.1033
 9237SOL     OW39169   0.647   4.649   8.952  0.4262  0.4791 -0.2392
 9237SOL    HW139170   0.576   4.659   8.890 -0.3269  1.9055  0.8544
 9237SOL    HW239171   0.693   4.574   8.914 -0.8812 -0.8175  0.7396
 9238SOL     OW39172   1.535   3.573   4.161 -0.0918 -0.1292 -0.4267
 9238SOL    HW139173   1.489   3.657   4.156  0.4085  0.1780  0.1944
 9238SOL    HW239174   1.550   3.570   4.066  3.5473  1.7920  0.0637
 9239SOL     OW39175   0.551   2.246  13.383 -0.3864  0.4478 -0.2254
 9239SOL    HW139176   0.642   2.277  13.389 -0.6847  1.0624  1.1453
 9239SOL    HW239177   0.496   2.324  13.384  0.1932  0.8562 -0.1256
 9240SOL     OW39178   0.660   2.629   1.890 -0.1160 -0.3225 -0.0588
 9240SOL    HW139179   0.660   2.657   1.981 -1.3628 -0.1404 -0.1167
 9240SOL    HW239180   0.732   2.681   1.855 -0.6818 -0.9092 -2.1119
 9241SOL     OW39181   0.087   3.235   6.871 -0.2138  0.0355 -0.1812
 9241SOL    HW139182   0.162   3.263   6.818 -1.7162  0.5479 -2.0499
 9241SOL    HW239183   0.079   3.147   6.834  0.4607 -0.6904  1.3704
 9242SOL     OW39184   0.958   0.360   9.019 -0.0884  0.3940 -0.4262
 9242SOL    HW139185   0.948   0.269   8.992 -0.1943  0.7759 -1.6603
 9242SOL    HW239186   0.883   0.405   8.981 -1.1785 -1.0188  0.0531
 9243SOL     OW39187   3.138   1.503  17.567  0.0586 -0.2168 -0.5402
 9243SOL    HW139188   3.142   1.440  17.496 -1.4608 -0.3765 -0.4771
 9243SOL    HW239189   3.169   1.581  17.522  1.7913 -1.1067 -0.9030
 9244SOL     OW39190   2.684   2.491  11.644  0.0376  1.1155  0.2405
 9244SOL    HW139191   2.597   2.478  11.607  0.3541 -0.4305  0.0083
 9244SOL    HW239192   2.734   2.516  11.567 -0.4655  0.4488 -0.3050
 9245SOL     OW39193   3.871   2.352   4.857 -0.2839 -0.1008 -0.5735
 9245SOL    HW139194   3.901   2.266   4.886  0.3912 -0.1589 -1.4235
 9245SOL    HW239195   3.834   2.331   4.771 -2.6605  1.6501  0.0109
 9246SOL     OW39196   4.004   0.755   9.274 -0.3168  0.1825  0.1536
 9246SOL    HW139197   4.050   0.681   9.235  0.5608  2.1168 -2.5066
 9246SOL    HW239198   3.929   0.708   9.308  1.4962 -1.2281  2.2242
 9247SOL     OW39199   2.772   3.287   4.178  0.0580 -0.0277 -0.0746
 9247SOL    HW139200   2.731   3.209   4.141  0.3425 -0.9383  1.5183
 9247SOL    HW239201   2.693   3.310   4.227  0.8771  0.8072  0.8601
 9248SOL     OW39202   2.358   1.096   1.097 -0.3967  0.2275  0.1794
 9248SOL    HW139203   2.437   1.075   1.048 -0.0068  0.7303  0.5832
 9248SOL    HW239204   2.335   1.013   1.137  0.1160 -0.7734 -1.6307
 9249SOL     OW39205   2.916   0.298   7.700 -0.0003  0.7714 -0.0940
 9249SOL    HW139206   2.845   0.351   7.736  0.1765  1.4794 -0.7830
 9249SOL    HW239207   2.876   0.260   7.622  1.2822 -0.4637 -0.1607
 9250SOL     OW39208   3.374   3.496   3.861 -0.1647 -0.3859 -0.3064
 9250SOL    HW139209   3.373   3.438   3.938  3.8205  0.9001  0.7215
 9250SOL    HW239210   3.416   3.436   3.799  0.8893 -1.5359  1.4726
 9251SOL     OW39211   3.781   3.275  11.082  0.4409  0.4740  0.2252
 9251SOL    HW139212   3.820   3.199  11.123 -1.1248 -0.2024  0.4733
 9251SOL    HW239213   3.700   3.284  11.133 -0.2906 -1.6403 -0.5812
 9252SOL     OW39214   0.659   1.553   8.578 -0.0874  0.1788 -0.2263
 9252SOL    HW139215   0.674   1.564   8.484  1.7219 -0.7990 -0.0323
 9252SOL    HW239216   0.747   1.537   8.611  0.0269  0.2373 -0.5067
 9253SOL     OW39217   2.387   2.139   1.020 -0.1484  0.3098 -0.2677
 9253SOL    HW139218   2.454   2.077   1.049  0.9859  1.8687  0.4450
 9253SOL    HW239219   2.390   2.205   1.089 -2.2399  0.7544 -0.6296
 9254SOL     OW39220   2.241   3.631   7.066  0.1754 -0.1760 -0.1056
 9254SOL    HW139221   2.276   3.708   7.020  1.2291 -1.1823 -0.9895
 9254SOL    HW239222   2.175   3.601   7.004  0.1069 -1.0779  0.4125
 9255SOL     OW39223   1.381   4.560  14.754  0.2349  0.2455 -0.6972
 9255SOL    HW139224   1.287   4.568  14.740  0.2113 -3.1087 -2.4830
 9255SOL    HW239225   1.386   4.465  14.740 -2.8015 -0.0934  0.5604
 9256SOL     OW39226   0.023   3.358  15.131  0.0013 -0.5297  0.0792
 9256SOL    HW139227   0.096   3.415  15.105 -0.7401 -0.4221 -1.7801
 9256SOL    HW239228   0.059   3.273  15.106 -1.7835 -1.2740  0.1112
 9257SOL     OW39229   4.106   2.128   3.295 -0.6854 -0.6053 -0.4409
 9257SOL    HW139230   4.193   2.130   3.335 -0.4348  0.4657 -1.0242
 9257SOL    HW239231   4.064   2.112   3.380  1.9076 -2.1672  0.5397
 9258SOL     OW39232   0.774   0.670   9.894 -0.3992  0.0857 -0.3054
 9258SOL    HW139233   0.769   0.762   9.868  0.4278 -0.1313 -1.2603
 9258SOL    HW239234   0.866   0.651   9.878  0.0951  3.6063 -1.6783
 9259SOL     OW39235   3.397   4.561   1.912 -0.4136  0.6748 -0.4325
 9259SOL    HW139236   3.483   4.520   1.906 -1.1012 -0.6372 -1.0800
 9259SOL    HW239237   3.409   4.638   1.856  1.2599  2.5282  2.4531
 9260SOL     OW39238   2.704   4.643   4.700 -0.0461 -0.2539 -0.2470
 9260SOL    HW139239   2.707   0.013   4.727 -1.8609 -0.0849 -0.6564
 9260SOL    HW239240   2.625   4.651   4.647 -0.1977 -1.5544 -0.2184
 9261SOL     OW39241   4.227   0.903   8.777  0.3610 -0.2987  0.4051
 9261SOL    HW139242   4.261   0.957   8.848  0.9083  0.3445 -0.3460
 9261SOL    HW239243   4.274   0.820   8.783  1.3509  0.0902 -1.8026
 9262SOL     OW39244   0.113   3.501  10.593 -0.0514  0.2723 -0.0955
 9262SOL    HW139245   0.111   3.551  10.511 -1.8243  2.5053  1.2799
 9262SOL    HW239246   0.198   3.526  10.627  0.3779  0.4325 -1.2754
 9263SOL     OW39247   4.110   4.221   3.610  0.2057  0.4804 -0.3769
 9263SOL    HW139248   4.112   4.219   3.514  3.9177 -1.0812 -0.2607
 9263SOL    HW239249   4.185   4.167   3.634  0.5242  1.2038  0.2274
 9264SOL     OW39250   4.220   3.355  13.612  0.2379  0.8872 -0.0195
 9264SOL    HW139251   4.269   3.303  13.676  1.0476  1.4337 -0.1857
 9264SOL    HW239252   4.295   3.373  13.555  0.7039 -1.9054 -0.2446
 9265SOL     OW39253   1.062   2.142   7.620 -0.5285 -0.4490  0.7500
 9265SOL    HW139254   1.148   2.122   7.656 -0.2901 -1.3200 -0.2946
 9265SOL    HW239255   1.027   2.054   7.602  1.0903 -0.3994 -2.8166
 9266SOL     OW39256   2.918   1.519   6.563 -0.4285  0.0077  0.2748
 9266SOL    HW139257   2.843   1.574   6.540 -0.6801 -0.3333  0.2853
 9266SOL    HW239258   2.887   1.429   6.557 -0.1731 -0.0988  0.5640
 9267SOL     OW39259   2.595   0.374  14.801  0.3303  0.0905 -0.3674
 9267SOL    HW139260   2.519   0.341  14.753  1.1192 -0.8743 -0.9607
 9267SOL    HW239261   2.618   0.289  14.838  3.7602  0.9203 -0.6301
 9268SOL     OW39262   0.600   2.748   6.212  0.4890 -0.5326  0.1440
 9268SOL    HW139263   0.568   2.683   6.149 -1.3129 -2.1364  2.7165
 9268SOL    HW239264   0.692   2.748   6.188  1.0668 -1.6499  2.3447
 9269SOL     OW39265   2.335   4.197   8.868  0.3501 -0.7060  0.1206
 9269SOL    HW139266   2.279   4.247   8.809 -0.4537 -1.6374  0.0946
 9269SOL    HW239267   2.304   4.241   8.947 -0.9668 -0.1470 -0.7174
 9270SOL     OW39268   2.252   0.722   5.011 -0.5203  0.0813  0.7507
 9270SOL    HW139269   2.273   0.803   5.057 -3.1225  0.6681  0.9337
 9270SOL    HW239270   2.162   0.750   4.993 -0.5047 -0.8786 -0.9113
 9271SOL     OW39271   0.638   1.109   8.751 -1.1557 -0.1586 -0.1663
 9271SOL    HW139272   0.650   1.193   8.706 -0.6737 -0.5824 -0.8181
 9271SOL    HW239273   0.640   1.053   8.674  2.7909 -0.7230  0.3719
 9272SOL     OW39274   0.612   0.522  16.881  0.5265  0.4434 -0.1182
 9272SOL    HW139275   0.546   0.492  16.819  1.5594  1.4009 -1.6861
 9272SOL    HW239276   0.579   0.612  16.888 -1.3726 -0.0705 -2.4598
 9273SOL     OW39277   4.698   2.794  13.116  0.4615  0.0972  0.1631
 9273SOL    HW139278   4.682   2.862  13.181 -0.7615 -0.9289  0.9399
 9273SOL    HW239279   0.028   2.837  13.047 -0.4657  3.0423  1.3201
 9274SOL     OW39280   1.243   0.683   4.058  0.2399 -0.3755 -0.2701
 9274SOL    HW139281   1.276   0.596   4.035 -0.1600 -0.9451  1.3116
 9274SOL    HW239282   1.209   0.666   4.146 -0.9374  2.5469 -0.1591
 9275SOL     OW39283   2.560   3.489   5.426  0.2447 -0.3615 -0.1152
 9275SOL    HW139284   2.618   3.448   5.490 -0.3956  0.7343  1.1748
 9275SOL    HW239285   2.494   3.529   5.482  0.0447  1.6846 -1.8012
 9276SOL     OW39286   4.163   2.309  15.886 -0.3328 -0.0341  0.3788
 9276SOL    HW139287   4.210   2.380  15.842 -0.9260 -0.4578 -0.9234
 9276SOL    HW239288   4.182   2.229  15.837 -3.1767  0.3123 -1.2824
 9277SOL     OW39289   2.745   0.028   5.315 -0.2606  0.1145  0.1642
 9277SOL    HW139290   2.787   0.064   5.392  0.0401 -2.6069  1.2622
 9277SOL    HW239291   2.807   0.033   5.243 -3.7621  2.4763 -2.7090
 9278SOL     OW39292   1.289   2.292   3.733 -0.2591 -0.3842  0.2109
 9278SOL    HW139293   1.200   2.323   3.746 -0.1141  0.3680 -0.5975
 9278SOL    HW239294   1.282   2.207   3.691  0.4909 -0.4926  0.2974
 9279SOL     OW39295   3.660   4.105   4.171  0.5381 -0.3154 -0.3534
 9279SOL    HW139296   3.646   4.147   4.086 -0.4118 -0.8318 -0.4555
 9279SOL    HW239297   3.751   4.132   4.177  0.6622 -1.1552  1.7597
 9280SOL     OW39298   2.293   3.682   7.568 -0.6528 -0.4752 -0.1134
 9280SOL    HW139299   2.252   3.769   7.569 -0.7103 -0.4818 -1.9462
 9280SOL    HW239300   2.229   3.634   7.516 -3.3773  0.8957  1.9818
 9281SOL     OW39301   1.969   0.449   3.697  0.7478  0.3457 -1.1006
 9281SOL    HW139302   1.982   0.535   3.736  1.5286  0.3770 -1.4295
 9281SOL    HW239303   1.904   0.407   3.753  2.8191  0.6364  1.4852
 9282SOL     OW39304   3.482   0.259   2.763  0.8524 -0.3742  0.2314
 9282SOL    HW139305   3.533   0.304   2.830 -1.8252  1.6600  0.9299
 9282SOL    HW239306   3.428   0.197   2.813  0.9208 -1.0028 -0.4802
 9283SOL     OW39307   3.132   1.686   0.840 -0.7185 -0.3416  0.6701
 9283SOL    HW139308   3.082   1.611   0.809  0.1628 -0.3840 -0.6415
 9283SOL    HW239309   3.196   1.644   0.897  1.2424 -0.9406 -1.9878
 9284SOL     OW39310   3.889   1.641   8.459 -0.1056 -0.6449 -1.0804
 9284SOL    HW139311   3.944   1.573   8.421  1.5164 -0.5128  1.0637
 9284SOL    HW239312   3.899   1.704   8.388  0.6435 -0.3098 -0.6726
 9285SOL     OW39313   3.990   4.195  12.227 -0.3259 -0.1485 -0.3352
 9285SOL    HW139314   4.064   4.250  12.255 -1.0446  0.6146  0.0625
 9285SOL    HW239315   4.026   4.110  12.254 -2.6993 -1.4496 -1.2548
 9286SOL     OW39316   1.653   1.646   0.772 -0.2127 -0.2856 -0.2558
 9286SOL    HW139317   1.719   1.714   0.785  0.3631 -0.6726 -1.1365
 9286SOL    HW239318   1.584   1.704   0.740 -2.2965 -2.5263  0.2618
 9287SOL     OW39319   1.776   4.494   8.851  0.4054  0.0077 -0.4586
 9287SOL    HW139320   1.738   4.537   8.928  2.2882 -1.5293  1.3358
 9287SOL    HW239321   1.860   4.465   8.885 -0.1444  0.7813  1.5783
 9288SOL     OW39322   3.386   3.286   7.526 -0.3033  0.0022 -0.1808
 9288SOL    HW139323   3.430   3.205   7.502  0.1198  0.5765 -1.3568
 9288SOL    HW239324   3.317   3.296   7.461 -0.1289 -5.2248 -1.1073
 9289SOL     OW39325   3.560   4.124   3.287 -0.0210  0.7244  0.4922
 9289SOL    HW139326   3.649   4.159   3.280 -0.1831  0.4910 -2.6369
 9289SOL    HW239327   3.566   4.044   3.235  0.3165 -0.3691  2.2052
 9290SOL     OW39328   4.640   1.843   7.817  0.3319 -0.2339 -0.1828
 9290SOL    HW139329   4.587   1.781   7.767  0.8804 -1.9542  1.3787
 9290SOL    HW239330   4.713   1.791   7.851 -0.5118 -0.7868  0.7777
 9291SOL     OW39331   0.229   0.830   7.429 -0.0132 -0.2092 -0.5438
 9291SOL    HW139332   0.231   0.743   7.469  3.4433  0.7980  1.4394
 9291SOL    HW239333   0.155   0.819   7.369  0.8251  2.7110 -2.0934
 9292SOL     OW39334   3.491   0.326   4.981 -0.9080  0.1940  0.7888
 9292SOL    HW139335   3.538   0.288   4.907 -0.6026  0.0217  1.0746
 9292SOL    HW239336   3.403   0.330   4.943 -0.4485  1.2305 -0.1717
 9293SOL     OW39337   4.119   1.147   7.611  0.1013  0.6822 -0.0051
 9293SOL    HW139338   4.054   1.215   7.592 -2.5888 -1.2975  2.1973
 9293SOL    HW239339   4.083   1.065   7.577 -1.3119  1.7334 -1.0184
 9294SOL     OW39340   2.038   2.712   4.667 -0.5559  0.6551  0.6835
 9294SOL    HW139341   2.020   2.618   4.668 -4.0381  1.3043 -1.9252
 9294SOL    HW239342   2.071   2.735   4.754  1.7031 -0.3474  0.0733
 9295SOL     OW39343   1.392   1.479   8.769  0.1755 -0.2982 -0.3583
 9295SOL    HW139344   1.343   1.494   8.689  0.3501 -1.6358 -0.7236
 9295SOL    HW239345   1.459   1.413   8.749  0.8349 -0.2919  1.8117
 9296SOL     OW39346   3.538   2.830   3.748  0.1938  0.0608 -0.3748
 9296SOL    HW139347   3.514   2.738   3.758  1.2844 -0.3053 -1.1045
 9296SOL    HW239348   3.614   2.834   3.689 -0.5895 -2.6114 -1.5277
 9297SOL     OW39349   1.354   4.322  14.635 -0.3275  0.7422  0.4970
 9297SOL    HW139350   1.429   4.369  14.598 -2.0979  2.8325 -0.4603
 9297SOL    HW239351   1.299   4.293  14.561  0.4996 -0.8641  0.5196
 9298SOL     OW39352   1.916   4.662   4.188  0.6079  0.6921  0.1674
 9298SOL    HW139353   1.990   4.704   4.232  0.0992  1.1665  0.5651
 9298SOL    HW239354   1.838   4.699   4.229  0.1269  1.4367 -1.4038
 9299SOL     OW39355   3.569   0.866   8.849  0.2087  0.2109  0.4429
 9299SOL    HW139356   3.502   0.805   8.819 -0.6411  0.8011  1.1264
 9299SOL    HW239357   3.526   0.907   8.924 -1.2927  0.5835 -0.6420
 9300SOL     OW39358   1.155   1.053   4.495 -0.3186 -0.0175 -0.1470
 9300SOL    HW139359   1.184   1.144   4.493 -1.2035  0.2530 -0.7777
 9300SOL    HW239360   1.061   1.067   4.507 -0.5961 -1.9552  0.0559
 9301SOL     OW39361   1.908   4.192   5.772  0.9325  0.4514  0.4440
 9301SOL    HW139362   1.907   4.140   5.852  0.4141  0.0286  0.1616
 9301SOL    HW239363   1.952   4.134   5.711 -0.4808 -0.0815 -0.0803
 9302SOL     OW39364   4.456   3.030   6.736  0.5918 -0.2533 -0.6147
 9302SOL    HW139365   4.432   3.066   6.821  0.9573  0.3319 -0.7604
 9302SOL    HW239366   4.384   3.052   6.676 -0.3958  3.0648  1.7891
 9303SOL     OW39367   3.370   0.274   1.208  0.0134 -0.1958 -0.1162
 9303SOL    HW139368   3.330   0.263   1.122 -0.8140  3.4886 -0.2097
 9303SOL    HW239369   3.448   0.218   1.208  0.0179 -0.1902 -1.3251
 9304SOL     OW39370   2.529   2.721   5.476 -0.3951  0.3858 -0.0680
 9304SOL    HW139371   2.495   2.683   5.395  0.9860 -0.9715 -0.0095
 9304SOL    HW239372   2.621   2.694   5.474 -1.2600 -2.5027  0.4433
 9305SOL     OW39373   4.010   3.382   3.215  0.0436 -0.1370  0.3227
 9305SOL    HW139374   3.920   3.397   3.244  0.0598  0.3365  0.1272
 9305SOL    HW239375   4.028   3.292   3.239 -3.7964 -0.3390  2.5506
 9306SOL     OW39376   0.898   2.326   8.389 -0.2404  0.1945 -0.2790
 9306SOL    HW139377   0.934   2.302   8.474 -1.2945  0.5705  0.2795
 9306SOL    HW239378   0.803   2.326   8.400  0.1604 -1.4447  3.0668
 9307SOL     OW39379   1.870   4.375   1.793 -0.3333  0.1909  0.1317
 9307SOL    HW139380   1.821   4.384   1.875 -2.1937  4.2113 -1.3944
 9307SOL    HW239381   1.914   4.457   1.769 -0.9425  0.1307 -1.2076
 9308SOL     OW39382   4.068   2.433   3.472  0.1305 -0.2367 -0.4160
 9308SOL    HW139383   4.022   2.517   3.467 -0.4834 -0.4071  2.3944
 9308SOL    HW239384   4.053   2.403   3.562 -1.2218 -0.5973 -0.7729
 9309SOL     OW39385   4.015   0.466  16.599 -0.0148  0.3132  0.5291
 9309SOL    HW139386   4.039   0.373  16.605  0.5024  0.4809  1.0908
 9309SOL    HW239387   4.095   0.506  16.565  0.5550  0.1402  1.6529
 9310SOL     OW39388   0.107   1.978   4.218  0.3790  0.4083  0.0756
 9310SOL    HW139389   0.165   2.001   4.145  1.9697  0.2360  1.2884
 9310SOL    HW239390   0.137   1.888   4.232 -1.0763  0.1946  1.7484
 9311SOL     OW39391   2.632   0.486   2.347 -0.0738 -0.0853 -0.0726
 9311SOL    HW139392   2.616   0.391   2.351 -0.3406 -0.1251 -2.5748
 9311SOL    HW239393   2.651   0.507   2.438  1.8508  1.2656 -0.8068
 9312SOL     OW39394   3.602   2.460   2.248 -0.6884 -0.0434  0.1146
 9312SOL    HW139395   3.594   2.528   2.315  2.1268 -1.3667  1.7479
 9312SOL    HW239396   3.535   2.403   2.286 -0.7199  0.2703  0.5337
 9313SOL     OW39397   0.564   3.770   9.186 -0.1414 -0.1010 -0.4041
 9313SOL    HW139398   0.658   3.786   9.178 -0.4047  1.5130 -0.2680
 9313SOL    HW239399   0.555   3.708   9.258  1.5019 -1.6757 -1.5314
 9314SOL     OW39400   2.454   4.228   6.924  0.0139  0.5478 -0.4442
 9314SOL    HW139401   2.510   4.190   6.991  0.2534  0.8456 -0.4726
 9314SOL    HW239402   2.471   4.321   6.943 -0.5237  0.5931 -0.1851
 9315SOL     OW39403   1.719   2.937   2.514  0.5192  0.2439  0.2900
 9315SOL    HW139404   1.703   2.954   2.607  1.7693 -0.2763  0.5928
 9315SOL    HW239405   1.810   2.965   2.511  0.3254  0.8750  0.3749
 9316SOL     OW39406   3.176   1.154   7.133 -0.0301 -0.0675  0.0727
 9316SOL    HW139407   3.149   1.246   7.133 -0.2669 -0.1309  2.0741
 9316SOL    HW239408   3.261   1.161   7.177 -1.0233  5.2846  1.2078
 9317SOL     OW39409   3.977   1.097   1.744 -0.1646 -0.6172  0.0186
 9317SOL    HW139410   3.994   1.189   1.723 -0.9576 -0.2394  1.0313
 9317SOL    HW239411   3.998   1.067   1.656  0.7772 -1.6096  0.5919
 9318SOL     OW39412   3.879   1.961   4.061 -0.5143  0.5512  0.2860
 9318SOL    HW139413   3.841   2.044   4.033 -2.0207 -0.8030 -1.6746
 9318SOL    HW239414   3.798   1.913   4.074  0.3299 -1.1478 -0.6703
 9319SOL     OW39415   0.489   4.441   7.897 -0.2274 -0.4836 -0.5358
 9319SOL    HW139416   0.565   4.387   7.876  2.9099  3.4163  0.8368
 9319SOL    HW239417   0.507   4.520   7.846  2.8791 -0.9573 -0.1400
 9320SOL     OW39418   4.166   1.799  10.847  0.3591 -0.3739  1.0741
 9320SOL    HW139419   4.104   1.751  10.902  1.0005 -0.8068  1.4118
 9320SOL    HW239420   4.154   1.889  10.877  0.6191 -0.6443  1.9878
 9321SOL     OW39421   4.450   0.552  13.022 -0.1879 -0.3185 -0.1092
 9321SOL    HW139422   4.401   0.588  12.948  0.9306 -1.1557 -1.2584
 9321SOL    HW239423   4.536   0.589  13.000  0.2781 -0.0733  2.1130
 9322SOL     OW39424   4.226   0.999   3.504  0.2924 -0.0082  0.1774
 9322SOL    HW139425   4.232   1.040   3.418 -0.5960  0.8360  0.5170
 9322SOL    HW239426   4.178   1.062   3.558 -1.0255  0.1537 -1.2037
 9323SOL     OW39427   3.730   4.438   7.701  0.5030 -0.4257 -0.2052
 9323SOL    HW139428   3.778   4.453   7.783  1.3305  1.4560 -1.0384
 9323SOL    HW239429   3.649   4.416   7.747  0.4596 -0.8503 -0.4821
 9324SOL     OW39430   0.640   2.509   7.591  0.2225 -0.0183 -0.0933
 9324SOL    HW139431   0.586   2.569   7.643 -1.4651 -1.6620  0.0657
 9324SOL    HW239432   0.628   2.534   7.500 -0.6439 -1.3774 -0.3645
 9325SOL     OW39433   0.150   1.769   8.437  0.1228 -0.0752 -0.0806
 9325SOL    HW139434   0.063   1.741   8.408 -0.0107 -0.2294  0.4636
 9325SOL    HW239435   0.189   1.686   8.465  0.9484  1.0423  2.1014
 9326SOL     OW39436   1.563   0.364   5.236 -0.5262 -0.3633 -0.2124
 9326SOL    HW139437   1.495   0.427   5.214 -0.5653 -0.8336 -1.4243
 9326SOL    HW239438   1.546   0.291   5.176  1.4032 -0.1939 -0.9691
 9327SOL     OW39439   4.502   4.495  10.286 -0.2292 -0.1714  0.7933
 9327SOL    HW139440   4.532   4.424  10.229  1.3087  0.1856  1.1586
 9327SOL    HW239441   4.430   4.454  10.334 -0.0925 -1.1231  0.2023
 9328SOL     OW39442   3.618   1.445   9.301 -0.4103 -0.7397 -0.2149
 9328SOL    HW139443   3.634   1.539   9.313 -1.7137 -0.7268  1.4362
 9328SOL    HW239444   3.708   1.413   9.309 -0.5449 -1.2351 -0.6483
 9329SOL     OW39445   3.122   3.824   7.623  0.0581  0.3166 -0.7639
 9329SOL    HW139446   3.152   3.752   7.567 -2.6079 -0.6154 -1.0196
 9329SOL    HW239447   3.195   3.865   7.669 -0.4211  1.9531 -1.4590
 9330SOL     OW39448   2.518   1.630  17.349  0.1730 -0.1378  0.2558
 9330SOL    HW139449   2.583   1.586  17.293  0.1742  1.5138 -1.0457
 9330SOL    HW239450   2.433   1.597  17.323 -0.6835  0.5579  2.1741
 9331SOL     OW39451   4.085   2.670   2.726 -0.4033 -0.2942  0.0503
 9331SOL    HW139452   3.989   2.670   2.725 -0.4113 -1.3951  0.8475
 9331SOL    HW239453   4.105   2.760   2.753 -0.0194 -0.1237 -0.8070
 9332SOL     OW39454   3.610   4.205   5.257 -0.0712 -0.0825  0.2103
 9332SOL    HW139455   3.561   4.283   5.281 -0.7229 -0.0741 -1.1793
 9332SOL    HW239456   3.672   4.192   5.329 -0.3478 -1.7617  0.1550
 9333SOL     OW39457   2.790   2.833  17.184 -0.1392  0.9283 -0.6570
 9333SOL    HW139458   2.837   2.798  17.259  1.0009 -0.9444 -2.2126
 9333SOL    HW239459   2.773   2.756  17.130 -0.1001 -0.3907  1.2141
 9334SOL     OW39460   4.550   0.318   9.688  0.1403 -0.1345 -0.2184
 9334SOL    HW139461   4.594   0.277   9.613  2.8414  1.9130  0.2632
 9334SOL    HW239462   4.480   0.255   9.705  0.1538 -0.0064  0.2913
 9335SOL     OW39463   0.672   0.503   3.992 -0.8708 -0.1648  0.0624
 9335SOL    HW139464   0.719   0.434   3.945 -0.8100 -0.7652  1.0060
 9335SOL    HW239465   0.730   0.511   4.067 -2.3694 -1.4994  1.3908
 9336SOL     OW39466   1.990   1.204   8.555 -0.0471  0.4372  0.4410
 9336SOL    HW139467   1.990   1.108   8.557 -0.3166  0.4261  0.0029
 9336SOL    HW239468   1.898   1.216   8.530 -0.7055  1.4172  3.3794
 9337SOL     OW39469   0.861   0.643   7.902 -0.2556  0.2282  0.2761
 9337SOL    HW139470   0.800   0.630   7.829 -0.4621 -0.9451  0.6553
 9337SOL    HW239471   0.945   0.626   7.860  0.0787  1.1050  0.5992
 9338SOL     OW39472   2.524   0.958   4.358 -0.1890 -0.0488 -0.0765
 9338SOL    HW139473   2.549   1.016   4.431 -0.2814 -0.5955  0.3880
 9338SOL    HW239474   2.604   0.965   4.307 -0.1140  1.1751  0.1953
 9339SOL     OW39475   0.802   4.266  17.065  0.5729  0.5416 -0.0200
 9339SOL    HW139476   0.829   4.183  17.025 -1.2414 -0.2498  0.3805
 9339SOL    HW239477   0.861   4.265  17.139 -1.1897  0.1772  1.3869
 9340SOL     OW39478   3.880   1.407   0.184 -0.2584  0.0823 -0.3177
 9340SOL    HW139479   3.848   1.319   0.202  1.3283 -0.2355  0.9512
 9340SOL    HW239480   3.792   1.438   0.163 -0.8251 -1.2661  0.0788
 9341SOL     OW39481   1.217   4.124  14.813 -0.1706 -0.6198 -0.0300
 9341SOL    HW139482   1.260   4.202  14.777 -1.0139 -0.6171 -1.0385
 9341SOL    HW239483   1.168   4.103  14.734  1.1057  0.3248 -1.0548
 9342SOL     OW39484   4.294   3.587   6.708 -0.0776  0.0073  0.1523
 9342SOL    HW139485   4.262   3.496   6.708  0.2356 -0.1024  1.4414
 9342SOL    HW239486   4.335   3.588   6.795 -1.0483 -0.1699  0.6166
 9343SOL     OW39487   4.598   4.714   1.319 -0.4795  0.5364  0.1949
 9343SOL    HW139488   4.670   4.659   1.350  1.0137  1.2374 -2.0378
 9343SOL    HW239489   4.647   0.065   1.281  0.5288 -1.2160 -1.8132
 9344SOL     OW39490   2.795   0.228  14.288 -0.0831  0.2670  0.1931
 9344SOL    HW139491   2.727   0.161  14.277  1.9034 -1.5871 -0.7882
 9344SOL    HW239492   2.838   0.221  14.202  0.0184  1.1344  0.1759
 9345SOL     OW39493   4.250   0.541   6.981  0.2382 -0.5024  0.2122
 9345SOL    HW139494   4.200   0.589   6.916 -0.8942  0.4971  1.8317
 9345SOL    HW239495   4.294   0.619   7.014 -0.4918  0.2001 -0.5208
 9346SOL     OW39496   2.509   0.793  17.012  0.1028  0.7076  0.1110
 9346SOL    HW139497   2.532   0.703  16.987  1.5602  1.0915  0.0663
 9346SOL    HW239498   2.502   0.789  17.107 -2.2246 -2.3307 -0.1820
 9347SOL     OW39499   0.462   4.150   5.569 -0.2081 -0.0399  0.1589
 9347SOL    HW139500   0.372   4.119   5.559 -0.7113  1.5811 -0.4299
 9347SOL    HW239501   0.444   4.237   5.604 -0.8778  1.1997 -3.2189
 9348SOL     OW39502   0.704   0.019  10.830 -0.0663  0.3072 -0.3780
 9348SOL    HW139503   0.698   0.048  10.921 -0.4008 -1.3440  0.1333
 9348SOL    HW239504   0.617   0.046  10.804  0.1868  0.3975 -1.1093
 9349SOL     OW39505   4.131   4.663   4.368  0.1567  0.0526  0.3051
 9349SOL    HW139506   4.128   4.574   4.334  0.4488 -0.2305  1.0266
 9349SOL    HW239507   4.175   4.711   4.298 -1.5464 -3.4885 -3.1794
 9350SOL     OW39508   2.749   1.970   0.683  0.0871 -0.3475  0.0334
 9350SOL    HW139509   2.670   1.999   0.728 -0.0702 -2.1562  0.9110
 9350SOL    HW239510   2.750   2.032   0.610  0.1081 -0.3625  0.0208
 9351SOL     OW39511   2.520   0.211   1.854 -0.5856  0.0674 -0.2938
 9351SOL    HW139512   2.609   0.240   1.875 -1.4199  1.1957  1.6728
 9351SOL    HW239513   2.523   0.116   1.861  1.9223  0.0411 -1.5372
 9352SOL     OW39514   1.033   4.653   8.827  0.0676  0.4299 -0.6545
 9352SOL    HW139515   1.063   4.586   8.888  0.5054 -1.5446 -3.0365
 9352SOL    HW239516   0.982   4.703   8.890 -1.0191 -1.4103 -0.0721
 9353SOL     OW39517   4.095   3.951   8.257  0.1066 -0.1324  0.2640
 9353SOL    HW139518   4.148   3.885   8.213 -0.9919 -0.2539 -0.8789
 9353SOL    HW239519   4.014   3.932   8.210  1.1761 -3.7662 -0.1119
 9354SOL     OW39520   0.091   1.709  14.945 -0.2489 -0.0549 -0.5913
 9354SOL    HW139521   0.058   1.798  14.962 -0.4253 -0.2549  0.1051
 9354SOL    HW239522   0.182   1.736  14.949 -0.3731 -0.1015  2.4947
 9355SOL     OW39523   1.871   3.894   8.515 -0.1578 -0.0852  0.1396
 9355SOL    HW139524   1.800   3.957   8.524 -0.1072  0.1382 -0.9756
 9355SOL    HW239525   1.875   3.866   8.606  0.3699  0.4821  0.2958
 9356SOL     OW39526   2.280   0.807   9.974  0.0462  0.0794  0.1310
 9356SOL    HW139527   2.265   0.713   9.986  1.6966 -0.3554 -1.2572
 9356SOL    HW239528   2.264   0.803   9.879  0.5958  0.1511  0.0389
 9357SOL     OW39529   0.051   4.352   7.303 -0.3688  0.5237 -0.0249
 9357SOL    HW139530   0.089   4.303   7.376  0.0650  1.1077  0.1433
 9357SOL    HW239531   0.125   4.386   7.251 -0.3153  2.2095  1.1385
 9358SOL     OW39532   0.342   3.165  14.029  0.3980  0.1530 -0.5144
 9358SOL    HW139533   0.389   3.187  13.948 -0.8602 -0.3427 -1.3870
 9358SOL    HW239534   0.252   3.169  13.998 -0.0843  1.4486  1.1112
 9359SOL     OW39535   2.309   4.367   5.945 -0.1909  0.4159 -0.3374
 9359SOL    HW139536   2.294   4.274   5.964  1.7575  0.2253  0.2682
 9359SOL    HW239537   2.364   4.385   6.021 -2.2054  0.6967  1.0710
 9360SOL     OW39538   0.989   3.946  10.658  0.3975 -0.0666 -0.8283
 9360SOL    HW139539   1.015   3.941  10.750  1.0800  0.6694 -0.9836
 9360SOL    HW239540   0.895   3.931  10.660 -0.0414  2.6688 -1.9167
 9361SOL     OW39541   0.810   4.055   9.134  0.3079  0.0004 -0.1906
 9361SOL    HW139542   0.796   4.049   9.229  1.2099 -0.5500 -0.0914
 9361SOL    HW239543   0.810   3.963   9.105  0.9406  0.7940 -2.6272
 9362SOL     OW39544   4.445   1.165  11.375  0.1080  0.5883 -0.0138
 9362SOL    HW139545   4.434   1.118  11.292 -0.2334 -0.2313  0.4953
 9362SOL    HW239546   4.354   1.176  11.403 -0.3121  1.9865 -1.9507
 9363SOL     OW39547   1.103   1.542   3.044 -0.0416  0.0664 -0.4031
 9363SOL    HW139548   1.195   1.557   3.021 -0.4291 -1.8332 -3.1800
 9363SOL    HW239549   1.055   1.560   2.963 -4.9140  2.4153  3.0193
 9364SOL     OW39550   2.925   1.268   2.921 -0.6196  0.0104  0.3561
 9364SOL    HW139551   2.859   1.306   2.979 -0.9771 -0.2823  0.1448
 9364SOL    HW239552   2.990   1.243   2.987  1.0232 -0.0224 -1.2799
 9365SOL     OW39553   4.051   0.546  14.109 -0.3237  0.4942 -0.2412
 9365SOL    HW139554   4.142   0.550  14.080 -0.4797 -0.5219 -0.8614
 9365SOL    HW239555   4.048   0.450  14.107  1.0780  0.4969 -2.1968
 9366SOL     OW39556   0.848   1.751   3.559 -0.5176 -0.4044  0.0158
 9366SOL    HW139557   0.915   1.700   3.605 -2.6259 -0.6996  2.7353
 9366SOL    HW239558   0.798   1.678   3.524 -1.9780 -0.4267  2.1214
 9367SOL     OW39559   2.873   3.823   5.177  0.6656  0.2509 -0.4128
 9367SOL    HW139560   2.818   3.896   5.206  1.8114  2.2535 -3.1792
 9367SOL    HW239561   2.819   3.746   5.194  0.2495  0.9745  1.5202
 9368SOL     OW39562   2.277   2.064   1.550  0.1526  0.2251 -0.9204
 9368SOL    HW139563   2.336   2.076   1.624  0.6737 -1.7014 -1.0195
 9368SOL    HW239564   2.284   1.969   1.545 -0.2578  0.1658 -0.3817
 9369SOL     OW39565   0.288   4.464   2.578 -0.3820  0.0059  0.6170
 9369SOL    HW139566   0.375   4.436   2.550 -0.0817  2.1720 -0.5394
 9369SOL    HW239567   0.309   4.549   2.615  0.4836 -0.9637  2.3876
 9370SOL     OW39568   3.589   2.023   2.313 -0.1146 -0.1255 -0.4880
 9370SOL    HW139569   3.597   1.989   2.402  0.7397  0.1148 -0.4732
 9370SOL    HW239570   3.654   1.970   2.267  1.6925  3.0761 -1.6587
 9371SOL     OW39571   4.141   4.084   4.963 -0.0930  0.2950 -0.3879
 9371SOL    HW139572   4.181   4.076   5.050  1.0244 -1.1267 -1.0311
 9371SOL    HW239573   4.059   4.132   4.974 -1.0219 -0.9917 -1.8096
 9372SOL     OW39574   2.257   4.646  12.176 -0.3140  0.5534 -0.2523
 9372SOL    HW139575   2.347   4.643  12.144 -0.0974  0.0361  0.4096
 9372SOL    HW239576   2.230   0.015  12.159 -0.7480  0.4458 -0.1444
 9373SOL     OW39577   2.578   3.939   6.718 -0.6662  0.1248  0.6342
 9373SOL    HW139578   2.538   3.869   6.667  1.7374 -1.2721  0.6541
 9373SOL    HW239579   2.503   3.991   6.746 -1.7642  0.6641 -3.2088
 9374SOL     OW39580   2.578   3.799   8.343  0.7687  0.7992  0.4303
 9374SOL    HW139581   2.540   3.730   8.289  0.5867  0.9342  0.3862
 9374SOL    HW239582   2.493   3.840   8.357  0.6309  1.2941 -1.7333
 9375SOL     OW39583   0.652   4.468   5.177 -0.2364 -0.1628  0.0740
 9375SOL    HW139584   0.682   4.432   5.260  0.1893 -0.5613 -0.2470
 9375SOL    HW239585   0.558   4.450   5.179 -0.0437 -1.0931  0.7188
 9376SOL     OW39586   4.367   2.262  16.453 -0.0389  0.0080 -0.0830
 9376SOL    HW139587   4.358   2.356  16.466  2.1149  0.1495  0.4259
 9376SOL    HW239588   4.359   2.250  16.359 -0.2358  0.6080 -0.1437
 9377SOL     OW39589   1.990   3.243   1.496  0.2933 -0.4916 -0.0654
 9377SOL    HW139590   2.077   3.277   1.481 -0.3649  1.5137  0.7068
 9377SOL    HW239591   1.985   3.169   1.434  0.0634  0.1606 -0.8236
 9378SOL     OW39592   4.305   2.058   7.316  0.2391  0.3442 -0.5085
 9378SOL    HW139593   4.337   2.061   7.406  0.9473  0.1415 -0.7520
 9378SOL    HW239594   4.214   2.088   7.320  0.0728  0.0259 -1.8285
 9379SOL     OW39595   4.529   2.892   9.795  0.3082  0.3000  0.2322
 9379SOL    HW139596   4.575   2.945   9.859 -1.9432  0.8605  1.3793
 9379SOL    HW239597   4.549   2.933   9.711  0.7936  0.3931  0.3945
 9380SOL     OW39598   2.009   3.641   1.377 -0.9089  0.5497 -0.5673
 9380SOL    HW139599   1.981   3.599   1.295  0.7338  0.5048 -1.0980
 9380SOL    HW239600   1.946   3.621   1.446  1.4732 -1.2323  1.0433
 9381SOL     OW39601   2.537   1.994   8.792 -0.9099  0.8865 -0.2768
 9381SOL    HW139602   2.450   2.033   8.784 -1.9506 -0.8413  2.5687
 9381SOL    HW239603   2.528   1.935   8.866  1.1902  2.8562  1.5515
 9382SOL     OW39604   2.503   3.449   9.010 -0.1103 -0.1393  0.0580
 9382SOL    HW139605   2.496   3.406   8.925 -0.0699 -0.0261 -0.0030
 9382SOL    HW239606   2.584   3.409   9.041 -0.8890 -1.4986  0.3315
 9383SOL     OW39607   0.759   1.967   2.786 -0.3364  0.5571 -0.1595
 9383SOL    HW139608   0.755   1.911   2.864 -0.3618  2.3688  1.1272
 9383SOL    HW239609   0.848   1.962   2.752 -0.3747  0.3137 -0.2273
 9384SOL     OW39610   1.641   2.922   3.740  0.1540 -0.0016 -0.1662
 9384SOL    HW139611   1.576   2.948   3.674 -1.6384 -1.0019  1.2199
 9384SOL    HW239612   1.664   3.007   3.778  0.7171 -0.8051  1.2573
 9385SOL     OW39613   4.705   3.099   8.111  0.2737 -0.5484  0.2363
 9385SOL    HW139614   0.077   3.078   8.106  0.7717  1.7586 -0.4433
 9385SOL    HW239615   4.704   3.145   8.195 -0.3887 -1.3960  0.6894
 9386SOL     OW39616   1.283   3.465   2.477 -0.1434 -0.2487 -0.4854
 9386SOL    HW139617   1.346   3.456   2.406 -1.0963 -0.6550 -1.2780
 9386SOL    HW239618   1.269   3.377   2.511 -0.8558 -0.6841 -1.9296
 9387SOL     OW39619   3.362   1.469   7.599 -0.1629 -0.0226  0.5708
 9387SOL    HW139620   3.400   1.517   7.526 -0.6723  0.5497  0.6832
 9387SOL    HW239621   3.412   1.514   7.668  2.7211 -1.4298 -0.5890
 9388SOL     OW39622   2.207   0.346   7.014  0.1351  0.2257  0.2716
 9388SOL    HW139623   2.276   0.284   6.992 -0.2952  0.3735 -1.4511
 9388SOL    HW239624   2.133   0.285   7.017  1.5433 -1.4270  1.4917
 9389SOL     OW39625   3.056   3.291   3.241 -0.2187 -0.3737  0.3470
 9389SOL    HW139626   3.043   3.296   3.335  0.3376  1.1317  0.3443
 9389SOL    HW239627   2.970   3.257   3.216 -0.8570 -0.0779  2.1149
 9390SOL     OW39628   0.579   3.687   7.970 -0.3321 -0.2231 -0.1016
 9390SOL    HW139629   0.604   3.688   8.062 -1.2750 -1.0738  0.1619
 9390SOL    HW239630   0.645   3.748   7.936  0.8105 -0.3352  1.8764
 9391SOL     OW39631   1.154   3.981   2.879  0.0499 -0.4226  0.5340
 9391SOL    HW139632   1.174   4.038   2.805  0.3357 -0.1231  0.8445
 9391SOL    HW239633   1.228   3.993   2.939  1.1764  1.1103 -1.1591
 9392SOL     OW39634   0.437   4.384   3.244  0.2779 -0.1824  0.8158
 9392SOL    HW139635   0.482   4.377   3.160 -1.2659  3.7848 -0.3202
 9392SOL    HW239636   0.347   4.357   3.222 -0.2508  0.3185  2.3611
 9393SOL     OW39637   0.917   4.319  13.650  0.3116 -0.2447  0.4968
 9393SOL    HW139638   0.908   4.414  13.653 -0.4090 -0.2865 -0.2459
 9393SOL    HW239639   0.823   4.301  13.657  0.1079  1.0415  1.1668
 9394SOL     OW39640   0.493   4.213  17.221 -0.2020 -0.1599  1.0492
 9394SOL    HW139641   0.437   4.174  17.288 -0.3018 -2.3587 -0.3330
 9394SOL    HW239642   0.554   4.140  17.213  0.3616  0.1602  2.4246
 9395SOL     OW39643   0.197   0.912  11.652 -0.3045 -0.3561  0.2272
 9395SOL    HW139644   0.250   0.833  11.663 -1.9922 -1.5373 -0.1986
 9395SOL    HW239645   0.238   0.976  11.710  1.0971 -2.6167  1.7328
 9396SOL     OW39646   1.097   3.293  14.797  0.0262 -0.2940  0.0706
 9396SOL    HW139647   1.024   3.273  14.857 -0.8844  1.0468 -0.6124
 9396SOL    HW239648   1.139   3.352  14.859 -0.0039 -0.2437  0.0426
 9397SOL     OW39649   0.613   0.025   5.119 -0.1009 -0.1048  0.0370
 9397SOL    HW139650   0.592   4.653   5.109  1.9288 -0.5553 -0.0189
 9397SOL    HW239651   0.547   0.060   5.178 -0.3037 -1.3645  0.5402
 9398SOL     OW39652   4.013   3.298   4.550 -0.1201 -0.3947 -0.4185
 9398SOL    HW139653   4.014   3.304   4.455 -1.2629  1.7944 -0.2903
 9398SOL    HW239654   4.095   3.262   4.584 -1.9388 -3.0101  1.1861
 9399SOL     OW39655   1.418   0.451   2.011  0.6439  0.2246  0.1250
 9399SOL    HW139656   1.357   0.522   1.996  3.1046  2.8514  2.6874
 9399SOL    HW239657   1.352   0.381   2.017  0.3982  0.6659  2.2780
 9400SOL     OW39658   3.191   2.130  13.558 -0.5821 -0.1179  0.7818
 9400SOL    HW139659   3.139   2.163  13.631 -1.2258  0.0464  0.2510
 9400SOL    HW239660   3.245   2.066  13.604  0.0810 -0.4906 -0.5243
 9401SOL     OW39661   4.360   2.488   5.884  0.4946 -0.2010 -0.5076
 9401SOL    HW139662   4.368   2.414   5.944  0.5193 -1.3060 -1.8664
 9401SOL    HW239663   4.378   2.563   5.941  1.0479  0.1601 -1.1571
 9402SOL     OW39664   4.382   0.261   8.625 -0.4976  0.3126  0.0394
 9402SOL    HW139665   4.346   0.323   8.690  0.8920  0.1772  0.9433
 9402SOL    HW239666   4.310   0.199   8.624 -0.9531  0.8293  0.3442
 9403SOL     OW39667   2.209   0.825   5.634 -0.2055  0.1102  0.4016
 9403SOL    HW139668   2.266   0.902   5.631  1.5539 -1.2621 -0.9367
 9403SOL    HW239669   2.124   0.860   5.662 -0.3951  0.3182 -0.4324
 9404SOL     OW39670   1.998   4.063   7.223  0.0605 -0.4327 -0.3446
 9404SOL    HW139671   1.959   4.145   7.255 -1.7247 -0.6949 -1.8911
 9404SOL    HW239672   2.028   4.033   7.309 -0.8528  1.4018  0.6173
 9405SOL     OW39673   0.616   0.472   3.593 -0.2009 -0.2818 -0.4377
 9405SOL    HW139674   0.707   0.497   3.607 -0.7673 -0.2924  3.4929
 9405SOL    HW239675   0.576   0.558   3.584  0.5663  0.2044  0.7324
 9406SOL     OW39676   2.925   2.280   7.544 -0.6874 -0.1607  0.2246
 9406SOL    HW139677   2.876   2.293   7.625  1.2442 -0.0861  1.3793
 9406SOL    HW239678   2.943   2.187   7.549 -1.0472 -0.0889  2.6036
 9407SOL     OW39679   4.512   0.031   7.640  0.1289 -0.7913  0.4442
 9407SOL    HW139680   4.534   0.108   7.693  0.4403 -0.1807 -0.5834
 9407SOL    HW239681   4.486   4.681   7.700 -0.1175 -0.4013  0.7964
 9408SOL     OW39682   1.523   1.159   4.525 -0.3705  0.3405  0.5404
 9408SOL    HW139683   1.551   1.153   4.616  3.4601  1.5681 -0.5386
 9408SOL    HW239684   1.455   1.226   4.525  0.6566  1.4066 -1.4866
 9409SOL     OW39685   3.181   4.470   6.605 -0.1738 -0.2225 -0.2126
 9409SOL    HW139686   3.102   4.464   6.659  0.5834 -1.9424  0.7026
 9409SOL    HW239687   3.222   4.384   6.617  1.9492  1.0928  1.9966
 9410SOL     OW39688   0.562   3.837   8.859 -0.0001 -0.4528 -0.4917
 9410SOL    HW139689   0.581   3.760   8.912  2.1481 -0.4467 -1.2390
 9410SOL    HW239690   0.469   3.818   8.851 -0.1955 -0.2893  1.4399
 9411SOL     OW39691   1.493   3.646   8.549  0.0568 -0.2150  0.0514
 9411SOL    HW139692   1.430   3.690   8.492 -0.3473  1.6321  1.9193
 9411SOL    HW239693   1.432   3.610   8.613  0.8998  2.2951  2.2822
 9412SOL     OW39694   0.149   2.385   3.198  0.1391 -0.1183  0.1432
 9412SOL    HW139695   0.107   2.308   3.236  0.7034 -0.1789  0.6515
 9412SOL    HW239696   0.077   2.444   3.220  1.6692  1.6113  0.5304
 9413SOL     OW39697   3.253   4.623   5.568  0.3480 -0.4716  0.2748
 9413SOL    HW139698   3.256   4.664   5.482 -1.7319  1.4959  1.1563
 9413SOL    HW239699   3.198   4.689   5.611 -0.4247 -2.8584  2.9644
 9414SOL     OW39700   3.065   2.590   2.662 -0.1500 -0.3844  0.1379
 9414SOL    HW139701   2.997   2.545   2.711 -0.1276 -2.2707 -1.5411
 9414SOL    HW239702   3.026   2.653   2.602  0.1942 -2.4042 -2.2362
 9415SOL     OW39703   3.039   1.914   1.477 -0.2362 -0.3199  0.0899
 9415SOL    HW139704   3.040   1.897   1.383 -0.8284 -2.9572  0.5809
 9415SOL    HW239705   3.106   1.982   1.490 -0.7082  0.3106 -0.7253
 9416SOL     OW39706   2.359   3.163  15.659 -0.3044 -0.2077 -0.4156
 9416SOL    HW139707   2.432   3.148  15.719  1.2780  0.3456 -2.1992
 9416SOL    HW239708   2.278   3.174  15.710  0.1074  0.2206  0.1583
 9417SOL     OW39709   4.254   1.231   5.292  0.3960 -0.1768  0.8996
 9417SOL    HW139710   4.194   1.205   5.222 -2.3683  4.9495  1.3324
 9417SOL    HW239711   4.193   1.261   5.360  1.1198 -0.8926  1.8665
 9418SOL     OW39712   1.436   1.003   2.339  0.2737  0.4839 -0.8148
 9418SOL    HW139713   1.452   1.051   2.421  0.7442  0.3560 -0.8313
 9418SOL    HW239714   1.443   0.912   2.368 -1.1037  0.6840  0.1945
 9419SOL     OW39715   1.781   4.184  10.501  0.0511  0.1546  0.0164
 9419SOL    HW139716   1.726   4.235  10.442 -0.6045 -0.3091  0.2182
 9419SOL    HW239717   1.795   4.112  10.440  1.3332 -1.7508  2.5144
 9420SOL     OW39718   0.335   0.756   5.341  0.2645  0.0042 -0.3067
 9420SOL    HW139719   0.260   0.697   5.350  0.8577 -0.8446 -0.9704
 9420SOL    HW239720   0.302   0.836   5.303  1.0222 -1.1024 -3.2712
 9421SOL     OW39721   4.048   2.562  11.718  0.6099  0.2513  0.3651
 9421SOL    HW139722   3.990   2.509  11.664  1.1377 -0.2347  0.2803
 9421SOL    HW239723   4.035   2.510  11.797 -1.8151  0.7339  0.2991
 9422SOL     OW39724   1.309   3.086   6.500 -0.0518 -0.1684 -0.0566
 9422SOL    HW139725   1.359   3.035   6.437 -0.2071  1.6138 -1.6257
 9422SOL    HW239726   1.361   3.165   6.489  0.2698 -0.5136 -0.9986
 9423SOL     OW39727   4.313   1.861   7.841 -0.6431 -0.3041  0.4989
 9423SOL    HW139728   4.360   1.815   7.772  0.4191  1.5424  0.0028
 9423SOL    HW239729   4.381   1.874   7.908  0.0012  0.4837 -0.3185
 9424SOL     OW39730   4.694   4.103   8.072  0.0004 -0.6313 -0.3353
 9424SOL    HW139731   4.625   4.040   8.092 -2.9168  3.1484  1.5512
 9424SOL    HW239732   0.021   4.103   8.155  0.2449 -1.3209 -0.4782
 9425SOL     OW39733   4.692   3.527   1.454 -0.1163 -0.4163 -0.0119
 9425SOL    HW139734   0.012   3.495   1.534  3.0694 -1.2884 -1.9368
 9425SOL    HW239735   4.705   3.454   1.392 -1.1886  0.5810 -1.4207
 9426SOL     OW39736   0.625   2.387  12.179  0.2708 -0.3962  0.0855
 9426SOL    HW139737   0.633   2.473  12.138  1.5430 -2.1510 -3.3758
 9426SOL    HW239738   0.580   2.407  12.261  1.8081 -2.1985  1.3495
 9427SOL     OW39739   0.844   0.070   1.135  0.2352  0.7194  0.0988
 9427SOL    HW139740   0.760   0.090   1.092 -0.0175 -0.8598 -0.1457
 9427SOL    HW239741   0.868   0.155   1.171  1.8579  1.6534 -3.1886
 9428SOL     OW39742   2.593   3.845   2.446  0.2195 -0.5163  0.0159
 9428SOL    HW139743   2.645   3.803   2.514  0.7858 -1.3100 -0.9159
 9428SOL    HW239744   2.658   3.859   2.377  3.1581 -2.4664  2.4061
 9429SOL     OW39745   0.920   3.538  12.168 -0.2604 -0.4077 -0.7741
 9429SOL    HW139746   0.889   3.628  12.167 -0.1235 -0.3490 -0.0829
 9429SOL    HW239747   0.922   3.519  12.262  0.4457 -0.2299 -0.7510
 9430SOL     OW39748   4.246   2.553   3.747 -0.2296  0.2789  0.1549
 9430SOL    HW139749   4.265   2.467   3.709 -1.0505 -0.9122  2.4182
 9430SOL    HW239750   4.328   2.564   3.795  1.0358 -1.1796 -1.6705
 9431SOL     OW39751   0.117   3.382  14.798  0.1996  0.1453  0.3929
 9431SOL    HW139752   0.122   3.289  14.775 -0.3865  0.2519 -0.1535
 9431SOL    HW239753   0.033   3.384  14.843  0.0980 -1.4801  0.2982
 9432SOL     OW39754   4.432   1.073   6.817 -0.3471  0.1463 -0.3667
 9432SOL    HW139755   4.431   1.124   6.736  1.2554 -0.1024 -0.5357
 9432SOL    HW239756   4.524   1.069   6.844  0.1642  1.3435 -1.9321
 9433SOL     OW39757   4.054   0.290   6.524  0.3419  0.3146  0.4944
 9433SOL    HW139758   4.068   0.297   6.618  0.4897 -2.5318  0.6778
 9433SOL    HW239759   4.139   0.329   6.500 -0.5151  1.0421 -1.3509
 9434SOL     OW39760   3.456   3.622   4.898 -0.0285  0.5680 -0.1253
 9434SOL    HW139761   3.397   3.693   4.874  0.8881  0.9644 -1.2238
 9434SOL    HW239762   3.394   3.556   4.930 -1.7163  2.5070  0.6081
 9435SOL     OW39763   3.009   2.387  16.610 -0.0872  0.4076  0.2913
 9435SOL    HW139764   2.934   2.363  16.664 -2.3754 -0.2293 -3.0940
 9435SOL    HW239765   3.077   2.420  16.667 -0.2523 -0.8490  1.2124
 9436SOL     OW39766   2.791   3.164   5.802  0.3986 -0.7489  0.1288
 9436SOL    HW139767   2.816   3.087   5.750 -0.0931  1.1771 -3.0040
 9436SOL    HW239768   2.868   3.191   5.852  1.6598 -0.9349 -1.6861
 9437SOL     OW39769   2.913   2.935  12.601  0.0634  0.0190 -0.1167
 9437SOL    HW139770   2.969   2.986  12.660 -0.1522  1.2988 -1.0163
 9437SOL    HW239771   2.969   2.862  12.576  0.2800 -0.8980  2.9768
 9438SOL     OW39772   1.408   4.482  16.519  0.6151  0.0232 -0.2993
 9438SOL    HW139773   1.351   4.438  16.456  0.3922 -0.4066  0.2094
 9438SOL    HW239774   1.390   4.438  16.602 -0.0632  0.4919 -0.1976
 9439SOL     OW39775   1.737   0.526  15.315 -0.5952  0.3854  0.1566
 9439SOL    HW139776   1.706   0.616  15.324 -1.6788  0.1591 -1.1026
 9439SOL    HW239777   1.657   0.474  15.307 -1.2812  1.2117  1.6754
 9440SOL     OW39778   2.210   2.999   6.650 -0.2291  0.2305 -0.3948
 9440SOL    HW139779   2.210   2.951   6.733 -0.3480 -1.4241 -1.3510
 9440SOL    HW239780   2.304   3.008   6.631 -0.2612 -1.2701 -1.2266
 9441SOL     OW39781   4.481   3.824   5.154  0.5776  0.0890  0.0905
 9441SOL    HW139782   4.442   3.911   5.145 -1.0422 -0.8345 -1.9150
 9441SOL    HW239783   4.423   3.783   5.217  1.7142 -0.9545  0.4657
 9442SOL     OW39784   1.612   0.641   6.206  0.0121 -0.4897 -0.1018
 9442SOL    HW139785   1.656   0.640   6.121 -0.6305  0.2806 -0.4523
 9442SOL    HW239786   1.626   0.734   6.227  0.4408 -0.8675  1.2674
 9443SOL     OW39787   2.307   0.136   7.908  0.3177 -0.1898 -0.1954
 9443SOL    HW139788   2.348   0.164   7.990 -2.7178  3.0844  0.2451
 9443SOL    HW239789   2.217   0.164   7.926 -1.3582 -4.1044 -2.6375
 9444SOL     OW39790   4.202   1.233  15.700 -0.2927  0.9727  0.1438
 9444SOL    HW139791   4.190   1.322  15.667  1.2416  1.2089  0.2154
 9444SOL    HW239792   4.124   1.224  15.755 -0.5724  2.4071 -0.0215
 9445SOL     OW39793   2.762   0.312   1.913 -0.4549 -0.2264 -0.3108
 9445SOL    HW139794   2.780   0.365   1.991 -3.1702  1.1082 -0.5645
 9445SOL    HW239795   2.819   0.364   1.856  0.4261  1.3911  2.0501
 9446SOL     OW39796   3.218   0.738  17.508 -0.0909 -1.1038 -0.3442
 9446SOL    HW139797   3.248   0.651  17.534  1.1295 -1.6580 -3.5250
 9446SOL    HW239798   3.243   0.736  17.415  0.1294 -1.3108 -0.2812
 9447SOL     OW39799   0.142   4.165   7.480  0.8286 -0.0472 -0.3907
 9447SOL    HW139800   0.200   4.161   7.556 -1.0040 -0.8222  0.9660
 9447SOL    HW239801   0.214   4.151   7.419  2.8693 -0.4985  2.1040
 9448SOL     OW39802   0.185   1.769   5.474  0.6649  0.0315 -0.3958
 9448SOL    HW139803   0.167   1.675   5.475 -0.0302  0.1641 -0.5114
 9448SOL    HW239804   0.104   1.791   5.520  0.8171  0.7172 -0.4527
 9449SOL     OW39805   4.551   0.951   7.800 -0.4181  0.3513 -0.0892
 9449SOL    HW139806   4.532   0.915   7.714  2.0737 -0.1182 -0.4307
 9449SOL    HW239807   4.513   0.889   7.862 -0.7288 -0.7329 -1.3769
 9450SOL     OW39808   3.966   2.581   6.274  0.1574 -0.2936  0.8236
 9450SOL    HW139809   3.908   2.517   6.233  1.6502 -0.8908 -0.3392
 9450SOL    HW239810   4.047   2.546   6.239 -0.6088 -1.2857  0.0376
 9451SOL     OW39811   1.555   1.439  15.965  0.5159 -0.3981 -0.0848
 9451SOL    HW139812   1.582   1.373  16.028  1.5233 -0.4197 -0.5431
 9451SOL    HW239813   1.609   1.422  15.889  1.2038  0.2606  0.2509
 9452SOL     OW39814   0.094   1.844   5.094 -0.4775 -0.0132 -0.1816
 9452SOL    HW139815   0.165   1.783   5.113  0.4668  0.8428 -0.9884
 9452SOL    HW239816   0.020   1.784   5.101 -2.2721  2.2498  0.4717
 9453SOL     OW39817   2.122   0.312  13.578 -0.0378 -0.4179 -0.4593
 9453SOL    HW139818   2.136   0.357  13.661  0.8420  0.2375 -0.9618
 9453SOL    HW239819   2.101   0.226  13.614  1.5334  0.4678  2.6309
 9454SOL     OW39820   2.776   1.906   6.358 -0.1031 -0.0487 -0.5410
 9454SOL    HW139821   2.777   2.001   6.349  0.3159  0.0391  0.4219
 9454SOL    HW239822   2.727   1.885   6.279 -0.7756  0.3949 -0.2407
 9455SOL     OW39823   4.195   4.364   2.706  0.3984  0.0528 -0.3706
 9455SOL    HW139824   4.148   4.372   2.623 -2.6169 -3.1939  1.0063
 9455SOL    HW239825   4.266   4.310   2.672 -0.6774 -1.0617 -0.8524
 9456SOL     OW39826   2.967   3.357  10.015  0.2008 -0.0551  0.0292
 9456SOL    HW139827   3.049   3.361   9.967 -0.4706 -0.4599 -1.1411
 9456SOL    HW239828   2.934   3.268  10.002 -2.5135  1.3053 -2.3290
 9457SOL     OW39829   4.717   3.292  12.062 -0.7133 -0.2407  0.4635
 9457SOL    HW139830   4.702   3.301  12.156 -0.8205  0.5796  0.3738
 9457SOL    HW239831   0.004   3.200  12.039 -0.8205 -0.0714 -0.2637
 9458SOL     OW39832   1.898   2.108   4.897  0.4321 -0.3007  0.3334
 9458SOL    HW139833   1.833   2.115   4.827 -1.1663  2.5900  2.1054
 9458SOL    HW239834   1.894   2.014   4.914  0.5174 -0.1927  0.9232
 9459SOL     OW39835   4.660   1.618   9.797 -0.1324  0.4360  0.0498
 9459SOL    HW139836   0.032   1.641   9.788  0.7036 -2.8102  0.6671
 9459SOL    HW239837   4.623   1.687   9.742  0.6975  1.5385  0.8617
 9460SOL     OW39838   1.564   1.385   0.711  0.0995  0.1605 -0.3154
 9460SOL    HW139839   1.601   1.473   0.724 -1.1514  1.1117 -3.1753
 9460SOL    HW239840   1.551   1.384   0.616  0.5223  0.5068 -0.3819
 9461SOL     OW39841   1.136   0.387   0.569 -0.3561 -0.5039 -0.3342
 9461SOL    HW139842   1.206   0.444   0.599 -1.2042  0.2918  0.1413
 9461SOL    HW239843   1.189   0.309   0.554 -0.9638 -0.5880 -2.0877
 9462SOL     OW39844   1.529   2.267   2.020 -0.0040 -0.2087 -0.1187
 9462SOL    HW139845   1.508   2.309   1.936 -2.3600 -0.0240  0.5687
 9462SOL    HW239846   1.463   2.302   2.080  1.2802  0.0166  1.1442
 9463SOL     OW39847   4.704   0.463   8.405 -0.7466  0.1771  0.2761
 9463SOL    HW139848   0.070   0.434   8.380 -0.6250  1.9738 -1.4267
 9463SOL    HW239849   0.006   0.544   8.450  0.0640  0.4383 -0.6098
 9464SOL     OW39850   3.547   1.266  16.238 -0.5259 -0.0756 -0.2979
 9464SOL    HW139851   3.466   1.220  16.216 -0.1290 -0.4207 -1.0032
 9464SOL    HW239852   3.598   1.196  16.277  2.3910  1.8180 -0.6875
 9465SOL     OW39853   2.170   3.543   7.344  0.7088 -0.8925  0.1461
 9465SOL    HW139854   2.167   3.447   7.347 -0.4422 -0.8873 -0.7790
 9465SOL    HW239855   2.186   3.564   7.253  0.1339  0.0572  0.2624
 9466SOL     OW39856   3.595   0.332   3.387 -0.2948 -0.8635 -0.2702
 9466SOL    HW139857   3.604   0.243   3.351  2.4195 -0.1388 -1.3535
 9466SOL    HW239858   3.661   0.331   3.456  1.0319 -0.7611 -1.5346
 9467SOL     OW39859   3.260   0.583  16.686 -0.0522  0.0440  0.5247
 9467SOL    HW139860   3.247   0.649  16.754 -1.6763  0.9696 -0.6566
 9467SOL    HW239861   3.170   0.561  16.660 -1.1165  2.6674  1.9832
 9468SOL     OW39862   0.381   1.709  13.204 -0.1082  0.2275 -0.0621
 9468SOL    HW139863   0.456   1.667  13.246 -1.4389 -2.0575 -0.0186
 9468SOL    HW239864   0.417   1.798  13.203 -2.0094  1.0099  0.1824
 9469SOL     OW39865   0.182   2.558  12.189  0.3427  0.0590 -0.0976
 9469SOL    HW139866   0.189   2.464  12.171 -3.9298 -0.3062  0.3408
 9469SOL    HW239867   0.154   2.591  12.104 -2.8464  0.2514  1.0440
 9470SOL     OW39868   2.997   1.565  13.417  0.7747 -0.5177  0.1038
 9470SOL    HW139869   2.966   1.589  13.504  0.0810  0.6178 -0.4609
 9470SOL    HW239870   3.063   1.633  13.405 -0.8043  0.9661 -0.1113
 9471SOL     OW39871   0.983   3.026   3.062  0.0496 -0.7184  0.1319
 9471SOL    HW139872   1.017   3.114   3.048  0.8284 -0.8886  1.0251
 9471SOL    HW239873   0.988   3.009   2.968 -0.7263 -0.8694  0.1188
 9472SOL     OW39874   0.516   2.960  14.111  0.3897 -0.4405  0.4653
 9472SOL    HW139875   0.470   2.946  14.194 -2.4432 -0.2352 -1.0685
 9472SOL    HW239876   0.482   3.042  14.076  0.9902  0.8262  2.8046
 9473SOL     OW39877   0.312   3.284   3.548  0.2537  0.3437  0.8517
 9473SOL    HW139878   0.405   3.264   3.548  0.1729  0.0259 -1.3329
 9473SOL    HW239879   0.283   3.257   3.461 -0.3083  1.8642  0.5546
 9474SOL     OW39880   1.353   0.883   5.987 -0.2009  0.1934 -0.2222
 9474SOL    HW139881   1.413   0.925   6.049  0.4186  1.6892 -1.8189
 9474SOL    HW239882   1.340   0.941   5.912  2.3210  0.1135 -0.7334
 9475SOL     OW39883   1.200   1.059   9.292  0.5154  0.4235  0.0169
 9475SOL    HW139884   1.222   0.968   9.314  0.9226  0.5093 -0.0335
 9475SOL    HW239885   1.124   1.079   9.347  2.1558  2.4315  1.5612
 9476SOL     OW39886   0.427   1.124   4.202  0.1501 -0.1524 -0.1510
 9476SOL    HW139887   0.426   1.194   4.268 -1.4902  0.0222 -0.3571
 9476SOL    HW239888   0.336   1.127   4.173  0.4386 -1.1598 -1.1339
 9477SOL     OW39889   2.727   4.338  14.880  0.3457 -0.0372 -0.2078
 9477SOL    HW139890   2.671   4.268  14.913  0.8761  0.0966  0.9720
 9477SOL    HW239891   2.810   4.311  14.920 -0.6761 -1.3726  1.0000
 9478SOL     OW39892   0.957   1.075   7.594 -0.7030  0.1180  0.2373
 9478SOL    HW139893   0.992   1.056   7.507 -1.9431  1.6075 -0.5853
 9478SOL    HW239894   0.940   1.168   7.581  1.6495  0.3893 -0.9114
 9479SOL     OW39895   1.587   2.996  13.482  0.4103  0.3511  0.4963
 9479SOL    HW139896   1.503   2.964  13.516 -0.5998  1.2520 -1.1639
 9479SOL    HW239897   1.649   2.964  13.548 -1.5007 -2.4164  0.9603
 9480SOL     OW39898   0.492   1.600  17.603  0.2323  0.2524  0.0409
 9480SOL    HW139899   0.554   1.581  17.532  1.6883 -0.6630  1.5587
 9480SOL    HW239900   0.519   1.690  17.619 -0.1434  0.1145  1.4088
 9481SOL     OW39901   2.155   4.235   6.988 -1.0695 -0.4838  0.2688
 9481SOL    HW139902   2.247   4.222   6.966 -1.6556 -0.3918 -2.2995
 9481SOL    HW239903   2.134   4.172   7.057 -1.2182 -0.3067  0.3870
 9482SOL     OW39904   4.434   4.718   7.395  0.1078  0.3582  0.1143
 9482SOL    HW139905   4.483   0.003   7.477  1.7960  0.7574 -0.9354
 9482SOL    HW239906   4.346   4.701   7.429  0.9463 -0.4955  1.8717
 9483SOL     OW39907   3.710   0.690   8.600 -0.2463  0.4337  0.3014
 9483SOL    HW139908   3.685   0.740   8.522 -1.4564 -0.3742  0.1715
 9483SOL    HW239909   3.642   0.623   8.593 -0.3102  0.5124  0.1543
 9484SOL     OW39910   1.387   0.363   4.094  0.3155 -0.2665 -0.4918
 9484SOL    HW139911   1.440   0.286   4.073  1.8173  0.7191 -0.3039
 9484SOL    HW239912   1.403   0.426   4.024  0.1699 -0.4820 -0.7201
 9485SOL     OW39913   2.816   2.641   8.511 -0.0541  0.5247  0.0220
 9485SOL    HW139914   2.820   2.609   8.421  1.2411  0.2571  0.1658
 9485SOL    HW239915   2.896   2.608   8.552 -1.5237 -0.5312  2.0439
 9486SOL     OW39916   2.452   0.161   7.696 -0.6276  0.4293 -0.3910
 9486SOL    HW139917   2.517   0.159   7.766 -0.1311 -1.1876 -0.8989
 9486SOL    HW239918   2.379   0.168   7.757 -0.2505  0.9368  0.0028
 9487SOL     OW39919   4.343   1.408   9.449 -0.0779 -0.0214 -0.5183
 9487SOL    HW139920   4.284   1.337   9.473  0.2313  0.6361  2.1045
 9487SOL    HW239921   4.425   1.391   9.495 -0.4980 -0.0337  0.2265
 9488SOL     OW39922   3.508   2.084   8.895 -0.6975 -0.5789  0.0876
 9488SOL    HW139923   3.441   2.073   8.963 -2.1573 -2.5564 -1.6798
 9488SOL    HW239924   3.590   2.086   8.945  0.6261  2.3530 -2.2293
 9489SOL     OW39925   0.601   0.043  13.158  0.6509 -0.4362 -0.4114
 9489SOL    HW139926   0.697   0.045  13.155  0.6372  0.8785 -0.0663
 9489SOL    HW239927   0.590   0.069  13.249  1.1993  1.1116 -0.7898
 9490SOL     OW39928   4.612   3.575   8.706  0.2901  0.0517  0.1367
 9490SOL    HW139929   4.550   3.514   8.747  1.5020 -1.8333 -0.8553
 9490SOL    HW239930   4.672   3.595   8.778  0.4458 -1.6213  0.4739
 9491SOL     OW39931   3.353   0.700   3.615 -0.1566 -0.0187  0.0652
 9491SOL    HW139932   3.343   0.661   3.528 -0.7248  3.2215 -1.3311
 9491SOL    HW239933   3.438   0.743   3.613  0.3582 -0.9868  0.9154
 9492SOL     OW39934   2.483   2.973  16.398 -0.8409 -0.6634 -0.7979
 9492SOL    HW139935   2.427   3.023  16.458 -1.2816 -0.6277 -1.2421
 9492SOL    HW239936   2.550   3.040  16.383 -0.3496 -0.7008  1.2156
 9493SOL     OW39937   2.169   2.794   3.031 -0.0654 -0.2335  0.2120
 9493SOL    HW139938   2.161   2.832   3.118 -0.8095 -1.6083  0.7498
 9493SOL    HW239939   2.262   2.773   3.021 -0.6188 -2.5862 -0.0246
 9494SOL     OW39940   0.236   2.849   7.743 -0.1100 -0.4472 -0.3118
 9494SOL    HW139941   0.218   2.822   7.833  1.6877  0.4435  0.3047
 9494SOL    HW239942   0.268   2.938   7.756 -2.0458  0.3174 -0.8058
 9495SOL     OW39943   3.557   1.948  11.929 -0.2144  0.0279  0.0550
 9495SOL    HW139944   3.477   1.993  11.956 -0.3338  0.5269 -1.1363
 9495SOL    HW239945   3.579   1.990  11.846  0.1346  1.1234  0.6973
 9496SOL     OW39946   2.351   4.078   6.714  0.1856 -0.0109 -0.3094
 9496SOL    HW139947   2.279   4.116   6.663  0.5456 -0.5707 -1.2460
 9496SOL    HW239948   2.383   4.146   6.774  1.1845 -0.7115 -0.0575
 9497SOL     OW39949   0.228   1.622   7.012  0.3845  0.8327 -0.1776
 9497SOL    HW139950   0.266   1.637   6.926  2.4359  0.9895  0.7778
 9497SOL    HW239951   0.179   1.541   6.996  2.7355 -0.7587  0.7613
 9498SOL     OW39952   3.936   3.350  15.073 -0.2668  0.0367 -0.1638
 9498SOL    HW139953   4.007   3.322  15.130  0.2067  0.6788 -0.4352
 9498SOL    HW239954   3.935   3.288  14.999 -0.6251  0.3029 -0.3830
 9499SOL     OW39955   0.066   3.689  13.828 -0.5486 -0.0944  0.0475
 9499SOL    HW139956   0.137   3.753  13.833 -0.6340  0.0027  0.0279
 9499SOL    HW239957   0.096   3.647  13.747  0.7586  0.5427  0.1933
 9500SOL     OW39958   2.626   1.995   1.386  0.2681 -0.3131 -0.3326
 9500SOL    HW139959   2.651   1.999   1.294 -0.9342 -0.3255 -0.6631
 9500SOL    HW239960   2.548   1.939   1.391 -1.0469  1.6203  1.2284
 9501SOL     OW39961   1.166   1.602  17.343  0.0488 -0.1362  0.5635
 9501SOL    HW139962   1.238   1.574  17.286  0.0852 -0.2338  0.6565
 9501SOL    HW239963   1.221   1.661  17.395 -0.5309  0.7992  0.1073
 9502SOL     OW39964   4.689   1.966   5.396 -0.7229 -0.4488  0.0903
 9502SOL    HW139965   4.671   1.908   5.470 -2.4523 -1.3737 -1.0575
 9502SOL    HW239966   4.623   1.937   5.332  0.0272 -0.9869 -0.4396
 9503SOL     OW39967   2.149   1.076   2.687 -0.4551 -0.2251  0.5796
 9503SOL    HW139968   2.090   1.008   2.654 -0.0031 -0.7523  0.8478
 9503SOL    HW239969   2.091   1.119   2.751 -0.3964 -0.0448  0.5104
 9504SOL     OW39970   3.576   1.448  17.091 -0.7160 -0.0994  0.1076
 9504SOL    HW139971   3.572   1.477  17.182 -0.9749 -0.2597  0.1470
 9504SOL    HW239972   3.646   1.384  17.094  0.8886  1.6319 -0.5438
 9505SOL     OW39973   2.073   0.060   2.353  0.1717 -0.4798  0.2041
 9505SOL    HW139974   2.073   0.135   2.292  2.1186  0.7049  1.6624
 9505SOL    HW239975   2.076   0.113   2.433 -0.8817 -0.9259  0.5398
 9506SOL     OW39976   2.458   1.628  13.100 -0.0030 -0.6684  0.2491
 9506SOL    HW139977   2.479   1.709  13.148 -1.5468  0.7738 -1.4964
 9506SOL    HW239978   2.443   1.579  13.181 -0.8220 -0.1881  0.3915
 9507SOL     OW39979   1.844   2.366   8.712  0.4362 -0.2007  0.2831
 9507SOL    HW139980   1.852   2.288   8.657 -1.5060 -1.8918  2.4023
 9507SOL    HW239981   1.851   2.431   8.642 -0.7488 -1.7205 -1.2382
 9508SOL     OW39982   0.958   4.286  16.041 -0.4231 -0.2250 -0.2514
 9508SOL    HW139983   0.976   4.208  16.094 -0.0542 -0.4496 -0.7086
 9508SOL    HW239984   0.863   4.281  16.032 -0.3384 -2.7662  0.2370
 9509SOL     OW39985   3.385   4.426   0.631  0.5510  0.6061  0.3134
 9509SOL    HW139986   3.420   4.471   0.554 -0.2005 -0.0082 -0.3801
 9509SOL    HW239987   3.457   4.444   0.692 -0.3505 -0.6827  1.7249
 9510SOL     OW39988   4.028   3.651   7.810  0.2631 -0.3547  0.0991
 9510SOL    HW139989   3.999   3.573   7.764 -0.3746  2.2753 -4.0168
 9510SOL    HW239990   4.100   3.690   7.760  1.6536  0.7932  2.9981
 9511SOL     OW39991   4.604   3.383  13.769  0.6597  0.0706 -0.6235
 9511SOL    HW139992   4.653   3.350  13.694 -0.9054 -2.6233 -0.4140
 9511SOL    HW239993   4.678   3.407  13.826  0.3481  1.7518 -0.9133
 9512SOL     OW39994   4.518   1.519   1.753 -0.1465  0.0853  0.1381
 9512SOL    HW139995   4.440   1.538   1.805  1.8790  3.5950  1.8898
 9512SOL    HW239996   4.547   1.433   1.786  1.3386  0.9244  1.0225
 9513SOL     OW39997   3.243   2.652  12.199 -0.4444 -0.0973 -0.6024
 9513SOL    HW139998   3.199   2.737  12.210  0.0877 -0.1191  1.6641
 9513SOL    HW239999   3.299   2.653  12.276 -0.5019 -0.1567 -0.5605
 9514SOL     OW40000   1.295   2.556   3.028  0.0327 -0.1140  0.4290
 9514SOL    HW140001   1.232   2.590   3.093 -1.8483 -2.1149 -0.3534
 9514SOL    HW240002   1.344   2.637   3.013 -1.0107  0.4604  0.1101
 9515SOL     OW40003   3.894   2.224   2.503  0.2481  0.5025  0.0230
 9515SOL    HW140004   3.938   2.308   2.493  0.4081  0.4525  0.3164
 9515SOL    HW240005   3.841   2.217   2.423  1.2668 -2.5367 -0.3972
 9516SOL     OW40006   0.774   1.845   5.929  0.1193  0.5666  0.2814
 9516SOL    HW140007   0.814   1.759   5.943 -0.2730  0.2969 -0.2457
 9516SOL    HW240008   0.684   1.816   5.938  1.0496 -2.0672  0.9497
 9517SOL     OW40009   2.950   1.700   1.602  0.3791 -0.2482  0.0101
 9517SOL    HW140010   2.999   1.620   1.583  0.7582 -0.1941  0.7809
 9517SOL    HW240011   2.991   1.758   1.537  1.8725 -1.3026  0.0163
 9518SOL     OW40012   2.968   1.110   1.018 -0.2773  0.0693  0.1293
 9518SOL    HW140013   3.041   1.104   1.079  0.3186  1.3470 -0.4560
 9518SOL    HW240014   2.891   1.076   1.064  1.7044 -1.4616  2.2888
 9519SOL     OW40015   3.601   2.599  17.482 -0.5150 -0.2903 -0.3984
 9519SOL    HW140016   3.506   2.610  17.484 -0.4170  0.1759  1.3424
 9519SOL    HW240017   3.635   2.683  17.510  1.1743 -1.1103  0.0216
 9520SOL     OW40018   2.894   0.151   5.525 -0.0217 -0.0701  0.2907
 9520SOL    HW140019   2.888   0.196   5.609  1.6268  0.7836 -0.0509
 9520SOL    HW240020   2.959   0.084   5.548  0.1642 -1.1552 -3.3361
 9521SOL     OW40021   2.089   4.498  10.828  0.1608 -0.2979 -0.2562
 9521SOL    HW140022   2.142   4.442  10.885  0.5184  1.0800  0.7798
 9521SOL    HW240023   2.042   4.434  10.775 -1.3699  0.6717 -0.0610
 9522SOL     OW40024   4.212   2.701   3.523  0.3919  0.3306 -0.3191
 9522SOL    HW140025   4.272   2.665   3.459  0.4283 -2.3444  1.2320
 9522SOL    HW240026   4.196   2.635   3.591 -0.4060  1.0050  0.1506
 9523SOL     OW40027   0.389   3.754   3.450 -0.3728  0.5669 -0.1458
 9523SOL    HW140028   0.333   3.676   3.446 -1.2666  1.1773  0.4185
 9523SOL    HW240029   0.347   3.812   3.386  2.1496  0.5459 -1.7971
 9524SOL     OW40030   2.832   2.875   3.946 -0.4166  0.0492 -0.5281
 9524SOL    HW140031   2.877   2.818   4.009  1.3113  1.9240 -0.0858
 9524SOL    HW240032   2.869   2.956   3.979 -2.6230  0.2630  1.4252
 9525SOL     OW40033   4.032   2.031  11.928  0.4577  0.1241  0.1958
 9525SOL    HW140034   4.119   2.011  11.895  0.4481  0.3477  0.0333
 9525SOL    HW240035   3.971   1.975  11.880  1.0418 -0.3927  0.0587
 9526SOL     OW40036   1.448   1.926   6.112  0.0527  0.4166 -0.4101
 9526SOL    HW140037   1.373   1.931   6.172  0.1495 -0.9028 -0.1810
 9526SOL    HW240038   1.409   1.931   6.025  3.0057  1.3198 -1.6739
 9527SOL     OW40039   3.982   4.495   6.602  0.5796 -0.3877  0.0673
 9527SOL    HW140040   4.010   4.533   6.518  2.5514 -0.7264  0.5809
 9527SOL    HW240041   3.993   4.575   6.654 -1.7075  0.3554 -0.5803
 9528SOL     OW40042   3.669   1.140   6.392  0.3491 -0.5333 -0.1984
 9528SOL    HW140043   3.747   1.156   6.339  0.6741  2.8544  1.3051
 9528SOL    HW240044   3.686   1.051   6.422 -0.4035 -1.1507 -1.5998
 9529SOL     OW40045   1.507   1.931   0.909 -0.7107  0.5523  0.1738
 9529SOL    HW140046   1.504   1.935   0.813 -1.3732 -2.9239  0.0799
 9529SOL    HW240047   1.456   1.852   0.924  0.2560 -0.1275 -0.1472
 9530SOL     OW40048   2.238   2.420  16.629 -0.2305  0.8543 -0.2871
 9530SOL    HW140049   2.268   2.444  16.717 -1.8912  3.1158 -0.3330
 9530SOL    HW240050   2.281   2.486  16.575 -1.8189  1.0374 -1.3146
 9531SOL     OW40051   4.205   3.358  17.468 -0.5079 -0.2998 -0.5306
 9531SOL    HW140052   4.290   3.330  17.435 -0.5512  1.2399 -1.9394
 9531SOL    HW240053   4.160   3.274  17.455 -0.5128 -0.7788  2.4651
 9532SOL     OW40054   0.951   0.433   6.705 -0.3196  0.0994  0.0543
 9532SOL    HW140055   0.954   0.501   6.638  0.5281 -0.8037 -0.8312
 9532SOL    HW240056   1.029   0.454   6.756 -1.1502  1.5764  0.6978
 9533SOL     OW40057   3.170   1.892   9.515 -0.6827  0.8149 -0.6381
 9533SOL    HW140058   3.173   1.805   9.553 -2.0400  1.3750  0.7406
 9533SOL    HW240059   3.210   1.876   9.429 -0.1315 -0.0497 -0.2148
 9534SOL     OW40060   4.061   3.442  10.092  0.2646  0.1223 -0.3145
 9534SOL    HW140061   4.076   3.523  10.141 -2.8646  1.5157 -1.6682
 9534SOL    HW240062   4.070   3.370  10.154  1.7053  0.5089 -0.0723
 9535SOL     OW40063   2.127   4.368   5.045 -0.1462 -0.0417  0.1260
 9535SOL    HW140064   2.082   4.284   5.055 -1.0479  0.3149 -0.8549
 9535SOL    HW240065   2.057   4.429   5.020  0.5772  0.9242  0.4919
 9536SOL     OW40066   4.714   3.532  13.522  0.0917 -0.3347 -0.0906
 9536SOL    HW140067   0.025   3.618  13.494 -0.7843  0.6265  1.8535
 9536SOL    HW240068   0.073   3.508  13.569  0.4133  0.1304 -0.3922
 9537SOL     OW40069   0.042   2.990   6.749  0.1922  0.1401  0.1838
 9537SOL    HW140070   0.056   2.928   6.821 -0.8570 -1.6919 -1.1655
 9537SOL    HW240071   4.670   2.978   6.731  0.3776 -1.2356  0.1415
 9538SOL     OW40072   1.387   3.226   4.610 -0.5286 -0.3574  0.4662
 9538SOL    HW140073   1.313   3.179   4.572 -0.2858  0.7142 -1.2991
 9538SOL    HW240074   1.417   3.265   4.528 -0.3154 -1.5886 -0.0417
 9539SOL     OW40075   4.602   2.104   2.299  0.1737 -0.9500  0.0534
 9539SOL    HW140076   4.520   2.151   2.318 -0.6199 -3.0293  1.8317
 9539SOL    HW240077   4.634   2.150   2.222 -1.6952  0.4713  0.0957
 9540SOL     OW40078   3.444   0.491  17.016 -0.0983  0.1992  0.0683
 9540SOL    HW140079   3.379   0.559  17.035  0.2821  1.2107 -2.2241
 9540SOL    HW240080   3.448   0.450  17.102 -0.5300 -0.6575 -0.3208
 9541SOL     OW40081   4.462   4.103   0.666 -0.0296  0.0968 -0.5664
 9541SOL    HW140082   4.371   4.129   0.684 -0.8591 -1.1732 -2.9657
 9541SOL    HW240083   4.492   4.068   0.749 -0.2468 -2.5264 -1.5828
 9542SOL     OW40084   4.342   2.228   2.925 -0.9396 -0.1526 -0.2232
 9542SOL    HW140085   4.278   2.280   2.877  0.3870  0.5029 -1.2788
 9542SOL    HW240086   4.291   2.155   2.962 -0.2585 -1.2357 -1.4036
 9543SOL     OW40087   1.248   3.433  14.971 -0.4513 -1.3639  0.1413
 9543SOL    HW140088   1.308   3.358  14.960 -0.3800 -1.2055 -0.5064
 9543SOL    HW240089   1.248   3.440  15.067  1.0363 -0.1538  0.0641
 9544SOL     OW40090   2.763   2.296   1.085  0.2781  0.2823 -0.2594
 9544SOL    HW140091   2.780   2.209   1.120 -1.2088  0.2793  0.4575
 9544SOL    HW240092   2.696   2.278   1.019 -1.1314  1.7070  0.7978
 9545SOL     OW40093   1.510   0.369  15.510 -0.1097 -0.6312  0.3789
 9545SOL    HW140094   1.574   0.319  15.562  0.0070 -0.5135  0.3482
 9545SOL    HW240095   1.514   0.335  15.420  1.4400  0.7433 -0.0752
 9546SOL     OW40096   3.606   0.375   2.367 -0.6425 -0.7234  0.0155
 9546SOL    HW140097   3.673   0.427   2.323 -1.7470  1.5456  1.0072
 9546SOL    HW240098   3.594   0.423   2.449 -2.3202  0.2029 -0.7732
 9547SOL     OW40099   4.614   2.095   7.297  0.3642  0.3386  0.3175
 9547SOL    HW140100   4.619   2.183   7.261 -0.4835  0.2994  0.1040
 9547SOL    HW240101   4.579   2.111   7.384  0.0611  2.4004 -0.2032
 9548SOL     OW40102   2.549   0.359   4.014 -0.5138 -0.1845 -0.0023
 9548SOL    HW140103   2.629   0.371   3.962  0.9205  1.2716  2.5706
 9548SOL    HW240104   2.482   0.353   3.945 -1.8246  0.6070  1.1971
 9549SOL     OW40105   3.843   1.536   4.042  0.0147  0.1825 -0.0688
 9549SOL    HW140106   3.766   1.589   4.019  0.4594  1.7031  1.9879
 9549SOL    HW240107   3.908   1.581   3.989 -0.1454 -1.0191 -1.2945
 9550SOL     OW40108   3.288   3.985   4.109  0.0846  0.3705  0.4853
 9550SOL    HW140109   3.329   3.942   4.183  0.5704 -1.4939 -0.8794
 9550SOL    HW240110   3.256   3.901   4.076 -1.4851  0.9890  0.4361
 9551SOL     OW40111   4.378   3.911  12.290 -0.2260  0.0982 -0.1422
 9551SOL    HW140112   4.293   3.956  12.289 -0.7169 -0.7968  0.9077
 9551SOL    HW240113   4.401   3.917  12.382  0.6356  0.8562 -0.4074
 9552SOL     OW40114   1.936   2.312   5.070 -0.2356  0.0625 -0.5147
 9552SOL    HW140115   1.961   2.239   5.013 -2.4121 -1.5526  0.5902
 9552SOL    HW240116   1.859   2.268   5.105 -0.2175 -1.7449 -2.7091
 9553SOL     OW40117   1.625   1.935   6.333 -0.0987 -0.2979  0.4225
 9553SOL    HW140118   1.557   1.945   6.268  2.0739 -0.8284 -1.9383
 9553SOL    HW240119   1.621   1.841   6.347  0.6196 -0.2133  1.2654
 9554SOL     OW40120   4.540   3.504  15.047 -0.4526 -0.5420 -0.7019
 9554SOL    HW140121   4.562   3.597  15.048 -1.1812 -0.3876  1.8246
 9554SOL    HW240122   4.623   3.475  15.085 -0.2056  0.1650 -0.6907
 9555SOL     OW40123   3.275   0.245  12.875  0.4930  0.2130  0.2846
 9555SOL    HW140124   3.333   0.260  12.800  0.9434 -1.9082  0.1993
 9555SOL    HW240125   3.282   0.327  12.924 -0.3591  1.1255 -1.1216
 9556SOL     OW40126   2.974   3.389   7.164 -0.9763  0.0360  0.1251
 9556SOL    HW140127   2.888   3.416   7.198 -1.5506 -3.2453  1.2285
 9556SOL    HW240128   2.993   3.453   7.095 -1.0149 -0.9212 -0.7771
 9557SOL     OW40129   1.469   0.539   6.698  0.7733 -0.3599 -0.1696
 9557SOL    HW140130   1.407   0.537   6.625  1.5019  2.4616 -0.8878
 9557SOL    HW240131   1.548   0.539   6.643 -0.5619 -0.2913 -2.0955
 9558SOL     OW40132   0.317   2.399  16.838 -0.3662  0.5823 -0.2812
 9558SOL    HW140133   0.330   2.342  16.762  0.3695 -0.5211  0.6682
 9558SOL    HW240134   0.274   2.335  16.894 -0.1440 -0.5088 -1.3399
 9559SOL     OW40135   0.553   0.220  16.579 -0.1578  0.1050 -0.1473
 9559SOL    HW140136   0.556   0.272  16.660  1.5874  1.4894 -1.0980
 9559SOL    HW240137   0.590   0.144  16.624  0.0831  0.1710 -0.2323
 9560SOL     OW40138   0.275   1.927  10.647  0.1809  0.2169  0.1823
 9560SOL    HW140139   0.283   1.834  10.624  0.3609  0.0868  0.7825
 9560SOL    HW240140   0.295   1.922  10.740  1.8004  0.9432 -0.1193
 9561SOL     OW40141   4.071   1.767  17.058  0.1029 -0.2054  0.6039
 9561SOL    HW140142   4.150   1.748  17.108 -0.4041 -0.8000  1.1916
 9561SOL    HW240143   4.113   1.784  16.974  1.0114  2.4765  1.6089
 9562SOL     OW40144   2.711   2.041   7.975  0.3967 -0.6693 -0.1461
 9562SOL    HW140145   2.702   1.958   7.927 -0.7478 -1.3834  1.3024
 9562SOL    HW240146   2.771   2.006   8.041  0.0513 -1.8183 -0.4397
 9563SOL     OW40147   3.791   0.691   2.246  0.3032 -0.0503  0.4964
 9563SOL    HW140148   3.824   0.601   2.254  0.9297  0.1045 -0.4658
 9563SOL    HW240149   3.698   0.675   2.229  0.3291  0.0565  0.2706
 9564SOL     OW40150   4.088   1.510   7.404 -0.0200 -0.1492  0.3768
 9564SOL    HW140151   4.165   1.476   7.450 -3.2798 -2.7415  3.8538
 9564SOL    HW240152   4.025   1.533   7.472  0.5693  1.6886  0.3064
 9565SOL     OW40153   0.469   2.056   2.202  0.0177  0.3362 -0.0090
 9565SOL    HW140154   0.522   1.988   2.159  1.4482  1.7371 -0.4809
 9565SOL    HW240155   0.383   2.019   2.183  0.4732 -1.2602  0.9749
   4.72115   4.72115  17.68696
