Membrane in water
40155
    1TCq1    O1    1   0.453   2.956  11.665 -0.0217 -0.3646  0.1689
    1TCq1    C1    2   0.349   2.909  11.592 -0.3273  0.1019  0.0730
    1TCq1    O2    3   0.342   2.913  11.469  0.2438  0.3917 -0.5790
    1TCq1    C2    4   0.268   2.821  11.679 -0.7648 -0.0058 -0.0671
    1TCq1    C3    5   0.265   2.851  11.819  0.5749  0.5804 -0.4875
    1TCq1    C4    6   0.179   2.770  11.890  0.3071  0.7073  0.6967
    1TCq1    C5    7   0.103   2.677  11.831 -0.0637 -0.4331  0.4218
    1TCq1    C6    8   0.123   2.648  11.701 -0.0515 -0.3427 -0.2916
    1TCq1    C7    9   0.197   2.729  11.622  0.5518 -0.0860 -0.1032
    1TCq1    C8   10   0.055   2.526  11.642 -0.8462  0.5073  0.0580
    1TCq1    O4   11   4.714   2.458  11.727  0.2436 -0.2509  0.1011
    1TCq1    C9   12   0.160   2.792  12.029 -0.0334 -0.6425 -0.2824
    1TCq1    O5   13   0.191   2.911  12.062 -0.9066 -0.1825  0.3478
    1TCq1    O6   14   0.062   2.728  12.078 -0.3643 -0.9234  0.8861
    1TCq1    H1   15   0.469   2.904  11.746  1.4904  0.1711  0.2027
    1TCq1    H2   16   0.327   2.927  11.865  2.6114 -2.2054  1.4159
    1TCq1    H3   17   0.041   2.620  11.899  0.0161  0.2638  1.0866
    1TCq1    H4   18   0.215   2.708  11.517  1.6049 -1.5389  0.3584
    2MPD2     C   19   0.004   2.140  11.325  0.7169  0.0676 -0.6018
    2MPD2    C1   20   4.655   2.174  11.440  0.1947  0.0270 -0.1106
    2MPD2    C2   21   4.673   2.299  11.500  0.0295  0.0301  0.2169
    2MPD2    C3   22   0.039   2.390  11.448  0.3854 -0.0017  0.3600
    2MPD2    C4   23   0.095   2.362  11.326 -0.2570 -0.7802 -0.0744
    2MPD2    C5   24   0.086   2.238  11.273 -0.1926 -0.2893 -0.4138
    2MPD2     H   25   4.616   2.320  11.590  1.0956  0.4976  0.7885
    2MPD2    H1   26   0.165   2.431  11.282 -0.1118 -2.5605 -2.6536
    2MPD2    H2   27   4.718   2.047  11.270  0.2027 -0.6855  0.7285
    2MPD2    H3   28   0.153   2.208  11.194  0.5135 -1.1097  0.4999
    2MPD2     N   29   0.076   2.510  11.506 -0.5627  0.2193  0.4488
    2MPD2    H5   30   0.131   2.573  11.448 -1.0856 -1.2098 -1.6265
    2MPD2    N1   31   4.581   2.081  11.517  0.2456  0.0878 -0.4255
    2MPD2    H7   32   4.518   2.112  11.590 -0.1433  0.8139 -1.0760
    3TCq1    O1   33   3.337   2.073  10.824 -0.1158 -0.0801  0.5904
    3TCq1    C1   34   3.466   2.083  10.849  0.1950  0.2075 -0.8866
    3TCq1    O2   35   3.554   2.084  10.761 -0.2416 -0.0269  0.2962
    3TCq1    C2   36   3.478   2.171  10.964  1.0376 -0.2252  0.0205
    3TCq1    C3   37   3.605   2.226  10.977  0.8061 -0.7711  0.1881
    3TCq1    C4   38   3.627   2.306  11.082  0.1377 -0.1435  0.4966
    3TCq1    C5   39   3.528   2.346  11.162 -0.0218 -0.4147  0.9427
    3TCq1    C6   40   3.404   2.295  11.143  0.2143  0.1154  0.1399
    3TCq1    C7   41   3.379   2.207  11.046 -0.1283  0.4860  0.6077
    3TCq1    C8   42   3.304   2.305  11.245 -0.0873  0.3243 -0.3751
    3TCq1    O4   43   3.234   2.215  11.286 -0.0730  0.3871  0.8323
    3TCq1    C9   44   3.766   2.357  11.111 -0.2306 -0.2782  0.3535
    3TCq1    O5   45   3.820   2.378  10.999  0.5224  0.0098  0.2474
    3TCq1    O6   46   3.773   2.436  11.210  0.0281  0.1897 -0.0577
    3TCq1    H1   47   3.278   2.082  10.901 -2.3850  1.7265 -1.3383
    3TCq1    H2   48   3.693   2.184  10.929  0.8763 -0.8176  0.3577
    3TCq1    H3   49   3.549   2.422  11.236 -2.1687  0.4740  0.6405
    3TCq1    H4   50   3.275   2.177  11.033  0.2591 -0.9128  0.6998
    4MPD2     C   51   3.025   2.673  11.514  0.0671 -0.4854 -0.1321
    4MPD2    C1   52   3.106   2.728  11.416  0.1223 -0.3480  0.2217
    4MPD2    C2   53   3.185   2.651  11.341  0.0347 -0.3277  0.0354
    4MPD2    C3   54   3.195   2.508  11.349  0.0017 -0.2219  0.3823
    4MPD2    C4   55   3.110   2.453  11.440 -0.0632  0.5776 -0.0827
    4MPD2    C5   56   3.028   2.534  11.519 -0.0931  0.4810 -0.8246
    4MPD2     H   57   3.243   2.681  11.254 -1.3799  2.4759  0.0842
    4MPD2    H1   58   3.118   2.349  11.467  1.0020  0.4116 -1.0917
    4MPD2    H2   59   2.962   2.730  11.581  0.0129  0.0963 -0.6775
    4MPD2    H3   60   2.953   2.486  11.582  1.1322 -1.0276 -0.4977
    4MPD2     N   61   3.282   2.443  11.261  0.0508 -0.4227  0.9424
    4MPD2    H5   62   3.336   2.507  11.205 -0.6848  0.9383  1.7862
    4MPD2    N1   63   3.115   2.868  11.383  0.1801  0.1078 -0.2793
    4MPD2    H7   64   3.175   2.901  11.308  0.7381 -2.1277 -0.8051
    5TCq1    O1   65   3.362   4.656   9.769 -0.4751 -0.2409  0.2343
    5TCq1    C1   66   3.469   4.631   9.842 -0.1952 -0.5410 -0.3886
    5TCq1    O2   67   3.567   4.704   9.858 -0.3532 -0.3150  0.3019
    5TCq1    C2   68   3.447   4.515   9.928  0.0261 -0.4050  0.3461
    5TCq1    C3   69   3.318   4.465   9.935 -0.1803 -0.0074 -0.1264
    5TCq1    C4   70   3.294   4.363  10.021  0.5489 -0.0732 -0.6666
    5TCq1    C5   71   3.398   4.315  10.097  0.3826 -0.3970 -0.1779
    5TCq1    C6   72   3.529   4.375  10.083  0.4564  0.3263  0.1157
    5TCq1    C7   73   3.555   4.482  10.005 -0.4346 -0.0248 -0.2170
    5TCq1    C8   74   3.640   4.320  10.160 -0.0929  0.2151  0.5741
    5TCq1    O4   75   3.614   4.264  10.265 -0.9814 -0.6039 -0.4797
    5TCq1    C9   76   3.169   4.299  10.032 -0.4049 -0.6972 -0.0395
    5TCq1    O5   77   3.082   4.331   9.947  0.6213 -0.2745 -0.3215
    5TCq1    O6   78   3.152   4.210  10.113 -0.6486 -0.0461  0.3692
    5TCq1    H1   79   3.305   4.582   9.741  1.4894 -1.0928 -1.5338
    5TCq1    H2   80   3.235   4.494   9.872  0.2342 -0.3973 -0.8427
    5TCq1    H3   81   3.387   4.225  10.158 -1.9032 -1.7728 -2.6679
    5TCq1    H4   82   3.650   4.533   9.989  0.0857 -0.2031  2.2072
    6MPD2     C   83   4.000   4.368  10.081  0.5370  0.1585 -0.6861
    6MPD2    C1   84   3.889   4.338  10.160 -0.0025 -0.3377 -0.0208
    6MPD2    C2   85   3.919   4.285  10.282  0.3608 -0.2031 -0.0793
    6MPD2    C3   86   4.048   4.270  10.333  0.5018 -0.1233 -1.1811
    6MPD2    C4   87   4.159   4.302  10.255  0.2846 -0.2255 -0.0105
    6MPD2    C5   88   4.128   4.359  10.137 -0.2138 -0.6038  0.1749
    6MPD2     H   89   3.836   4.280  10.352 -0.2250 -1.4292 -0.8751
    6MPD2    H1   90   4.261   4.294  10.292  0.9956  0.2023 -1.8820
    6MPD2    H2   91   3.985   4.408   9.981 -0.3952  0.0590 -0.5876
    6MPD2    H3   92   4.210   4.403  10.080 -0.6559 -0.3496 -0.2699
    6MPD2     N   93   4.062   4.213  10.461 -0.0675 -0.2526 -0.0128
    6MPD2    H5   94   3.974   4.185  10.502  0.4522 -0.7538  0.7625
    6MPD2    N1   95   3.759   4.349  10.107  0.2483 -0.6536 -0.1629
    6MPD2    H7   96   3.752   4.387  10.013 -1.7762  0.1714  0.3365
    7TCq1    O1   97   1.684   3.726  14.801  0.6096 -0.0116  0.8185
    7TCq1    C1   98   1.606   3.784  14.709  0.0260  0.3550  0.1368
    7TCq1    O2   99   1.642   3.873  14.633  0.0024  0.3413  0.4857
    7TCq1    C2  100   1.493   3.694  14.674 -1.4535 -0.6420  0.4090
    7TCq1    C3  101   1.413   3.633  14.770  0.0138  0.1104  0.7065
    7TCq1    C4  102   1.302   3.574  14.715  0.0318  0.3580 -0.2788
    7TCq1    C5  103   1.273   3.573  14.580  0.6112 -0.7404 -0.3105
    7TCq1    C6  104   1.365   3.619  14.493 -0.1477 -0.0371  0.0354
    7TCq1    C7  105   1.469   3.686  14.536  0.4474 -0.4096 -0.1616
    7TCq1    C8  106   1.347   3.615  14.350  0.7006 -0.2502 -0.1330
    7TCq1    O4  107   1.446   3.593  14.282  0.3951 -0.1621  0.5793
    7TCq1    C9  108   1.204   3.502  14.800 -0.2097  0.6142 -0.1333
    7TCq1    O5  109   1.186   3.381  14.764 -0.2426 -0.1543 -0.0049
    7TCq1    O6  110   1.204   3.544  14.923  0.0835 -0.1761  0.4379
    7TCq1    H1  111   1.658   3.640  14.839 -2.5890  1.2621  1.5137
    7TCq1    H2  112   1.423   3.645  14.877 -0.9465 -0.0624  0.8209
    7TCq1    H3  113   1.180   3.529  14.543 -1.5506  2.6753  1.0285
    7TCq1    H4  114   1.536   3.741  14.471 -0.8641  0.1775 -1.0369
    8MPD2     C  115   1.070   3.459  13.929  0.0619  0.3823  0.0402
    8MPD2    C1  116   1.203   3.456  13.957 -0.0882 -0.2341  0.7365
    8MPD2    C2  117   1.252   3.516  14.074  0.7037  0.0496  0.1600
    8MPD2    C3  118   1.171   3.558  14.177 -0.1267  0.0870  1.0142
    8MPD2    C4  119   1.034   3.574  14.140 -0.5761 -0.1300 -0.1126
    8MPD2    C5  120   0.989   3.522  14.020 -0.4765 -0.0293 -0.4052
    8MPD2     H  121   1.359   3.504  14.086  0.8974  1.7146  0.1012
    8MPD2    H1  122   0.957   3.615  14.204 -0.1353  0.4279  0.0648
    8MPD2    H2  123   1.028   3.437  13.831  0.8835 -3.2502  0.4843
    8MPD2    H3  124   0.886   3.535  13.989 -0.7505  0.1786  0.6055
    8MPD2     N  125   1.215   3.607  14.304  0.7955  0.6622  0.1896
    8MPD2    H5  126   1.142   3.634  14.369 -0.5629  0.7365 -1.3674
    8MPD2    N1  127   1.295   3.405  13.865 -0.1275  0.5403  0.1407
    8MPD2    H7  128   1.389   3.424  13.899 -0.1642  0.7710  0.1118
    9TCq1    O1  129   4.653   2.430  10.962 -0.6058 -0.3820 -0.0398
    9TCq1    C1  130   4.653   2.546  11.033 -0.1866  0.1426 -0.3220
    9TCq1    O2  131   0.033   2.609  11.065 -0.1393 -0.0208  0.4746
    9TCq1    C2  132   4.533   2.556  11.106  0.0173 -0.5209 -0.5667
    9TCq1    C3  133   4.417   2.524  11.037 -0.6617 -0.2222 -0.2777
    9TCq1    C4  134   4.296   2.527  11.107  0.4289  0.1506  0.2883
    9TCq1    C5  135   4.296   2.564  11.238 -0.0656  0.2787 -0.0727
    9TCq1    C6  136   4.412   2.606  11.296  0.1839 -0.4775 -0.1079
    9TCq1    C7  137   4.531   2.602  11.232 -0.0739  0.1055 -0.1879
    9TCq1    C8  138   4.405   2.636  11.441 -0.4029 -1.0659 -0.0443
    9TCq1    O4  139   4.306   2.596  11.500 -0.3542  0.2681 -0.4305
    9TCq1    C9  140   4.162   2.507  11.048 -0.1963  0.5648 -0.4990
    9TCq1    O5  141   4.063   2.526  11.122  0.3933 -0.4826 -1.3870
    9TCq1    O6  142   4.159   2.461  10.928 -0.0966  0.1704  0.8339
    9TCq1    H1  143   4.579   2.369  10.986 -1.2935  1.8249  3.4302
    9TCq1    H2  144   4.413   2.517  10.929  2.3127 -0.0599 -0.3921
    9TCq1    H3  145   4.204   2.568  11.294 -0.5888 -1.2019 -0.8321
    9TCq1    H4  146   4.620   2.635  11.284 -0.2411 -0.5594  0.5223
   10MPD2     C  147   4.598   2.899  11.613  0.3318  0.5960  0.1021
   10MPD2    C1  148   4.504   2.797  11.601  0.9318  0.1045  0.2183
   10MPD2    C2  149   4.409   2.771  11.704 -0.1525 -0.8052 -0.6351
   10MPD2    C3  150   4.426   2.833  11.826  0.6218 -0.1096  0.0374
   10MPD2    C4  151   4.527   2.928  11.840  0.2704 -0.1325  0.2540
   10MPD2    C5  152   4.603   2.967  11.734 -0.5851  1.0163  0.1404
   10MPD2     H  153   4.324   2.705  11.689 -0.7423 -0.0846 -0.4430
   10MPD2    H1  154   4.545   2.973  11.937 -0.3805  2.2269 -0.7086
   10MPD2    H2  155   4.660   2.934  11.531  0.3762  0.7685  0.2090
   10MPD2    H3  156   4.675   3.045  11.754  0.8320 -0.2104 -0.1889
   10MPD2     N  157   4.349   2.809  11.941 -0.0688 -0.0480 -0.0058
   10MPD2    H5  158   4.386   2.849  12.026 -0.9300 -0.7138  0.6862
   10MPD2    N1  159   4.499   2.734  11.475 -0.6348  0.0844 -0.1510
   10MPD2    H7  160   4.574   2.766  11.415 -2.0340  2.3002 -0.6943
   11TCq1    O1  161   0.771   2.132  14.084 -0.7261 -0.0573  0.7621
   11TCq1    C1  162   0.642   2.124  14.118  0.0205  0.4131  0.5385
   11TCq1    O2  163   0.570   2.029  14.133  0.3413 -0.0650  0.1281
   11TCq1    C2  164   0.593   2.252  14.065 -0.0194  0.5525  0.1450
   11TCq1    C3  165   0.652   2.363  14.125 -0.5083  0.3451  0.0993
   11TCq1    C4  166   0.571   2.475  14.137  0.0183  1.0340  0.7480
   11TCq1    C5  167   0.436   2.472  14.108  0.3252  0.2579  0.4650
   11TCq1    C6  168   0.379   2.360  14.049  0.1033  0.4410 -1.0123
   11TCq1    C7  169   0.461   2.249  14.033 -1.0299  0.4085 -0.1411
   11TCq1    C8  170   0.232   2.362  14.017  0.2322 -0.2077 -0.2942
   11TCq1    O4  171   0.167   2.463  14.049  0.2458 -0.1455 -0.4252
   11TCq1    C9  172   0.620   2.600  14.190 -0.6169  0.4633 -0.3457
   11TCq1    O5  173   0.534   2.682  14.237  0.1808  0.2099  0.3429
   11TCq1    O6  174   0.743   2.623  14.197 -0.4257 -0.0335 -0.4769
   11TCq1    H1  175   0.797   2.226  14.086 -0.9460  0.0438 -1.2521
   11TCq1    H2  176   0.754   2.366  14.161 -0.5946  1.3267  0.2659
   11TCq1    H3  177   0.378   2.564  14.115 -1.1507 -0.7603  1.5839
   11TCq1    H4  178   0.418   2.163  13.984 -0.5581  0.4230 -0.5888
   12MPD2     C  179   4.674   2.310  13.938 -0.1876  0.8655  0.3203
   12MPD2    C1  180   0.055   2.221  13.914  0.0301 -0.1361  0.0505
   12MPD2    C2  181   0.027   2.097  13.853 -0.0681 -0.2187  0.4495
   12MPD2    C3  182   4.621   2.069  13.814 -0.2040  0.4583 -0.8741
   12MPD2    C4  183   4.520   2.157  13.839  0.3802  0.4395  0.3685
   12MPD2    C5  184   4.551   2.274  13.899 -0.4359  0.0027 -0.3975
   12MPD2     H  185   0.113   2.032  13.838  0.4055  0.6717 -0.7570
   12MPD2    H1  186   4.418   2.121  13.834  1.8080 -3.6699  0.7255
   12MPD2    H2  187   4.682   2.402  13.995  1.6429  0.0990  1.3085
   12MPD2    H3  188   4.469   2.333  13.938  0.1574  0.0563  0.7969
   12MPD2     N  189   4.580   1.937  13.765  0.0185 -0.4365 -0.1037
   12MPD2    H5  190   4.483   1.915  13.744 -0.3176  0.6999  0.2601
   12MPD2    N1  191   0.187   2.247  13.957 -0.3148 -0.3050  0.5875
   12MPD2    H7  192   0.251   2.177  13.920 -2.2900 -0.6757 -2.1084
   13TCq1    O1  193   4.380   1.788  10.775 -0.1672  0.7199  0.0356
   13TCq1    C1  194   4.296   1.887  10.825 -0.7989  0.6365  0.0229
   13TCq1    O2  195   4.336   1.975  10.906  0.7425 -0.1526  0.3520
   13TCq1    C2  196   4.154   1.854  10.824 -0.1734 -0.4170 -0.3137
   13TCq1    C3  197   4.101   1.782  10.717 -0.6666 -0.0051  0.1060
   13TCq1    C4  198   3.978   1.736  10.734  0.5800  0.3752  0.4470
   13TCq1    C5  199   3.893   1.763  10.837 -0.3786 -0.0019  0.6376
   13TCq1    C6  200   3.953   1.826  10.944 -0.1783  0.4123 -0.2647
   13TCq1    C7  201   4.083   1.874  10.937  0.1540  0.1570 -0.0474
   13TCq1    C8  202   3.869   1.893  11.045  0.0771  0.4124  0.9879
   13TCq1    O4  203   3.916   1.970  11.124 -0.5283  0.1585  0.0082
   13TCq1    C9  204   3.932   1.653  10.624 -0.5411  0.0889 -0.2826
   13TCq1    O5  205   3.810   1.622  10.633  0.1078 -0.4108 -0.7461
   13TCq1    O6  206   4.017   1.594  10.552 -0.6839  0.4866 -0.4370
   13TCq1    H1  207   4.334   1.717  10.724  0.0132  0.6978 -0.0965
   13TCq1    H2  208   4.148   1.779  10.620  1.3254  3.9186  0.9313
   13TCq1    H3  209   3.795   1.715  10.835 -1.9527  3.2087  0.2855
   13TCq1    H4  210   4.127   1.932  11.017  0.6797 -0.8359  0.3897
   14MPD2     C  211   3.511   1.812  11.071 -0.1696  0.1818  0.3729
   14MPD2    C1  212   3.628   1.877  11.108 -0.8763  0.3469  0.2145
   14MPD2    C2  213   3.627   1.956  11.218 -0.5230  0.0447  0.2599
   14MPD2    C3  214   3.505   1.979  11.279 -0.9138  0.0898 -0.2706
   14MPD2    C4  215   3.395   1.914  11.247 -0.1874  0.2118  0.1730
   14MPD2    C5  216   3.397   1.829  11.141  0.4455 -0.3089 -0.3500
   14MPD2     H  217   3.713   2.014  11.250 -1.3209 -0.0787  2.6502
   14MPD2    H1  218   3.304   1.916  11.306 -0.7128  0.4047 -0.6409
   14MPD2    H2  219   3.511   1.749  10.982  1.7815  0.3860  0.2348
   14MPD2    H3  220   3.308   1.768  11.130  1.1689 -1.3064 -0.6986
   14MPD2     N  221   3.514   2.053  11.394  0.1984  0.3827  0.1466
   14MPD2    H5  222   3.605   2.081  11.427  0.9274 -0.7245 -0.9209
   14MPD2    N1  223   3.740   1.849  11.029 -0.1090 -0.3371  0.1647
   14MPD2    H7  224   3.730   1.787  10.950  2.8917 -2.2387  1.2638
   15TCq1    O1  225   0.421   1.630   0.815  0.0634  0.5932  0.0472
   15TCq1    C1  226   0.545   1.641   0.856 -0.3576  0.0117  0.3425
   15TCq1    O2  227   0.640   1.678   0.787 -0.1053  0.9493  0.1950
   15TCq1    C2  228   0.559   1.525   0.946 -0.1357 -0.3698 -1.0075
   15TCq1    C3  229   0.471   1.501   1.047  0.0402 -0.2884  0.4501
   15TCq1    C4  230   0.490   1.388   1.126  0.2799 -0.5219  0.6460
   15TCq1    C5  231   0.598   1.317   1.120  0.0323  0.2158  0.6421
   15TCq1    C6  232   0.689   1.346   1.022 -0.4563  0.2739 -0.4059
   15TCq1    C7  233   0.678   1.455   0.948 -0.5414  0.0837  0.1430
   15TCq1    C8  234   0.786   1.246   0.998 -0.3611 -0.3161 -0.7578
   15TCq1    O4  235   0.896   1.282   0.953  0.0356  0.3246  0.0567
   15TCq1    C9  236   0.402   1.368   1.240 -0.7810  0.0850 -0.1641
   15TCq1    O5  237   0.419   1.258   1.305  0.0368  0.1148  0.4270
   15TCq1    O6  238   0.320   1.459   1.264  0.3350 -0.3626 -0.9770
   15TCq1    H1  239   0.380   1.561   0.872  0.6907 -1.7608 -2.3934
   15TCq1    H2  240   0.391   1.572   1.065 -0.7996 -1.0628 -0.2744
   15TCq1    H3  241   0.623   1.255   1.205  1.1643 -0.6337 -0.3083
   15TCq1    H4  242   0.757   1.470   0.876 -0.3207  1.3570  0.6485
   16MPD2     C  243   0.688   0.900   0.986 -0.2467  0.6027  0.6799
   16MPD2    C1  244   0.777   0.999   0.997  0.1627 -1.1001 -1.0682
   16MPD2    C2  245   0.912   0.978   1.000 -0.6716  0.3422 -0.0614
   16MPD2    C3  246   0.960   0.842   0.994 -0.8206  0.3830 -0.2542
   16MPD2    C4  247   0.865   0.739   0.973 -1.1270 -0.4298  0.3946
   16MPD2    C5  248   0.732   0.775   0.958 -0.5604  0.1094 -0.1013
   16MPD2     H  249   0.982   1.061   1.005  3.7526 -3.3798 -0.1345
   16MPD2    H1  250   0.892   0.635   0.955 -1.8502 -0.3255 -1.3233
   16MPD2    H2  251   0.582   0.924   0.984 -0.4058 -0.4858 -3.5141
   16MPD2    H3  252   0.664   0.694   0.937 -0.6345  0.5905 -1.7771
   16MPD2     N  253   1.095   0.810   1.015  0.4074  0.8264  0.6127
   16MPD2    H5  254   1.145   0.892   1.048  3.3662  0.0344 -1.8925
   16MPD2    N1  255   0.717   1.127   1.005 -0.1451 -0.0295 -0.2637
   16MPD2    H7  256   0.617   1.127   1.018 -0.1436 -0.7319 -0.2439
   17TCq1    O1  257   3.607   1.434  10.819 -0.0977 -0.7698  0.0153
   17TCq1    C1  258   3.708   1.337  10.841 -0.2735  0.5863  0.3246
   17TCq1    O2  259   3.803   1.332  10.763  0.0628 -0.3188  0.9402
   17TCq1    C2  260   3.742   1.354  10.977 -0.2951 -0.1460  0.2380
   17TCq1    C3  261   3.652   1.310  11.068  0.0218  0.1468 -0.8730
   17TCq1    C4  262   3.652   1.366  11.191  0.1249 -0.3306 -0.1079
   17TCq1    C5  263   3.749   1.456  11.228  0.0027  0.7198  0.5676
   17TCq1    C6  264   3.848   1.486  11.145  0.1064  0.3961  0.1400
   17TCq1    C7  265   3.848   1.437  11.011 -0.1215  0.1660 -0.0405
   17TCq1    C8  266   3.961   1.564  11.191  0.1745 -0.4213  0.6626
   17TCq1    O4  267   3.933   1.653  11.270 -0.5035  0.4793  0.0701
   17TCq1    C9  268   3.550   1.314  11.278  0.1663  0.0732  0.2928
   17TCq1    O5  269   3.492   1.211  11.240 -0.3270  0.5769 -0.5298
   17TCq1    O6  270   3.520   1.396  11.371 -0.2931 -0.4448 -0.2427
   17TCq1    H1  271   3.552   1.442  10.900 -0.7728 -1.0070 -0.4192
   17TCq1    H2  272   3.581   1.237  11.029  0.5322 -0.0238 -1.4793
   17TCq1    H3  273   3.744   1.506  11.324 -1.6975 -0.1948  0.9441
   17TCq1    H4  274   3.927   1.459  10.940 -0.6550  1.5785 -0.2094
   18MPD2     C  275   4.220   1.705  11.188  0.4066 -0.1670  0.2625
   18MPD2    C1  276   4.205   1.569  11.162  0.4619 -0.2249  0.2255
   18MPD2    C2  277   4.312   1.500  11.110  0.3065 -0.0291  0.0103
   18MPD2    C3  278   4.434   1.559  11.097  0.1312 -0.1433  0.5503
   18MPD2    C4  279   4.444   1.690  11.138 -0.1152  0.0699 -0.4543
   18MPD2    C5  280   4.340   1.767  11.177  0.0965 -0.0108 -0.1819
   18MPD2     H  281   4.289   1.401  11.071 -0.0231  0.7103 -1.6557
   18MPD2    H1  282   4.537   1.745  11.128 -0.3749  0.1524 -2.5711
   18MPD2    H2  283   4.141   1.766  11.231  0.1438 -0.4842  0.2321
   18MPD2    H3  284   4.349   1.873  11.197 -0.5181 -0.4193  2.2036
   18MPD2     N  285   4.549   1.508  11.034  0.0383 -0.0325 -0.0443
   18MPD2    H5  286   4.628   1.569  11.014 -1.3652  0.5984 -3.7420
   18MPD2    N1  287   4.080   1.509  11.152 -0.5810  0.0389 -0.0509
   18MPD2    H7  288   4.078   1.416  11.112 -0.0573 -0.5269  1.2446
   19TMC2    C1  289   0.823   2.031  14.412  0.6981 -0.0146 -0.1030
   19TMC2    C2  290   0.726   2.101  14.487  0.7444 -0.3717 -0.8878
   19TMC2    C3  291   0.602   2.043  14.500 -0.1330 -0.5774 -0.2269
   19TMC2    C4  292   0.808   1.899  14.381 -0.5785 -0.1803 -0.1848
   19TMC2    C5  293   0.678   1.848  14.391 -0.3367  0.0784  0.1175
   19TMC2    C6  294   0.576   1.921  14.441  0.5995  0.5685 -0.1705
   19TMC2     C  295   0.926   2.117  14.350  0.5806  0.0961 -0.0125
   19TMC2     O  296   0.910   2.235  14.341  0.7396  0.3570  0.1516
   19TMC2     H  297   0.753   2.199  14.525 -0.7604 -0.4938  0.4408
   19TMC2    H1  298   0.884   1.834  14.340 -0.4982 -0.6185  0.6777
   19TMC2    H2  299   0.474   1.886  14.444  0.8164  0.1314  2.9091
   19TMC2    C7  300   0.647   1.731  14.314 -0.4058 -0.2161  0.6381
   19TMC2    C8  301   0.526   2.070  14.619  0.1942  0.2324 -0.0755
   19TMC2    O1  302   0.716   1.632  14.330 -0.1222 -0.3030 -0.3372
   19TMC2    O2  303   0.404   2.056  14.633  0.2367 -0.2483  0.1190
   19TMC2    O5  304   0.620   2.080  14.714 -0.2870 -0.3894 -0.0491
   19TMC2    H5  305   0.709   2.053  14.682  0.8840 -0.0866  2.9466
   20MPD2     C  306   1.192   2.199  14.230 -0.6798  0.6349  0.0712
   20MPD2    C1  307   1.160   2.077  14.281  0.5288 -0.8896  0.1798
   20MPD2    C2  308   1.254   1.981  14.302  0.2448 -0.5416  0.4239
   20MPD2    C3  309   1.385   2.008  14.266  0.7980 -0.8752 -0.2747
   20MPD2    C4  310   1.423   2.130  14.219 -0.2831 -0.3865  0.1465
   20MPD2    C5  311   1.323   2.228  14.209  0.0910  0.4392 -0.0903
   20MPD2     H  312   1.216   1.886  14.336  0.6117 -0.9175 -0.2174
   20MPD2    H1  313   1.525   2.160  14.195 -0.2862  0.0085  0.6142
   20MPD2    H2  314   1.116   2.271  14.203 -1.3965  0.2377  1.0052
   20MPD2    H3  315   1.343   2.324  14.163  2.5146  0.1894  0.4446
   20MPD2     N  316   1.494   1.917  14.296  0.0708 -0.0930  0.6705
   20MPD2    H5  317   1.590   1.947  14.281 -0.9392  2.0837 -1.5657
   20MPD2    N1  318   1.032   2.038  14.330 -0.0417  0.4420 -0.7500
   20MPD2    H7  319   1.030   1.947  14.374  1.0770  0.8558  0.1605
   21MPD2     C  320   3.557   2.793  14.070 -0.5590  0.0546 -0.4824
   21MPD2    C1  321   3.588   2.661  14.057 -0.3080  0.5290 -0.3991
   21MPD2    C2  322   3.528   2.569  14.144  0.4265 -0.1940  0.5624
   21MPD2    C3  323   3.439   2.617  14.240 -0.7047  0.0289 -0.4693
   21MPD2    C4  324   3.399   2.741  14.254 -0.1108 -0.7082 -0.2345
   21MPD2    C5  325   3.456   2.828  14.161  0.0054 -0.1755  0.1932
   21MPD2     H  326   3.547   2.463  14.128  0.4114  0.5135 -3.9870
   21MPD2    H1  327   3.315   2.757  14.321  0.5026 -1.1124  0.6342
   21MPD2    H2  328   3.587   2.875  14.006 -0.5934  0.5256  0.1058
   21MPD2    H3  329   3.417   2.929  14.166  2.0523  0.6244  0.1676
   21MPD2     N  330   3.377   2.522  14.328 -0.2102 -0.9771  0.2519
   21MPD2    H5  331   3.336   2.567  14.409  1.8115 -0.3245  0.9068
   21MPD2    N1  332   3.683   2.604  13.964  0.2129 -0.2505  0.5950
   21MPD2    H7  333   3.698   2.504  13.957  1.6049  0.0056 -0.1320
   22TCq2    C1  334   3.403   2.391  14.342  0.7604  0.3369  0.3988
   22TCq2    O2  335   3.463   2.315  14.272 -0.3217  0.1132 -0.1377
   22TCq2    C2  336   3.326   2.336  14.448 -0.0186  0.0431 -0.4207
   22TCq2    C3  337   3.353   2.209  14.486  0.0380 -0.0524 -0.1955
   22TCq2    C4  338   3.279   2.153  14.583  0.0857 -0.6295  0.4194
   22TCq2    C5  339   3.172   2.219  14.642 -0.1315 -0.0473 -0.8419
   22TCq2    C6  340   3.147   2.351  14.600 -0.1515  0.3244  0.6358
   22TCq2    C7  341   3.223   2.409  14.503 -0.1982 -0.6531 -0.0579
   22TCq2    C8  342   3.089   2.441  14.691 -0.3541  0.3012 -0.1765
   22TCq2    O4  343   3.111   2.426  14.811 -0.3454 -0.4301 -0.0145
   22TCq2    C9  344   3.338   2.034  14.645 -0.4113  0.2404  0.0584
   22TCq2    O5  345   3.278   1.996  14.749 -0.0912 -0.5835  0.1244
   22TCq2    O6  346   3.459   2.012  14.622  0.2966  0.1220  0.4090
   22TCq2    H2  347   3.427   2.147  14.437  0.6596 -0.6809  1.5423
   22TCq2    H3  348   3.122   2.173  14.726  0.4860  1.4282  0.3391
   22TCq2    H4  349   3.204   2.513  14.481  0.7734 -0.4602  0.0212
   23MPD2     C  350   4.628   4.112  15.294 -0.5268 -0.4819 -0.1731
   23MPD2    C1  351   4.576   3.987  15.275 -0.3672 -0.4967 -0.1056
   23MPD2    C2  352   4.509   3.957  15.160 -0.3259 -0.1123 -0.2813
   23MPD2    C3  353   4.499   4.057  15.063  0.1241  0.8871  0.0719
   23MPD2    C4  354   4.557   4.184  15.079 -0.2978 -0.5990 -0.3335
   23MPD2    C5  355   4.619   4.207  15.193  0.3305  0.4594  0.4104
   23MPD2     H  356   4.454   3.864  15.156 -0.5602 -0.0039  0.4879
   23MPD2    H1  357   4.551   4.262  15.004 -2.6680  1.0484  1.5816
   23MPD2    H2  358   4.682   4.127  15.387  0.3937 -1.8320 -0.4881
   23MPD2    H3  359   4.678   4.298  15.199  2.2075 -0.6903 -0.3735
   23MPD2     N  360   4.418   4.035  14.947  0.2958  0.1819  0.2914
   23MPD2    H5  361   4.402   4.112  14.883  2.2695  0.3889  0.0424
   23MPD2    N1  362   4.574   3.892  15.380  0.0720 -0.2801 -0.2892
   23MPD2    H7  363   4.538   3.800  15.354 -0.4071 -0.0646 -0.3905
   24TCq2    C1  364   4.349   3.925  14.914  0.1570 -0.1943  0.9088
   24TCq2    O2  365   4.345   3.811  14.964 -0.2151 -0.2570 -0.0304
   24TCq2    C2  366   4.240   3.955  14.822  0.2486 -0.1021  0.3198
   24TCq2    C3  367   4.187   4.079  14.811 -0.1323 -0.0558  0.0774
   24TCq2    C4  368   4.073   4.087  14.734  0.0839 -0.1339 -0.6192
   24TCq2    C5  369   4.026   3.985  14.663  0.4520  0.4648  0.1390
   24TCq2    C6  370   4.080   3.858  14.676 -0.3810 -0.2513  0.2672
   24TCq2    C7  371   4.192   3.841  14.760 -1.0569  0.4694 -0.3477
   24TCq2    C8  372   4.036   3.745  14.592  0.5957  0.3503  0.0499
   24TCq2    O4  373   4.095   3.643  14.616 -0.7827 -0.0256  0.0743
   24TCq2    C9  374   4.014   4.215  14.710 -0.4494 -0.0224 -0.2810
   24TCq2    O5  375   3.910   4.220  14.641  0.1822 -0.0628 -0.4564
   24TCq2    O6  376   4.076   4.317  14.748  0.0478  0.1279 -0.3626
   24TCq2    H2  377   4.198   4.160  14.882  1.1140  1.1110 -1.4531
   24TCq2    H3  378   3.942   3.996  14.595  1.7598 -0.5564 -1.6453
   24TCq2    H4  379   4.246   3.747  14.768 -0.9318  0.4812 -1.1117
   25TMC2    C1  380   3.018   1.010  11.205  0.8955 -0.4299  0.0991
   25TMC2    C2  381   3.053   1.099  11.101  0.8557  0.1328 -0.0268
   25TMC2    C3  382   3.142   1.184  11.133 -0.0866  0.1321  0.7040
   25TMC2    C4  383   3.059   1.026  11.333  0.0512  0.0059 -0.3707
   25TMC2    C5  384   3.157   1.114  11.359  0.2066  0.5914  0.5318
   25TMC2    C6  385   3.201   1.194  11.256  0.1852 -0.7377  0.4695
   25TMC2     C  386   2.976   0.877  11.180 -0.5207  0.0686  0.2745
   25TMC2     O  387   3.029   0.792  11.245 -0.0174 -0.2256  0.0968
   25TMC2     H  388   3.023   1.079  10.999  0.9293  2.5622 -0.5299
   25TMC2    H1  389   3.006   0.968  11.406 -0.8019  0.0016 -0.9935
   25TMC2    H2  390   3.281   1.264  11.278  1.0845 -1.8215  0.6607
   25TMC2    C7  391   3.190   1.143  11.502  0.0118 -0.5289  0.1684
   25TMC2    C8  392   3.229   1.211  11.018 -0.7844 -0.0853  0.2460
   25TMC2    O1  393   3.094   1.122  11.577 -0.0789  0.1219  0.4107
   25TMC2    O2  394   3.173   1.216  10.908 -0.1033 -0.0085 -0.1325
   25TMC2    O5  395   3.335   1.133  11.055 -0.1740 -0.3680  0.4138
   25TMC2    H5  396   3.374   1.174  11.134 -0.7441 -0.8809  0.9660
   26MPD2     C  397   2.658   0.544  10.945 -0.2374  0.8739 -0.7410
   26MPD2    C1  398   2.649   0.664  10.880  0.5737  0.0406  0.1141
   26MPD2    C2  399   2.722   0.774  10.918 -0.0663 -0.0479  0.1321
   26MPD2    C3  400   2.805   0.765  11.028 -0.0574  0.5410  0.5957
   26MPD2    C4  401   2.825   0.637  11.085  0.1198 -0.2365 -0.5285
   26MPD2    C5  402   2.753   0.527  11.043 -0.1582  0.2033 -0.1149
   26MPD2     H  403   2.704   0.869  10.868  0.4421  0.2841  0.5723
   26MPD2    H1  404   2.888   0.617  11.171  0.1761 -0.7754 -0.6915
   26MPD2    H2  405   2.604   0.453  10.922  0.3289  0.6823 -1.3169
   26MPD2    H3  406   2.767   0.434  11.097  2.0808 -0.0733 -1.1597
   26MPD2     N  407   2.882   0.878  11.073 -0.1043 -0.4208  0.0935
   26MPD2    H5  408   2.875   0.969  11.030  2.3566 -0.1545  0.2549
   26MPD2    N1  409   2.545   0.662  10.785  0.4174  0.2047  0.8787
   26MPD2    H7  410   2.496   0.574  10.776 -2.9249  2.1732 -0.1272
   27TMC2    C1  411   2.280   3.140  12.177  0.0143 -0.4257 -0.0254
   27TMC2    C2  412   2.404   3.207  12.164 -0.3140 -0.9233  0.0570
   27TMC2    C3  413   2.402   3.336  12.129  0.1263  0.0743  0.0308
   27TMC2    C4  414   2.160   3.201  12.163 -0.3308 -0.7212  0.3757
   27TMC2    C5  415   2.165   3.340  12.150 -0.3385 -0.2463 -0.0452
   27TMC2    C6  416   2.284   3.408  12.137 -0.0583 -0.4521  0.2993
   27TMC2     C  417   2.277   3.035  12.273 -0.5535  0.2465  0.7624
   27TMC2     O  418   2.373   2.960  12.293 -0.4293 -0.1077  0.0396
   27TMC2     H  419   2.492   3.148  12.183  0.8094  0.3426 -1.1913
   27TMC2    H1  420   2.070   3.145  12.141 -0.2899 -1.7946  2.8994
   27TMC2    H2  421   2.295   3.516  12.142  0.9182 -0.6140  1.5862
   27TMC2    C7  422   2.091   3.383  12.271 -0.0960  1.0754  0.7866
   27TMC2    C8  423   2.526   3.409  12.132  0.3900 -0.1355 -0.0616
   27TMC2    O1  424   2.044   3.291  12.334 -0.2098 -0.3076  0.8758
   27TMC2    O2  425   2.626   3.395  12.202 -0.7271  0.4976  0.8796
   27TMC2    O5  426   2.505   3.502  12.036  0.1922 -0.1480 -0.0478
   27TMC2    H5  427   2.419   3.490  11.990  0.9870 -0.0544 -1.5365
   28MPD2     C  428   2.033   2.807  12.654  0.2244 -0.0879  0.0670
   28MPD2    C1  429   1.990   2.937  12.649  0.4232 -0.0815 -0.7319
   28MPD2    C2  430   2.042   3.022  12.552 -0.0872  0.3477 -0.4549
   28MPD2    C3  431   2.127   2.967  12.459  0.5099 -0.6804 -0.4350
   28MPD2    C4  432   2.169   2.835  12.464  0.3102  0.2107  0.4217
   28MPD2    C5  433   2.118   2.759  12.559  0.1879 -0.4565 -0.3705
   28MPD2     H  434   2.007   3.123  12.538  0.6067  0.0026 -4.6915
   28MPD2    H1  435   2.241   2.795  12.393  0.9729  0.2350  1.0747
   28MPD2    H2  436   1.996   2.727  12.718  0.4607  0.0810  0.4133
   28MPD2    H3  437   2.144   2.654  12.565 -2.6505 -1.1213  0.4099
   28MPD2     N  438   2.170   3.055  12.356  0.2081  0.1977  0.1238
   28MPD2    H5  439   2.116   3.140  12.346 -1.9222 -0.9321  1.9925
   28MPD2    N1  440   1.881   2.969  12.729  0.1084  0.4075 -0.1247
   28MPD2    H7  441   1.848   2.887  12.780  1.7164  0.1912  0.5856
   29MPD2     C  442   1.827   0.268  14.407 -0.5416  0.5874  0.0589
   29MPD2    C1  443   1.950   0.297  14.473 -0.2180 -0.3535 -0.1347
   29MPD2    C2  444   1.949   0.383  14.580  0.0790 -0.2582  0.3027
   29MPD2    C3  445   1.831   0.448  14.617 -0.6981 -0.1252  0.3442
   29MPD2    C4  446   1.713   0.425  14.551 -0.9878 -0.0078  0.2523
   29MPD2    C5  447   1.710   0.326  14.452 -0.1881  1.3797 -0.0672
   29MPD2     H  448   2.044   0.392  14.630  0.0482  2.1019 -0.0765
   29MPD2    H1  449   1.620   0.466  14.589 -0.6084  0.1410  1.0210
   29MPD2    H2  450   1.828   0.204  14.320 -2.4554 -1.7793  1.7824
   29MPD2    H3  451   1.614   0.285  14.420  0.8155 -0.6779 -0.4032
   29MPD2     N  452   1.828   0.542  14.718  0.2646  0.6414 -0.2179
   29MPD2    H5  453   1.739   0.590  14.729  0.8759  2.1608 -2.0421
   29MPD2    N1  454   2.073   0.237  14.447 -0.2173  0.2078 -0.2079
   29MPD2    H7  455   2.155   0.267  14.499 -1.7639 -1.5902  3.2248
   30TCq2    C1  456   1.928   0.554  14.816 -0.2868  0.0856 -0.1123
   30TCq2    O2  457   2.034   0.496  14.823 -0.5840 -0.0627  0.6516
   30TCq2    C2  458   1.912   0.683  14.881  0.1390 -0.0831 -0.1309
   30TCq2    C3  459   1.942   0.689  15.013  0.3281 -0.4599 -0.4597
   30TCq2    C4  460   1.986   0.809  15.060  0.1047  0.1557  0.6296
   30TCq2    C5  461   2.010   0.917  14.972 -0.0320  0.1050  0.1537
   30TCq2    C6  462   1.975   0.897  14.838 -0.4920  0.9058 -0.3119
   30TCq2    C7  463   1.925   0.782  14.790 -0.3438 -0.8322  0.2918
   30TCq2    C8  464   2.009   1.006  14.750 -0.9687 -0.1614 -0.1508
   30TCq2    O4  465   1.971   0.989  14.633 -0.0645  0.2261  0.4173
   30TCq2    C9  466   2.022   0.817  15.201  0.5459  0.3860 -0.2194
   30TCq2    O5  467   1.986   0.721  15.274  0.0194 -0.1609  0.0539
   30TCq2    O6  468   2.090   0.921  15.240 -0.2228  0.1134 -0.6115
   30TCq2    H2  469   1.919   0.608  15.082 -1.9461  0.1511 -0.5188
   30TCq2    H3  470   2.053   1.008  15.013 -2.1765  0.5084  1.5042
   30TCq2    H4  471   1.915   0.764  14.684 -1.2204 -1.1755  0.4396
   31MPD2     C  472   4.278   4.364  15.168  0.5894 -0.5822 -0.1382
   31MPD2    C1  473   4.203   4.479  15.188 -0.0645 -0.3334 -0.3362
   31MPD2    C2  474   4.118   4.482  15.291 -0.0724  1.0671  0.2052
   31MPD2    C3  475   4.113   4.379  15.387 -0.4238  0.5966 -0.5335
   31MPD2    C4  476   4.196   4.271  15.369  0.1468 -0.2372 -0.2554
   31MPD2    C5  477   4.275   4.265  15.262  0.6140  0.5301 -0.1628
   31MPD2     H  478   4.070   4.579  15.303 -1.8200  0.1386  0.7891
   31MPD2    H1  479   4.205   4.186  15.436 -0.8193  0.7684  1.1326
   31MPD2    H2  480   4.344   4.372  15.082 -1.2867  0.2888 -1.4930
   31MPD2    H3  481   4.339   4.178  15.251 -0.2713 -0.3074  1.3656
   31MPD2     N  482   4.043   4.387  15.510 -0.2941 -0.0550 -0.2883
   31MPD2    H5  483   4.058   4.319  15.583 -2.1739  0.8639  0.9669
   31MPD2    N1  484   4.215   4.579  15.096 -0.4238 -0.2086 -0.5846
   31MPD2    H7  485   4.285   4.560  15.025 -0.4097 -2.7409  0.1062
   32TCq2    C1  486   3.962   4.493  15.549 -0.0661 -0.0781 -0.8380
   32TCq2    O2  487   3.911   4.570  15.465  0.0412  0.7158  0.5634
   32TCq2    C2  488   3.905   4.470  15.679 -0.3899 -0.1147  0.0656
   32TCq2    C3  489   3.777   4.507  15.696  1.1157  0.2358  0.1829
   32TCq2    C4  490   3.707   4.485  15.815  0.2469 -0.7468 -0.3041
   32TCq2    C5  491   3.768   4.419  15.921  0.1508  0.2229 -0.1310
   32TCq2    C6  492   3.903   4.387  15.896 -0.1427 -0.0953  0.3203
   32TCq2    C7  493   3.975   4.409  15.781  0.5219  0.0244  0.8929
   32TCq2    C8  494   3.975   4.359  16.020  0.0033 -0.5318 -0.3658
   32TCq2    O4  495   3.936   4.279  16.105  0.6605  0.3559  0.0335
   32TCq2    C9  496   3.564   4.513  15.822 -0.4789 -0.3570  0.0293
   32TCq2    O5  497   3.501   4.471  15.922 -0.2149 -0.4074  0.5218
   32TCq2    O6  498   3.516   4.576  15.727 -0.6983  0.2335 -0.3789
   32TCq2    H2  499   3.718   4.555  15.619 -0.8398 -1.9185  0.3493
   32TCq2    H3  500   3.713   4.382  16.007  0.2019 -0.5668 -0.4395
   32TCq2    H4  501   4.077   4.381  15.760  0.1657  0.2577 -1.1961
   33MPD2     C  502   0.320   1.659  10.539 -0.8163  0.4401 -0.2993
   33MPD2    C1  503   0.250   1.707  10.646 -0.0507  0.1846 -0.7244
   33MPD2    C2  504   0.212   1.842  10.646  0.8019  0.2324 -0.3990
   33MPD2    C3  505   0.255   1.934  10.546  0.1413 -0.2431 -0.3514
   33MPD2    C4  506   0.338   1.886  10.448 -0.7686  0.9158  0.3583
   33MPD2    C5  507   0.372   1.754  10.452  0.4640 -0.3758 -0.3422
   33MPD2     H  508   0.144   1.879  10.722  1.4527  2.5047 -0.9114
   33MPD2    H1  509   0.363   1.944  10.359 -0.0951 -0.2536 -0.2130
   33MPD2    H2  510   0.345   1.555  10.524  0.1993  0.5347  0.7562
   33MPD2    H3  511   0.441   1.719  10.376  0.3084  1.7872 -1.4808
   33MPD2     N  512   0.203   2.065  10.531 -0.0507  0.2429  0.2676
   33MPD2    H5  513   0.208   2.096  10.434  2.4277 -0.5299  0.1642
   33MPD2    N1  514   0.207   1.627  10.757 -0.3756  0.1126  0.3824
   33MPD2    H7  515   0.138   1.672  10.815  1.1849  0.3979  2.0312
   34TCq2    C1  516   0.110   2.120  10.615  0.1270  0.9146 -0.1183
   34TCq2    O2  517   0.076   2.088  10.729  0.0492  0.0690  0.1150
   34TCq2    C2  518   0.047   2.244  10.568  0.0748  0.0575 -0.6979
   34TCq2    C3  519   4.644   2.274  10.617  0.4592 -0.3330  0.6620
   34TCq2    C4  520   4.573   2.378  10.558 -0.2944  0.7031  0.0344
   34TCq2    C5  521   4.621   2.443  10.448 -0.5783 -0.1796  0.0947
   34TCq2    C6  522   0.027   2.407  10.409 -0.0851 -0.6095 -0.4866
   34TCq2    C7  523   0.104   2.326  10.476  1.3177  0.0473  1.3909
   34TCq2    C8  524   0.087   2.487  10.302 -0.1610 -0.0190 -0.3175
   34TCq2    O4  525   0.201   2.527  10.317 -0.0927 -0.1171 -0.0150
   34TCq2    C9  526   4.440   2.411  10.606 -0.5286 -0.4691 -0.8747
   34TCq2    O5  527   4.400   2.525  10.574  0.0845 -0.1943  0.0381
   34TCq2    O6  528   4.386   2.343  10.689  0.5313 -0.0603 -0.2135
   34TCq2    H2  529   4.595   2.224  10.699  0.1686 -0.2326  0.5494
   34TCq2    H3  530   4.557   2.498  10.380 -2.4940  0.9328  2.7922
   34TCq2    H4  531   0.201   2.298  10.435 -0.1464 -0.8729 -1.4606
   35MPD2     C  532   1.753   3.778  11.878 -0.3476  0.2607  0.3644
   35MPD2    C1  533   1.731   3.647  11.922  0.2558  0.2693  0.5052
   35MPD2    C2  534   1.669   3.564  11.827  0.1745  0.3659  0.0767
   35MPD2    C3  535   1.615   3.613  11.716 -0.3243  0.1712 -0.1378
   35MPD2    C4  536   1.620   3.751  11.684  0.2807  0.0424 -0.2460
   35MPD2    C5  537   1.690   3.830  11.769  0.9377  0.4250 -0.0747
   35MPD2     H  538   1.662   3.456  11.833  1.1835  0.2582 -0.6170
   35MPD2    H1  539   1.582   3.792  11.591  0.5676  0.8151 -0.0240
   35MPD2    H2  540   1.816   3.842  11.939  0.5890 -1.1977  0.9452
   35MPD2    H3  541   1.705   3.933  11.739  1.4056  0.9828  2.0865
   35MPD2     N  542   1.545   3.523  11.629  0.8689  0.1491  0.2209
   35MPD2    H5  543   1.529   3.431  11.668  0.4490  0.0102 -0.2784
   35MPD2    N1  544   1.772   3.607  12.050  0.1931 -0.1395  0.3209
   35MPD2    H7  545   1.790   3.682  12.117  1.8252  0.2363 -0.5472
   36TCq2    C1  546   1.482   3.542  11.510  0.5103  0.1854 -0.4173
   36TCq2    O2  547   1.498   3.638  11.432  0.1542 -0.2932 -0.2737
   36TCq2    C2  548   1.429   3.417  11.457  0.1173 -0.3448 -0.6641
   36TCq2    C3  549   1.347   3.414  11.346 -0.1252 -0.3422 -0.2520
   36TCq2    C4  550   1.276   3.309  11.313  0.0432  0.5126  0.1737
   36TCq2    C5  551   1.292   3.185  11.379  0.5638 -0.9312  0.8440
   36TCq2    C6  552   1.384   3.187  11.482  0.9929 -0.1021 -0.5513
   36TCq2    C7  553   1.449   3.298  11.527  0.1294 -0.5711 -0.7183
   36TCq2    C8  554   1.414   3.053  11.532  0.6657 -0.1731  0.2248
   36TCq2    O4  555   1.363   2.966  11.464 -0.1713 -0.3303  0.7380
   36TCq2    C9  556   1.184   3.321  11.202  0.8020  0.0925 -0.0634
   36TCq2    O5  557   1.104   3.226  11.195  0.2151  0.7872  0.5841
   36TCq2    O6  558   1.166   3.434  11.154  0.5126  0.0349 -0.2591
   36TCq2    H2  559   1.342   3.505  11.286 -0.3598 -1.5802 -2.0991
   36TCq2    H3  560   1.222   3.110  11.343 -1.3602  0.2973  2.0628
   36TCq2    H4  561   1.516   3.281  11.611  0.9971  0.0679 -1.2742
   37TMC2    C1  562   3.432   3.258  11.715  0.5031  0.3449  0.2130
   37TMC2    C2  563   3.444   3.288  11.583 -0.3248 -0.9372 -0.4049
   37TMC2    C3  564   3.566   3.332  11.540  0.0244 -0.5523 -0.0947
   37TMC2    C4  565   3.533   3.276  11.805  0.6129 -0.0071 -0.5970
   37TMC2    C5  566   3.646   3.346  11.761  0.0787  0.9404  0.0012
   37TMC2    C6  567   3.666   3.373  11.624 -0.0793 -0.5307 -0.2156
   37TMC2     C  568   3.303   3.226  11.766 -0.2736 -0.8140  0.7213
   37TMC2     O  569   3.223   3.190  11.679  0.2126 -0.5495 -0.0183
   37TMC2     H  570   3.365   3.252  11.518 -2.9870  0.7078  1.9120
   37TMC2    H1  571   3.536   3.232  11.904 -1.4137  0.9135 -0.1472
   37TMC2    H2  572   3.753   3.425  11.586 -0.5522  2.1565  2.4295
   37TMC2    C7  573   3.753   3.360  11.862 -0.9864  0.2544  0.3562
   37TMC2    C8  574   3.578   3.343  11.394 -0.0645  0.2324  0.5604
   37TMC2    O1  575   3.711   3.359  11.976 -0.0687  0.4001  0.0236
   37TMC2    O2  576   3.485   3.373  11.322 -0.5474  0.3544 -0.3185
   37TMC2    O5  577   3.704   3.301  11.357 -0.4625 -0.3030  0.6260
   37TMC2    H5  578   3.745   3.248  11.429  1.1774  0.6612  0.4041
   38MPD2     C  579   3.027   3.144  12.194  0.2286 -0.0152 -0.6170
   38MPD2    C1  580   3.152   3.171  12.225  0.5379  0.8168  0.3833
   38MPD2    C2  581   3.230   3.214  12.122 -0.2538 -0.2152  0.6055
   38MPD2    C3  582   3.196   3.215  11.990 -0.5750  0.0489 -0.4996
   38MPD2    C4  583   3.066   3.196  11.958 -0.8299 -0.5667  0.0286
   38MPD2    C5  584   2.987   3.149  12.062  0.3629  0.3036 -0.3191
   38MPD2     H  585   3.332   3.241  12.151 -0.3228  1.6724 -0.8914
   38MPD2    H1  586   3.027   3.201  11.857  0.8226  0.6494 -0.5599
   38MPD2    H2  587   2.953   3.119  12.270  0.3682 -0.0357 -0.4888
   38MPD2    H3  588   2.880   3.132  12.049  0.6957 -3.5622  2.2185
   38MPD2     N  589   3.295   3.257  11.899 -0.0787 -0.7758  1.0968
   38MPD2    H5  590   3.380   3.281  11.948  0.5941 -0.9282  0.0073
   38MPD2    N1  591   3.206   3.172  12.358  0.0467 -0.3134 -0.4101
   38MPD2    H7  592   3.306   3.188  12.365  0.1048 -0.2098 -1.4510
   39MPD2     C  593   1.633   0.489   1.403 -0.5760  0.2031 -0.4953
   39MPD2    C1  594   1.533   0.578   1.437 -0.2191 -0.3533 -0.0364
   39MPD2    C2  595   1.398   0.549   1.403  0.1220 -0.1518  0.7181
   39MPD2    C3  596   1.363   0.425   1.343 -0.6710  0.5625 -0.0775
   39MPD2    C4  597   1.466   0.341   1.304  0.4052 -0.0980  0.5964
   39MPD2    C5  598   1.600   0.372   1.337  0.1081 -0.2388  0.3362
   39MPD2     H  599   1.321   0.624   1.420 -0.1220  0.4120 -2.9708
   39MPD2    H1  600   1.441   0.241   1.270  0.7427  0.4216 -1.1613
   39MPD2    H2  601   1.731   0.507   1.444 -1.3603  0.7609  1.1007
   39MPD2    H3  602   1.678   0.299   1.318  0.2201 -0.1732  0.5492
   39MPD2     N  603   1.236   0.383   1.301 -0.5054 -0.2755 -0.0709
   39MPD2    H5  604   1.222   0.296   1.251 -2.4744 -0.7760  1.3666
   39MPD2    N1  605   1.575   0.688   1.519 -0.1112  0.1793 -0.1761
   39MPD2    H7  606   1.673   0.698   1.541 -0.0313 -1.2285  0.1316
   40TCq2    C1  607   1.496   0.780   1.583 -0.0970  0.0791 -0.4420
   40TCq2    O2  608   1.374   0.770   1.584  0.8413 -0.4507 -0.1175
   40TCq2    C2  609   1.564   0.887   1.651 -0.5708 -0.4701  0.8138
   40TCq2    C3  610   1.483   0.985   1.710  0.6153 -0.0010  0.8030
   40TCq2    C4  611   1.541   1.099   1.758  0.1998  0.0704  0.2503
   40TCq2    C5  612   1.682   1.119   1.747 -0.2823 -0.0657 -0.1088
   40TCq2    C6  613   1.755   1.022   1.685  0.3568  0.8561 -0.0096
   40TCq2    C7  614   1.696   0.908   1.640 -0.2524  0.2679  0.3631
   40TCq2    C8  615   1.896   1.018   1.710 -0.2226  0.3387 -0.2905
   40TCq2    O4  616   1.958   0.914   1.700 -0.5668  0.2321 -0.0445
   40TCq2    C9  617   1.465   1.195   1.835 -0.1168 -0.0318 -0.1515
   40TCq2    O5  618   1.341   1.194   1.810 -0.6624 -0.0778 -0.5508
   40TCq2    O6  619   1.522   1.288   1.897 -0.4054  0.3260  0.2952
   40TCq2    H2  620   1.378   0.962   1.726  0.5686 -0.1055  0.3699
   40TCq2    H3  621   1.723   1.209   1.791  2.5863 -2.1054  1.3848
   40TCq2    H4  622   1.768   0.833   1.610 -1.3289 -1.4096  1.9209
   41TMC2    C1  623   0.409   3.775  14.293 -0.9537  0.1248 -0.0837
   41TMC2    C2  624   0.334   3.665  14.283 -0.7296  0.3152  0.2621
   41TMC2    C3  625   0.351   3.579  14.174  0.4076  0.0343 -0.1440
   41TMC2    C4  626   0.506   3.800  14.193 -0.1616  0.2679  0.1168
   41TMC2    C5  627   0.523   3.712  14.086  0.3186 -0.4349 -0.2450
   41TMC2    C6  628   0.444   3.603  14.077  0.0772 -1.1554 -0.0362
   41TMC2     C  629   0.349   3.890  14.361 -0.4756 -0.1501 -0.7683
   41TMC2     O  630   0.380   3.998  14.320 -0.4599 -0.5822  0.2821
   41TMC2     H  631   0.246   3.656  14.346 -0.1743 -2.5578  0.6354
   41TMC2    H1  632   0.575   3.883  14.202 -1.0062  0.8627  1.0648
   41TMC2    H2  633   0.454   3.527  14.001  0.3969 -1.6936  0.5401
   41TMC2    C7  634   0.648   3.711  14.013 -0.0462  0.1372 -0.7084
   41TMC2    C8  635   0.244   3.482  14.164  0.0548  0.3976  0.1600
   41TMC2    O1  636   0.742   3.741  14.084 -0.1896 -0.0980  0.0409
   41TMC2    O2  637   0.192   3.421  14.261  0.1719  0.3241 -0.0748
   41TMC2    O5  638   0.205   3.472  14.038 -0.1366  0.1809  0.3644
   41TMC2    H5  639   0.253   3.532  13.977 -1.4922  1.8152  0.8853
   42MPD2     C  640   0.189   4.084  14.519 -0.1465 -0.3595  0.0795
   42MPD2    C1  641   0.230   3.961  14.570 -0.1560 -0.4379  0.8380
   42MPD2    C2  642   0.199   3.934  14.704  0.3303  0.1171 -0.4107
   42MPD2    C3  643   0.148   4.030  14.787 -0.4373 -0.0722 -0.1660
   42MPD2    C4  644   0.118   4.150  14.737 -0.4664 -0.5390 -0.1836
   42MPD2    C5  645   0.143   4.180  14.603  0.0879 -0.4953  0.0511
   42MPD2     H  646   0.237   3.846  14.756 -4.0394 -2.8819 -2.3112
   42MPD2    H1  647   0.079   4.224  14.805 -1.4426 -1.1288 -0.1118
   42MPD2    H2  648   0.202   4.103  14.413 -1.1318  0.8593  0.1759
   42MPD2    H3  649   0.113   4.279  14.570 -0.0954 -0.6077 -0.1253
   42MPD2     N  650   0.122   4.015  14.924  0.3409 -0.4488 -0.0528
   42MPD2    H5  651   0.089   4.095  14.978 -2.6673 -0.7815 -1.3831
   42MPD2    N1  652   0.296   3.862  14.487 -0.0213  0.2093 -0.0879
   42MPD2    H7  653   0.304   3.767  14.521  1.1147 -0.0557 -1.1343
   43MPD2     C  654   2.217   1.851   0.026  0.7019  0.2433  0.5482
   43MPD2    C1  655   2.216   1.737   0.099 -0.2633 -0.3346  0.3551
   43MPD2    C2  656   2.175   1.748   0.227 -0.6459 -0.1855 -1.3961
   43MPD2    C3  657   2.154   1.871   0.293 -0.0874 -0.4410  0.5310
   43MPD2    C4  658   2.155   1.985   0.221  0.4556  0.9252  0.1897
   43MPD2    C5  659   2.188   1.973   0.087  0.9390 -0.6100  0.3024
   43MPD2     H  660   2.175   1.662   0.293 -0.6208  0.6172 -0.3395
   43MPD2    H1  661   2.134   2.079   0.271 -1.2244  0.5093  0.2768
   43MPD2    H2  662   2.238   1.850  17.606  2.0210 -0.9047  0.8378
   43MPD2    H3  663   2.192   2.056   0.018  0.9510 -0.1450  0.8636
   43MPD2     N  664   2.109   1.890   0.426  0.4091  0.3084  0.0412
   43MPD2    H5  665   2.092   1.981   0.467 -2.6466 -0.1791 -0.1330
   43MPD2    N1  666   2.255   1.609   0.055 -0.1110 -0.0127  0.1344
   43MPD2    H7  667   2.267   1.541   0.130  0.9205 -0.4952 -0.4671
   44TCq2    C1  668   2.043   1.694   0.989  0.2085  0.0854  0.0786
   44TCq2    O2  669   2.086   1.582   0.968  0.0704  0.1803  0.5168
   44TCq2    C2  670   2.014   1.780   0.876 -0.5443 -0.2552  0.0193
   44TCq2    C3  671   1.950   1.895   0.901 -0.1549 -0.2283  0.6938
   44TCq2    C4  672   1.924   1.973   0.792 -0.1472  0.2158  0.3859
   44TCq2    C5  673   1.979   1.935   0.668  0.2315  0.0379  0.8406
   44TCq2    C6  674   2.059   1.825   0.656  0.0758  0.4523 -0.3428
   44TCq2    C7  675   2.073   1.744   0.760 -0.7711  0.2367 -1.4164
   44TCq2    C8  676   2.100   1.784   0.521  0.4775 -0.3244  0.0903
   44TCq2    O4  677   2.121   1.666   0.510 -0.2190  0.3863  0.3317
   44TCq2    C9  678   1.837   2.086   0.802 -0.1526 -0.2314  0.6523
   44TCq2    O5  679   1.803   2.154   0.699  0.3240  0.0228  1.0628
   44TCq2    O6  680   1.795   2.110   0.920  0.1558 -0.2377  0.2700
   44TCq2    H2  681   1.882   1.905   0.985 -1.3862 -0.0187 -0.3421
   44TCq2    H3  682   1.951   1.999   0.585  0.9157 -2.6690 -1.4758
   44TCq2    H4  683   2.140   1.660   0.752 -1.8609 -0.9203  1.6382
   45TMC2    C1  684   3.202   3.770   9.478  0.0862  0.3914 -0.3549
   45TMC2    C2  685   3.318   3.841   9.499  0.8905  0.0551 -0.2477
   45TMC2    C3  686   3.310   3.978   9.500  0.4301 -0.5525 -0.4289
   45TMC2    C4  687   3.083   3.832   9.457 -0.0690 -0.3837 -0.3203
   45TMC2    C5  688   3.083   3.969   9.467 -0.0049 -0.0765 -0.6998
   45TMC2    C6  689   3.195   4.047   9.493  0.9727 -0.2921 -0.9214
   45TMC2     C  690   3.200   3.634   9.531 -0.8714  0.2666 -0.1892
   45TMC2     O  691   3.259   3.611   9.634 -0.1169  0.3752  0.1471
   45TMC2     H  692   3.404   3.785   9.534 -0.0182 -1.6838 -0.7552
   45TMC2    H1  693   2.997   3.779   9.418 -1.1917  0.5485  0.8915
   45TMC2    H2  694   3.196   4.155   9.503  2.1584 -0.4485  0.5762
   45TMC2    C7  695   2.960   4.034   9.417 -0.4826 -0.8605  0.4085
   45TMC2    C8  696   3.415   4.060   9.566  1.1153  0.4750 -0.4197
   45TMC2    O1  697   2.899   3.990   9.318  0.1018  0.2003  0.0123
   45TMC2    O2  698   3.394   4.151   9.645 -0.1377 -0.1706  0.4693
   45TMC2    O5  699   3.527   3.988   9.564 -0.4069 -0.2579 -0.2225
   45TMC2    H5  700   3.536   3.945   9.477 -1.1723  0.3961 -0.6241
   46MPD2     C  701   3.086   3.375   9.629  0.1013 -0.2612  0.5475
   46MPD2    C1  702   3.058   3.431   9.508 -0.0022 -0.1987  0.3616
   46MPD2    C2  703   2.960   3.381   9.428  0.2406  0.4774  0.5562
   46MPD2    C3  704   2.901   3.257   9.458 -0.1372  0.6576  0.8757
   46MPD2    C4  705   2.947   3.184   9.572  0.1189 -0.0235 -0.1726
   46MPD2    C5  706   3.037   3.247   9.659  0.0316  0.2290 -0.4501
   46MPD2     H  707   2.926   3.438   9.343 -0.9665 -1.5109 -0.2895
   46MPD2    H1  708   2.917   3.083   9.599 -2.3812  0.1223 -2.3886
   46MPD2    H2  709   3.158   3.420   9.697 -0.0091  0.2324  0.3420
   46MPD2    H3  710   3.063   3.185   9.743  2.0440  0.6626 -0.7560
   46MPD2     N  711   2.799   3.215   9.376  1.0004 -0.0737  0.1480
   46MPD2    H5  712   2.749   3.288   9.324 -0.3445  0.6852  2.5061
   46MPD2    N1  713   3.111   3.554   9.473 -0.6002  0.3901  0.1591
   46MPD2    H7  714   3.072   3.598   9.391  0.8241 -0.1663 -0.8104
   47TMC2    C1  715   4.522   3.602   9.354  0.0365 -0.1270 -0.2920
   47TMC2    C2  716   4.626   3.538   9.291  0.5262  0.9264  0.6852
   47TMC2    C3  717   4.611   3.413   9.247 -0.7105  0.7393  0.0352
   47TMC2    C4  718   4.398   3.544   9.354  0.3895  0.2913  0.3417
   47TMC2    C5  719   4.382   3.420   9.295 -0.4532 -0.2329 -0.2420
   47TMC2    C6  720   4.486   3.358   9.235 -0.6926  0.1711  0.1626
   47TMC2     C  721   4.519   3.737   9.398 -0.0887  0.1395 -0.1629
   47TMC2     O  722   4.407   3.789   9.419 -0.0002 -0.0961  0.1655
   47TMC2     H  723   0.008   3.574   9.297  1.1153 -1.0639  2.5892
   47TMC2    H1  724   4.307   3.592   9.390 -0.0206  1.6488 -2.4675
   47TMC2    H2  725   4.461   3.267   9.182  0.0337 -0.6775  1.2826
   47TMC2    C7  726   4.264   3.342   9.318 -0.3476  0.6101 -0.2565
   47TMC2    C8  727   4.719   3.365   9.156 -0.0270  0.0568  0.3475
   47TMC2    O1  728   4.277   3.229   9.358  0.2466  0.7333  0.1326
   47TMC2    O2  729   0.073   3.448   9.101 -0.5608 -0.0490  0.5891
   47TMC2    O5  730   4.700   3.235   9.130  0.4629 -0.3846 -0.3163
   47TMC2    H5  731   4.655   3.191   9.205 -1.0096  3.3482  0.9522
   48MPD2     C  732   4.601   4.020   9.431  0.9815 -0.5763 -0.2655
   48MPD2    C1  733   4.688   3.914   9.409 -0.0350 -0.4336 -0.1892
   48MPD2    C2  734   0.103   3.932   9.402  0.2137 -0.7303 -0.4605
   48MPD2    C3  735   0.158   4.056   9.414 -0.4360  0.2489 -0.1634
   48MPD2    C4  736   0.073   4.162   9.434  0.3801 -0.1391 -0.3576
   48MPD2    C5  737   4.656   4.146   9.443  0.5456 -0.4948 -0.3580
   48MPD2     H  738   0.170   3.852   9.373  0.9094 -2.0855  4.7555
   48MPD2    H1  739   0.105   4.265   9.441 -1.6342  0.4589 -0.0435
   48MPD2    H2  740   4.494   4.008   9.446  1.1333 -0.0472  1.2522
   48MPD2    H3  741   4.603   4.240   9.449  1.8437  0.2959 -1.4162
   48MPD2     N  742   0.301   4.064   9.411 -0.1225  0.3814 -0.3605
   48MPD2    H5  743   0.359   3.982   9.395  0.2092  0.1080  2.1315
   48MPD2    N1  744   4.643   3.780   9.400  0.2616 -0.9043  0.1129
   48MPD2    H7  745   4.714   3.715   9.367 -2.1902 -2.8287 -1.3752
   49MPD2     C  746   2.564   1.137  10.083 -0.5458 -0.3933  0.2264
   49MPD2    C1  747   2.659   1.213  10.013 -0.9895  0.4499  0.3428
   49MPD2    C2  748   2.762   1.275  10.085  0.5119 -0.1740 -0.8016
   49MPD2    C3  749   2.772   1.263  10.224  0.3949  1.0453 -0.1685
   49MPD2    C4  750   2.673   1.190  10.289  0.1261 -0.2133 -0.1846
   49MPD2    C5  751   2.573   1.132  10.217  0.6449 -0.4574  0.0708
   49MPD2     H  752   2.836   1.331  10.028  0.3284  1.6888  0.7912
   49MPD2    H1  753   2.687   1.169  10.394 -0.9745  0.4112  0.0834
   49MPD2    H2  754   2.480   1.092  10.031 -0.8807  0.9140 -0.3393
   49MPD2    H3  755   2.500   1.070  10.269  0.2368 -0.9453 -1.0774
   49MPD2     N  756   2.883   1.303  10.304 -0.1452  0.4982 -0.1103
   49MPD2    H5  757   2.854   1.306  10.402  2.0954 -1.7019  0.5991
   49MPD2    N1  758   2.667   1.225   9.873  0.4210 -0.2558  0.7526
   49MPD2    H7  759   2.745   1.284   9.846  0.7802 -0.1923  1.9030
   50TCq2    C1  760   2.584   1.167   9.788  0.7656 -0.1355 -0.4398
   50TCq2    O2  761   2.481   1.107   9.805 -0.6891 -0.1125  0.6138
   50TCq2    C2  762   2.610   1.202   9.648 -0.2502 -0.2996  0.1698
   50TCq2    C3  763   2.741   1.236   9.600 -0.2693 -0.5770 -0.6609
   50TCq2    C4  764   2.754   1.294   9.474 -0.2598 -0.3500  0.4584
   50TCq2    C5  765   2.643   1.300   9.391  0.4132 -0.5549  0.0319
   50TCq2    C6  766   2.523   1.255   9.441  0.0292  0.2200  0.3127
   50TCq2    C7  767   2.505   1.215   9.570  0.3404  0.1959  0.2128
   50TCq2    C8  768   2.416   1.256   9.349 -0.0575 -0.2444  0.3644
   50TCq2    O4  769   2.440   1.291   9.229  0.0556 -0.4529 -0.0662
   50TCq2    C9  770   2.881   1.331   9.420  0.5783  0.6456  0.0823
   50TCq2    O5  771   2.977   1.338   9.501  0.9685 -0.5140  0.0802
   50TCq2    O6  772   2.895   1.356   9.297 -0.0599  0.5477 -0.1168
   50TCq2    H2  773   2.832   1.237   9.658 -2.0729 -1.6595  2.1904
   50TCq2    H3  774   2.655   1.338   9.291  1.4479 -3.3269 -0.8820
   50TCq2    H4  775   2.409   1.220   9.621 -1.5611  0.8565 -3.4075
   51MPD2     C  776   3.581   4.679   0.375  0.5543 -0.0900 -0.3012
   51MPD2    C1  777   3.618   4.567   0.435  0.1577  0.0619  0.0826
   51MPD2    C2  778   3.646   4.565   0.569 -0.2003 -0.8558  0.0356
   51MPD2    C3  779   3.636   4.680   0.647  0.4577 -0.4008 -0.6053
   51MPD2    C4  780   3.584   0.074   0.579 -0.1188  0.0456  0.0960
   51MPD2    C5  781   3.556   0.069   0.446  0.2558 -0.6756  0.2864
   51MPD2     H  782   3.668   4.468   0.611 -3.1125 -1.4793  0.1635
   51MPD2    H1  783   3.570   0.174   0.621  0.4946  0.5692 -0.9452
   51MPD2    H2  784   3.538   4.679   0.275  0.1717  0.4366 -0.1341
   51MPD2    H3  785   3.514   0.154   0.393  1.5228  1.2400  2.3728
   51MPD2     N  786   3.657   4.690   0.793 -0.2780 -0.0719  0.2714
   51MPD2    H5  787   3.652   0.063   0.830  0.2810 -0.0065  0.1875
   51MPD2    N1  788   3.603   4.446   0.363 -0.3520 -0.4006 -0.0702
   51MPD2    H7  789   3.623   4.362   0.417  1.0070  1.4040  2.2625
   52TCq2    C1  790   3.705   4.590   0.873  0.4085  0.3895  0.3465
   52TCq2    O2  791   3.721   4.474   0.846 -0.0373  0.1206  0.2327
   52TCq2    C2  792   3.736   4.609   1.008 -0.3530 -0.2343  0.0949
   52TCq2    C3  793   3.813   4.516   1.068 -0.4808 -0.1740 -0.1177
   52TCq2    C4  794   3.829   4.531   1.203  0.4229 -0.2810  0.5722
   52TCq2    C5  795   3.786   4.644   1.267  0.0817 -0.1132 -0.2304
   52TCq2    C6  796   3.707   0.017   1.203  0.0097  0.0423  0.3248
   52TCq2    C7  797   3.670   4.715   1.074  0.1478  0.0878 -0.5436
   52TCq2    C8  798   3.698   0.154   1.253  0.5559 -0.3382 -0.7776
   52TCq2    O4  799   3.735   0.182   1.366 -0.9420  0.0632  0.3516
   52TCq2    C9  800   3.907   4.431   1.278  0.3233 -0.2087 -0.3630
   52TCq2    O5  801   3.938   4.458   1.396 -0.1625  0.1422 -0.1886
   52TCq2    O6  802   3.918   4.323   1.217 -0.4939  0.4996 -0.5412
   52TCq2    H2  803   3.860   4.429   1.023  0.5843  0.5690 -0.4340
   52TCq2    H3  804   3.798   4.659   1.374  0.5333  3.7580 -0.8388
   52TCq2    H4  805   3.595   0.055   1.025  0.6556  0.0905 -1.3173
   53TMC2    C1  806   4.135   3.423  12.479 -0.0877 -0.0738  0.1458
   53TMC2    C2  807   4.219   3.400  12.580  0.2230 -0.2793 -1.2304
   53TMC2    C3  808   4.170   3.376  12.707  0.4590 -0.5656 -0.4903
   53TMC2    C4  809   3.999   3.437  12.500 -0.0569 -0.0395 -0.6253
   53TMC2    C5  810   3.955   3.424  12.624 -0.3177 -0.4564 -0.4104
   53TMC2    C6  811   4.035   3.403  12.732  0.0045 -0.3370 -0.6152
   53TMC2     C  812   4.186   3.441  12.342  0.8591 -0.0847 -0.2705
   53TMC2     O  813   4.310   3.438  12.333  0.5116 -0.0665 -0.1844
   53TMC2     H  814   4.322   3.375  12.560  0.8801  1.2604  0.2540
   53TMC2    H1  815   3.935   3.474  12.421 -0.2571  2.4151  0.7097
   53TMC2    H2  816   3.998   3.405  12.833 -1.7549  2.0160 -1.2963
   53TMC2    C7  817   3.818   3.439  12.638 -0.6610 -1.0395 -0.0623
   53TMC2    C8  818   4.259   3.382  12.815 -0.4101  0.6013 -0.0939
   53TMC2    O1  819   3.763   3.492  12.541 -0.4642 -0.1520 -0.5397
   53TMC2    O2  820   4.213   3.341  12.919 -0.2467  0.0253 -0.1228
   53TMC2    O5  821   4.344   3.486  12.800  0.1542  0.1940 -0.0450
   53TMC2    H5  822   4.378   3.516  12.713 -1.6648 -0.1210 -0.8637
   54MPD2     C  823   4.225   3.484  12.052  0.1386  1.1532  0.3906
   54MPD2    C1  824   4.103   3.449  12.111 -0.9906 -0.3480 -0.5562
   54MPD2    C2  825   3.989   3.420  12.033  0.4662  0.5727 -0.0701
   54MPD2    C3  826   3.993   3.428  11.897 -0.2683 -0.9005  0.3279
   54MPD2    C4  827   4.115   3.466  11.838  0.0574  0.3188  0.5442
   54MPD2    C5  828   4.225   3.493  11.915  0.1306 -0.0497  0.1175
   54MPD2     H  829   3.901   3.381  12.084  0.0393  2.9789  1.0377
   54MPD2    H1  830   4.131   3.477  11.732  0.7677  2.2583  0.8379
   54MPD2    H2  831   4.323   3.493  12.098  0.1656 -1.8739  0.9676
   54MPD2    H3  832   4.319   3.506  11.862  0.5006 -2.7091  0.0810
   54MPD2     N  833   3.881   3.393  11.813  0.1770  0.2790  0.0818
   54MPD2    H5  834   3.892   3.379  11.713  1.1671 -1.0821  0.3841
   54MPD2    N1  835   4.080   3.434  12.250  0.3043 -0.2367 -0.2227
   54MPD2    H7  836   3.985   3.413  12.278  0.2883  0.9511  0.6575
   55MPD2     C  837   4.692   1.226  17.501 -0.4909  0.5118 -0.0425
   55MPD2    C1  838   4.656   1.151  17.611 -0.6025 -0.4112 -0.2049
   55MPD2    C2  839   4.538   1.178  17.679 -0.7321 -0.0336  0.3499
   55MPD2    C3  840   4.454   1.276  17.627 -0.2677  0.3433 -0.3025
   55MPD2    C4  841   4.485   1.354  17.517 -0.8553  0.1096  0.1212
   55MPD2    C5  842   4.602   1.319  17.448 -0.3971 -0.5326  0.0919
   55MPD2     H  843   4.506   1.131   0.085  1.2238 -0.3260  0.8762
   55MPD2    H1  844   4.414   1.427  17.481 -1.3473 -1.0272 -1.2648
   55MPD2    H2  845   0.069   1.207  17.461 -0.7455  1.3835 -1.0886
   55MPD2    H3  846   4.634   1.385  17.368 -0.8286  1.5223  1.6437
   55MPD2     N  847   4.329   1.285   0.014  0.1222 -0.1640  0.2663
   55MPD2    H5  848   4.319   1.224   0.094 -2.3494  0.3514  0.3525
   55MPD2    N1  849   0.019   1.050  17.659 -0.2120 -0.4823 -0.3086
   55MPD2    H7  850   0.099   1.034  17.598 -0.0144  0.2047 -0.2329
   56TCq2    C1  851   0.001   0.965   0.076 -0.1843 -0.8720  0.2661
   56TCq2    O2  852   4.653   0.983   0.177  0.1242 -0.5078 -0.3540
   56TCq2    C2  853   0.114   0.871   0.089 -0.0334 -0.4365  0.7817
   56TCq2    C3  854   0.190   0.835  17.668  0.0103  0.3711 -0.4180
   56TCq2    C4  855   0.307   0.761   0.003  0.1065  0.0429  0.2083
   56TCq2    C5  856   0.328   0.706   0.123  0.5163 -0.0249  0.3880
   56TCq2    C6  857   0.243   0.726   0.231 -0.1857  0.5034 -0.8540
   56TCq2    C7  858   0.137   0.813   0.214  0.5342 -0.4669 -1.1346
   56TCq2    C8  859   0.252   0.640   0.350  0.3095 -0.2901  0.0691
   56TCq2    O4  860   0.357   0.580   0.362  0.6174  0.0126 -0.4235
   56TCq2    C9  861   0.397   0.721  17.573 -0.0232 -0.1258 -0.1896
   56TCq2    O5  862   0.491   0.641  17.598 -0.4359  0.1814  0.0940
   56TCq2    O6  863   0.366   0.756  17.458  0.1441 -0.3115 -0.3408
   56TCq2    H2  864   0.170   0.874  17.569 -0.9299 -1.3849 -0.9283
   56TCq2    H3  865   0.409   0.634   0.132 -0.3031 -1.1356 -1.1532
   56TCq2    H4  866   0.070   0.827   0.298 -1.1428 -1.7604 -2.2557
   57TMC2    C1  867   3.418   2.388  13.024  0.1706 -0.8858 -0.6427
   57TMC2    C2  868   3.497   2.472  12.956 -0.2731 -0.8450  1.1142
   57TMC2    C3  869   3.601   2.418  12.876 -0.9387  0.4561  0.0804
   57TMC2    C4  870   3.455   2.257  13.032  0.4550  0.2795  0.1033
   57TMC2    C5  871   3.561   2.208  12.959  1.1780 -0.3840  1.0522
   57TMC2    C6  872   3.630   2.285  12.877  0.1651  0.1703  0.3354
   57TMC2     C  873   3.328   2.442  13.115 -0.1950  0.7810  0.1109
   57TMC2     O  874   3.233   2.366  13.144  0.0082  0.6882 -0.2622
   57TMC2     H  875   3.465   2.574  12.937  0.0168 -0.8893  0.4069
   57TMC2    H1  876   3.393   2.187  13.087  1.2509  2.2999  3.5008
   57TMC2    H2  877   3.701   2.259  12.799 -1.2666 -2.0088 -0.2582
   57TMC2    C7  878   3.577   2.069  12.946  0.7354 -0.8256  0.2520
   57TMC2    C8  879   3.619   2.469  12.741 -0.5454 -0.2809  0.9129
   57TMC2    O1  880   3.476   2.005  12.970 -0.1120  0.0724 -0.3373
   57TMC2    O2  881   3.551   2.425  12.650 -0.6549 -0.6462  0.8089
   57TMC2    O5  882   3.753   2.491  12.730 -0.4082  0.3659 -0.4189
   57TMC2    H5  883   3.788   2.524  12.816 -2.2896 -0.4486  0.6467
   58MPD2     C  884   3.025   2.840  13.239  0.5334  0.1708  0.7769
   58MPD2    C1  885   2.989   2.712  13.215  0.1143 -0.3755 -0.3791
   58MPD2    C2  886   3.088   2.613  13.199  0.4073 -0.3962 -0.1052
   58MPD2    C3  887   3.222   2.656  13.179  0.0803 -0.6848  0.7841
   58MPD2    C4  888   3.257   2.786  13.205  0.2191  0.4239  0.3968
   58MPD2    C5  889   3.158   2.873  13.239 -0.3672 -0.1514  0.4526
   58MPD2     H  890   3.053   2.514  13.172 -2.6966  0.8254 -0.6295
   58MPD2    H1  891   3.359   2.821  13.203  0.2963  0.0760 -1.5575
   58MPD2    H2  892   2.952   2.917  13.260  0.0844 -0.0010 -0.1938
   58MPD2    H3  893   3.186   2.973  13.268 -2.6049  0.5543  0.1536
   58MPD2     N  894   3.330   2.577  13.130  0.1704  0.1559 -0.0408
   58MPD2    H5  895   3.413   2.632  13.113 -0.1923  0.9879  0.8349
   58MPD2    N1  896   2.858   2.665  13.239  0.1547  0.2579  0.3123
   58MPD2    H7  897   2.843   2.564  13.240 -0.1802  0.2907 -1.4755
   59MPD2     C  898   1.508   2.461  13.450  0.0845  0.0912  0.2758
   59MPD2    C1  899   1.583   2.529  13.355 -0.6222 -0.1789  0.8561
   59MPD2    C2  900   1.668   2.622  13.401 -0.7106 -0.2950  0.0644
   59MPD2    C3  901   1.690   2.655  13.539 -0.0509  0.5870 -0.0982
   59MPD2    C4  902   1.608   2.586  13.627  0.8321 -0.1377  0.0714
   59MPD2    C5  903   1.523   2.484  13.581  0.5007 -0.0922 -0.5216
   59MPD2     H  904   1.732   2.670  13.328  0.8170  0.3804  1.8531
   59MPD2    H1  905   1.627   2.597  13.734 -1.0702  2.7131  0.1157
   59MPD2    H2  906   1.437   2.388  13.416 -1.2566  0.8238  1.4757
   59MPD2    H3  907   1.455   2.423  13.639  0.1883  0.4769 -0.2878
   59MPD2     N  908   1.781   2.754  13.590 -0.1074 -0.4267 -0.1238
   59MPD2    H5  909   1.785   2.766  13.691 -3.6446  3.6565 -0.4821
   59MPD2    N1  910   1.561   2.496  13.220 -0.1343 -0.4081  0.7638
   59MPD2    H7  911   1.495   2.420  13.205  1.5198 -1.8870  1.0087
   60TCq2    C1  912   1.597   2.570  13.112 -0.5062 -0.2164 -0.0848
   60TCq2    O2  913   1.670   2.669  13.107 -0.2230  0.6326  0.7326
   60TCq2    C2  914   1.564   2.506  12.988  0.0432  0.7506  1.0040
   60TCq2    C3  915   1.470   2.405  12.980 -0.5569 -0.6657  0.2089
   60TCq2    C4  916   1.438   2.361  12.855 -0.8415 -0.0451 -0.4221
   60TCq2    C5  917   1.501   2.395  12.744 -0.2159  0.1608 -0.0295
   60TCq2    C6  918   1.597   2.488  12.755  0.0191 -0.3116 -0.0343
   60TCq2    C7  919   1.623   2.559  12.873 -0.4096  0.2091  0.1022
   60TCq2    C8  920   1.683   2.516  12.644 -0.0777  0.0163 -0.2049
   60TCq2    O4  921   1.728   2.423  12.582  0.2454  0.0888  0.3100
   60TCq2    C9  922   1.342   2.256  12.840 -0.4872  0.2705  0.2024
   60TCq2    O5  923   1.309   2.197  12.945  0.2492  0.7029  0.4866
   60TCq2    O6  924   1.309   2.223  12.724 -0.4120  0.1196  0.0305
   60TCq2    H2  925   1.401   2.379  13.060 -0.9561 -2.1762 -0.6354
   60TCq2    H3  926   1.480   2.346  12.650 -1.7488  0.8008 -0.0326
   60TCq2    H4  927   1.683   2.650  12.873 -1.1403  0.6954  0.2384
   61MPD2     C  928   0.594   4.036  14.737 -0.2778 -0.2463 -0.8878
   61MPD2    C1  929   0.686   4.085  14.824  0.3575  0.1379 -0.4274
   61MPD2    C2  930   0.752   4.204  14.801 -0.0394 -1.0144  0.2203
   61MPD2    C3  931   0.729   4.276  14.689  0.2145  0.1333 -0.1092
   61MPD2    C4  932   0.641   4.220  14.592  0.8295  0.4260  0.3813
   61MPD2    C5  933   0.579   4.106  14.617 -0.6440 -0.0668 -0.3918
   61MPD2     H  934   0.810   4.247  14.882  1.3608 -2.4487 -0.0160
   61MPD2    H1  935   0.625   4.266  14.495  1.4492 -0.1390  0.0114
   61MPD2    H2  936   0.529   3.950  14.745  0.9605 -1.1097 -0.1812
   61MPD2    H3  937   0.498   4.076  14.551 -0.6571 -3.1911  1.0698
   61MPD2     N  938   0.784   4.401  14.677  0.0347 -0.2003  0.4265
   61MPD2    H5  939   0.857   4.429  14.742  0.4439 -0.8028  0.2234
   61MPD2    N1  940   0.690   4.035  14.959  0.5639 -0.1100 -0.2527
   61MPD2    H7  941   0.761   4.069  15.022  0.9261  1.6807 -1.6317
   62TCq2    C1  942   0.615   3.938  15.018  0.6003  0.2532 -0.0195
   62TCq2    O2  943   0.513   3.873  14.981 -0.2846 -0.2445 -0.2619
   62TCq2    C2  944   0.630   3.958  15.157  0.8047  0.7721 -0.0148
   62TCq2    C3  945   0.615   3.855  15.239  0.2658  0.2656 -0.0526
   62TCq2    C4  946   0.605   3.886  15.374 -0.2960  0.2280 -0.7628
   62TCq2    C5  947   0.618   4.012  15.429  1.0487  0.1879 -0.2874
   62TCq2    C6  948   0.638   4.109  15.339  0.2766  0.3449 -0.8415
   62TCq2    C7  949   0.645   4.090  15.201  0.5388 -1.1662  0.8219
   62TCq2    C8  950   0.671   4.247  15.381  0.3415  0.9354  0.3388
   62TCq2    O4  951   0.735   4.303  15.291 -0.0721  0.3245  0.5736
   62TCq2    C9  952   0.585   3.786  15.471  0.3729 -0.0362 -0.3632
   62TCq2    O5  953   0.602   3.816  15.591  0.6105 -0.3503 -0.5268
   62TCq2    O6  954   0.573   3.664  15.428  0.0361 -0.6198  0.4410
   62TCq2    H2  955   0.605   3.757  15.195 -1.1741 -0.0750  1.0452
   62TCq2    H3  956   0.616   4.033  15.536  2.3211 -1.6377  0.0825
   62TCq2    H4  957   0.629   4.178  15.141 -0.8875 -1.5078  0.7221
   63TMC2    C1  958   0.122   4.175  10.522  0.5937  0.3713 -1.1830
   63TMC2    C2  959   0.099   4.308  10.483 -0.0111 -0.3174  0.5901
   63TMC2    C3  960   0.058   4.328  10.356 -0.8090 -0.1750  0.0417
   63TMC2    C4  961   0.071   4.072  10.443 -0.1808 -0.4326  0.2610
   63TMC2    C5  962   0.047   4.098  10.312  0.3102  1.2801  0.4039
   63TMC2    C6  963   0.041   4.233  10.264 -0.3377 -0.1715 -0.8187
   63TMC2     C  964   0.145   4.153  10.663  0.4518 -0.4758  0.0832
   63TMC2     O  965   0.134   4.251  10.736 -0.1911 -0.0904  0.6700
   63TMC2     H  966   0.124   4.387  10.552  0.8173 -2.1008  2.3233
   63TMC2    H1  967   0.067   3.967  10.471  1.4549 -0.1679  1.4548
   63TMC2    H2  968   4.717   4.259  10.169 -1.0637 -0.0056 -0.4279
   63TMC2    C7  969   0.017   3.990  10.225  0.1495  0.4859  0.8461
   63TMC2    C8  970   0.057   4.462  10.305  0.0421 -0.5419 -0.0932
   63TMC2    O1  971   4.707   3.883  10.276  0.2951  0.2603 -0.2812
   63TMC2    O2  972   0.059   4.563  10.372  0.1758  0.3106 -0.2181
   63TMC2    O5  973   0.088   4.463  10.177  0.0366  0.0162 -0.3288
   63TMC2    H5  974   0.117   4.375  10.143 -0.5773 -0.7357  1.1140
   64MPD2     C  975   0.279   3.827  11.048  0.0864 -0.8378  0.1166
   64MPD2    C1  976   0.284   3.759  10.927 -0.6328 -0.7774 -0.0523
   64MPD2    C2  977   0.255   3.822  10.811 -0.0338 -0.1424 -0.4615
   64MPD2    C3  978   0.210   3.956  10.813 -0.3340  0.1024  0.4470
   64MPD2    C4  979   0.220   4.034  10.927 -0.1131 -0.7210 -0.3294
   64MPD2    C5  980   0.256   3.964  11.045 -0.5150 -0.6054  1.0612
   64MPD2     H  981   0.273   3.763  10.722 -1.3006  0.4755 -1.1371
   64MPD2    H1  982   0.194   4.137  10.947 -1.4030 -0.8936 -1.1526
   64MPD2    H2  983   0.311   3.780  11.140  1.4199 -1.4939 -0.6650
   64MPD2    H3  984   0.277   4.020  11.135  0.9706 -0.7447  0.7970
   64MPD2     N  985   0.175   4.020  10.690  0.6928  0.0545  0.4725
   64MPD2    H5  986   0.170   3.962  10.607 -0.6449 -1.4532  1.5908
   64MPD2    N1  987   0.315   3.622  10.920  0.0956  0.5231 -0.4593
   64MPD2    H7  988   0.331   3.574  10.832 -1.9989 -0.6455 -0.1746
   65MPD2     C  989   2.008   3.356  15.672  0.1835  0.4096  0.0251
   65MPD2    C1  990   1.976   3.304  15.545 -0.8503 -0.5148 -0.2876
   65MPD2    C2  991   1.963   3.170  15.527 -0.3462  0.5160 -0.5324
   65MPD2    C3  992   1.979   3.082  15.629 -0.5234 -0.7302  0.3104
   65MPD2    C4  993   2.007   3.133  15.758  0.1723 -0.1962 -0.4121
   65MPD2    C5  994   2.023   3.270  15.775  0.1580 -0.1153  0.1169
   65MPD2     H  995   1.919   3.146  15.431 -0.3414 -1.0426 -0.1438
   65MPD2    H1  996   2.024   3.062  15.839 -1.6666  1.0201  1.0485
   65MPD2    H2  997   2.012   3.463  15.691 -1.1737  0.8892 -2.3399
   65MPD2    H3  998   2.044   3.312  15.873 -0.0640  3.2334 -1.3002
   65MPD2     N  999   1.952   2.946  15.608  0.4328  0.3409 -0.6232
   65MPD2    H5 1000   1.913   2.907  15.693  0.6799 -0.8570 -1.0647
   65MPD2    N1 1001   1.935   3.386  15.435  0.0906  0.4172  0.1093
   65MPD2    H7 1002   1.896   3.333  15.358 -2.3855 -0.2909  1.8841
   66TCq2    C1 1003   1.926   3.519  15.432  0.2936 -0.6889 -0.0756
   66TCq2    O2 1004   1.952   3.594  15.524 -0.1338  0.3694 -0.0899
   66TCq2    C2 1005   1.840   3.558  15.324  0.4875  0.4010  0.1244
   66TCq2    C3 1006   1.831   3.486  15.209  0.2512  0.8090 -0.5827
   66TCq2    C4 1007   1.752   3.529  15.102 -0.4394  0.0414 -0.1703
   66TCq2    C5 1008   1.672   3.627  15.126 -0.2706  0.1449 -0.4441
   66TCq2    C6 1009   1.673   3.686  15.248  1.3120 -0.1687 -0.4054
   66TCq2    C7 1010   1.759   3.658  15.348 -0.2577 -0.0268  0.1372
   66TCq2    C8 1011   1.573   3.789  15.250 -0.3685 -0.3464  0.4754
   66TCq2    O4 1012   1.538   3.832  15.142  0.0942 -0.2521 -0.4504
   66TCq2    C9 1013   1.740   3.458  14.981 -0.0776 -0.6695 -0.2431
   66TCq2    O5 1014   1.660   3.490  14.889 -0.1073  0.5512 -0.2531
   66TCq2    O6 1015   1.804   3.350  14.974  0.5001  0.0132  0.1730
   66TCq2    H2 1016   1.899   3.404  15.187 -1.1294  0.0616 -2.0866
   66TCq2    H3 1017   1.599   3.647  15.048  0.1964  0.2676 -0.8480
   66TCq2    H4 1018   1.756   3.720  15.436 -1.1204 -0.9053  0.7299
   67MPD2     C 1019   1.650   2.567  14.151  0.5238 -0.4997  0.6803
   67MPD2    C1 1020   1.644   2.693  14.200  0.3478 -0.0226  0.2804
   67MPD2    C2 1021   1.564   2.788  14.138 -0.3797  0.3194 -0.1275
   67MPD2    C3 1022   1.494   2.762  14.014  0.4100  0.5357 -0.2622
   67MPD2    C4 1023   1.501   2.633  13.968  0.3371  0.4586 -0.4035
   67MPD2    C5 1024   1.578   2.542  14.035  0.2695 -0.1846 -0.8186
   67MPD2     H 1025   1.570   2.887  14.183 -1.1364 -1.2627  3.4335
   67MPD2    H1 1026   1.443   2.596  13.884 -0.5731  0.2786  0.3026
   67MPD2    H2 1027   1.702   2.482  14.193  2.5632  0.1934 -0.4497
   67MPD2    H3 1028   1.559   2.444  13.992  1.4101 -1.0240  0.5910
   67MPD2     N 1029   1.393   2.853  13.965  0.7085  0.1729  0.1227
   67MPD2    H5 1030   1.339   2.819  13.887 -0.1821 -0.1233  0.8752
   67MPD2    N1 1031   1.708   2.740  14.317  0.0241 -0.5599 -0.2243
   67MPD2    H7 1032   1.695   2.839  14.336  1.3300 -1.1078  3.6421
   68TCq2    C1 1033   1.789   2.665  14.400  0.0846  0.0146  0.0903
   68TCq2    O2 1034   1.812   2.541  14.395 -0.6168 -0.0258  0.1268
   68TCq2    C2 1035   1.854   2.745  14.506  0.9270 -0.1852  0.3960
   68TCq2    C3 1036   1.781   2.859  14.548  0.0637  0.4290 -0.1451
   68TCq2    C4 1037   1.810   2.914  14.668 -0.6213  0.2733 -0.4339
   68TCq2    C5 1038   1.903   2.856  14.748 -0.5662  0.1618  0.1664
   68TCq2    C6 1039   1.964   2.734  14.715  0.0687  0.2320  0.5508
   68TCq2    C7 1040   1.954   2.690  14.581  1.1681 -0.3047  0.8088
   68TCq2    C8 1041   2.086   2.692  14.785  0.5037 -0.5013  0.5892
   68TCq2    O4 1042   2.162   2.622  14.719  0.3586  0.0477 -0.5250
   68TCq2    C9 1043   1.724   3.016  14.721  0.7694 -0.4122  0.1173
   68TCq2    O5 1044   1.756   3.053  14.833 -0.1826  0.4736  0.8023
   68TCq2    O6 1045   1.630   3.050  14.642  0.4897 -0.4337  0.0055
   68TCq2    H2 1046   1.690   2.896  14.502  0.7606 -0.9538 -2.6163
   68TCq2    H3 1047   1.906   2.894  14.850  1.0612 -1.2990  0.6562
   68TCq2    H4 1048   2.004   2.600  14.546 -0.2698  0.6822 -3.6897
   69TMC2    C1 1049   2.917   3.947  12.204  0.4306  0.0271  0.7682
   69TMC2    C2 1050   2.804   4.021  12.206 -0.1429 -0.1496 -0.0166
   69TMC2    C3 1051   2.778   4.083  12.092 -0.6907  0.8112  0.5230
   69TMC2    C4 1052   2.982   3.923  12.090 -0.1223  0.1316  0.4569
   69TMC2    C5 1053   2.955   3.992  11.977  0.1401  0.1632 -0.9782
   69TMC2    C6 1054   2.850   4.085  11.980 -0.2557 -0.0487 -0.2279
   69TMC2     C 1055   3.008   3.946  12.320  0.3731 -0.1576  0.0376
   69TMC2     O 1056   2.954   3.952  12.430 -0.1368 -0.2887 -0.0835
   69TMC2     H 1057   2.735   4.019  12.290  0.4322 -0.0821  0.4526
   69TMC2    H1 1058   3.068   3.857  12.080  0.5417  1.0717 -0.1394
   69TMC2    H2 1059   2.829   4.146  11.892 -1.2033  0.5729  0.4196
   69TMC2    C7 1060   3.073   4.004  11.898  0.3882  0.1568  0.6233
   69TMC2    C8 1061   2.641   4.125  12.087  0.4394 -1.0628 -0.1368
   69TMC2    O1 1062   3.174   4.021  11.968 -0.2959 -0.5850  0.2383
   69TMC2    O2 1063   2.577   4.146  12.188 -0.6011  0.5421  0.0986
   69TMC2    O5 1064   2.600   4.121  11.957  0.0560  0.5452 -0.8222
   69TMC2    H5 1065   2.673   4.071  11.914  0.0599 -0.1973  0.0283
   70MPD2     C 1066   3.372   3.942  12.321  0.2799  0.0952 -0.6013
   70MPD2    C1 1067   3.241   3.924  12.370 -0.2344  0.3621  1.0020
   70MPD2    C2 1068   3.235   3.887  12.510  0.1578 -0.1053  1.1130
   70MPD2    C3 1069   3.346   3.849  12.581 -0.5697  0.0483 -0.2079
   70MPD2    C4 1070   3.471   3.861  12.521 -0.3364 -0.0218 -0.1603
   70MPD2    C5 1071   3.485   3.913  12.395 -0.8293  0.4909  0.2147
   70MPD2     H 1072   3.138   3.893  12.557 -0.0023  0.7134  0.6775
   70MPD2    H1 1073   3.557   3.835  12.582 -0.2608  0.4911 -0.0443
   70MPD2    H2 1074   3.380   3.982  12.221 -0.4747  1.5592 -0.0734
   70MPD2    H3 1075   3.579   3.944  12.350  0.2293 -3.2829 -0.1927
   70MPD2     N 1076   3.350   3.812  12.716  0.0855 -0.2643  0.0497
   70MPD2    H5 1077   3.442   3.802  12.757  0.3530 -0.5273 -0.6146
   70MPD2    N1 1078   3.137   3.935  12.280  0.3873  0.4717  0.0186
   70MPD2    H7 1079   3.155   3.959  12.183 -0.1507  1.3396  0.1300
   71TMC2    C1 1080   0.803   4.708   1.621  0.4039 -0.2914 -0.9753
   71TMC2    C2 1081   0.873   0.046   1.727  0.7068  0.0582 -0.5774
   71TMC2    C3 1082   0.800   0.074   1.842  0.6078 -0.0068 -0.2513
   71TMC2    C4 1083   0.668   4.697   1.628 -0.2820 -0.1083  0.3857
   71TMC2    C5 1084   0.598   4.713   1.746 -0.4872  1.0143  0.1155
   71TMC2    C6 1085   0.666   0.044   1.858 -0.3125 -0.2291  0.4807
   71TMC2     C 1086   0.887   4.658   1.516  0.2364  0.0883 -0.1873
   71TMC2     O 1087   1.010   4.673   1.524  0.2079 -0.0654  0.1012
   71TMC2     H 1088   0.981   0.053   1.735  0.6293 -0.8853  1.2011
   71TMC2    H1 1089   0.616   4.656   1.542 -0.6713 -1.3069  1.1882
   71TMC2    H2 1090   0.623   0.048   1.957  0.3966 -0.0800  0.7828
   71TMC2    C7 1091   0.459   0.002   1.759  0.4186  0.2774 -0.0307
   71TMC2    C8 1092   0.864   0.131   1.959  0.4276  0.1917  0.3364
   71TMC2    O1 1093   0.428   0.087   1.842 -0.3899 -0.0845  0.1442
   71TMC2    O2 1094   0.818   0.105   2.070 -0.2281  0.3117  0.4859
   71TMC2    O5 1095   0.946   0.220   1.916  0.4677 -0.4221  0.3816
   71TMC2    H5 1096   0.946   0.233   1.819 -2.5215 -1.8260  0.2021
   72MPD2     C 1097   0.951   4.346   1.125  0.1989  0.8207 -0.3154
   72MPD2    C1 1098   1.046   4.397   1.199 -0.5564 -0.0628 -1.0380
   72MPD2    C2 1099   1.011   4.493   1.295 -0.5699 -0.3288  0.4680
   72MPD2    C3 1100   0.869   4.510   1.324  0.1881 -0.8869  0.2970
   72MPD2    C4 1101   0.779   4.449   1.247  0.3362 -0.4142  0.7713
   72MPD2    C5 1102   0.815   4.372   1.146 -0.2923  0.0216 -0.3038
   72MPD2     H 1103   1.085   4.544   1.356  0.1841 -2.3720  1.2661
   72MPD2    H1 1104   0.672   4.457   1.263  0.0591 -1.9354 -0.3949
   72MPD2    H2 1105   0.969   4.279   1.041 -1.0019  2.2373 -1.7200
   72MPD2    H3 1106   0.744   4.332   1.074 -0.8312 -0.0584  0.2678
   72MPD2     N 1107   0.816   4.588   1.423  0.7478 -0.1866  0.8621
   72MPD2    H5 1108   0.716   4.578   1.436  0.1033  2.7951 -1.8977
   72MPD2    N1 1109   1.184   4.378   1.172  0.0169  0.0076 -0.1330
   72MPD2    H7 1110   1.250   4.427   1.231 -0.5432  1.1479 -0.4394
   73TMC2    C1 1111   1.671   1.033  14.114 -0.2017 -0.0349 -1.2438
   73TMC2    C2 1112   1.616   0.976  14.228 -0.4314 -0.7559  0.1313
   73TMC2    C3 1113   1.687   0.977  14.342 -0.1628  0.5180  0.0614
   73TMC2    C4 1114   1.798   1.089  14.111  0.4526 -0.2373  0.2492
   73TMC2    C5 1115   1.853   1.114  14.232  0.3279  0.5869  0.5728
   73TMC2    C6 1116   1.803   1.055  14.344 -0.2287  0.2422  1.0312
   73TMC2     C 1117   1.575   1.132  14.058  0.4585  0.1056 -0.2955
   73TMC2     O 1118   1.622   1.241  14.042 -0.1596 -0.4714  0.2760
   73TMC2     H 1119   1.529   0.911  14.227  0.1482 -1.5050 -1.1435
   73TMC2    H1 1120   1.839   1.132  14.021 -4.1506  0.8415 -1.3579
   73TMC2    H2 1121   1.847   1.079  14.439 -1.2159  2.1757  0.9982
   73TMC2    C7 1122   1.919   1.246  14.240 -0.5950 -0.0127 -0.6194
   73TMC2    C8 1123   1.632   0.905  14.456  0.1729  1.1315  0.2744
   73TMC2    O1 1124   1.994   1.262  14.337 -0.6929 -0.3817 -0.4635
   73TMC2    O2 1125   1.533   0.832  14.438  0.3607  0.0011  0.1656
   73TMC2    O5 1126   1.725   0.912  14.560  0.6250 -0.4104 -0.4138
   73TMC2    H5 1127   1.798   0.975  14.541  1.2467 -0.8157  0.6339
   74MPD2     C 1128   1.152   1.266  13.814 -0.2653  0.1394  0.6475
   74MPD2    C1 1129   1.255   1.338  13.861 -0.3145 -0.0315 -0.3486
   74MPD2    C2 1130   1.361   1.274  13.915 -0.5095  0.0593 -0.0283
   74MPD2    C3 1131   1.351   1.142  13.947 -0.9185 -0.6569  0.4887
   74MPD2    C4 1132   1.242   1.066  13.904 -0.0082 -0.6963 -0.7597
   74MPD2    C5 1133   1.149   1.129  13.830  0.1385 -0.5206 -0.0577
   74MPD2     H 1134   1.451   1.325  13.948 -0.8333  0.9986 -0.6299
   74MPD2    H1 1135   1.242   0.957  13.910  1.2949 -0.7158 -1.0524
   74MPD2    H2 1136   1.066   1.319  13.773  0.0004 -0.5078 -0.7594
   74MPD2    H3 1137   1.057   1.075  13.811 -0.5543  0.0898  1.4999
   74MPD2     N 1138   1.456   1.075  14.010  0.0041  0.8341 -0.0813
   74MPD2    H5 1139   1.448   0.975  14.019 -2.2992  1.2152  2.0260
   74MPD2    N1 1140   1.249   1.478  13.837 -0.7451 -0.2840 -0.7805
   74MPD2    H7 1141   1.168   1.522  13.793 -1.1792  0.9588  1.2756
   75TCq2    C1 1142   1.362   2.975  14.024  0.2682  0.4469  0.5420
   75TCq2    O2 1143   1.421   3.041  14.108  0.7624  0.0690  0.3261
   75TCq2    C2 1144   1.248   3.047  13.972 -0.2024  0.0228  0.4284
   75TCq2    C3 1145   1.182   3.117  14.072  0.2176  0.0167 -0.0961
   75TCq2    C4 1146   1.051   3.137  14.059 -0.2978 -0.2953 -0.3504
   75TCq2    C5 1147   0.981   3.104  13.938 -0.0285 -0.3453  0.5882
   75TCq2    C6 1148   1.058   3.037  13.840 -0.7692 -0.5213  0.9713
   75TCq2    C7 1149   1.184   2.990  13.867  0.1835 -0.1363  0.3257
   75TCq2    C8 1150   1.007   3.041  13.706  0.3403  0.4624  0.5086
   75TCq2    O4 1151   1.065   2.985  13.614 -0.4030  0.4902  0.2489
   75TCq2    C9 1152   0.981   3.199  14.173  0.1418 -0.6729  0.3341
   75TCq2    O5 1153   0.855   3.202  14.178 -0.2425  0.3198  0.0179
   75TCq2    O6 1154   1.052   3.199  14.277  0.0690 -0.5986  0.2400
   75TCq2    H2 1155   1.227   3.135  14.169 -0.3471 -1.1407  0.3823
   75TCq2    H3 1156   0.875   3.123  13.926  0.5746  3.0682  0.6980
   75TCq2    H4 1157   1.241   2.952  13.784 -1.1236  1.0271 -1.1078
   76MPD2     C 1158   4.092   4.276  12.223 -0.2260  0.1245  0.1590
   76MPD2    C1 1159   4.150   4.213  12.119  0.3326 -0.4894  0.0953
   76MPD2    C2 1160   4.286   4.170  12.134  0.7788 -0.2176  0.6921
   76MPD2    C3 1161   4.345   4.183  12.260  0.3483  0.9766 -0.4032
   76MPD2    C4 1162   4.285   4.256  12.362  0.0296  0.2298  0.4672
   76MPD2    C5 1163   4.162   4.304  12.339 -0.0066  0.3761 -0.8447
   76MPD2     H 1164   4.335   4.135  12.044 -0.0122  1.4261 -0.3788
   76MPD2    H1 1165   4.324   4.269  12.462  1.3801 -0.3511  0.0118
   76MPD2    H2 1166   3.988   4.306  12.219 -0.0714  0.7486  0.7241
   76MPD2    H3 1167   4.116   4.369  12.412 -0.4075  0.1015 -0.8519
   76MPD2     N 1168   4.470   4.126  12.292  0.4560 -1.0367 -0.0901
   76MPD2    H5 1169   4.514   4.138  12.383 -1.2377  1.1431  0.4536
   76MPD2    N1 1170   4.083   4.178  11.992  0.2111  0.1171  0.3753
   76MPD2    H7 1171   4.135   4.120  11.927  1.1136  0.6338  0.6409
   77TCq2    C1 1172   4.555   4.070  12.199 -0.3931  0.7043 -0.2527
   77TCq2    O2 1173   4.560   4.086  12.078  0.5582  0.0788 -0.0048
   77TCq2    C2 1174   4.670   4.019  12.281  0.2802  1.0761  0.3320
   77TCq2    C3 1175   0.073   4.031  12.221  0.2511  0.5097 -0.2517
   77TCq2    C4 1176   0.173   3.955  12.279  0.0713 -0.6467 -0.1069
   77TCq2    C5 1177   0.151   3.868  12.389 -0.3043 -0.0935 -0.5191
   77TCq2    C6 1178   0.032   3.873  12.450 -0.1222  0.0743 -0.1480
   77TCq2    C7 1179   4.650   3.945  12.396  0.0416  0.4640  0.5833
   77TCq2    C8 1180   4.717   3.792  12.568  0.1885 -0.1634 -0.8534
   77TCq2    O4 1181   4.604   3.792  12.606 -0.7208  0.1730  0.3956
   77TCq2    C9 1182   0.303   3.946  12.213  0.2420  0.3777  0.5597
   77TCq2    O5 1183   0.386   3.860  12.257 -0.2010  0.0225  0.0245
   77TCq2    O6 1184   0.306   4.005  12.103  0.3757 -1.0524 -0.1778
   77TCq2    H2 1185   0.083   4.091  12.131 -0.1217 -0.5620 -1.0096
   77TCq2    H3 1186   0.237   3.812  12.424  0.4582  0.7785 -1.0095
   77TCq2    H4 1187   4.551   3.937  12.440 -0.4856 -1.6013 -0.9766
   78MPD1     C 1188   0.930   4.013   1.242 -0.5218 -0.4796 -0.2798
   78MPD1    C1 1189   1.013   3.952   1.150  0.3343  0.7092 -0.4189
   78MPD1    C2 1190   1.151   3.969   1.159 -0.7872 -0.1719 -0.3269
   78MPD1    C3 1191   1.200   4.036   1.273 -0.6557 -0.2634 -0.3217
   78MPD1    C4 1192   1.118   4.093   1.373 -0.2975 -0.3571 -0.7807
   78MPD1    C5 1193   0.981   4.086   1.356  0.5184  0.5861  0.7764
   78MPD1     H 1194   1.220   3.922   1.090 -0.7249  1.3586 -1.3193
   78MPD1    H1 1195   1.163   4.141   1.460 -0.3542 -2.2715  0.2993
   78MPD1    H2 1196   0.824   4.027   1.224 -0.9651 -3.6291  0.0253
   78MPD1    H3 1197   0.907   4.116   1.430 -2.3619 -4.2831 -0.0813
   78MPD1     N 1198   1.339   4.050   1.299  0.3604  0.0304 -0.4177
   78MPD1    H5 1199   1.366   4.111   1.375 -0.2780 -1.7514  1.2378
   78MPD1    N1 1200   0.957   3.905   1.025  0.0200 -0.4257  0.1981
   78MPD1    H6 1201   1.013   3.836   0.976 -0.1612 -0.4794  0.0672
   78MPD1    H7 1202   0.866   3.863   1.045  0.7567 -2.2737 -0.3862
   79TCq2    C1 1203   1.444   3.995   1.229  0.3378 -0.1469  0.1675
   79TCq2    O2 1204   1.443   3.903   1.146  0.6093  0.0454 -0.4076
   79TCq2    C2 1205   1.571   4.048   1.265 -0.6948 -0.1846  0.3881
   79TCq2    C3 1206   1.583   4.176   1.313 -0.3822 -0.3766  0.0299
   79TCq2    C4 1207   1.698   4.234   1.301 -0.1130 -0.0052  0.7625
   79TCq2    C5 1208   1.816   4.174   1.265 -0.1424  0.7417 -1.0268
   79TCq2    C6 1209   1.801   4.041   1.223  0.0753  0.2545 -0.2189
   79TCq2    C7 1210   1.681   3.979   1.223 -0.0664  0.0789 -0.5966
   79TCq2    C8 1211   1.925   3.979   1.191 -0.5330  0.4688  0.6067
   79TCq2    O4 1212   2.020   4.029   1.249 -0.3520  0.0860  0.3742
   79TCq2    C9 1213   1.710   4.373   1.342  0.2466  1.0655  0.1683
   79TCq2    O5 1214   1.825   4.423   1.323 -0.4857  0.2573 -0.1707
   79TCq2    O6 1215   1.607   4.434   1.384  0.2486 -0.0926  0.2918
   79TCq2    H2 1216   1.499   4.242   1.330  0.1568 -0.5143  3.1137
   79TCq2    H3 1217   1.911   4.225   1.258 -0.8967  1.9707 -2.3705
   79TCq2    H4 1218   1.667   3.875   1.196  2.2446 -0.8480  1.7652
   80MPD2     C 1219   4.080   3.081  12.345 -0.0823  0.6810 -0.9323
   80MPD2    C1 1220   3.962   3.060  12.269  0.3120 -0.3000 -0.1083
   80MPD2    C2 1221   3.843   3.061  12.341  0.5258  0.8611 -0.0423
   80MPD2    C3 1222   3.836   3.085  12.478  0.9926 -0.4650 -0.0638
   80MPD2    C4 1223   3.950   3.095  12.543  0.4678  0.0351 -0.2066
   80MPD2    C5 1224   4.068   3.104  12.478 -0.1983 -0.6214  0.4051
   80MPD2     H 1225   3.754   3.038  12.284  0.6459 -1.6908  0.7890
   80MPD2    H1 1226   3.951   3.103  12.651  0.5469  0.9403 -0.2750
   80MPD2    H2 1227   4.181   3.088  12.306  0.0350  2.3413 -0.3367
   80MPD2    H3 1228   4.160   3.123  12.532 -1.1493  0.8519  1.5061
   80MPD2     N 1229   3.718   3.090  12.558  0.5362 -0.0272 -0.1272
   80MPD2    H5 1230   3.719   3.077  12.659 -2.4451 -0.1504 -0.1052
   80MPD2    N1 1231   3.963   3.035  12.133  0.1396  0.2651 -0.6951
   80MPD2    H7 1232   3.869   3.014  12.102  0.4654  1.1994 -2.2585
   81TCq2    C1 1233   4.064   3.044  12.035  0.1448  0.1000 -0.5558
   81TCq2    O2 1234   4.185   3.067  12.047 -0.1207  0.5728  0.1404
   81TCq2    C2 1235   4.006   3.002  11.910  0.4199  0.6991 -0.3832
   81TCq2    C3 1236   4.003   3.087  11.813  0.0140 -0.0336 -0.1430
   81TCq2    C4 1237   3.923   3.051  11.703  0.1622  0.1178  0.7050
   81TCq2    C5 1238   3.861   2.926  11.706 -0.3935  0.7388 -0.0350
   81TCq2    C6 1239   3.855   2.844  11.813 -0.1048 -0.4002 -0.6621
   81TCq2    C7 1240   3.925   2.890  11.924  0.1261  0.1142 -0.0356
   81TCq2    C8 1241   3.843   2.698  11.789  0.5553 -0.0480 -0.2253
   81TCq2    O4 1242   3.884   2.656  11.682 -0.2958  0.3762 -0.1143
   81TCq2    C9 1243   3.909   3.146  11.596  0.0123 -0.1523  0.8599
   81TCq2    O5 1244   3.989   3.242  11.581  0.2577 -0.2368 -0.1190
   81TCq2    O6 1245   3.805   3.136  11.527 -0.1142 -0.6184 -0.0166
   81TCq2    H2 1246   4.049   3.186  11.816 -0.9705  0.3978  0.6797
   81TCq2    H3 1247   3.813   2.906  11.611 -2.7408 -0.4513  1.3868
   81TCq2    H4 1248   3.946   2.827  12.010  0.2885  1.2664  0.7643
   82MPD2     C 1249   2.110   3.176  10.275  0.9951  0.9002 -0.2844
   82MPD2    C1 1250   2.073   3.040  10.276 -0.2990  0.3274 -0.1488
   82MPD2    C2 1251   2.129   2.962  10.381 -0.7069  0.1807  0.5837
   82MPD2    C3 1252   2.220   3.016  10.467 -0.2385 -0.6039 -0.6583
   82MPD2    C4 1253   2.255   3.148  10.472 -0.3790 -0.5403  0.0523
   82MPD2    C5 1254   2.201   3.221  10.365 -0.2173  0.3781  0.2143
   82MPD2     H 1255   2.095   2.860  10.375 -0.9223  0.3134 -0.4850
   82MPD2    H1 1256   2.317   3.199  10.544 -1.1406  1.4838 -0.7216
   82MPD2    H2 1257   2.079   3.251  10.203 -1.2185  1.6608  1.4662
   82MPD2    H3 1258   2.216   3.328  10.363  0.8950  0.2341  0.9528
   82MPD2     N 1259   2.288   2.938  10.565 -0.3245  0.8311  0.5264
   82MPD2    H5 1260   2.359   2.986  10.619  0.3616  2.2576 -1.6320
   82MPD2    N1 1261   1.976   3.005  10.180 -0.5572 -0.2809 -0.4510
   82MPD2    H7 1262   1.939   3.075  10.117  2.1855  0.4812 -1.2425
   83TCq2    C1 1263   2.254   2.805  10.588  0.9298  0.0010  0.2056
   83TCq2    O2 1264   2.181   2.726  10.527 -0.2829 -0.5479 -0.1577
   83TCq2    C2 1265   2.321   2.753  10.708  0.1988 -0.1022  0.0317
   83TCq2    C3 1266   2.427   2.820  10.758 -0.2245 -0.3035 -0.4922
   83TCq2    C4 1267   2.451   2.807  10.888  0.3008 -0.3620  0.4237
   83TCq2    C5 1268   2.379   2.718  10.961 -0.1989 -0.6204 -0.2769
   83TCq2    C6 1269   2.278   2.639  10.902  0.5611 -0.8222  0.4225
   83TCq2    C7 1270   2.243   2.660  10.774 -0.0910 -0.1562 -0.0361
   83TCq2    C8 1271   2.227   2.521  10.971 -0.2332  0.1811  0.1922
   83TCq2    O4 1272   2.279   2.503  11.082 -0.0331 -0.4682 -0.2218
   83TCq2    C9 1273   2.545   2.891  10.953  0.3538  0.4732  0.2311
   83TCq2    O5 1274   2.617   2.968  10.889  0.0547 -0.1828  0.6337
   83TCq2    O6 1275   2.561   2.869  11.075  0.0362  0.2141 -0.3127
   83TCq2    H2 1276   2.475   2.893  10.695 -1.4325 -0.0374 -1.1012
   83TCq2    H3 1277   2.398   2.702  11.066  0.1803 -1.4962 -0.4732
   83TCq2    H4 1278   2.156   2.615  10.727 -0.9914  0.9980  0.5030
   84TCq2    C1 1279   3.001   1.358  10.257  0.8577 -0.3189 -1.0195
   84TCq2    O2 1280   3.034   1.366  10.138  0.0132 -0.0594 -0.0512
   84TCq2    C2 1281   3.101   1.394  10.358  0.6099 -0.2123 -0.2568
   84TCq2    C3 1282   3.218   1.446  10.317  0.0900  0.7316 -0.1688
   84TCq2    C4 1283   3.314   1.469  10.411  0.6524 -0.5745 -0.7228
   84TCq2    C5 1284   3.282   1.461  10.537 -0.4609 -0.0407 -0.1297
   84TCq2    C6 1285   3.155   1.439  10.581 -0.4654  0.2568 -0.4674
   84TCq2    C7 1286   3.063   1.393  10.493 -0.3430 -0.3525 -0.4339
   84TCq2    C8 1287   3.113   1.493  10.710 -0.3059  0.3854  0.7058
   84TCq2    O4 1288   3.193   1.570  10.761 -0.0572 -0.4058  0.5442
   84TCq2    C9 1289   3.445   1.518  10.366  0.4970 -0.5651 -0.2052
   84TCq2    O5 1290   3.459   1.527  10.237  0.1894  0.3029  0.0367
   84TCq2    O6 1291   3.522   1.572  10.448  0.1662 -0.0235 -0.9084
   84TCq2    H2 1292   3.224   1.459  10.209  0.0383 -0.1544 -0.2805
   84TCq2    H3 1293   3.363   1.484  10.605  0.8583 -1.4487 -1.2210
   84TCq2    H4 1294   2.969   1.354  10.530 -0.4300  1.4170  1.2192
   85MPD2     C 1295   3.760   4.290  16.456 -0.4638 -0.1798  0.1986
   85MPD2    C1 1296   3.681   4.312  16.341 -0.4613 -0.0809 -0.3840
   85MPD2    C2 1297   3.708   4.428  16.266 -0.0486 -0.0359  0.2252
   85MPD2    C3 1298   3.805   4.521  16.310  0.6518  0.4887 -0.3803
   85MPD2    C4 1299   3.867   4.505  16.431 -0.5074 -0.1810  0.0583
   85MPD2    C5 1300   3.847   4.386  16.498 -0.1692 -0.3692 -0.5612
   85MPD2     H 1301   3.652   4.439  16.174  0.4052 -0.7903 -0.1395
   85MPD2    H1 1302   3.942   4.571  16.473  0.6888  0.1574 -2.6125
   85MPD2    H2 1303   3.742   4.201  16.515  1.8384 -2.1842 -2.0836
   85MPD2    H3 1304   3.901   4.358  16.587 -1.6429  0.5978  0.6319
   85MPD2     N 1305   3.817   4.642  16.241 -0.6933 -0.4096 -0.8690
   85MPD2    H5 1306   3.747   4.666  16.172 -2.0961  0.4163  0.8296
   85MPD2    N1 1307   3.589   4.214  16.294 -0.9160 -0.4615  0.2436
   85MPD2    H7 1308   3.562   4.224  16.196  0.7340 -1.0531 -0.2672
   86TCq2    C1 1309   3.922   0.009  16.256  0.6465 -0.0985  0.0694
   86TCq2    O2 1310   4.027   0.002  16.320  0.2319  0.1188  0.0368
   86TCq2    C2 1311   3.915   0.105  16.148 -0.8177  0.2467  0.2293
   86TCq2    C3 1312   3.800   0.172  16.115  0.3540 -0.7263 -0.3089
   86TCq2    C4 1313   3.817   0.292  16.056 -0.0729 -0.6900 -0.5489
   86TCq2    C5 1314   3.940   0.342  16.018 -0.1560 -0.0601 -0.7937
   86TCq2    C6 1315   4.054   0.265  16.039 -0.0785 -0.4051 -0.3397
   86TCq2    C7 1316   4.036   0.145  16.102  0.4552  0.4302 -0.8186
   86TCq2    C8 1317   4.166   0.288  15.956 -0.5655 -0.1926  0.4836
   86TCq2    O4 1318   4.266   0.221  15.971  0.0101  0.5002  0.7743
   86TCq2    C9 1319   3.701   0.375  16.029 -0.5815 -0.3788  0.2383
   86TCq2    O5 1320   3.724   0.492  15.990 -0.0537 -0.5418  0.1695
   86TCq2    O6 1321   3.589   0.332  16.064  0.9312 -0.4769 -0.8934
   86TCq2    H2 1322   3.700   0.141  16.145 -0.5995  1.8768 -0.8015
   86TCq2    H3 1323   3.949   0.442  15.976 -1.4941  1.3812  2.3019
   86TCq2    H4 1324   4.121   0.085  16.131  1.3995  2.0933 -0.1310
   87MPD2     C 1325   1.040   3.657   0.702  0.2955 -0.2410 -0.7867
   87MPD2    C1 1326   0.935   3.606   0.769  0.0156 -0.9100  0.3333
   87MPD2    C2 1327   0.814   3.673   0.777  0.1332  0.2485 -0.3599
   87MPD2    C3 1328   0.796   3.787   0.700  0.1075 -0.2784 -0.0177
   87MPD2    C4 1329   0.902   3.845   0.634 -0.1022 -0.1465 -0.0059
   87MPD2    C5 1330   1.025   3.783   0.641 -0.4251 -0.0987 -0.0781
   87MPD2     H 1331   0.733   3.641   0.842  0.1410 -2.1458 -1.5254
   87MPD2    H1 1332   0.901   3.937   0.577 -1.5836 -2.1595 -3.1982
   87MPD2    H2 1333   1.138   3.612   0.691  0.5408  0.3637 -1.1265
   87MPD2    H3 1334   1.117   3.822   0.600  0.9704 -0.1947  3.0296
   87MPD2     N 1335   0.682   3.870   0.699 -0.4623  0.1288 -1.0235
   87MPD2    H5 1336   0.689   3.946   0.632 -1.9897 -1.4735 -2.9952
   87MPD2    N1 1337   0.947   3.483   0.847  0.3322 -0.8048  0.3463
   87MPD2    H7 1338   1.043   3.458   0.869  0.9461  1.4810  0.2047
   88TCq2    C1 1339   0.847   3.414   0.908 -0.3195  0.4737 -0.3942
   88TCq2    O2 1340   0.724   3.421   0.885  0.0136  0.1104 -0.1801
   88TCq2    C2 1341   0.890   3.288   0.961  0.1197  0.1114 -0.0800
   88TCq2    C3 1342   0.829   3.242   1.076 -0.3900  0.0036 -0.2331
   88TCq2    C4 1343   0.883   3.133   1.132 -1.0320 -0.6750  0.6203
   88TCq2    C5 1344   0.993   3.074   1.075  0.2604  0.1412 -0.0888
   88TCq2    C6 1345   1.046   3.122   0.956 -0.0185 -0.7727 -0.7532
   88TCq2    C7 1346   1.002   3.235   0.902  0.4279 -0.2818  0.3535
   88TCq2    C8 1347   1.145   3.050   0.873 -0.0195  0.2616 -0.2044
   88TCq2    O4 1348   1.161   3.068   0.752  0.1246  0.3391  0.3239
   88TCq2    C9 1349   0.813   3.083   1.251  0.2479  0.0491  0.0937
   88TCq2    O5 1350   0.720   3.161   1.294  0.4036  0.2899  0.0557
   88TCq2    O6 1351   0.880   3.006   1.318  0.0952  0.4361  0.0992
   88TCq2    H2 1352   0.730   3.275   1.106 -0.9759 -2.7599  0.8523
   88TCq2    H3 1353   1.026   2.981   1.119  0.6078 -0.5831 -1.8832
   88TCq2    H4 1354   1.054   3.273   0.815 -0.4098 -1.4335 -0.6611
   89MPD2     C 1355   2.189   1.094   1.677  0.0202 -0.0114  0.3602
   89MPD2    C1 1356   2.083   1.184   1.698 -0.4476  0.9197  0.1137
   89MPD2    C2 1357   2.118   1.316   1.712  0.3106 -0.4178  0.2547
   89MPD2    C3 1358   2.245   1.365   1.688 -0.2047  0.0572 -0.5529
   89MPD2    C4 1359   2.340   1.274   1.672 -1.0141 -0.8239  0.2234
   89MPD2    C5 1360   2.317   1.138   1.673  0.0014 -0.2019  0.2910
   89MPD2     H 1361   2.032   1.379   1.730  2.2101  3.0279 -2.6913
   89MPD2    H1 1362   2.442   1.309   1.678 -1.8171  1.9472 -2.3985
   89MPD2    H2 1363   2.179   0.987   1.669  1.2813 -0.0843 -0.2033
   89MPD2    H3 1364   2.401   1.073   1.654 -0.5287 -0.3285 -1.5987
   89MPD2     N 1365   2.264   1.504   1.695  0.2774 -0.1969  0.6195
   89MPD2    H5 1366   2.185   1.555   1.734  1.3818  2.1138 -0.1327
   89MPD2    N1 1367   1.946   1.143   1.719 -0.2319  0.1738  0.7022
   89MPD2    H7 1368   1.883   1.220   1.742 -0.7573  0.1024 -0.5025
   90TCq2    C1 1369   2.343   1.571   1.602  0.0516  0.2003  0.5524
   90TCq2    O2 1370   2.416   1.512   1.517  0.0380 -0.4272 -0.2718
   90TCq2    C2 1371   2.333   1.715   1.601  0.5685 -0.4428  1.0568
   90TCq2    C3 1372   2.335   1.776   1.724  0.5698 -0.0756 -0.1332
   90TCq2    C4 1373   2.331   1.914   1.727  0.0760  0.6493  0.4983
   90TCq2    C5 1374   2.317   1.990   1.609 -0.9828  0.5368  0.4309
   90TCq2    C6 1375   2.320   1.923   1.493 -0.2374 -0.6088  0.4851
   90TCq2    C7 1376   2.339   1.782   1.481 -0.6527  0.7588 -0.3014
   90TCq2    C8 1377   2.291   1.993   1.370  0.2952 -0.6666  0.1079
   90TCq2    O4 1378   2.252   2.107   1.371  0.0805  0.0938  0.7247
   90TCq2    C9 1379   2.317   1.979   1.856  0.1702  0.1184 -0.2659
   90TCq2    O5 1380   2.299   2.102   1.847 -0.5281 -0.4168 -0.3423
   90TCq2    O6 1381   2.345   1.915   1.960  0.2836 -0.1407 -0.0021
   90TCq2    H2 1382   2.356   1.722   1.816 -0.4456  0.0101  0.1548
   90TCq2    H3 1383   2.301   2.097   1.618  2.7809  1.0376  1.6167
   90TCq2    H4 1384   2.321   1.718   1.396 -0.9146  0.9335 -0.3781
   91TMC2    C1 1385   4.036   0.996  16.261 -0.0736 -0.9031  0.7973
   91TMC2    C2 1386   4.130   1.048  16.350 -0.2912  0.1196  0.4278
   91TMC2    C3 1387   4.102   1.021  16.479 -0.1118  0.3410 -0.2048
   91TMC2    C4 1388   3.926   0.924  16.297 -0.7505 -0.0885  0.4034
   91TMC2    C5 1389   3.917   0.883  16.429 -0.7005 -0.1652 -0.4640
   91TMC2    C6 1390   4.004   0.930  16.520 -0.3446  0.4886 -0.4241
   91TMC2     C 1391   4.045   1.057  16.124 -0.4788 -0.0557  0.4982
   91TMC2     O 1392   3.938   1.050  16.065 -0.0171  0.1718  0.0783
   91TMC2     H 1393   4.200   1.125  16.321 -1.8215  0.8489 -1.2890
   91TMC2    H1 1394   3.866   0.884  16.217 -0.2186  0.7413 -0.4028
   91TMC2    H2 1395   3.991   0.904  16.625 -1.1833 -1.1299 -0.9248
   91TMC2    C7 1396   3.794   0.838  16.490 -0.3883  0.0197 -0.2307
   91TMC2    C8 1397   4.169   1.104  16.581 -0.2570  0.8249  0.3573
   91TMC2    O1 1398   3.770   0.834  16.613 -0.3125  0.3019 -0.1375
   91TMC2    O2 1399   4.230   1.044  16.667  0.8463  0.0125 -0.3816
   91TMC2    O5 1400   4.206   1.223  16.535  0.1019  0.6302  0.2712
   91TMC2    H5 1401   4.150   1.266  16.467 -1.1407 -1.5774 -0.1036
   92MPD2     C 1402   4.126   1.188  15.862 -0.0151 -0.2122 -0.5142
   92MPD2    C1 1403   4.214   1.130  15.951 -0.1532 -0.5728  0.8182
   92MPD2    C2 1404   4.345   1.117  15.914  0.1303 -0.0917  0.2974
   92MPD2    C3 1405   4.388   1.160  15.792  0.1414 -0.3054  0.0182
   92MPD2    C4 1406   4.301   1.221  15.707  0.6200  0.0673 -0.0770
   92MPD2    C5 1407   4.169   1.228  15.742 -0.3156  0.0078  0.5273
   92MPD2     H 1408   4.415   1.067  15.980  0.1351  1.3545  1.3799
   92MPD2    H1 1409   4.327   1.260  15.609 -0.2673 -0.5542 -0.5574
   92MPD2    H2 1410   4.028   1.211  15.902  0.1039 -1.4603  0.4879
   92MPD2    H3 1411   4.099   1.282  15.678  2.4138  0.9571 -1.6737
   92MPD2     N 1412   4.529   1.154  15.772 -0.2516  0.1308  0.3442
   92MPD2    H5 1413   4.574   1.108  15.850 -0.9275  0.3606  0.8749
   92MPD2    N1 1414   4.169   1.087  16.081  0.2729  0.7033 -0.1157
   92MPD2    H7 1415   4.246   1.062  16.143  0.9738 -0.7598 -1.5895
   93MPD2     C 1416   1.049   0.099  13.937 -0.3430 -0.6171 -0.9313
   93MPD2    C1 1417   1.009   0.185  14.036 -0.7200 -0.5160 -0.1534
   93MPD2    C2 1418   0.874   0.201  14.070 -0.1651  0.3092 -0.1757
   93MPD2    C3 1419   0.781   0.125  14.002 -0.8253 -0.3570 -0.2984
   93MPD2    C4 1420   0.821   0.029  13.904 -0.0483  0.2805  0.5069
   93MPD2    C5 1421   0.959   0.019  13.876  0.3011 -0.1248 -0.3025
   93MPD2     H 1422   0.847   0.267  14.151  1.4242  0.4259  0.2508
   93MPD2    H1 1423   0.753   4.685  13.851 -1.5749  2.4559 -0.2071
   93MPD2    H2 1424   1.153   0.091  13.906 -0.6810 -2.0260 -1.7250
   93MPD2    H3 1425   0.984   4.672  13.796 -1.0603 -1.3198  0.2841
   93MPD2     N 1426   0.647   0.142  14.019 -0.4092  0.2826 -0.2551
   93MPD2    H5 1427   0.586   0.078  13.969  1.2730 -1.5577  0.0528
   93MPD2    N1 1428   1.100   0.277  14.105 -0.1229  0.0652  0.2084
   93MPD2    H7 1429   1.063   0.346  14.170  0.5663  0.4789  0.1489
   94TCq2    C1 1430   1.237   0.270  14.086  0.2165 -0.3450  0.1448
   94TCq2    O2 1431   1.300   0.209  14.006 -0.6709  0.0424 -0.1794
   94TCq2    C2 1432   1.318   0.359  14.171  0.6527 -0.2354  0.4337
   94TCq2    C3 1433   1.265   0.398  14.291 -0.3029  0.0777 -0.6912
   94TCq2    C4 1434   1.344   0.478  14.368 -0.1325 -0.4477 -0.5077
   94TCq2    C5 1435   1.457   0.537  14.319  0.6633 -0.0652  0.2784
   94TCq2    C6 1436   1.508   0.496  14.204  0.6600 -0.2905  0.0350
   94TCq2    C7 1437   1.444   0.399  14.132 -0.4828 -0.3933  0.5597
   94TCq2    C8 1438   1.638   0.538  14.155  0.1197 -0.3112 -0.6784
   94TCq2    O4 1439   1.653   0.521  14.033  0.2677 -0.2351 -0.1798
   94TCq2    C9 1440   1.289   0.533  14.487 -0.6946 -0.8546  0.0761
   94TCq2    O5 1441   1.379   0.569  14.571 -0.0476  0.7877 -0.7590
   94TCq2    O6 1442   1.170   0.497  14.517  0.1154 -0.2927  0.2322
   94TCq2    H2 1443   1.168   0.364  14.326 -0.1643  1.9502  1.5189
   94TCq2    H3 1444   1.502   0.618  14.375 -2.9959  0.7932  1.9424
   94TCq2    H4 1445   1.490   0.362  14.041 -2.2797 -2.0700  0.3512
   95TMC2    C1 1446   1.016   2.814  15.965  0.3913 -0.2212  0.0299
   95TMC2    C2 1447   0.993   2.733  16.073  0.7181 -0.2476 -0.3257
   95TMC2    C3 1448   0.986   2.791  16.197  0.3423  0.2452  1.2731
   95TMC2    C4 1449   1.005   2.954  15.973  0.1424 -0.4255 -0.7952
   95TMC2    C5 1450   0.990   3.008  16.098 -0.5645  0.2023 -0.0123
   95TMC2    C6 1451   0.979   2.927  16.215  0.0468 -0.1412  0.2785
   95TMC2     C 1452   1.098   2.757  15.867  0.2975 -0.0578 -0.6599
   95TMC2     O 1453   1.167   2.839  15.809  0.5050 -0.0841 -0.1429
   95TMC2     H 1454   0.992   2.625  16.064 -0.7287 -0.2024 -0.7924
   95TMC2    H1 1455   1.022   3.030  15.897 -1.4727 -0.1352 -0.8656
   95TMC2    H2 1456   0.954   2.981  16.305  1.5530 -0.1211  0.6822
   95TMC2    C7 1457   0.939   3.146  16.108  0.4401  0.1026 -0.0685
   95TMC2    C8 1458   0.982   2.701  16.307  0.1132 -0.1789  0.3477
   95TMC2    O1 1459   0.961   3.201  16.218 -0.8160 -0.3526  0.3532
   95TMC2    O2 1460   0.949   2.585  16.290 -1.0718 -0.2230  0.1859
   95TMC2    O5 1461   1.063   2.740  16.408  0.7446  0.8210  0.7193
   95TMC2    H5 1462   1.105   2.828  16.399  1.2298  0.2999 -2.0807
   96MPD2     C 1463   1.319   2.379  15.608 -0.7442 -0.3546  0.1350
   96MPD2    C1 1464   1.357   2.510  15.617  0.0406  0.2678  0.6754
   96MPD2    C2 1465   1.278   2.599  15.694  0.0215 -0.2769  0.5259
   96MPD2    C3 1466   1.164   2.550  15.764  0.2340  0.0039  0.4775
   96MPD2    C4 1467   1.135   2.419  15.750 -0.2849  0.5215  0.3161
   96MPD2    C5 1468   1.210   2.338  15.677  0.5280  0.0505 -0.4050
   96MPD2     H 1469   1.299   2.705  15.701 -1.2498  0.0608 -0.7119
   96MPD2    H1 1470   1.053   2.370  15.801 -0.4549  0.8692  0.3750
   96MPD2    H2 1471   1.380   2.309  15.552  0.1878 -0.4285  1.2508
   96MPD2    H3 1472   1.171   2.237  15.666  0.0649  0.2769 -0.8630
   96MPD2     N 1473   1.089   2.623  15.855 -0.2131 -0.0495 -0.2247
   96MPD2    H5 1474   1.012   2.567  15.891  3.2177 -3.7448  1.3560
   96MPD2    N1 1475   1.468   2.549  15.536  0.6095  0.5076  0.0257
   96MPD2    H7 1476   1.515   2.469  15.494 -0.1694  0.2436 -0.3481
   97MPD2     C 1477   2.893   4.338   0.989 -0.2246  1.1204 -0.0045
   97MPD2    C1 1478   2.895   4.460   0.932 -0.4257 -0.0477 -0.5873
   97MPD2    C2 1479   2.862   4.473   0.793  0.2905  0.2837  0.2444
   97MPD2    C3 1480   2.840   4.357   0.716 -0.2475 -0.3887 -0.5129
   97MPD2    C4 1481   2.854   4.235   0.779 -0.0250  0.4772 -0.7425
   97MPD2    C5 1482   2.877   4.228   0.913  0.0301  0.5703  0.1100
   97MPD2     H 1483   2.866   4.568   0.741  0.9808 -0.9899 -2.0484
   97MPD2    H1 1484   2.839   4.145   0.721  0.4217 -0.6951  0.9434
   97MPD2    H2 1485   2.899   4.337   1.097 -1.8392  1.6653  0.0807
   97MPD2    H3 1486   2.872   4.132   0.962  1.2169 -0.4978 -1.8712
   97MPD2     N 1487   2.812   4.358   0.575 -0.1884 -0.1451  0.4125
   97MPD2    H5 1488   2.793   4.271   0.526 -2.8078 -0.3164  1.7065
   97MPD2    N1 1489   2.919   4.564   1.022  0.2652 -0.5172 -0.6806
   97MPD2    H7 1490   2.933   4.533   1.117 -2.3773 -0.4301 -0.2613
   98TCq2    C1 1491   2.823   4.472   0.500 -0.3941 -0.5634 -0.0633
   98TCq2    O2 1492   2.867   4.581   0.525 -0.2679 -0.0965 -0.0384
   98TCq2    C2 1493   2.778   4.440   0.359 -0.1802 -0.4802 -0.0997
   98TCq2    C3 1494   2.697   4.328   0.339 -0.0540  0.1642  0.3037
   98TCq2    C4 1495   2.659   4.295   0.208  0.1013 -0.0227 -0.3003
   98TCq2    C5 1496   2.698   4.373   0.101  0.0843  0.2819 -0.2016
   98TCq2    C6 1497   2.787   4.473   0.125 -0.0062  0.5404 -0.3179
   98TCq2    C7 1498   2.830   4.512   0.253  0.4469 -0.1235 -0.6842
   98TCq2    C8 1499   2.816   4.548   0.011 -0.1907 -0.2951 -0.1916
   98TCq2    O4 1500   2.742   4.534  17.600  0.3394  0.2327 -0.0973
   98TCq2    C9 1501   2.563   4.189   0.185  0.8985  0.2945  0.7384
   98TCq2    O5 1502   2.527   4.179   0.064  0.1248  0.0291 -0.1320
   98TCq2    O6 1503   2.532   4.113   0.275  0.0564 -0.0178 -0.0798
   98TCq2    H2 1504   2.641   4.280   0.418 -0.3291 -1.0705 -0.6528
   98TCq2    H3 1505   2.665   4.343   0.003 -0.3879  0.2024 -0.0182
   98TCq2    H4 1506   2.905   4.591   0.260  0.2119  0.0250  0.1589
   99MPD2     C 1507   2.026   1.601   1.494  0.3719  0.4547  0.4518
   99MPD2    C1 1508   2.009   1.734   1.475  0.6359 -0.3313  0.0003
   99MPD2    C2 1509   2.002   1.784   1.347  0.0415 -0.2691  0.3773
   99MPD2    C3 1510   2.016   1.700   1.234  0.1808  0.0858 -0.8494
   99MPD2    C4 1511   2.041   1.566   1.257  0.0660 -0.4699 -0.3049
   99MPD2    C5 1512   2.042   1.520   1.386  0.4832  0.7084 -1.1999
   99MPD2     H 1513   1.995   1.891   1.328 -1.8952 -0.0990  2.0135
   99MPD2    H1 1514   2.065   1.492   1.182  0.2035 -1.5185  0.7801
   99MPD2    H2 1515   2.012   1.559   1.593  3.1426  1.0950  1.1037
   99MPD2    H3 1516   2.057   1.414   1.406  2.4292  0.9665 -1.2400
   99MPD2     N 1517   2.013   1.758   1.108 -0.0272  0.3865 -0.5204
   99MPD2    H5 1518   2.006   1.858   1.092 -0.0074  0.3775 -0.5847
   99MPD2    N1 1519   1.987   1.829   1.587  0.5914 -0.2079 -0.3452
   99MPD2    H7 1520   1.956   1.924   1.567  0.4788 -0.4765 -1.4040
  100TCq2    C1 1521   2.009   1.802   1.713 -0.2201 -0.5503 -0.3928
  100TCq2    O2 1522   2.049   1.702   1.767  0.3083  0.5008  0.4870
  100TCq2    C2 1523   1.965   1.914   1.802 -0.7679  0.8003  0.1462
  100TCq2    C3 1524   1.996   1.915   1.932  0.6800 -0.4778 -0.7224
  100TCq2    C4 1525   1.930   1.995   2.023  0.6961 -0.3415 -0.0438
  100TCq2    C5 1526   1.830   2.074   1.976 -0.2733  0.6131 -0.3742
  100TCq2    C6 1527   1.793   2.074   1.847 -0.2479 -0.0978  0.4910
  100TCq2    C7 1528   1.856   1.988   1.764  0.4446 -0.0715  0.0009
  100TCq2    C8 1529   1.656   2.107   1.814 -0.2464 -0.2050  0.1702
  100TCq2    O4 1530   1.608   2.186   1.887  0.2666  0.6032 -0.6032
  100TCq2    C9 1531   1.945   1.974   2.167 -0.4627  0.5327 -0.1407
  100TCq2    O5 1532   1.875   2.042   2.246  0.1948 -0.8119  0.2879
  100TCq2    O6 1533   2.017   1.877   2.194  0.4279 -0.1828 -0.2083
  100TCq2    H2 1534   2.078   1.852   1.963  1.6479  1.9748  1.7334
  100TCq2    H3 1535   1.773   2.137   2.044  1.2160  2.9737 -1.3219
  100TCq2    H4 1536   1.831   1.985   1.658 -0.1636  1.5351  0.0971
  101MPD2     C 1537   2.351   3.373  13.032 -0.2746  0.2360  0.2400
  101MPD2    C1 1538   2.297   3.458  13.121 -0.7169 -1.2644 -0.2144
  101MPD2    C2 1539   2.271   3.413  13.254  0.5487  0.3494 -0.2618
  101MPD2    C3 1540   2.301   3.279  13.282  0.4277 -0.3946 -0.3721
  101MPD2    C4 1541   2.352   3.196  13.185 -0.2487 -0.7195  0.3614
  101MPD2    C5 1542   2.366   3.235  13.062 -0.4291 -0.0878 -0.7714
  101MPD2     H 1543   2.243   3.485  13.330  0.3577 -0.6620  0.6404
  101MPD2    H1 1544   2.368   3.089  13.191 -2.8892 -1.1541 -0.3485
  101MPD2    H2 1545   2.365   3.403  12.929 -0.5246  2.5001  0.8620
  101MPD2    H3 1546   2.386   3.160  12.987 -1.0369 -1.2568  0.2306
  101MPD2     N 1547   2.257   3.228  13.407  0.3866 -0.2444  0.3095
  101MPD2    H5 1548   2.207   3.295  13.465  0.0545 -0.4183  0.2204
  101MPD2    N1 1549   2.281   3.591  13.074 -0.2603  0.2113  0.0639
  101MPD2    H7 1550   2.317   3.621  12.984 -0.7306 -1.5328 -0.7101
  102TCq2    C1 1551   2.393   3.900  12.756 -0.1374 -0.0586  0.8632
  102TCq2    O2 1552   2.508   3.872  12.797  0.1261  0.1945  0.3992
  102TCq2    C2 1553   2.297   3.913  12.859  0.3499 -0.0540 -0.0521
  102TCq2    C3 1554   2.190   3.989  12.856 -0.2656 -0.9163 -0.8806
  102TCq2    C4 1555   2.098   3.979  12.955 -0.7515 -0.3140 -0.4286
  102TCq2    C5 1556   2.107   3.892  13.059 -0.4902 -0.2689  0.4911
  102TCq2    C6 1557   2.220   3.814  13.065  0.1048 -0.0085 -0.4962
  102TCq2    C7 1558   2.317   3.819  12.963  0.0908  1.1100  0.4916
  102TCq2    C8 1559   2.222   3.696  13.145  0.1307  0.4697  0.0963
  102TCq2    O4 1560   2.143   3.685  13.242  0.5504  0.4417  0.2694
  102TCq2    C9 1561   1.974   4.047  12.940 -0.4394 -0.8772 -0.5013
  102TCq2    O5 1562   1.946   4.100  12.829 -0.6927 -0.2376  0.2457
  102TCq2    O6 1563   1.885   4.016  13.024  0.1185 -0.3975  0.2005
  102TCq2    H2 1564   2.185   4.056  12.771  0.1772  0.4092  0.1545
  102TCq2    H3 1565   2.030   3.884  13.135 -2.0884  0.3222 -1.0504
  102TCq2    H4 1566   2.406   3.758  12.969  0.7007  1.8242 -1.4914
  103TMC2    C1 1567   0.570   3.514  13.030  0.5463  0.2953  0.0557
  103TMC2    C2 1568   0.690   3.475  12.976 -0.1812  0.3034 -0.0436
  103TMC2    C3 1569   0.794   3.467  13.059 -0.0651 -0.0658  0.2550
  103TMC2    C4 1570   0.555   3.547  13.161 -0.0263  0.4031  0.3606
  103TMC2    C5 1571   0.667   3.546  13.241  0.0706 -0.0680 -0.2194
  103TMC2    C6 1572   0.786   3.499  13.197 -0.1800  1.3629  0.0271
  103TMC2     C 1573   0.471   3.541  12.932  0.1751  0.0231 -0.2198
  103TMC2     O 1574   0.508   3.552  12.815 -0.0917 -0.1205  0.8203
  103TMC2     H 1575   0.701   3.466  12.868 -0.8586  2.0953 -0.2619
  103TMC2    H1 1576   0.472   3.608  13.196  0.3533  1.2719 -0.2431
  103TMC2    H2 1577   0.872   3.477  13.259  1.3281 -1.2472 -3.0368
  103TMC2    C7 1578   0.665   3.586  13.376  0.1273 -0.0165 -0.1809
  103TMC2    C8 1579   0.899   3.367  13.025  0.1491 -0.1672 -0.3057
  103TMC2    O1 1580   0.554   3.605  13.424 -0.3413  0.1175  0.0363
  103TMC2    O2 1581   0.929   3.271  13.093  0.3401 -0.1632  0.0819
  103TMC2    O5 1582   0.954   3.387  12.908  0.1184  0.3316  0.4870
  103TMC2    H5 1583   0.955   3.483  12.885  1.2887  0.2619  0.2468
  104MPD2     C 1584   0.110   3.528  12.988  0.2837  0.0684  0.0915
  104MPD2    C1 1585   0.227   3.560  12.919 -0.4296  0.2429 -0.0716
  104MPD2    C2 1586   0.219   3.617  12.795  0.1685 -0.0482  0.4357
  104MPD2    C3 1587   0.098   3.651  12.739 -0.1943  0.8754 -0.6706
  104MPD2    C4 1588   4.703   3.629  12.819  0.1849  0.4775  0.1397
  104MPD2    C5 1589   4.712   3.560  12.937  0.1607  0.2459  0.4182
  104MPD2     H 1590   0.311   3.633  12.740  0.7300 -2.0915  0.7822
  104MPD2    H1 1591   4.602   3.651  12.786  0.4314  0.7409 -0.4499
  104MPD2    H2 1592   0.110   3.487  13.088 -0.8622 -2.0747 -0.7898
  104MPD2    H3 1593   4.627   3.550  13.002 -0.3687  1.8443 -0.0216
  104MPD2     N 1594   0.102   3.719  12.618 -0.0568  0.6298 -0.2146
  104MPD2    H5 1595   0.193   3.719  12.573 -0.5215 -1.2714 -1.1454
  104MPD2    N1 1596   0.346   3.534  12.990  0.0485 -0.4258 -0.3858
  104MPD2    H7 1597   0.343   3.501  13.086 -0.4760 -0.6028 -0.4676
  105MPD2     C 1598   2.170   2.551  17.468  0.3550 -0.4082 -0.3858
  105MPD2    C1 1599   2.087   2.659  17.444 -0.7956  0.0839  0.2857
  105MPD2    C2 1600   2.011   2.703  17.551 -0.0766  0.0690 -0.1132
  105MPD2    C3 1601   2.005   2.629  17.668  0.0663  0.0219  0.2207
  105MPD2    C4 1602   2.067   2.510  17.681  0.5376 -0.0736  0.1548
  105MPD2    C5 1603   2.143   2.468  17.578  0.4018  0.0259 -0.1100
  105MPD2     H 1604   1.948   2.791  17.546  1.5926  1.2315 -0.6812
  105MPD2    H1 1605   2.037   2.446   0.077 -1.5282  1.5930  0.7027
  105MPD2    H2 1606   2.232   2.502  17.393 -0.7262  0.6049 -1.9294
  105MPD2    H3 1607   2.174   2.364  17.582 -0.0404 -0.0344  1.5657
  105MPD2     N 1608   1.940   2.698   0.086 -0.3636 -0.3517 -0.0731
  105MPD2    H5 1609   1.926   2.798   0.078 -1.6670 -0.4160  1.4855
  105MPD2    N1 1610   2.105   2.734  17.326  0.6065 -0.4368 -0.2113
  105MPD2    H7 1611   2.039   2.812  17.320 -0.3704 -1.3337 -1.2642
  106TCq2    C1 1612   1.889   2.639   0.200  0.1216  0.0788 -0.0048
  106TCq2    O2 1613   1.901   2.523   0.235  0.1859  0.0773  0.5545
  106TCq2    C2 1614   1.797   2.723   0.273 -0.0606  0.1949  0.2362
  106TCq2    C3 1615   1.753   2.840   0.215  0.5041  0.0918  0.8216
  106TCq2    C4 1616   1.688   2.923   0.305 -0.6738  0.0030  0.0631
  106TCq2    C5 1617   1.676   2.894   0.436  0.6526 -0.3324 -0.3374
  106TCq2    C6 1618   1.725   2.774   0.486  0.5318 -0.8729  0.1919
  106TCq2    C7 1619   1.777   2.679   0.405  0.4560  0.2059 -0.3408
  106TCq2    C8 1620   1.664   2.718   0.609 -0.0268 -0.3669 -1.0240
  106TCq2    O4 1621   1.717   2.615   0.652 -0.3758  0.2704 -0.1528
  106TCq2    C9 1622   1.644   3.047   0.259  0.4640 -0.6718  0.2366
  106TCq2    O5 1623   1.613   3.049   0.135 -0.2559  0.1741  0.1276
  106TCq2    O6 1624   1.638   3.150   0.332  0.3833 -0.2551 -0.0816
  106TCq2    H2 1625   1.784   2.877   0.117 -1.8220 -2.3927 -0.8279
  106TCq2    H3 1626   1.630   2.971   0.496 -0.5719 -0.4267 -1.1625
  106TCq2    H4 1627   1.800   2.578   0.438 -2.9516 -0.0777  1.1240
  107TMC2    C1 1628   3.170   1.699  11.608 -0.6318 -0.2408 -0.8523
  107TMC2    C2 1629   3.306   1.701  11.630 -0.0781  1.2842  0.2154
  107TMC2    C3 1630   3.387   1.667  11.526 -0.5638 -0.3225  0.1625
  107TMC2    C4 1631   3.115   1.654  11.485 -0.3451  0.0832  0.0706
  107TMC2    C5 1632   3.199   1.602  11.392  0.2118 -0.3420  0.7557
  107TMC2    C6 1633   3.334   1.609  11.409 -1.1726  0.2286  0.4297
  107TMC2     C 1634   3.093   1.788  11.690 -0.2854 -0.3058  0.0391
  107TMC2     O 1635   2.985   1.750  11.734 -0.1184 -0.0465 -0.0329
  107TMC2     H 1636   3.342   1.751  11.719 -0.2232 -0.6376  1.3477
  107TMC2    H1 1637   3.008   1.647  11.470 -0.3852  0.0198  0.3756
  107TMC2    H2 1638   3.403   1.589  11.328 -0.0771  0.4628  1.3041
  107TMC2    C7 1639   3.156   1.549  11.261  0.0703 -0.4490  0.4895
  107TMC2    C8 1640   3.530   1.701  11.533  0.2239  0.7293  0.3527
  107TMC2    O1 1641   3.244   1.524  11.181  0.1367  0.2095  0.8266
  107TMC2    O2 1642   3.566   1.799  11.598 -0.8819  0.1113 -0.2724
  107TMC2    O5 1643   3.608   1.603  11.493  0.3737  0.0425 -0.0096
  107TMC2    H5 1644   3.561   1.525  11.457  2.8093 -2.0755  1.4039
  108MPD2     C 1645   3.093   2.147  11.709 -0.4032 -0.0488 -0.4431
  108MPD2    C1 1646   3.073   2.020  11.752  0.2723  0.4424  0.0863
  108MPD2    C2 1647   2.994   2.008  11.865 -0.2390 -0.7971  0.6468
  108MPD2    C3 1648   2.946   2.117  11.933 -0.0061 -0.2975 -0.8590
  108MPD2    C4 1649   2.979   2.249  11.888  0.2018 -0.5882  0.5959
  108MPD2    C5 1650   3.055   2.259  11.778  0.1184  0.1732 -0.6303
  108MPD2     H 1651   2.990   1.911  11.913  0.1265 -0.4042  1.4763
  108MPD2    H1 1652   2.955   2.336  11.948  0.2504  1.0222 -1.7261
  108MPD2    H2 1653   3.155   2.163  11.622 -0.2066  0.2456 -0.2469
  108MPD2    H3 1654   3.072   2.355  11.731  3.7450 -0.2892 -0.3297
  108MPD2     N 1655   2.879   2.101  12.057 -0.1804 -0.4288 -0.2568
  108MPD2    H5 1656   2.852   2.187  12.103 -0.7183 -0.4755 -0.4853
  108MPD2    N1 1657   3.141   1.917  11.690 -0.4191  0.1340 -0.0644
  108MPD2    H7 1658   3.202   1.932  11.610 -0.1396  0.5429  0.2294
  109MPD2     C 1659   2.512   3.823   1.853  0.0355 -0.6171  0.1700
  109MPD2    C1 1660   2.634   3.828   1.792 -0.3896 -1.2327  0.0795
  109MPD2    C2 1661   2.739   3.899   1.856  0.1473 -0.2769 -0.1464
  109MPD2    C3 1662   2.715   3.978   1.966 -0.2362 -0.4822 -0.2701
  109MPD2    C4 1663   2.591   3.970   2.026 -0.0691  0.5666  0.5512
  109MPD2    C5 1664   2.493   3.890   1.973  0.0603  0.9653 -0.3019
  109MPD2     H 1665   2.837   3.917   1.814 -0.6913  1.8448 -1.2194
  109MPD2    H1 1666   2.571   4.008   2.126 -0.0354  1.8804  0.0536
  109MPD2    H2 1667   2.435   3.761   1.807 -0.2354 -0.5499  0.5304
  109MPD2    H3 1668   2.404   3.868   2.031  0.2084  1.7627  0.2210
  109MPD2     N 1669   2.814   4.071   2.008  0.2679 -0.5543  0.4882
  109MPD2    H5 1670   2.894   4.083   1.946 -1.5558  0.9112 -1.6035
  109MPD2    N1 1671   2.638   3.776   1.665  0.2469 -0.4466 -0.5049
  109MPD2    H7 1672   2.549   3.739   1.633 -0.5652 -0.4126  1.7005
  110TCq2    C1 1673   2.801   4.164   2.111  0.7716  0.4411  0.2272
  110TCq2    O2 1674   2.712   4.172   2.197  0.1575 -0.0642 -0.0825
  110TCq2    C2 1675   2.909   4.258   2.118  0.3650 -0.5703 -0.2653
  110TCq2    C3 1676   2.951   4.299   2.241  0.6084  0.6052 -0.1157
  110TCq2    C4 1677   3.046   4.397   2.248  0.0269 -0.0249 -0.3544
  110TCq2    C5 1678   3.098   4.467   2.145  0.7132 -0.0804  0.2533
  110TCq2    C6 1679   3.054   4.421   2.019 -0.4717  0.7269  0.4169
  110TCq2    C7 1680   2.966   4.317   2.005  0.5056 -0.0299  0.5305
  110TCq2    C8 1681   3.062   4.511   1.898 -0.2717  0.2347  0.1393
  110TCq2    O4 1682   2.981   4.503   1.806  0.6638 -0.0876 -0.5176
  110TCq2    C9 1683   3.094   4.425   2.373 -0.1175  0.1423 -0.4211
  110TCq2    O5 1684   3.036   4.364   2.470 -0.5910 -0.8329 -0.0237
  110TCq2    O6 1685   3.207   4.486   2.390  0.4852  0.2076  0.0749
  110TCq2    H2 1686   2.908   4.254   2.330  1.3165 -0.8949 -0.5383
  110TCq2    H3 1687   3.183   4.527   2.176 -0.0922  0.7547  0.8420
  110TCq2    H4 1688   2.926   4.290   1.907  1.8181 -1.7854  0.4707
  111TMC2    C1 1689   3.016   3.664  11.267 -0.7671  0.7514  0.5895
  111TMC2    C2 1690   3.124   3.653  11.186  0.1123  0.3178 -0.0732
  111TMC2    C3 1691   3.238   3.609  11.248 -0.3419  0.0877  0.0849
  111TMC2    C4 1692   3.025   3.627  11.403  0.2885  0.9496 -0.2862
  111TMC2    C5 1693   3.144   3.593  11.454  0.1625 -0.1791  0.0305
  111TMC2    C6 1694   3.263   3.599  11.384  0.8626  0.5005  0.4598
  111TMC2     C 1695   2.904   3.750  11.224  0.4550 -0.0273 -0.0708
  111TMC2     O 1696   2.888   3.763  11.103 -0.1208 -0.0556  0.1112
  111TMC2     H 1697   3.114   3.668  11.079  0.0796 -0.4501 -0.1820
  111TMC2    H1 1698   2.938   3.617  11.468 -1.0489 -0.6936 -2.3399
  111TMC2    H2 1699   3.359   3.580  11.430  0.4043 -2.3731  0.2302
  111TMC2    C7 1700   3.149   3.574  11.597 -0.0008  0.5191 -0.2853
  111TMC2    C8 1701   3.355   3.655  11.171  0.1312  0.7176 -0.2340
  111TMC2    O1 1702   3.054   3.531  11.661 -0.5948  0.5756  0.4917
  111TMC2    O2 1703   3.411   3.766  11.197 -0.2496 -0.0789  0.2520
  111TMC2    O5 1704   3.352   3.594  11.052  0.7451  0.2715 -0.1232
  111TMC2    H5 1705   3.301   3.511  11.058 -1.0407  1.3941  0.0243
  112MPD2     C 1706   2.587   4.154  11.284 -0.2537 -0.2554  0.1563
  112MPD2    C1 1707   2.603   4.068  11.179  0.3376 -0.1975 -0.5057
  112MPD2    C2 1708   2.688   3.960  11.179 -0.3365 -0.0121  0.0400
  112MPD2    C3 1709   2.769   3.938  11.297  0.3487 -0.7263  0.1591
  112MPD2    C4 1710   2.750   4.031  11.393 -0.6692  0.4501 -0.1977
  112MPD2    C5 1711   2.665   4.136  11.389  0.1490  0.1267  0.1531
  112MPD2     H 1712   2.708   3.917  11.082 -1.3890 -1.3404  0.4151
  112MPD2    H1 1713   2.814   4.022  11.480 -3.8336  0.1688  2.0892
  112MPD2    H2 1714   2.521   4.240  11.284 -0.0324 -0.1030  2.0071
  112MPD2    H3 1715   2.663   4.195  11.479  1.6658  0.9267 -0.3341
  112MPD2     N 1716   2.861   3.835  11.322  0.3900 -0.1715  0.3676
  112MPD2    H5 1717   2.906   3.825  11.412 -0.4636  1.5685  0.9740
  112MPD2    N1 1718   2.527   4.081  11.060 -0.4010 -0.2702 -0.1113
  112MPD2    H7 1719   2.551   4.029  10.977  0.8501 -0.1200  0.1593
  113MPD2     C 1720   1.336   1.821   0.997  0.1845  0.2278 -0.0956
  113MPD2    C1 1721   1.235   1.918   1.009 -0.2987  0.4057 -0.4550
  113MPD2    C2 1722   1.134   1.910   0.915 -1.1979  0.2638 -0.1226
  113MPD2    C3 1723   1.132   1.817   0.816 -0.1153  0.6870  0.4555
  113MPD2    C4 1724   1.232   1.727   0.809  0.5062  0.0031  0.0060
  113MPD2    C5 1725   1.335   1.727   0.897 -0.3948  0.0566  0.1136
  113MPD2     H 1726   1.051   1.979   0.912  0.1860  2.0016  0.9601
  113MPD2    H1 1727   1.237   1.659   0.724  0.6278  0.5283 -0.4073
  113MPD2    H2 1728   1.425   1.813   1.058 -0.5762  0.1166  1.0123
  113MPD2    H3 1729   1.423   1.664   0.887  0.6963  1.6916 -0.6580
  113MPD2     N 1730   1.037   1.803   0.715  0.4500  0.1364  0.3781
  113MPD2    H5 1731   1.033   1.722   0.654 -0.4960 -0.7513  1.6175
  113MPD2    N1 1732   1.221   2.015   1.109 -0.0912  0.4507  0.0402
  113MPD2    H7 1733   1.134   2.068   1.109 -1.1770 -1.3650 -2.7487
  114TCq2    C1 1734   0.954   1.906   0.680 -0.6233  0.1475 -0.2153
  114TCq2    O2 1735   0.966   2.028   0.698  0.1100  0.0092  0.6379
  114TCq2    C2 1736   0.863   1.866   0.582  0.4394  0.1893 -0.0996
  114TCq2    C3 1737   0.842   1.946   0.471  0.4892  0.3016  0.3071
  114TCq2    C4 1738   0.795   1.888   0.363 -0.5225 -0.1838  0.1440
  114TCq2    C5 1739   0.777   1.755   0.355 -0.4576 -0.0582 -0.1550
  114TCq2    C6 1740   0.792   1.676   0.462  0.4815  0.5698 -0.2344
  114TCq2    C7 1741   0.834   1.729   0.579 -0.6053 -0.1120 -0.4988
  114TCq2    C8 1742   0.747   1.534   0.462 -0.2396 -0.1992  0.5812
  114TCq2    O4 1743   0.773   1.474   0.359 -0.3846  0.2668 -0.7174
  114TCq2    C9 1744   0.767   1.966   0.242  0.4717 -0.2996 -0.0701
  114TCq2    O5 1745   0.803   2.085   0.245 -0.4309  0.1471  0.2115
  114TCq2    O6 1746   0.736   1.913   0.138 -0.1529 -0.2888 -0.2022
  114TCq2    H2 1747   0.873   2.050   0.470  2.3684 -0.2760 -1.3605
  114TCq2    H3 1748   0.739   1.707   0.266 -0.7650  2.7304 -1.5404
  114TCq2    H4 1749   0.844   1.668   0.668 -0.8787 -0.9715 -1.0601
  115TMC2    C1 1750   2.044   0.256   0.193 -0.1261 -0.3864  0.3985
  115TMC2    C2 1751   2.018   0.258   0.327  0.6841  0.9885  0.3744
  115TMC2    C3 1752   1.994   0.373   0.395  0.0147 -0.2216 -0.2649
  115TMC2    C4 1753   2.029   0.377   0.118  0.6883  0.2390 -0.5900
  115TMC2    C5 1754   2.011   0.493   0.188 -0.2224 -0.3598 -0.2408
  115TMC2    C6 1755   1.985   0.489   0.324 -0.0178 -0.3993 -0.2505
  115TMC2     C 1756   2.046   0.130   0.124  0.0291 -0.3459 -0.3369
  115TMC2     O 1757   2.018   0.133   0.005 -0.3834  0.6662 -0.0672
  115TMC2     H 1758   2.035   0.177   0.397  2.2143  1.0063  0.0231
  115TMC2    H1 1759   2.052   0.372   0.012  1.5013  0.4656 -0.4276
  115TMC2    H2 1760   1.953   0.578   0.377  0.0618  0.0258 -0.9167
  115TMC2    C7 1761   2.003   0.622   0.120  0.6391 -0.2480  0.0678
  115TMC2    C8 1762   2.064   0.386   0.513 -0.0404 -0.1859 -0.3139
  115TMC2    O1 1763   1.951   0.715   0.182 -0.7746  0.4064 -0.1463
  115TMC2    O2 1764   2.182   0.369   0.525 -0.7296 -0.3790 -0.1539
  115TMC2    O5 1765   1.985   0.438   0.612  0.1030 -0.1519  0.2813
  115TMC2    H5 1766   1.892   0.422   0.588  0.5790 -2.0058 -0.3450
  116MPD2     C 1767   2.227   4.373   0.130 -0.5951  0.5366 -0.4254
  116MPD2    C1 1768   2.107   4.425   0.082 -0.0799  0.3192  0.0734
  116MPD2    C2 1769   2.079   4.565   0.086  0.7072 -0.2873 -0.3108
  116MPD2    C3 1770   2.163   4.645   0.162 -0.2998 -0.5371  1.0587
  116MPD2    C4 1771   2.271   4.592   0.229 -0.8978 -0.6001  0.3208
  116MPD2    C5 1772   2.304   4.458   0.213  0.5606 -0.4065  0.0133
  116MPD2     H 1773   1.990   4.607   0.040  0.3635  1.0182  1.5415
  116MPD2    H1 1774   2.338   4.658   0.282 -0.7501 -1.3736  1.0962
  116MPD2    H2 1775   2.237   4.266   0.116  0.7581  0.8681 -1.9665
  116MPD2    H3 1776   2.397   4.421   0.254  0.3632 -2.0882 -1.0703
  116MPD2     N 1777   2.134   0.058   0.192  0.6464  0.1498 -0.4068
  116MPD2    H5 1778   2.192   0.104   0.262  1.7224 -2.2148  0.2679
  116MPD2    N1 1779   2.013   4.331   0.029 -0.0418 -0.2133 -0.2550
  116MPD2    H7 1780   2.042   4.234   0.020 -1.1492 -0.4872 -0.8922
  117TMC2    C1 1781   0.440   0.907  13.977  0.0174  0.2627  0.0733
  117TMC2    C2 1782   0.553   0.833  13.995  0.1287  0.3328 -0.2109
  117TMC2    C3 1783   0.657   0.898  14.054 -0.5928  0.4016  0.4838
  117TMC2    C4 1784   0.429   1.036  14.021  0.3460  0.4275  0.2946
  117TMC2    C5 1785   0.535   1.091  14.087 -0.7229  0.0159  0.0754
  117TMC2    C6 1786   0.649   1.019  14.103 -0.2008 -0.0881 -0.0894
  117TMC2     C 1787   0.335   0.851  13.892  0.0884  0.4403  0.8513
  117TMC2     O 1788   0.319   0.732  13.889 -0.3615  0.0378 -0.2354
  117TMC2     H 1789   0.554   0.732  13.956  0.4858  0.4493 -0.5051
  117TMC2    H1 1790   0.334   1.088  14.026  1.7073  2.6268  3.1216
  117TMC2    H2 1791   0.733   1.077  14.141 -0.7949  1.7795 -1.5894
  117TMC2    C7 1792   0.539   1.237  14.114  0.2083 -0.6508 -0.7227
  117TMC2    C8 1793   0.782   0.828  14.069  0.3838  0.3668 -0.4585
  117TMC2    O1 1794   0.642   1.289  14.160 -0.1169 -0.0977 -0.8309
  117TMC2    O2 1795   0.877   0.900  14.097 -0.3579 -0.2366  0.1551
  117TMC2    O5 1796   0.763   0.708  14.133 -0.0687  0.4695  0.6068
  117TMC2    H5 1797   0.667   0.688  14.138 -0.5584  2.9651  1.3709
  118MPD2     C 1798   0.305   1.510  14.013  0.6555 -0.4003 -0.2715
  118MPD2    C1 1799   0.416   1.453  14.077  0.4506 -0.4435 -0.0441
  118MPD2    C2 1800   0.496   1.536  14.148 -0.3691 -1.3150  0.2426
  118MPD2    C3 1801   0.468   1.673  14.153 -0.4732 -0.2726 -0.0096
  118MPD2    C4 1802   0.362   1.724  14.080 -0.0771 -0.2894 -0.6489
  118MPD2    C5 1803   0.285   1.643  14.004 -0.3012  0.2913  0.2128
  118MPD2     H 1804   0.579   1.492  14.203  0.4386 -0.0382  0.0406
  118MPD2    H1 1805   0.355   1.832  14.075  1.7559  0.0044  2.8983
  118MPD2    H2 1806   0.230   1.455  13.957  1.3630  0.6935 -2.3181
  118MPD2    H3 1807   0.199   1.680  13.949 -0.7388 -1.6333 -0.4299
  118MPD2     N 1808   0.541   1.762  14.230 -0.6462 -0.4467  0.7127
  118MPD2    H5 1809   0.525   1.861  14.215  0.6541 -0.3934 -0.3523
  118MPD2    N1 1810   0.438   1.312  14.057  0.3010  0.3677  0.3378
  118MPD2    H7 1811   0.362   1.267  14.008  0.2378 -1.0343  1.7377
  119MPD2     C 1812   2.507   2.186  13.736  0.0029 -0.0414 -0.3658
  119MPD2    C1 1813   2.578   2.201  13.617  0.0819 -0.0704 -0.2928
  119MPD2    C2 1814   2.686   2.119  13.592  0.2559 -0.2027  0.1272
  119MPD2    C3 1815   2.723   2.017  13.687  0.2886  0.0395 -0.3400
  119MPD2    C4 1816   2.646   1.997  13.795  0.2704  0.2356 -0.2158
  119MPD2    C5 1817   2.534   2.077  13.816 -0.0193 -0.2313 -0.0170
  119MPD2     H 1818   2.742   2.138  13.501  1.5229 -1.8855  0.5535
  119MPD2    H1 1819   2.663   1.917  13.865 -1.5295 -0.5553 -0.6843
  119MPD2    H2 1820   2.431   2.250  13.779  0.6301 -0.3224  1.1494
  119MPD2    H3 1821   2.478   2.078  13.909  0.5875  1.2814  0.3377
  119MPD2     N 1822   2.836   1.934  13.672 -0.5791  0.4963  0.9336
  119MPD2    H5 1823   2.850   1.876  13.754  1.6974  1.1284  0.9832
  119MPD2    N1 1824   2.545   2.309  13.534  0.4008 -0.3934  0.1249
  119MPD2    H7 1825   2.485   2.380  13.575 -0.3735 -1.2930  0.5443
  120TCq2    C1 1826   2.936   1.953  13.584  1.0695 -0.3140  0.2199
  120TCq2    O2 1827   2.953   2.018  13.478  0.4739  0.2399 -0.2924
  120TCq2    C2 1828   3.061   1.881  13.620  0.1835 -0.0077 -0.2089
  120TCq2    C3 1829   3.153   1.855  13.519 -1.0129 -0.2566  0.0398
  120TCq2    C4 1830   3.287   1.860  13.545  0.5122 -0.1163  0.3921
  120TCq2    C5 1831   3.333   1.879  13.670 -0.2769 -0.3655  0.2035
  120TCq2    C6 1832   3.240   1.914  13.767 -0.8371  0.5956  0.2820
  120TCq2    C7 1833   3.108   1.915  13.748 -0.0741 -0.0188 -0.0627
  120TCq2    C8 1834   3.287   1.983  13.883  0.3588  0.3692  0.3833
  120TCq2    O4 1835   3.386   2.056  13.869 -0.0797  0.3577  0.1748
  120TCq2    C9 1836   3.383   1.855  13.435 -0.8239  0.3736  0.5165
  120TCq2    O5 1837   3.502   1.838  13.467  0.1599 -0.3666 -0.1575
  120TCq2    O6 1838   3.346   1.883  13.317  0.0864  0.2213  0.4318
  120TCq2    H2 1839   3.131   1.849  13.413 -0.7107  0.5980 -0.0752
  120TCq2    H3 1840   3.435   1.906  13.693 -1.7698  3.6275  2.1487
  120TCq2    H4 1841   3.049   1.963  13.826  0.1743  0.7472 -0.3430
  121TMC2    C1 1842   4.529   4.353  14.326  0.1602  0.3401  0.1849
  121TMC2    C2 1843   4.568   4.372  14.459  0.0172  0.5491  0.4659
  121TMC2    C3 1844   4.472   4.341  14.550  0.3750 -0.2910 -0.6036
  121TMC2    C4 1845   4.399   4.321  14.282 -1.2307 -0.2104 -0.1174
  121TMC2    C5 1846   4.317   4.291  14.379 -0.4453  0.4431 -0.4208
  121TMC2    C6 1847   4.354   4.284  14.510  0.7559 -0.5690  0.3888
  121TMC2     C 1848   4.643   4.307  14.249 -0.4803 -0.3346 -0.0790
  121TMC2     O 1849   0.029   4.297  14.311 -0.5416 -0.1980 -0.2626
  121TMC2     H 1850   4.659   4.418  14.495 -1.1141  2.7597  0.4818
  121TMC2    H1 1851   4.360   4.311  14.182 -2.0048  0.0985  0.1508
  121TMC2    H2 1852   4.277   4.255  14.581  1.7572 -2.1685  0.8257
  121TMC2    C7 1853   4.208   4.206  14.338 -0.9632 -0.0387 -0.6073
  121TMC2    C8 1854   4.504   4.318  14.686 -0.4901 -0.0044  0.4241
  121TMC2    O1 1855   4.220   4.089  14.369 -0.2711 -0.1226  0.1884
  121TMC2    O2 1856   4.430   4.249  14.755 -0.1445 -0.0529 -0.1936
  121TMC2    O5 1857   4.551   4.441  14.735  0.3516 -0.0246  0.2944
  121TMC2    H5 1858   4.570   4.505  14.663  0.5083  1.8078  1.9732
  122MPD2     C 1859   0.110   4.185  14.055 -0.1166 -0.2071  0.3437
  122MPD2    C1 1860   0.022   4.286  14.022  0.5786 -0.1362 -0.0728
  122MPD2    C2 1861   0.031   4.355  13.901 -0.0785  0.1258 -0.1836
  122MPD2    C3 1862   0.137   4.325  13.825  0.8924  0.2597  0.2878
  122MPD2    C4 1863   0.219   4.223  13.859 -0.9840 -0.1293  0.2679
  122MPD2    C5 1864   0.203   4.146  13.967 -0.0148  0.6991 -0.0350
  122MPD2     H 1865   4.689   4.439  13.874  0.9827  1.1517  0.5314
  122MPD2    H1 1866   0.294   4.188  13.789  0.2154 -1.7987  2.3867
  122MPD2    H2 1867   0.094   4.128  14.146  1.2123 -0.6602  0.2920
  122MPD2    H3 1868   0.264   4.058  13.985  0.8714  0.8906 -2.1116
  122MPD2     N 1869   0.165   4.400  13.711  0.0588 -0.3848 -0.8111
  122MPD2    H5 1870   0.258   4.386  13.674  1.1377 -0.3374  1.9320
  122MPD2    N1 1871   4.632   4.314  14.110  0.0272 -0.2039 -0.3849
  122MPD2    H7 1872   4.553   4.369  14.076  0.5439  1.1605  0.6430
  123MPD2     C 1873   3.020   2.398  10.898 -0.2117 -0.3378 -0.1811
  123MPD2    C1 1874   3.051   2.327  10.784 -0.2278  0.2907 -0.1144
  123MPD2    C2 1875   3.172   2.333  10.731  0.7469  0.0055 -0.2636
  123MPD2    C3 1876   3.273   2.410  10.767  0.0551  0.5083  0.1327
  123MPD2    C4 1877   3.244   2.482  10.878  0.2207  0.0811  0.1788
  123MPD2    C5 1878   3.120   2.480  10.935 -0.4312  0.0732 -0.5114
  123MPD2     H 1879   3.212   2.279  10.645 -0.6907  0.1064 -0.9822
  123MPD2    H1 1880   3.306   2.565  10.910  1.8999 -0.7412 -0.9798
  123MPD2    H2 1881   2.933   2.404  10.963 -2.3978  2.1104 -3.2973
  123MPD2    H3 1882   3.107   2.543  11.022 -1.0764 -0.0353 -0.5304
  123MPD2     N 1883   3.387   2.416  10.684  0.2707 -0.7575  0.1270
  123MPD2    H5 1884   3.381   2.360  10.599  0.4471 -1.7790  0.7897
  123MPD2    N1 1885   2.949   2.238  10.742  0.3705 -0.6761  0.0459
  123MPD2    H7 1886   2.861   2.241  10.794  0.7099  0.4157  0.5548
  124TCq2    C1 1887   3.497   2.493  10.704  0.6316 -0.2133 -0.2848
  124TCq2    O2 1888   3.526   2.542  10.814 -0.3102  0.3831  0.1573
  124TCq2    C2 1889   3.607   2.480  10.605  0.2324 -0.2868  0.2869
  124TCq2    C3 1890   3.736   2.509  10.645  0.1442 -0.7705  0.2683
  124TCq2    C4 1891   3.834   2.491  10.550  0.0680  0.2181 -0.1137
  124TCq2    C5 1892   3.801   2.460  10.420 -0.2030  0.0592  0.0229
  124TCq2    C6 1893   3.666   2.450  10.378  0.4742  0.4227 -0.3631
  124TCq2    C7 1894   3.570   2.462  10.473  0.3143 -0.4115  0.0928
  124TCq2    C8 1895   3.629   2.407  10.244 -0.9509 -0.8270  0.0772
  124TCq2    O4 1896   3.510   2.384  10.222  0.3181  0.4389  0.5066
  124TCq2    C9 1897   3.968   2.499  10.594  0.5321 -0.0070 -0.0437
  124TCq2    O5 1898   4.054   2.447  10.520 -0.1722  0.6102  0.2180
  124TCq2    O6 1899   3.985   2.510  10.714 -0.0051  0.0485 -0.0297
  124TCq2    H2 1900   3.760   2.519  10.750 -0.9694  2.2584  0.2279
  124TCq2    H3 1901   3.881   2.443  10.348 -0.4602  0.3739 -0.3324
  124TCq2    H4 1902   3.467   2.455  10.441  0.8979 -0.6369 -1.7180
  125TMC2    C1 1903   3.770   2.667   9.342 -0.6789  0.3917  0.4302
  125TMC2    C2 1904   3.650   2.605   9.331  0.7957 -0.1271 -0.0254
  125TMC2    C3 1905   3.544   2.695   9.324  0.1985  0.5634  0.2083
  125TMC2    C4 1906   3.790   2.804   9.359 -0.0963 -0.6787  0.1300
  125TMC2    C5 1907   3.673   2.885   9.368 -0.3132 -0.2328  0.0491
  125TMC2    C6 1908   3.555   2.825   9.360 -0.6325  0.6826  0.7447
  125TMC2     C 1909   3.889   2.570   9.351  0.5648 -0.2659 -0.2187
  125TMC2     O 1910   3.871   2.459   9.299 -0.1510  0.2886 -0.1017
  125TMC2     H 1911   3.635   2.507   9.288 -1.0889  0.4159 -0.6507
  125TMC2    H1 1912   3.882   2.857   9.379 -1.7747  1.6886  1.5497
  125TMC2    H2 1913   3.464   2.884   9.367 -0.3490  1.2665 -0.5433
  125TMC2    C7 1914   3.679   3.032   9.380  0.3468 -0.0150 -0.4471
  125TMC2    C8 1915   3.412   2.637   9.300  0.2087 -0.5918 -0.2242
  125TMC2    O1 1916   3.578   3.093   9.410  0.5274 -0.0951 -0.2435
  125TMC2    O2 1917   3.390   2.517   9.312  0.3443 -0.1778  0.0889
  125TMC2    O5 1918   3.308   2.725   9.285  0.7634  0.3440 -0.3057
  125TMC2    H5 1919   3.340   2.817   9.271  2.6910 -0.3508 -0.4873
  126MPD1     C 1920   4.370   2.454   9.488 -0.8819 -0.3726  0.5836
  126MPD1    C1 1921   4.359   2.588   9.471  0.1363 -0.7928  0.7623
  126MPD1    C2 1922   4.237   2.646   9.448  0.8648  0.0726 -0.0823
  126MPD1    C3 1923   4.130   2.565   9.415 -0.1438 -0.5739  0.2824
  126MPD1    C4 1924   4.148   2.430   9.401  0.1961  0.4760  0.6562
  126MPD1    C5 1925   4.274   2.372   9.436  0.4645 -0.6472  0.6683
  126MPD1     H 1926   4.227   2.752   9.467  0.5521  0.1974 -0.9430
  126MPD1    H1 1927   4.069   2.365   9.367  1.0796  0.1486 -0.7684
  126MPD1    H2 1928   4.461   2.407   9.522 -0.2339  0.6621  0.2897
  126MPD1    H3 1929   4.289   2.265   9.448 -1.6130 -0.9668  0.3410
  126MPD1     N 1930   4.007   2.628   9.383  0.0244  0.5572  0.0647
  126MPD1    H5 1931   3.998   2.725   9.413 -1.2801  0.5690 -0.3819
  126MPD1    N1 1932   4.464   2.667   9.523 -0.0779  0.6968 -0.0802
  126MPD1    H6 1933   4.477   2.760   9.483 -1.9854  0.7156 -0.6854
  126MPD1    H7 1934   4.550   2.614   9.511  1.1445  2.4195  1.2530
  127MPD2     C 1935   0.737   3.374   9.618 -0.3942  0.5854  0.3865
  127MPD2    C1 1936   0.636   3.429   9.701 -0.8709  0.4026 -0.6374
  127MPD2    C2 1937   0.615   3.565   9.690  0.8104 -0.1033 -0.2017
  127MPD2    C3 1938   0.690   3.641   9.599  0.0461  0.1404  0.7284
  127MPD2    C4 1939   0.787   3.585   9.526  0.5852  0.1948  0.4838
  127MPD2    C5 1940   0.811   3.448   9.531 -1.2633 -0.3203  0.3008
  127MPD2     H 1941   0.549   3.617   9.758  0.6883 -0.7190  0.1446
  127MPD2    H1 1942   0.831   3.639   9.443  0.1078  1.0616  0.7885
  127MPD2    H2 1943   0.756   3.268   9.610  3.2557  1.4116 -1.6484
  127MPD2    H3 1944   0.893   3.417   9.467 -0.6554 -0.7608  1.2905
  127MPD2     N 1945   0.662   3.780   9.601  0.7938  0.3704 -0.5014
  127MPD2    H5 1946   0.582   3.810   9.656  0.8929 -1.5060  0.6579
  127MPD2    N1 1947   0.586   3.342   9.791 -0.3192 -0.6782 -0.1492
  127MPD2    H7 1948   0.602   3.243   9.775  1.7176 -0.4275  0.3957
  128TCq2    C1 1949   0.524   3.376   9.909  0.9047 -0.5306  0.3380
  128TCq2    O2 1950   0.511   3.487   9.953  0.3707  0.0148 -0.1084
  128TCq2    C2 1951   0.479   3.268   9.985  0.4492 -0.4241  0.1459
  128TCq2    C3 1952   0.475   3.291  10.123  0.5696 -0.1622 -0.3427
  128TCq2    C4 1953   0.402   3.206  10.192 -0.1956  0.5483  0.8178
  128TCq2    C5 1954   0.317   3.112  10.132  0.3825  0.2097 -0.6903
  128TCq2    C6 1955   0.314   3.110   9.997  1.1310  0.0836  0.7941
  128TCq2    C7 1956   0.397   3.182   9.912 -0.4475  0.1867  0.6568
  128TCq2    C8 1957   0.235   3.009   9.929  0.5776 -0.3005 -0.4909
  128TCq2    O4 1958   0.209   3.036   9.814  0.3392  0.2677  0.4698
  128TCq2    C9 1959   0.375   3.230  10.329 -0.2078 -0.8447  0.3767
  128TCq2    O5 1960   0.307   3.140  10.391 -0.3681 -0.3515 -0.2629
  128TCq2    O6 1961   0.418   3.333  10.384  0.5684 -0.2656 -0.2581
  128TCq2    H2 1962   0.528   3.374  10.169 -0.8028  1.0657 -0.9583
  128TCq2    H3 1963   0.240   3.059  10.188 -0.7560  1.5354 -1.0027
  128TCq2    H4 1964   0.405   3.152   9.808  2.8614  0.0520  0.9420
  129MPD2     C 1965   3.202   3.729   0.573 -0.1628  0.3491  0.4299
  129MPD2    C1 1966   3.301   3.807   0.616  0.0405  0.6063 -0.8433
  129MPD2    C2 1967   3.363   3.893   0.532  0.3400 -0.4182  0.1759
  129MPD2    C3 1968   3.327   3.900   0.399  0.2323  0.0524  0.3604
  129MPD2    C4 1969   3.229   3.815   0.350 -0.4350 -0.3605 -0.4965
  129MPD2    C5 1970   3.173   3.727   0.441  0.1452  0.4546  0.4497
  129MPD2     H 1971   3.428   3.966   0.579  1.0802  0.2976 -1.9568
  129MPD2    H1 1972   3.214   3.792   0.245 -0.0710  0.8284 -0.8081
  129MPD2    H2 1973   3.149   3.655   0.633 -2.3499 -0.0868 -2.0412
  129MPD2    H3 1974   3.108   3.646   0.409  1.1951  0.4229 -1.6046
  129MPD2     N 1975   3.397   4.001   0.324  0.3991 -0.5077 -0.4460
  129MPD2    H5 1976   3.472   4.052   0.368 -0.0522 -0.3612  0.1471
  129MPD2    N1 1977   3.339   3.796   0.756  0.2849  0.0866 -0.3061
  129MPD2    H7 1978   3.409   3.865   0.779  0.6398 -0.4147  0.1403
  130TCq2    C1 1979   3.306   3.701   0.844  0.0754  0.1815 -0.8329
  130TCq2    O2 1980   3.250   3.597   0.824  0.2878 -0.0760 -0.0862
  130TCq2    C2 1981   3.377   3.717   0.973 -0.8445  0.0210 -0.0684
  130TCq2    C3 1982   3.472   3.819   0.999  0.0264  0.4613  0.2448
  130TCq2    C4 1983   3.544   3.812   1.114  0.1314 -0.3459 -0.1288
  130TCq2    C5 1984   3.545   3.705   1.196  0.2315 -0.3487  0.1220
  130TCq2    C6 1985   3.454   3.602   1.167 -0.1111 -0.0793 -0.1790
  130TCq2    C7 1986   3.360   3.618   1.069  0.0658  0.2484  0.3828
  130TCq2    C8 1987   3.440   3.480   1.242  0.1256  0.2855  0.1944
  130TCq2    O4 1988   3.332   3.425   1.256 -0.4083  0.2854  0.1016
  130TCq2    C9 1989   3.646   3.918   1.142  0.0695 -0.6932 -0.7316
  130TCq2    O5 1990   3.651   4.003   1.056 -0.5913 -0.2045 -0.0753
  130TCq2    O6 1991   3.702   3.921   1.257 -0.0355 -0.1280  0.6046
  130TCq2    H2 1992   3.479   3.905   0.933 -1.3007 -1.2084 -2.0511
  130TCq2    H3 1993   3.612   3.702   1.281  1.1669 -0.3839 -0.6201
  130TCq2    H4 1994   3.279   3.547   1.053 -1.2616  1.9842 -0.4625
  131MPD2     C 1995   2.653   2.077   9.807 -0.2869 -0.5090  0.7986
  131MPD2    C1 1996   2.775   2.103   9.861 -0.1929  0.1709 -0.1435
  131MPD2    C2 1997   2.788   2.085  10.000  0.2412 -0.0545 -0.3881
  131MPD2    C3 1998   2.689   2.035  10.084  0.1841  0.2226  0.1279
  131MPD2    C4 1999   2.563   2.006  10.024 -0.4240 -0.5242 -0.7189
  131MPD2    C5 2000   2.550   2.034   9.889 -0.1039  0.0218 -0.5180
  131MPD2     H 2001   2.887   2.101  10.043  0.1562  1.7919 -0.8856
  131MPD2    H1 2002   2.473   1.972  10.074 -0.1712 -0.3083 -0.1164
  131MPD2    H2 2003   2.640   2.090   9.700  0.7668  1.7523  0.9560
  131MPD2    H3 2004   2.455   2.017   9.839 -0.7738 -0.6414  0.9613
  131MPD2     N 2005   2.718   2.032  10.222 -0.1574  0.4996 -0.1001
  131MPD2    H5 2006   2.815   2.052  10.244  0.9835 -1.2745 -3.4569
  131MPD2    N1 2007   2.884   2.134   9.778 -0.6219  0.4777 -0.1147
  131MPD2    H7 2008   2.859   2.121   9.681 -0.9213 -0.5398  0.0949
  132TCq2    C1 2009   3.445   2.303   9.637 -0.0889  0.0188  0.2535
  132TCq2    O2 2010   3.531   2.238   9.583 -0.1534 -0.2847  0.2626
  132TCq2    C2 2011   3.312   2.251   9.614  0.2446 -0.4115 -0.3893
  132TCq2    C3 2012   3.296   2.168   9.508  0.2350  0.2744  0.4374
  132TCq2    C4 2013   3.168   2.120   9.482  0.2308  0.2725  0.1180
  132TCq2    C5 2014   3.064   2.144   9.571  0.5287  0.1039 -0.4836
  132TCq2    C6 2015   3.090   2.206   9.690 -0.0341 -0.0005 -0.3729
  132TCq2    C7 2016   3.214   2.268   9.706  0.6606 -0.2831  0.0301
  132TCq2    C8 2017   3.007   2.188   9.811 -0.0536 -0.3559  0.8281
  132TCq2    O4 2018   3.059   2.213   9.922 -0.7053  0.1557  0.0989
  132TCq2    C9 2019   3.157   2.028   9.372  0.3133  0.3647  0.3352
  132TCq2    O5 2020   3.045   1.974   9.350 -0.1685  0.1458 -0.1540
  132TCq2    O6 2021   3.257   1.986   9.314 -0.1358 -0.4963 -0.0370
  132TCq2    H2 2022   3.374   2.141   9.438  0.7276 -0.3153  1.2154
  132TCq2    H3 2023   2.968   2.099   9.547  0.0949  0.0436  1.3187
  132TCq2    H4 2024   3.239   2.325   9.795  1.4400  2.3548 -1.9102
  133MPD2     C 2025   2.199   2.392   9.424 -0.7027 -0.2894 -0.2455
  133MPD2    C1 2026   2.125   2.497   9.379  0.3428 -1.4111 -0.0642
  133MPD2    C2 2027   2.187   2.612   9.329  0.0098  0.4829 -0.1694
  133MPD2    C3 2028   2.326   2.623   9.323  0.1208 -0.0297 -0.3964
  133MPD2    C4 2029   2.398   2.519   9.374  0.2292 -0.2258 -0.0852
  133MPD2    C5 2030   2.340   2.406   9.423  1.0593  0.0902  0.1661
  133MPD2     H 2031   2.125   2.691   9.289 -2.1596 -1.2142 -0.1828
  133MPD2    H1 2032   2.506   2.527   9.369  0.3390 -0.3140  2.2135
  133MPD2    H2 2033   2.166   2.295   9.458  0.5649 -0.8780 -0.6915
  133MPD2    H3 2034   2.400   2.331   9.473  1.2329 -0.3297 -0.6891
  133MPD2     N 2035   2.391   2.744   9.293 -0.0413 -0.0893 -0.1203
  133MPD2    H5 2036   2.492   2.735   9.290  0.0933  2.1199 -1.7078
  133MPD2    N1 2037   1.985   2.482   9.391  0.0667 -0.4591 -0.3857
  133MPD2    H7 2038   1.955   2.398   9.438 -1.8355  0.0764 -0.6559
  134TCq2    C1 2039   1.889   2.581   9.363 -0.1608  0.2664 -0.0399
  134TCq2    O2 2040   1.899   2.699   9.322 -0.3327 -0.1825 -0.4338
  134TCq2    C2 2041   1.755   2.541   9.410  0.2312  0.1821 -0.0350
  134TCq2    C3 2042   1.721   2.408   9.413 -1.3626  0.6133  0.2841
  134TCq2    C4 2043   1.604   2.379   9.479 -0.0850 -0.6339 -0.2839
  134TCq2    C5 2044   1.533   2.479   9.546  0.2355  0.5872  0.6593
  134TCq2    C6 2045   1.589   2.610   9.554 -0.2680 -0.1213 -0.5512
  134TCq2    C7 2046   1.695   2.640   9.478 -0.0841 -0.1685 -1.3323
  134TCq2    C8 2047   1.519   2.714   9.627 -0.0516  0.4107 -0.0143
  134TCq2    O4 2048   1.415   2.694   9.680 -0.0914 -0.5465  0.1007
  134TCq2    C9 2049   1.543   2.247   9.471  0.2140  0.2587 -1.0463
  134TCq2    O5 2050   1.424   2.239   9.506  0.0657  0.2757 -0.5577
  134TCq2    O6 2051   1.616   2.149   9.438  0.3664 -0.1545 -0.6205
  134TCq2    H2 2052   1.787   2.334   9.368  1.9458  3.4533  0.4345
  134TCq2    H3 2053   1.451   2.458   9.613 -0.4995 -0.6362 -0.6474
  134TCq2    H4 2054   1.732   2.739   9.457  1.5959 -0.3974  0.5044
  135MPD2     C 2055   4.411   3.724   9.036 -0.1499  0.0724  0.2362
  135MPD2    C1 2056   4.378   3.853   9.089  0.0284  0.1081  0.7757
  135MPD2    C2 2057   4.476   3.952   9.087 -0.2614 -0.0296 -0.5450
  135MPD2    C3 2058   4.603   3.927   9.042 -0.0414  0.1100  0.2353
  135MPD2    C4 2059   4.630   3.803   8.993 -0.0532  0.3069  0.4810
  135MPD2    C5 2060   4.540   3.704   8.991  0.1694 -1.0645 -0.6107
  135MPD2     H 2061   4.445   4.047   9.129  1.8238  0.3031  0.2585
  135MPD2    H1 2062   0.010   3.794   8.953 -0.8029 -1.7157 -0.9400
  135MPD2    H2 2063   4.343   3.640   9.035  1.1750 -0.9970  0.8007
  135MPD2    H3 2064   4.569   3.617   8.932  1.5699 -1.4666  0.6697
  135MPD2     N 2065   4.704   4.026   9.037  0.3783  0.2396  0.5427
  135MPD2    H5 2066   0.075   3.998   9.006  0.7246 -0.3184  2.0594
  135MPD2    N1 2067   4.257   3.880   9.148 -0.3349  0.3883  0.4044
  135MPD2    H7 2068   4.252   3.977   9.176 -0.0627  1.3527 -3.0066
  136TCq2    C1 2069   4.159   3.793   9.193  0.0925  0.3900 -0.3074
  136TCq2    O2 2070   4.144   3.671   9.170  0.5384  0.3093 -0.1531
  136TCq2    C2 2071   4.045   3.865   9.248 -0.1328  0.3304 -0.2875
  136TCq2    C3 2072   3.924   3.818   9.229  0.3268 -0.0182 -0.0924
  136TCq2    C4 2073   3.816   3.851   9.313  0.6976 -0.1013  0.2419
  136TCq2    C5 2074   3.836   3.948   9.410 -0.2490 -0.1888  0.7419
  136TCq2    C6 2075   3.959   3.994   9.434 -0.4542 -0.0426 -0.5647
  136TCq2    C7 2076   4.065   3.959   9.351 -0.8177  0.1238 -0.3503
  136TCq2    C8 2077   3.999   4.023   9.570 -0.7180  0.2628 -0.3832
  136TCq2    O4 2078   4.117   4.035   9.595  0.0998  0.2405  0.0446
  136TCq2    C9 2079   3.682   3.804   9.293  0.2914 -0.2463  0.5014
  136TCq2    O5 2080   3.590   3.872   9.348 -0.0589 -0.2545  0.6639
  136TCq2    O6 2081   3.662   3.722   9.200  0.5403  0.2444  0.2357
  136TCq2    H2 2082   3.912   3.756   9.141  0.2395  0.8504 -0.6920
  136TCq2    H3 2083   3.748   3.978   9.465  0.2590 -0.8417  1.9115
  136TCq2    H4 2084   4.170   3.975   9.375 -0.5375  0.7369 -1.9824
  137MPD2     C 2085   4.242   2.695   9.846 -0.5373  0.2633 -0.2572
  137MPD2    C1 2086   4.290   2.803   9.914 -0.8539 -0.0820  0.5069
  137MPD2    C2 2087   4.243   2.836  10.040  0.2576 -0.6776  0.7512
  137MPD2    C3 2088   4.138   2.762  10.096  0.1332  0.3687 -0.2583
  137MPD2    C4 2089   4.097   2.648  10.030  0.6422  0.1424  0.2761
  137MPD2    C5 2090   4.140   2.622   9.902  0.1859 -0.6149 -0.5482
  137MPD2     H 2091   4.275   2.924  10.094  1.8685 -1.6748  1.4481
  137MPD2    H1 2092   4.018   2.579  10.059 -0.0549  0.6059 -0.5309
  137MPD2    H2 2093   4.291   2.663   9.755  0.3577  0.3789  0.1822
  137MPD2    H3 2094   4.090   2.542   9.848 -1.8274 -0.8006  1.5438
  137MPD2     N 2095   4.073   2.805  10.216 -0.2593  0.0192  0.4620
  137MPD2    H5 2096   4.113   2.889  10.257 -1.1587  1.5812 -1.8836
  137MPD2    N1 2097   4.382   2.880   9.841 -0.1256 -0.6198 -0.2845
  137MPD2    H7 2098   4.391   2.862   9.742  0.1770 -0.3588 -0.3042
  138TCq2    C1 2099   4.448   2.991   9.890 -0.5756 -0.3786  0.6638
  138TCq2    O2 2100   4.445   3.053   9.999  0.4576 -0.3100 -0.0215
  138TCq2    C2 2101   4.516   3.058   9.782  0.2707 -0.1325  0.1947
  138TCq2    C3 2102   4.529   2.999   9.662  0.5351 -0.6427  0.0427
  138TCq2    C4 2103   4.576   3.078   9.560  0.1903 -0.1190 -0.2289
  138TCq2    C5 2104   4.609   3.208   9.575  0.6158 -0.1337 -0.0179
  138TCq2    C6 2105   4.582   3.261   9.696  0.1449  0.9080 -0.3622
  138TCq2    C7 2106   4.533   3.194   9.799  0.0108  0.0746  0.1598
  138TCq2    C8 2107   4.518   3.389   9.683  0.1005  0.3500 -0.4900
  138TCq2    O4 2108   4.570   3.486   9.634  0.0091  0.3538 -0.2134
  138TCq2    C9 2109   4.587   3.019   9.429  0.4382 -0.2823 -0.5284
  138TCq2    O5 2110   4.609   3.098   9.331  0.2474  0.0688  0.4797
  138TCq2    O6 2111   4.539   2.906   9.417 -0.3220 -0.6658 -0.7782
  138TCq2    H2 2112   4.502   2.897   9.637 -0.8978  0.0005 -1.0530
  138TCq2    H3 2113   4.641   3.268   9.490  1.5142 -0.4141  0.1167
  138TCq2    H4 2114   4.530   3.248   9.893  0.0927  2.4698 -1.2083
  139TMC2    C1 2115   0.655   1.586  13.837  0.1472  0.0705 -0.7659
  139TMC2    C2 2116   0.775   1.594  13.909 -1.3178 -0.5711  0.2700
  139TMC2    C3 2117   0.825   1.717  13.939 -0.4352  0.4307  0.1339
  139TMC2    C4 2118   0.576   1.693  13.804 -0.7347 -0.6470 -0.3264
  139TMC2    C5 2119   0.625   1.813  13.843  0.2429  0.3848 -0.1279
  139TMC2    C6 2120   0.747   1.830  13.914  0.2457 -0.7679 -0.9013
  139TMC2     C 2121   0.607   1.472  13.764 -0.2313  0.3359 -0.1982
  139TMC2     O 2122   0.523   1.488  13.680 -0.2108 -0.8511  0.1485
  139TMC2     H 2123   0.839   1.509  13.926  0.9550  1.4544  1.7345
  139TMC2    H1 2124   0.491   1.692  13.737 -0.3065 -3.6012 -0.8333
  139TMC2    H2 2125   0.771   1.932  13.942 -2.4421 -0.1249 -0.9997
  139TMC2    C7 2126   0.555   1.939  13.806  0.1638  0.2593  0.0281
  139TMC2    C8 2127   0.934   1.719  14.036 -0.2143 -0.3270  0.2468
  139TMC2    O1 2128   0.433   1.946  13.782  0.6837  0.2150 -0.5193
  139TMC2    O2 2129   0.974   1.623  14.098  0.2233 -0.3215 -0.3234
  139TMC2    O5 2130   0.994   1.850  14.023 -0.1551 -0.3455 -0.1548
  139TMC2    H5 2131   0.972   1.903  13.943  0.1664 -0.4949 -0.3413
  140MPD2     C 2132   0.762   1.129  13.772  0.0225 -0.2420  0.0049
  140MPD2    C1 2133   0.666   1.229  13.751  0.2068 -0.3776 -0.6172
  140MPD2    C2 2134   0.564   1.197  13.664 -0.0237 -0.5517 -0.4966
  140MPD2    C3 2135   0.554   1.073  13.605  0.5795  0.4341 -0.2650
  140MPD2    C4 2136   0.647   0.978  13.631  0.4765  0.2411 -0.4663
  140MPD2    C5 2137   0.751   1.002  13.715 -0.6374 -0.4536  0.8150
  140MPD2     H 2138   0.486   1.270  13.647  1.3429  1.4780  1.9890
  140MPD2    H1 2139   0.636   0.879  13.586  0.4649 -0.1966  0.4967
  140MPD2    H2 2140   0.844   1.157  13.838 -0.1262  1.1637 -0.4190
  140MPD2    H3 2141   0.828   0.930  13.737 -1.0638 -1.3661 -0.6171
  140MPD2     N 2142   0.442   1.061  13.519 -0.0332 -0.1092 -0.1359
  140MPD2    H5 2143   0.381   1.143  13.515  2.0068  1.3935 -0.4305
  140MPD2    N1 2144   0.679   1.359  13.804  0.5138  0.0350 -0.4900
  140MPD2    H7 2145   0.741   1.373  13.884  0.4581  2.0218 -0.8148
  141TCq2    C1 2146   0.152   3.910  15.000  0.5507  0.5255 -0.3547
  141TCq2    O2 2147   0.177   3.793  14.969  0.3677  0.0578 -0.8401
  141TCq2    C2 2148   0.189   3.941  15.133 -0.5329 -0.6710  0.4444
  141TCq2    C3 2149   0.192   3.839  15.223 -0.2600  0.1417 -1.0297
  141TCq2    C4 2150   0.236   3.873  15.352 -0.5403 -0.2648  0.2374
  141TCq2    C5 2151   0.276   3.998  15.381 -0.2108  0.0492 -0.2277
  141TCq2    C6 2152   0.287   4.090  15.285  0.2541  0.4887  0.3510
  141TCq2    C7 2153   0.236   4.066  15.161  0.6771 -0.3316 -0.1238
  141TCq2    C8 2154   0.324   4.224  15.324 -0.6722 -0.5288  0.4832
  141TCq2    O4 2155   0.316   4.252  15.439 -0.0267  0.1721 -1.2215
  141TCq2    C9 2156   0.231   3.772  15.465 -0.7141 -0.1772  0.3678
  141TCq2    O5 2157   0.254   3.815  15.581 -0.1477 -0.4942  0.6000
  141TCq2    O6 2158   0.222   3.655  15.429 -0.4605 -0.6738  0.3634
  141TCq2    H2 2159   0.160   3.737  15.201  0.5015 -0.2353 -0.4136
  141TCq2    H3 2160   0.304   4.025  15.482 -0.0222  1.2908 -0.6023
  141TCq2    H4 2161   0.239   4.143  15.085  0.5707 -1.0805 -0.8906
  142MPD2     C 2162   2.804   1.657  10.387  0.3600  0.8075 -0.5750
  142MPD2    C1 2163   2.765   1.637  10.257  0.1874 -0.0840  0.0600
  142MPD2    C2 2164   2.855   1.649  10.153  0.1457  0.4184  0.1828
  142MPD2    C3 2165   2.982   1.703  10.178 -0.1727  0.1523 -0.4542
  142MPD2    C4 2166   3.023   1.727  10.307  0.2757  0.7614  0.2383
  142MPD2    C5 2167   2.932   1.711  10.409 -0.1868 -0.2103  0.1985
  142MPD2     H 2168   2.831   1.626  10.050 -0.0738 -0.9663  0.5432
  142MPD2    H1 2169   3.127   1.756  10.322  0.7989 -1.5474  1.1934
  142MPD2    H2 2170   2.731   1.638  10.465  0.9576  0.5910 -0.0743
  142MPD2    H3 2171   2.962   1.730  10.511  0.5027 -0.0088 -0.0435
  142MPD2     N 2172   3.086   1.730  10.079  0.8315  0.5085 -0.1076
  142MPD2    H5 2173   3.179   1.756  10.110  0.7824 -0.1108  0.5695
  142MPD2    N1 2174   2.638   1.581  10.242 -0.0167  0.1204  0.6043
  142MPD2    H7 2175   2.586   1.564  10.328  0.3558  0.7312  0.9501
  143TCq2    C1 2176   3.065   1.726   9.949 -0.1594  1.0558  0.1941
  143TCq2    O2 2177   2.973   1.676   9.884  0.4498  0.3105  0.0138
  143TCq2    C2 2178   3.168   1.792   9.871 -0.3247  0.4770  0.0172
  143TCq2    C3 2179   3.203   1.738   9.752  0.9276 -0.1770 -0.7220
  143TCq2    C4 2180   3.308   1.793   9.678 -0.1139 -0.6641 -0.7576
  143TCq2    C5 2181   3.382   1.894   9.740 -0.2463  0.0726 -0.3097
  143TCq2    C6 2182   3.347   1.948   9.860 -0.1536  0.0360 -0.6980
  143TCq2    C7 2183   3.233   1.903   9.928  0.2706 -0.4611 -0.4429
  143TCq2    C8 2184   3.434   2.036   9.929 -0.5890 -0.1324 -0.0170
  143TCq2    O4 2185   3.385   2.090  10.027  0.4288  0.4784  0.2303
  143TCq2    C9 2186   3.358   1.732   9.560 -0.1961  0.1194  0.1200
  143TCq2    O5 2187   3.475   1.758   9.530 -0.4880  0.2383  0.0846
  143TCq2    O6 2188   3.292   1.631   9.529 -0.0983  0.6041 -0.0001
  143TCq2    H2 2189   3.141   1.657   9.716 -0.4036  0.0119  1.1516
  143TCq2    H3 2190   3.464   1.939   9.686 -1.2202  1.4889 -0.6020
  143TCq2    H4 2191   3.203   1.933  10.027 -0.2228  0.9860 -1.0319
  144MPD2     C 2192   1.012   1.177   0.337  0.6132 -0.0474 -0.5429
  144MPD2    C1 2193   1.058   1.090   0.248 -0.1350  0.2133  0.6161
  144MPD2    C2 2194   1.163   1.006   0.282  0.3761  0.7814  0.2210
  144MPD2    C3 2195   1.221   1.020   0.409  0.1115  0.1398  0.3070
  144MPD2    C4 2196   1.173   1.119   0.491 -0.0591  0.1804  0.6284
  144MPD2    C5 2197   1.077   1.208   0.458 -0.1759  0.0771 -0.0729
  144MPD2     H 2198   1.191   0.923   0.217  0.1267  1.9690 -1.4029
  144MPD2    H1 2199   1.217   1.135   0.589  1.9925  0.2108 -0.3043
  144MPD2    H2 2200   0.924   1.235   0.312 -0.3938 -0.9881  0.8693
  144MPD2    H3 2201   1.045   1.290   0.521  0.2775  0.1969  0.0052
  144MPD2     N 2202   1.336   0.959   0.450 -0.4983 -0.1535  0.2811
  144MPD2    H5 2203   1.361   0.975   0.547  1.3418  0.3238 -0.2619
  144MPD2    N1 2204   1.002   1.083   0.120 -0.1809  0.0076 -1.1149
  144MPD2    H7 2205   1.042   1.021   0.051 -2.5899 -2.2290 -0.4810
  145TCq2    C1 2206   1.409   0.870   0.373 -0.0652  0.4486 -0.2364
  145TCq2    O2 2207   1.393   0.835   0.259 -0.1204 -0.3675 -0.0201
  145TCq2    C2 2208   1.524   0.823   0.439  0.6122  0.6138 -0.2342
  145TCq2    C3 2209   1.569   0.707   0.404 -0.4295 -0.4885  0.4342
  145TCq2    C4 2210   1.647   0.633   0.491  0.7943 -0.0958  0.4806
  145TCq2    C5 2211   1.686   0.682   0.607  0.1577 -0.2835  0.3180
  145TCq2    C6 2212   1.647   0.813   0.641  0.3379 -0.4850  0.4801
  145TCq2    C7 2213   1.562   0.881   0.557 -0.6801 -0.0210  0.3825
  145TCq2    C8 2214   1.720   0.895   0.745  0.0199 -1.0059  0.6269
  145TCq2    O4 2215   1.836   0.870   0.776  0.2487 -0.4130  0.9018
  145TCq2    C9 2216   1.663   0.495   0.464  0.1130  0.0228 -0.0964
  145TCq2    O5 2217   1.624   0.461   0.346  0.6250  0.6480  0.7423
  145TCq2    O6 2218   1.733   0.431   0.546 -0.2363 -0.1165 -0.0459
  145TCq2    H2 2219   1.522   0.660   0.318 -1.6946 -3.2436  2.6206
  145TCq2    H3 2220   1.745   0.620   0.673  3.4449  1.3201 -1.1385
  145TCq2    H4 2221   1.531   0.981   0.585 -3.0980 -0.5612 -0.3461
  146TMC2    C1 2222   2.389   4.503  12.238 -0.1412  0.2750 -0.4314
  146TMC2    C2 2223   2.329   4.528  12.117 -0.4044  0.0789 -0.0596
  146TMC2    C3 2224   2.407   4.503  12.008  0.4541  0.2521 -0.0023
  146TMC2    C4 2225   2.525   4.470  12.252 -1.0769 -0.2550  0.0099
  146TMC2    C5 2226   2.595   4.460  12.133 -0.6933 -0.0371 -0.4644
  146TMC2    C6 2227   2.537   4.463  12.013 -0.4398 -0.1300  0.5417
  146TMC2     C 2228   2.307   4.497  12.360 -0.6787 -0.7272 -0.2711
  146TMC2     O 2229   2.193   4.547  12.348  0.6870  0.6676  0.7440
  146TMC2     H 2230   2.220   4.524  12.116 -0.3684 -1.4934  1.8675
  146TMC2    H1 2231   2.581   4.483  12.343  0.7289 -2.1637 -0.8476
  146TMC2    H2 2232   2.588   4.442  11.920 -1.3683 -0.0014  0.0048
  146TMC2    C7 2233   2.741   4.430  12.122 -0.3579 -0.6589  0.1745
  146TMC2    C8 2234   2.345   4.461  11.888  0.0875  0.5274  0.0196
  146TMC2    O1 2235   2.791   4.416  12.012 -0.2349  0.1735 -0.0985
  146TMC2    O2 2236   2.319   4.542  11.801  0.0132  0.8342  0.0656
  146TMC2    O5 2237   2.270   4.352  11.917 -0.1477 -0.1186  0.2317
  146TMC2    H5 2238   2.301   4.313  12.001 -1.5837 -2.5707 -0.3592
  147MPD2     C 2239   3.165   4.285  12.364 -0.0626 -0.2596 -0.3571
  147MPD2    C1 2240   3.059   4.279  12.456 -0.1955 -0.1468 -0.3013
  147MPD2    C2 2241   2.932   4.311  12.408  0.3227 -0.3888  0.1069
  147MPD2    C3 2242   2.920   4.358  12.277 -0.0997  0.0876  0.4377
  147MPD2    C4 2243   3.026   4.368  12.187  0.3822 -0.2803 -0.4006
  147MPD2    C5 2244   3.148   4.324  12.235 -1.0648  0.5704  0.1813
  147MPD2     H 2245   2.843   4.294  12.466  1.2792  1.5799  2.1787
  147MPD2    H1 2246   3.027   4.395  12.082 -2.0771  0.9511 -0.1140
  147MPD2    H2 2247   3.267   4.270  12.395  0.0652 -0.3550 -0.8111
  147MPD2    H3 2248   3.233   4.329  12.168 -0.3321 -1.2822  0.9800
  147MPD2     N 2249   2.785   4.391  12.243 -0.5631  0.3699  0.5478
  147MPD2    H5 2250   2.719   4.398  12.320 -1.8453 -0.6370 -0.4373
  147MPD2    N1 2251   3.102   4.246  12.590 -0.0742  0.3106 -0.3285
  147MPD2    H7 2252   3.203   4.233  12.600 -0.3798 -0.5357  1.5728
  148MPD2     C 2253   2.885   3.253  10.507 -0.4391 -0.1581 -0.1101
  148MPD2    C1 2254   2.870   3.120  10.531 -0.5820  0.0718  0.7154
  148MPD2    C2 2255   2.755   3.057  10.476  0.6974 -0.1776 -0.2769
  148MPD2    C3 2256   2.673   3.118  10.387  0.1404  0.4376  0.2994
  148MPD2    C4 2257   2.700   3.250  10.358  0.1338  0.1163 -0.5072
  148MPD2    C5 2258   2.799   3.312  10.427  0.1589 -0.2938  0.6411
  148MPD2     H 2259   2.739   2.952  10.498  0.0222  0.1057  0.5611
  148MPD2    H1 2260   2.642   3.305  10.286  1.3880 -0.1778 -1.7460
  148MPD2    H2 2261   2.973   3.305  10.545 -0.1424 -0.8468  0.1465
  148MPD2    H3 2262   2.821   3.415  10.401  0.2456 -0.1289  1.3436
  148MPD2     N 2263   2.557   3.060  10.323  0.5955  0.0375 -0.3120
  148MPD2    H5 2264   2.509   3.124  10.260 -1.8257 -0.4221  1.0761
  148MPD2    N1 2265   2.950   3.043  10.622 -0.3681 -0.3193 -0.5985
  148MPD2    H7 2266   2.915   2.952  10.649  0.5193 -1.2877 -2.7297
  149TCq2    C1 2267   3.059   3.095  10.689  0.1168 -0.4799 -0.4256
  149TCq2    O2 2268   3.106   3.207  10.686  0.0998  0.1317 -0.4021
  149TCq2    C2 2269   3.142   2.987  10.739  0.5191  0.0958 -0.6179
  149TCq2    C3 2270   3.260   3.022  10.791 -0.0891 -0.2564 -0.1839
  149TCq2    C4 2271   3.368   2.942  10.796  0.0343 -0.2240 -0.2704
  149TCq2    C5 2272   3.371   2.830  10.723  0.2794 -0.4423  0.2042
  149TCq2    C6 2273   3.255   2.784  10.670 -0.3194  0.1319  0.5482
  149TCq2    C7 2274   3.139   2.861  10.690  0.0703  0.6004 -0.0425
  149TCq2    C8 2275   3.246   2.679  10.568 -0.3034  0.2538 -0.1018
  149TCq2    O4 2276   3.147   2.604  10.573 -0.2565 -0.4041  0.1523
  149TCq2    C9 2277   3.498   2.997  10.814  0.4575 -0.4505 -0.4484
  149TCq2    O5 2278   3.590   2.922  10.857 -0.3969 -0.4596  0.0836
  149TCq2    O6 2279   3.501   3.120  10.829  0.4968 -0.3811 -0.7648
  149TCq2    H2 2280   3.273   3.128  10.812  1.2224 -0.2446 -1.0908
  149TCq2    H3 2281   3.469   2.788  10.705 -0.7382 -2.8588  0.2822
  149TCq2    H4 2282   3.045   2.816  10.659 -1.3348  1.9673  2.2581
  150MPD2     C 2283   4.128   2.870  12.752 -0.5338  0.3575 -0.1635
  150MPD2    C1 2284   4.219   2.885  12.654  0.3922  0.2349 -0.7939
  150MPD2    C2 2285   4.326   2.972  12.670 -0.1148 -0.0880 -0.7588
  150MPD2    C3 2286   4.344   3.037  12.787 -0.0210  0.0253 -0.2963
  150MPD2    C4 2287   4.256   3.010  12.894  0.4222  0.2383  0.6936
  150MPD2    C5 2288   4.147   2.929  12.874 -0.1340  0.1373  0.1998
  150MPD2     H 2289   4.397   2.994  12.590  1.2313 -1.0594  0.1683
  150MPD2    H1 2290   4.260   3.063  12.988 -1.0551  0.3750  0.6764
  150MPD2    H2 2291   4.050   2.795  12.744  0.6617 -0.9010 -0.0580
  150MPD2    H3 2292   4.081   2.921  12.959 -0.7325 -1.2991 -0.4055
  150MPD2     N 2293   4.451   3.119  12.785 -0.2766  0.7685 -0.2465
  150MPD2    H5 2294   4.506   3.132  12.700  1.4359  1.7085  0.9945
  150MPD2    N1 2295   4.198   2.804  12.546  0.1836  0.3854 -0.8879
  150MPD2    H7 2296   4.117   2.742  12.551  0.3190  0.3466  0.8105
  151TCq2    C1 2297   4.506   3.182  12.899  0.0070 -0.2192 -0.4588
  151TCq2    O2 2298   4.480   3.166  13.018 -0.1607 -0.1145  0.4896
  151TCq2    C2 2299   4.616   3.264  12.867  0.2639 -0.3416 -0.2103
  151TCq2    C3 2300   4.621   3.309  12.736 -0.2086 -0.8042  0.8913
  151TCq2    C4 2301   0.020   3.325  12.668 -0.0361 -0.1891  0.0911
  151TCq2    C5 2302   0.136   3.281  12.725 -0.2486  0.2690 -0.0791
  151TCq2    C6 2303   0.126   3.236  12.856 -0.6813  0.1088  0.0647
  151TCq2    C7 2304   0.011   3.231  12.934 -0.3130  0.3256  0.8121
  151TCq2    C8 2305   0.248   3.188  12.912  0.1541  0.4918  0.1301
  151TCq2    O4 2306   0.264   3.209  13.033  0.1205  0.4035  0.0385
  151TCq2    C9 2307   0.022   3.379  12.538 -0.1996  0.1167  0.3701
  151TCq2    O5 2308   0.133   3.373  12.475  0.0276  0.1343  0.5540
  151TCq2    O6 2309   4.629   3.393  12.488  0.2127 -0.7052  0.1835
  151TCq2    H2 2310   4.528   3.335  12.686  0.1429 -2.8280 -0.8208
  151TCq2    H3 2311   0.231   3.277  12.673  0.5151 -0.2747  1.3374
  151TCq2    H4 2312   0.003   3.176  13.027  1.2719 -0.7516  0.3167
  152MPD2     C 2313   4.120   1.847  12.426  0.0395 -0.1039  1.1686
  152MPD2    C1 2314   4.095   1.965  12.483 -0.5753  0.5872  0.1209
  152MPD2    C2 2315   3.968   1.990  12.531  0.0612 -0.5594 -0.2505
  152MPD2    C3 2316   3.868   1.901  12.519  0.4641 -0.5786  0.4690
  152MPD2    C4 2317   3.899   1.771  12.479  0.9135  0.0211 -0.2914
  152MPD2    C5 2318   4.023   1.750  12.418 -0.3442  0.8857  0.5928
  152MPD2     H 2319   3.944   2.087  12.574 -2.0974 -1.2982  0.2346
  152MPD2    H1 2320   3.832   1.686  12.490 -1.2056  1.8032  0.5459
  152MPD2    H2 2321   4.220   1.827  12.388 -0.8744 -0.3181 -1.1198
  152MPD2    H3 2322   4.048   1.654  12.374 -2.6047  1.3841 -1.7699
  152MPD2     N 2323   3.736   1.949  12.524 -0.3557 -0.4173  0.4626
  152MPD2    H5 2324   3.727   2.049  12.540  0.4971 -0.1644 -0.6465
  152MPD2    N1 2325   4.194   2.063  12.473  0.0034  0.0317  0.0198
  152MPD2    H7 2326   4.282   2.049  12.425  1.1442 -1.4015  2.4881
  153TCq2    C1 2327   4.192   2.167  12.557 -0.1891 -0.4968  0.0980
  153TCq2    O2 2328   4.141   2.169  12.667 -0.2458  0.0423  0.5768
  153TCq2    C2 2329   4.285   2.271  12.524 -0.1330 -0.6858 -0.6025
  153TCq2    C3 2330   4.321   2.295  12.392 -0.2692 -0.3977  0.6358
  153TCq2    C4 2331   4.391   2.408  12.363 -0.3886  1.3531 -0.5706
  153TCq2    C5 2332   4.425   2.495  12.467  0.1744  1.1973 -0.5892
  153TCq2    C6 2333   4.393   2.463  12.600 -0.3645 -0.4035 -0.3040
  153TCq2    C7 2334   4.317   2.356  12.632  0.4589 -0.4481  0.9906
  153TCq2    C8 2335   4.410   2.564  12.704  0.4225  0.0623  0.1123
  153TCq2    O4 2336   4.315   2.571  12.783 -0.1232 -0.0665 -0.1630
  153TCq2    C9 2337   4.421   2.447  12.223  0.1881 -0.0424  0.1277
  153TCq2    O5 2338   4.365   2.385  12.131 -0.3872  0.0580 -0.1793
  153TCq2    O6 2339   4.515   2.529  12.215 -0.5446 -0.2291 -0.1837
  153TCq2    H2 2340   4.301   2.229  12.309  1.5755  0.6057 -0.5898
  153TCq2    H3 2341   4.479   2.587  12.447  1.7803  0.8159  1.8738
  153TCq2    H4 2342   4.281   2.340  12.733  1.3990  0.9784  1.5455
  154MPD2     C 2343   1.161   2.978   0.194  0.2091 -0.4087 -0.0898
  154MPD2    C1 2344   1.193   2.891   0.298 -0.0665 -0.6470  0.5315
  154MPD2    C2 2345   1.126   2.901   0.420 -0.3055 -0.4599 -0.0624
  154MPD2    C3 2346   1.022   2.986   0.434  0.0382 -0.7188  0.2427
  154MPD2    C4 2347   0.990   3.067   0.327  0.0298 -0.0956  0.1585
  154MPD2    C5 2348   1.060   3.065   0.208  0.2071 -0.1861 -0.2690
  154MPD2     H 2349   1.154   2.839   0.505  0.0607  0.0396  0.1804
  154MPD2    H1 2350   0.909   3.139   0.330  1.7120  1.8425 -0.9601
  154MPD2    H2 2351   1.219   2.971   0.103 -1.3141 -2.1037 -0.9290
  154MPD2    H3 2352   1.038   3.132   0.126  2.0617  1.4210  0.5689
  154MPD2     N 2353   0.945   2.981   0.554  0.1082 -0.8009  0.0141
  154MPD2    H5 2354   0.981   2.909   0.616  0.1265 -0.8358 -0.0368
  154MPD2    N1 2355   1.298   2.802   0.282  0.4698 -0.3704  1.2171
  154MPD2    H7 2356   1.341   2.800   0.191  1.0297  1.1957  1.4369
  155TCq2    C1 2357   1.341   2.702   0.371  0.2506 -0.0267  0.6006
  155TCq2    O2 2358   1.319   2.690   0.490  0.4836 -0.3942  0.3388
  155TCq2    C2 2359   1.427   2.604   0.317 -0.5291 -0.2013 -0.3678
  155TCq2    C3 2360   1.489   2.519   0.411 -0.1064 -0.2172 -0.0077
  155TCq2    C4 2361   1.568   2.425   0.353  0.8911  0.0076 -0.0104
  155TCq2    C5 2362   1.588   2.408   0.221  0.3760  0.0446 -0.3321
  155TCq2    C6 2363   1.543   2.502   0.140  0.0637 -0.2036 -0.2188
  155TCq2    C7 2364   1.462   2.604   0.184 -0.2975 -0.3427  0.2638
  155TCq2    C8 2365   1.559   2.485  17.681 -0.0680 -0.2989 -0.2670
  155TCq2    O4 2366   1.595   2.374  17.644 -0.2120  0.1029  0.8472
  155TCq2    C9 2367   1.610   2.321   0.440  0.3676  0.0276 -0.0425
  155TCq2    O5 2368   1.648   2.206   0.398 -0.8969 -0.9477  0.0458
  155TCq2    O6 2369   1.609   2.350   0.561 -0.2485  0.2763  0.1842
  155TCq2    H2 2370   1.458   2.520   0.515  1.7991 -0.8976  0.5563
  155TCq2    H3 2371   1.668   2.350   0.177 -1.3547 -2.1736 -0.5292
  155TCq2    H4 2372   1.398   2.661   0.117  1.4234  0.8751 -0.3376
  156MPD2     C 2373   4.324   0.246  10.993  0.4238  0.0177  0.3675
  156MPD2    C1 2374   4.195   0.191  11.016  0.0064  0.2709  0.2292
  156MPD2    C2 2375   4.168   0.152  11.146 -0.1896 -0.0296 -0.6781
  156MPD2    C3 2376   4.260   0.171  11.251 -0.0136  0.3224 -0.9218
  156MPD2    C4 2377   4.387   0.219  11.221 -0.2465 -0.5684 -0.0380
  156MPD2    C5 2378   4.416   0.260  11.090 -0.0400 -0.2182 -0.7131
  156MPD2     H 2379   4.067   0.118  11.170  1.5709 -4.7293  0.1413
  156MPD2    H1 2380   4.464   0.218  11.297 -1.1221  2.2541  0.8857
  156MPD2    H2 2381   4.345   0.291  10.897  2.1785  0.4028  0.9412
  156MPD2    H3 2382   4.513   0.306  11.074 -0.0750  0.7903  1.9125
  156MPD2     N 2383   4.221   0.147  11.387  0.6364 -0.3005  0.4726
  156MPD2    H5 2384   4.131   0.108  11.412  0.4048  0.0423  0.1679
  156MPD2    N1 2385   4.109   0.178  10.902  0.3648  0.7849 -0.0449
  156MPD2    H7 2386   4.146   0.193  10.809  1.9009  0.2561  0.4666
  157TCq2    C1 2387   3.982   0.130  10.911  0.3087  0.1417 -0.2318
  157TCq2    O2 2388   3.920   0.099  11.016  0.1776 -0.6743  0.4170
  157TCq2    C2 2389   3.913   0.107  10.781 -0.2736  0.1591 -0.0586
  157TCq2    C3 2390   3.780   0.065  10.791  0.0915  0.0456 -0.2757
  157TCq2    C4 2391   3.693   0.088  10.690 -0.1778 -0.1713  0.6458
  157TCq2    C5 2392   3.731   0.161  10.585 -0.0601  0.5151 -0.1817
  157TCq2    C6 2393   3.859   0.204  10.571 -0.6083  0.1671 -0.1113
  157TCq2    C7 2394   3.954   0.174  10.661 -0.1213  0.1658 -0.2475
  157TCq2    C8 2395   3.878   0.334  10.509  0.3119  0.0331  0.6373
  157TCq2    O4 2396   3.981   0.393  10.542 -0.1114  0.2486  1.1352
  157TCq2    C9 2397   3.555   0.053  10.707  0.0864 -0.3711 -0.1695
  157TCq2    O5 2398   3.472   0.118  10.640  0.2561  0.1139  0.1442
  157TCq2    O6 2399   3.530   4.682  10.790 -0.5404  0.0468  0.3075
  157TCq2    H2 2400   3.749   0.017  10.883  0.6040 -0.8322 -0.5662
  157TCq2    H3 2401   3.655   0.178  10.510 -0.0640 -0.0408 -0.3010
  157TCq2    H4 2402   4.057   0.203  10.643  0.6041 -2.9174 -1.0310
  158TMC2    C1 2403   3.809   3.027  13.514 -0.1758 -0.9755  0.7600
  158TMC2    C2 2404   3.676   3.052  13.482  0.4113 -0.3897 -0.0501
  158TMC2    C3 2405   3.595   2.946  13.455  0.1624  0.5136  0.9537
  158TMC2    C4 2406   3.869   2.909  13.519  0.2009  0.3626  0.9331
  158TMC2    C5 2407   3.782   2.801  13.491  0.1786 -0.4887  0.1684
  158TMC2    C6 2408   3.644   2.818  13.462  0.4786 -0.3388  0.1669
  158TMC2     C 2409   3.893   3.138  13.476 -0.1601 -0.3234 -0.6659
  158TMC2     O 2410   3.864   3.195  13.376 -0.3028  0.5177 -0.6421
  158TMC2     H 2411   3.635   3.153  13.481  2.2343  0.3973  2.9577
  158TMC2    H1 2412   3.974   2.902  13.542  0.0822  1.0895  1.6949
  158TMC2    H2 2413   3.586   2.740  13.414 -0.3788  0.2833  0.2182
  158TMC2    C7 2414   3.840   2.671  13.461  0.4469 -0.4054  1.1420
  158TMC2    C8 2415   3.455   2.981  13.431  0.1376 -0.0316  0.4743
  158TMC2    O1 2416   3.760   2.582  13.450 -0.1658  0.6229 -0.3302
  158TMC2    O2 2417   3.421   3.081  13.368 -0.0624 -0.1492 -0.0220
  158TMC2    O5 2418   3.385   2.888  13.493 -0.7565 -1.1436  0.8051
  158TMC2    H5 2419   3.444   2.833  13.549  0.0088  1.7458  2.8233
  159MPD2     C 2420   4.297   3.412  13.598 -0.0790 -0.5230  0.2459
  159MPD2    C1 2421   4.245   3.361  13.711  0.3147 -0.5312  0.2663
  159MPD2    C2 2422   4.139   3.278  13.708  0.2257  0.6705  0.3930
  159MPD2    C3 2423   4.090   3.249  13.580  0.1782  0.2238  0.1692
  159MPD2    C4 2424   4.141   3.310  13.466 -0.4067 -0.2418  0.0119
  159MPD2    C5 2425   4.242   3.400  13.478  0.2986  0.3639 -0.1063
  159MPD2     H 2426   4.100   3.230  13.797  0.5639 -0.6945 -0.1817
  159MPD2    H1 2427   4.101   3.302  13.366  0.9307 -1.6812 -0.4066
  159MPD2    H2 2428   4.376   3.486  13.604  0.0715 -0.5993 -0.8284
  159MPD2    H3 2429   4.279   3.448  13.388  1.8479 -0.0916  0.3010
  159MPD2     N 2430   3.981   3.156  13.580  0.4350 -0.4212  0.5285
  159MPD2    H5 2431   3.961   3.098  13.660 -0.4955 -1.2486 -0.3055
  159MPD2    N1 2432   4.316   3.387  13.830  0.9082 -0.3189  0.2158
  159MPD2    H7 2433   4.394   3.450  13.816  1.7934 -1.5368 -0.3242
  160TMC2    C1 2434   0.399   1.066   0.394 -0.6132 -0.2692  0.1210
  160TMC2    C2 2435   0.489   0.983   0.337  0.9067 -0.1205 -0.2472
  160TMC2    C3 2436   0.568   1.040   0.236  0.4897  0.7236 -0.4841
  160TMC2    C4 2437   0.395   1.196   0.373  0.2128 -0.3391  0.5335
  160TMC2    C5 2438   0.475   1.249   0.271 -0.3352  0.3599  0.1098
  160TMC2    C6 2439   0.550   1.169   0.189  0.4659  0.3630 -0.8416
  160TMC2     C 2440   0.302   0.999   0.474  0.3170 -0.4207 -0.4692
  160TMC2     O 2441   0.320   0.890   0.524 -0.3735  0.0109 -0.5012
  160TMC2     H 2442   0.483   0.878   0.362  0.0090 -0.1294 -0.5115
  160TMC2    H1 2443   0.329   1.266   0.422 -0.0040 -1.5650  1.9701
  160TMC2    H2 2444   0.605   1.210   0.106  0.1000  0.9516 -0.7905
  160TMC2    C7 2445   0.465   1.388   0.236 -0.3704  0.0863 -0.0989
  160TMC2    C8 2446   0.613   0.950   0.132  0.2059  0.4001  0.2382
  160TMC2    O1 2447   0.479   1.417   0.119 -0.0268 -0.1376  0.5398
  160TMC2    O2 2448   0.605   0.974   0.009  0.8536  0.0273  0.3015
  160TMC2    O5 2449   0.659   0.839   0.189 -0.7929  0.6384 -0.3582
  160TMC2    H5 2450   0.667   0.848   0.287 -0.0942 -2.2839 -0.1430
  161MPD2     C 2451   0.057   0.956   0.670  0.6132  1.0089  0.3983
  161MPD2    C1 2452   0.094   1.069   0.595  0.4562 -0.8656 -0.5986
  161MPD2    C2 2453   0.023   1.182   0.615 -0.0945  0.6101 -0.1134
  161MPD2    C3 2454   4.633   1.189   0.701 -0.5241 -0.1007 -0.1414
  161MPD2    C4 2455   4.599   1.073   0.769 -0.3783 -0.7146 -0.4322
  161MPD2    C5 2456   4.672   0.959   0.755  0.3000 -0.1046  0.4639
  161MPD2     H 2457   0.073   1.271   0.579 -1.2834  0.9684 -0.8709
  161MPD2    H1 2458   4.522   1.074   0.845 -0.2094  0.1828 -0.2821
  161MPD2    H2 2459   0.097   0.857   0.649 -0.2451  0.3428  1.9412
  161MPD2    H3 2460   4.644   0.870   0.810  0.5946 -0.4260  0.0953
  161MPD2     N 2461   4.555   1.306   0.716  0.9559  0.0197  0.4416
  161MPD2    H5 2462   4.478   1.313   0.781 -1.0750 -2.4875 -1.7143
  161MPD2    N1 2463   0.194   1.082   0.494  0.1792 -0.4379  0.3173
  161MPD2    H7 2464   0.197   1.174   0.451  0.1879 -1.1347 -1.1656
  162TMC2    C1 2465   2.213   3.255   1.277 -0.7857 -0.4211  0.1405
  162TMC2    C2 2466   2.106   3.334   1.267 -0.0706 -0.1156  0.8393
  162TMC2    C3 2467   2.076   3.416   1.370  0.3916 -0.0317  0.2942
  162TMC2    C4 2468   2.307   3.275   1.378 -0.7020 -0.7082 -0.3173
  162TMC2    C5 2469   2.276   3.363   1.476  0.5077  0.2591  0.0590
  162TMC2    C6 2470   2.159   3.435   1.480  1.0259  0.6139  0.7836
  162TMC2     C 2471   2.242   3.161   1.167  0.0593  0.1407  0.6577
  162TMC2     O 2472   2.228   3.199   1.055 -0.1702 -0.2843 -0.4328
  162TMC2     H 2473   2.041   3.332   1.180  1.3375 -0.9235 -0.1847
  162TMC2    H1 2474   2.404   3.228   1.375  1.2671  3.3541  0.6572
  162TMC2    H2 2475   2.133   3.500   1.563 -0.3258 -0.0998  0.9259
  162TMC2    C7 2476   2.388   3.411   1.556  0.3102 -0.1045  0.1054
  162TMC2    C8 2477   1.974   3.516   1.361 -0.1337 -0.0742  0.0484
  162TMC2    O1 2478   2.381   3.525   1.600 -0.3911 -0.1135 -0.8342
  162TMC2    O2 2479   1.994   3.607   1.438  0.3585  0.5003  0.0432
  162TMC2    O5 2480   1.859   3.448   1.348 -0.2501 -0.4896  0.1663
  162TMC2    H5 2481   1.838   3.387   1.274 -0.0119 -0.9921  0.5097
  163MPD2     C 2482   2.550   2.787   1.000 -0.0337  0.2565  0.4584
  163MPD2    C1 2483   2.473   2.877   0.929  0.5909 -0.2491  0.8212
  163MPD2    C2 2484   2.386   2.958   0.996 -0.2755  0.0140  0.0930
  163MPD2    C3 2485   2.386   2.958   1.135 -0.4804  0.1338 -0.2818
  163MPD2    C4 2486   2.465   2.874   1.205 -0.4742 -0.5406 -0.4605
  163MPD2    C5 2487   2.541   2.785   1.138 -0.3246 -0.1229  0.7287
  163MPD2     H 2488   2.313   3.017   0.941  0.8459  1.1987 -0.1532
  163MPD2    H1 2489   2.452   2.863   1.312 -1.8739  2.2933 -0.3370
  163MPD2    H2 2490   2.627   2.722   0.959  0.2435  0.6346  0.3795
  163MPD2    H3 2491   2.614   2.730   1.197  2.0765  2.2091 -0.0779
  163MPD2     N 2492   2.318   3.054   1.209 -0.2931  0.2427 -0.4012
  163MPD2    H5 2493   2.332   3.057   1.309  0.1552  0.2332 -0.4628
  163MPD2    N1 2494   2.490   2.881   0.788 -0.2008 -0.0022 -0.2363
  163MPD2    H7 2495   2.559   2.820   0.746  1.4440  0.7538  1.3493
  164TCq2    C1 2496   3.034   2.965  11.439  0.5230 -0.2277  0.8952
  164TCq2    O2 2497   2.943   2.953  11.520 -0.1902 -0.3123  0.3154
  164TCq2    C2 2498   3.049   3.094  11.376  0.0110 -0.6967  0.7336
  164TCq2    C3 2499   3.156   3.121  11.294 -0.7479  0.6575 -0.6855
  164TCq2    C4 2500   3.141   3.228  11.209 -0.4253 -0.2200 -0.3314
  164TCq2    C5 2501   3.024   3.301  11.199 -0.5291 -0.2714 -0.3846
  164TCq2    C6 2502   2.932   3.278  11.296  0.2451 -0.2297 -0.9779
  164TCq2    C7 2503   2.944   3.173  11.385 -0.3663 -0.8714  0.3484
  164TCq2    C8 2504   2.826   3.374  11.304  1.0416  0.0648 -0.1433
  164TCq2    O4 2505   2.800   3.449  11.212  0.7105  0.3838  0.2244
  164TCq2    C9 2506   3.252   3.251  11.118 -0.9252 -0.0308 -0.2521
  164TCq2    O5 2507   3.254   3.359  11.056  0.3397 -0.0005  0.2016
  164TCq2    O6 2508   3.340   3.162  11.104 -0.2767  0.3726 -0.1647
  164TCq2    H2 2509   3.247   3.061  11.292 -0.6045  0.9140 -1.6984
  164TCq2    H3 2510   3.017   3.375  11.120  1.1986 -0.4135 -0.6862
  164TCq2    H4 2511   2.864   3.151  11.455 -0.6580 -0.1437  0.2385
  165MPD2     C 2512   3.550   0.440   1.092  0.0329 -0.0671  0.5234
  165MPD2    C1 2513   3.635   0.384   1.184  0.1532 -0.0637 -0.0470
  165MPD2    C2 2514   3.690   0.469   1.287  0.1860  0.3663 -0.1311
  165MPD2    C3 2515   3.661   0.600   1.293 -0.0697 -0.3422  0.4331
  165MPD2    C4 2516   3.580   0.651   1.197 -0.0038  0.6375 -0.1659
  165MPD2    C5 2517   3.527   0.573   1.101  0.2928 -0.5870  0.0403
  165MPD2     H 2518   3.765   0.418   1.346  0.0552  2.1697  1.6028
  165MPD2    H1 2519   3.563   0.758   1.188  2.6953  0.7781 -3.8888
  165MPD2    H2 2520   3.493   0.386   1.017  0.7514 -1.0045  0.6401
  165MPD2    H3 2521   3.461   0.618   1.028  1.6491 -0.4625 -1.1011
  165MPD2     N 2522   3.721   0.687   1.381 -0.2751 -0.3287 -0.8071
  165MPD2    H5 2523   3.708   0.788   1.376 -0.7315 -0.3094  0.6567
  165MPD2    N1 2524   3.652   0.246   1.162 -0.1826  0.2194  0.0538
  165MPD2    H7 2525   3.616   0.216   1.072 -2.2446  2.3018  0.2034
  166TCq2    C1 2526   3.816   0.659   1.476  0.2958  0.0408 -0.1545
  166TCq2    O2 2527   3.888   0.562   1.471  0.0664  0.0960  0.4300
  166TCq2    C2 2528   3.864   0.772   1.538  1.0321  0.1855 -0.0702
  166TCq2    C3 2529   3.770   0.858   1.591 -0.3623  0.5630  0.2117
  166TCq2    C4 2530   3.796   0.993   1.583  0.2785 -0.5437 -1.3568
  166TCq2    C5 2531   3.912   1.049   1.535  0.0015  0.1642  0.4261
  166TCq2    C6 2532   3.998   0.960   1.479 -1.1111 -0.4087  0.8529
  166TCq2    C7 2533   3.974   0.828   1.477  0.7697  0.2527  0.2358
  166TCq2    C8 2534   4.116   1.011   1.405 -0.3056  0.7927  0.4854
  166TCq2    O4 2535   4.174   0.931   1.335 -0.0023  0.1790 -0.5440
  166TCq2    C9 2536   3.693   1.090   1.618  0.2300 -0.1470  0.5843
  166TCq2    O5 2537   3.694   1.201   1.556 -0.1138  0.0308  0.2806
  166TCq2    O6 2538   3.597   1.056   1.694  0.0840  0.3403  0.1952
  166TCq2    H2 2539   3.678   0.820   1.633 -0.3608  0.4708  0.1319
  166TCq2    H3 2540   3.920   1.157   1.529 -0.7947  0.1352 -1.0668
  166TCq2    H4 2541   4.054   0.766   1.439  1.2387  0.5504  0.7340
  167TMC2    C1 2542   1.986   3.389  13.011  0.1556  0.3829  0.6090
  167TMC2    C2 2543   1.923   3.419  13.133 -0.0416 -0.3957  0.5482
  167TMC2    C3 2544   1.901   3.317  13.222  0.3560 -0.6493 -0.3676
  167TMC2    C4 2545   2.035   3.266  12.978  0.7035 -0.0537  0.8775
  167TMC2    C5 2546   2.014   3.173  13.079 -0.2420  0.0557  0.3007
  167TMC2    C6 2547   1.946   3.190  13.199  0.4126 -0.2103  0.5369
  167TMC2     C 2548   1.999   3.493  12.913  0.1734  0.4095  0.1536
  167TMC2     O 2549   1.970   3.600  12.958  0.7307  0.1450  0.7165
  167TMC2     H 2550   1.880   3.515  13.158  0.0211 -0.2794  0.2102
  167TMC2    H1 2551   2.098   3.255  12.890 -0.0902 -1.4513  0.4813
  167TMC2    H2 2552   1.939   3.108  13.269  0.5525 -1.0575 -0.4481
  167TMC2    C7 2553   2.074   3.040  13.064  0.2178  0.1272  0.4716
  167TMC2    C8 2554   1.827   3.347  13.340  0.6431 -0.1517 -0.2290
  167TMC2    O1 2555   2.029   2.956  13.142  0.0617  0.4451  0.7003
  167TMC2    O2 2556   1.830   3.456  13.405 -0.1283  0.1172  0.0051
  167TMC2    O5 2557   1.774   3.235  13.379  0.3188  0.3500 -0.3913
  167TMC2    H5 2558   1.770   3.164  13.312  0.0424  1.2674 -1.3434
  168MPD2     C 2559   2.036   3.677  12.691 -0.3282 -0.4309 -0.2034
  168MPD2    C1 2560   2.036   3.539  12.671 -0.6065 -0.1233 -0.2126
  168MPD2    C2 2561   2.041   3.488  12.541 -0.4207  0.1816 -0.5932
  168MPD2    C3 2562   2.065   3.569  12.432  0.3440  0.5524  0.6433
  168MPD2    C4 2563   2.060   3.707  12.453  0.4539 -0.5039 -0.1710
  168MPD2    C5 2564   2.043   3.758  12.580  0.2954 -0.6400  0.5441
  168MPD2     H 2565   2.031   3.381  12.545 -0.2468  0.1864 -0.0982
  168MPD2    H1 2566   2.064   3.782  12.375 -0.9291  1.2303  1.4422
  168MPD2    H2 2567   2.038   3.726  12.787  0.2641  0.1132 -0.4930
  168MPD2    H3 2568   2.037   3.866  12.588 -0.7019 -0.5972 -0.7380
  168MPD2     N 2569   2.093   3.517  12.304  0.2496 -0.2961  0.3183
  168MPD2    H5 2570   2.126   3.580  12.232  0.2473  1.2898  1.7294
  168MPD2    N1 2571   2.024   3.454  12.783  0.1616 -0.3319 -0.7304
  168MPD2    H7 2572   2.031   3.352  12.780 -0.4309 -0.3838 -0.3697
  169MPD1     C 2573   4.595   1.795  10.502  0.3590 -0.8233 -0.0206
  169MPD1    C1 2574   4.665   1.725  10.410  0.2914  0.7769 -0.1247
  169MPD1    C2 2575   4.706   1.787  10.290 -0.3761  0.1107 -0.6024
  169MPD1    C3 2576   4.673   1.920  10.264  0.6482  0.4275 -0.6703
  169MPD1    C4 2577   4.603   1.990  10.366  0.0669  0.4388 -0.2808
  169MPD1    C5 2578   4.570   1.929  10.485 -0.2766  0.3365  0.4287
  169MPD1     H 2579   0.042   1.731  10.217 -0.1613  0.9037 -1.0419
  169MPD1    H1 2580   4.588   2.096  10.349  0.8219  0.4885 -0.6178
  169MPD1    H2 2581   4.573   1.750  10.598  2.7782 -1.5542  0.1806
  169MPD1    H3 2582   4.530   1.982  10.571 -0.4354  0.1242  0.4864
  169MPD1     N 2583   4.708   1.967  10.135 -0.0010  0.1147  0.0642
  169MPD1    H5 2584   0.033   1.893  10.082 -0.1616 -0.9666  1.4452
  169MPD1    N1 2585   4.691   1.588  10.431  0.0804 -0.3458  0.2403
  169MPD1    H6 2586   0.003   1.561  10.524  0.9797 -1.1084 -0.3013
  169MPD1    H7 2587   0.048   1.560  10.372  0.1181  1.2430 -0.4725
  170MPD1     C 2588   2.800   0.781  13.071 -0.0294 -0.0990  0.3259
  170MPD1    C1 2589   2.850   0.907  13.062  0.2311 -0.5493  0.0994
  170MPD1    C2 2590   2.928   0.957  13.159 -0.3009  0.1194 -0.0071
  170MPD1    C3 2591   2.946   0.892  13.276 -0.6711 -0.2182  0.0810
  170MPD1    C4 2592   2.893   0.764  13.292 -0.1451 -0.8091 -0.2254
  170MPD1    C5 2593   2.820   0.708  13.187 -0.3798 -0.1098  0.2191
  170MPD1     H 2594   2.969   1.057  13.150  0.3464 -0.3024 -1.8620
  170MPD1    H1 2595   2.914   0.709  13.383  1.1732  0.2232  0.0949
  170MPD1    H2 2596   2.735   0.744  12.992 -0.6346  1.5404  0.0451
  170MPD1    H3 2597   2.774   0.611  13.200 -1.3370  0.4592  1.1285
  170MPD1     N 2598   3.040   0.947  13.368 -0.1906 -0.3294 -0.3787
  170MPD1    H5 2599   3.102   1.021  13.338 -0.3249  0.1719  0.5931
  170MPD1    N1 2600   2.802   0.995  12.964  0.1505  0.4686 -0.1796
  170MPD1    H6 2601   2.769   0.940  12.885 -0.8241  0.6576  0.1032
  170MPD1    H7 2602   2.871   1.066  12.939  0.5617  0.8223  1.9411
  171MPD1     C 2603   2.120   2.110  15.322  0.3909  0.1124 -0.6654
  171MPD1    C1 2604   2.072   1.983  15.301 -0.5640  0.1085 -0.8973
  171MPD1    C2 2605   2.149   1.872  15.346  0.1899 -0.4422  0.4537
  171MPD1    C3 2606   2.261   1.898  15.424 -0.0068 -0.0764 -0.7392
  171MPD1    C4 2607   2.297   2.031  15.451  0.2100  0.2630 -0.1159
  171MPD1    C5 2608   2.226   2.135  15.401  0.4314 -0.4412  0.4855
  171MPD1     H 2609   2.128   1.770  15.314 -1.9467  0.1818 -0.1475
  171MPD1    H1 2610   2.388   2.064  15.499 -0.4588  1.4431  0.3502
  171MPD1    H2 2611   2.078   2.202  15.282 -2.2379 -0.0875  1.6139
  171MPD1    H3 2612   2.259   2.238  15.412 -0.1724 -0.1506 -0.4604
  171MPD1     N 2613   2.341   1.803  15.491  0.1055 -0.4081  0.0884
  171MPD1    H5 2614   2.427   1.829  15.538 -0.7103  0.2976  1.1690
  171MPD1    N1 2615   1.952   1.964  15.230 -0.0687 -1.0577  0.0487
  171MPD1    H6 2616   1.956   2.003  15.136 -1.1738 -2.0642 -0.4109
  171MPD1    H7 2617   1.915   1.869  15.221 -2.3738 -0.0558 -1.0058
  172MPD1     C 2618   1.391   0.941  17.506 -0.5247  0.3019 -0.1972
  172MPD1    C1 2619   1.295   1.018  17.437 -0.1076  0.7089  0.6430
  172MPD1    C2 2620   1.248   1.139  17.490  0.2835  0.5210  0.6409
  172MPD1    C3 2621   1.281   1.175  17.620  0.7500  0.0706 -0.7449
  172MPD1    C4 2622   1.377   1.098   0.001  0.2073  0.8081 -0.0048
  172MPD1    C5 2623   1.433   0.989  17.628 -0.7243  0.3250 -0.0819
  172MPD1     H 2624   1.180   1.200  17.432 -0.7135 -0.6794  0.5434
  172MPD1    H1 2625   1.406   1.116   0.104 -0.5743 -1.7201  0.6793
  172MPD1    H2 2626   1.440   0.853  17.466  0.2140  1.1503 -1.1587
  172MPD1    H3 2627   1.509   0.934  17.682 -1.5700 -2.2534 -1.4734
  172MPD1     N 2628   1.211   1.280   0.000  0.5301  0.1331  0.0826
  172MPD1    H5 2629   1.249   1.296   0.093  0.8545 -1.3336  0.2045
  172MPD1    N1 2630   1.265   0.979  17.309 -0.7371  0.2781 -0.8865
  172MPD1    H6 2631   1.298   0.884  17.291 -0.0341  0.4250 -0.3615
  172MPD1    H7 2632   1.163   0.977  17.298 -0.7555  0.3337 -0.7266
  173MPD1     C 2633   2.662   1.380  14.374  0.7915 -0.6143 -0.1387
  173MPD1    C1 2634   2.530   1.365  14.348  0.1498  0.5621  0.1842
  173MPD1    C2 2635   2.463   1.256  14.408 -0.3390 -0.2930  0.1857
  173MPD1    C3 2636   2.534   1.172  14.493 -0.0624  0.3237 -0.0424
  173MPD1    C4 2637   2.661   1.198  14.526  0.7624 -0.3411 -0.8001
  173MPD1    C5 2638   2.729   1.299  14.469 -0.8134 -0.5867 -0.3634
  173MPD1     H 2639   2.361   1.225  14.385 -1.2974  2.3342  0.8189
  173MPD1    H1 2640   2.720   1.147  14.602  2.4759 -0.7535 -2.4207
  173MPD1    H2 2641   2.719   1.459  14.327 -0.9157  0.5668 -0.2168
  173MPD1    H3 2642   2.817   1.335  14.522 -0.8091  0.7534 -1.2726
  173MPD1     N 2643   2.464   1.059  14.540 -0.1206  0.3349 -0.2279
  173MPD1    H5 2644   2.368   1.044  14.511  0.2224 -2.5598  0.1678
  173MPD1    N1 2645   2.469   1.441  14.247  0.4048 -0.3009  0.4447
  173MPD1    H6 2646   2.499   1.537  14.260  0.8084 -0.3249 -0.2494
  173MPD1    H7 2647   2.369   1.446  14.263  0.6373  1.8706  1.2484
  174MPD1     C 2648   2.302   0.370  14.027  0.4095 -0.2312  0.6892
  174MPD1    C1 2649   2.197   0.373  14.115 -0.4833 -0.4319 -0.3218
  174MPD1    C2 2650   2.208   0.465  14.218  0.2439 -0.1615  0.2172
  174MPD1    C3 2651   2.316   0.545  14.236 -1.3634  0.5027 -0.1111
  174MPD1    C4 2652   2.422   0.549  14.147  1.2332 -0.1538 -0.1568
  174MPD1    C5 2653   2.411   0.455  14.044  0.2411 -0.2037 -1.1215
  174MPD1     H 2654   2.122   0.489  14.280  1.0437  2.2500  0.3819
  174MPD1    H1 2655   2.509   0.613  14.158 -0.2350  1.8255 -0.1582
  174MPD1    H2 2656   2.293   0.306  13.940 -1.3823  1.2086 -0.1961
  174MPD1    H3 2657   2.486   0.455  13.966  0.9360  3.1173 -0.4690
  174MPD1     N 2658   2.315   0.632  14.347 -0.2024  0.2101 -1.0786
  174MPD1    H5 2659   2.375   0.711  14.330  2.3381 -1.4709  0.0111
  174MPD1    N1 2660   2.071   0.312  14.095  0.1395 -0.4511  0.1651
  174MPD1    H6 2661   2.082   0.228  14.038  1.6861  0.2047 -0.5150
  174MPD1    H7 2662   2.032   0.291  14.186  0.5382 -0.1805  0.4015
  175MPD1     C 2663   1.442   1.710  15.407 -0.3800  0.0942 -0.9283
  175MPD1    C1 2664   1.310   1.714  15.395  0.1498  0.3668  0.6589
  175MPD1    C2 2665   1.240   1.697  15.508  0.4839  0.0456 -0.7204
  175MPD1    C3 2666   1.292   1.687  15.637 -0.3293 -0.0641 -0.0662
  175MPD1    C4 2667   1.433   1.674  15.639  0.0677 -0.0477  0.0106
  175MPD1    C5 2668   1.508   1.689  15.525  0.1718  1.0953  0.3674
  175MPD1     H 2669   1.134   1.700  15.487 -0.0222  2.4274  2.3316
  175MPD1    H1 2670   1.492   1.675  15.729 -0.0836 -2.8370  0.1404
  175MPD1    H2 2671   1.501   1.722  15.317 -2.1826  1.3257 -1.9675
  175MPD1    H3 2672   1.616   1.686  15.529  0.1806 -0.1037 -0.8933
  175MPD1     N 2673   1.220   1.688  15.758 -0.5250  0.4692  0.3296
  175MPD1    H5 2674   1.275   1.683  15.843  1.6779 -1.2441 -1.1717
  175MPD1    N1 2675   1.245   1.749  15.277 -0.0653  0.2534  0.1558
  175MPD1    H6 2676   1.299   1.708  15.202 -1.0000 -0.7103  0.0117
  175MPD1    H7 2677   1.147   1.724  15.267  0.2947 -0.1557 -2.3381
  176MPD1     C 2678   2.811   3.130  17.131 -0.6404 -0.7374 -0.0241
  176MPD1    C1 2679   2.761   3.109  17.257  0.1560  0.1165 -0.2682
  176MPD1    C2 2680   2.699   3.211  17.328 -0.5244  1.0203 -1.0646
  176MPD1    C3 2681   2.680   3.329  17.264  0.2233  0.5496 -0.1471
  176MPD1    C4 2682   2.727   3.352  17.138 -0.1025 -0.2317 -0.3706
  176MPD1    C5 2683   2.805   3.254  17.074 -0.6155  0.5532 -0.1944
  176MPD1     H 2684   2.646   3.184  17.418 -1.6482  1.4985 -1.5856
  176MPD1    H1 2685   2.712   3.447  17.087 -0.1723 -0.1091 -0.1190
  176MPD1    H2 2686   2.868   3.059  17.071 -1.6112 -0.6473 -1.0431
  176MPD1    H3 2687   2.845   3.270  16.975  0.1660 -1.7245 -0.2299
  176MPD1     N 2688   2.590   3.425  17.326  0.5235  0.4367 -0.1190
  176MPD1    H5 2689   2.544   3.386  17.408  0.3512 -0.6612 -0.7404
  176MPD1    N1 2690   2.794   2.993  17.328 -0.3153 -0.1593  0.0701
  176MPD1    H6 2691   2.780   2.910  17.271  2.7453  1.1341 -2.5506
  176MPD1    H7 2692   2.746   2.987  17.418  0.2165  1.2580  0.4436
  177MPD1     C 2693   0.939   0.091   9.665 -0.0440  0.2811  0.0556
  177MPD1    C1 2694   0.796   0.075   9.661 -0.1607 -0.7169 -0.0836
  177MPD1    C2 2695   0.755   4.676   9.619 -0.3010 -0.0916 -0.2041
  177MPD1    C3 2696   0.834   4.584   9.562 -0.4790  0.0171  0.6104
  177MPD1    C4 2697   0.976   4.602   9.544 -0.4898 -0.1890 -0.6634
  177MPD1    C5 2698   1.023   4.715   9.614 -0.5743  1.0260  0.1355
  177MPD1     H 2699   0.651   4.645   9.621 -0.7206  1.4346  2.1823
  177MPD1    H1 2700   1.036   4.522   9.503 -1.9635 -1.6630  0.0528
  177MPD1    H2 2701   0.974   0.174   9.726  0.5801  0.7519 -0.9483
  177MPD1    H3 2702   1.129   0.012   9.623 -0.9210  2.4409  1.3649
  177MPD1     N 2703   0.769   4.465   9.518  0.1541  0.2519 -0.7069
  177MPD1    H5 2704   0.668   4.461   9.525  0.3019  0.2504  1.5330
  177MPD1    N1 2705   0.717   0.157   9.737 -0.0598  0.4662  0.1746
  177MPD1    H6 2706   0.619   0.159   9.713 -0.3556 -0.3188  1.3190
  177MPD1    H7 2707   0.746   0.254   9.735 -1.2743  0.7974 -1.3850
  178MPD1     C 2708   3.209   4.470   0.558 -0.3361 -0.5275 -0.8819
  178MPD1    C1 2709   3.162   4.358   0.489  0.5091 -0.2819  0.2657
  178MPD1    C2 2710   3.177   4.366   0.353  0.2285  0.4264  0.1540
  178MPD1    C3 2711   3.244   4.479   0.299 -0.0574  0.0779 -0.4965
  178MPD1    C4 2712   3.282   4.586   0.375  0.4003  0.1170 -0.0617
  178MPD1    C5 2713   3.264   4.582   0.508 -0.2106 -0.0856 -0.2025
  178MPD1     H 2714   3.156   4.275   0.297  0.1986  0.1866  0.5531
  178MPD1    H1 2715   3.321   4.676   0.329  0.0259  0.1099 -0.3940
  178MPD1    H2 2716   3.207   4.479   0.666 -0.7897 -0.7629 -0.8656
  178MPD1    H3 2717   3.295   4.664   0.572 -1.1612 -0.3749  0.6373
  178MPD1     N 2718   3.277   4.477   0.161  0.4969 -0.3818 -0.0280
  178MPD1    H5 2719   3.325   4.562   0.134 -0.4750 -0.0737 -0.7927
  178MPD1    N1 2720   3.130   4.239   0.563  0.2815 -0.0874 -0.9237
  178MPD1    H6 2721   3.055   4.198   0.506  0.8406  0.4731 -2.0714
  178MPD1    H7 2722   3.091   4.265   0.653  0.6529  0.3146 -0.8840
  179MPD1     C 2723   3.953   2.384  15.454 -0.1101 -0.4734  0.7937
  179MPD1    C1 2724   3.855   2.457  15.388  0.7138 -0.6056  0.1959
  179MPD1    C2 2725   3.730   2.469  15.436  0.0839 -0.0280  0.3237
  179MPD1    C3 2726   3.709   2.428  15.561  0.6491 -0.5225  0.3950
  179MPD1    C4 2727   3.808   2.371  15.633 -0.5852 -0.1030 -0.6246
  179MPD1    C5 2728   3.935   2.344  15.582  0.8106  0.0280 -0.0163
  179MPD1     H 2729   3.652   2.517  15.379  1.2894  0.7610 -0.6720
  179MPD1    H1 2730   3.783   2.341  15.734  0.2988 -1.4875 -0.8174
  179MPD1    H2 2731   4.051   2.360  15.415  0.6542  1.5497  1.4737
  179MPD1    H3 2732   4.009   2.286  15.637 -0.7717 -2.3935 -0.4151
  179MPD1     N 2733   3.586   2.443  15.632  0.3730 -0.1146 -0.2554
  179MPD1    H5 2734   3.595   2.435  15.733  0.7839 -1.0271 -0.3641
  179MPD1    N1 2735   3.873   2.486  15.255 -0.3010 -0.4822  0.0141
  179MPD1    H6 2736   3.811   2.555  15.213 -0.4607 -0.6532 -0.0276
  179MPD1    H7 2737   3.972   2.499  15.234 -0.4529 -0.2162 -0.5388
  180MPD1     C 2738   2.453   3.852  15.383 -0.0648  0.8492  0.1853
  180MPD1    C1 2739   2.458   3.716  15.354 -0.2154 -0.2457  0.3954
  180MPD1    C2 2740   2.455   3.674  15.224  0.0688 -0.1089 -0.3267
  180MPD1    C3 2741   2.475   3.764  15.120  0.8037 -0.1001  0.2465
  180MPD1    C4 2742   2.478   3.897  15.144  0.1968 -0.3925  0.5515
  180MPD1    C5 2743   2.464   3.941  15.273 -0.0061 -0.2508 -0.1371
  180MPD1     H 2744   2.430   3.573  15.194 -0.5883 -0.0186 -0.0598
  180MPD1    H1 2745   2.494   3.955  15.053  1.8750 -3.2945 -1.0041
  180MPD1    H2 2746   2.443   3.890  15.484 -1.5407  0.3854  0.2054
  180MPD1    H3 2747   2.464   4.048  15.291 -2.6292 -0.5136  1.5168
  180MPD1     N 2748   2.486   3.719  14.988  0.2714 -0.4110  0.1579
  180MPD1    H5 2749   2.476   3.789  14.915 -0.5103 -1.9003 -1.1804
  180MPD1    N1 2750   2.426   3.625  15.456  0.8272  0.1907  0.2406
  180MPD1    H6 2751   2.456   3.647  15.551 -0.4506  2.1716  0.1927
  180MPD1    H7 2752   2.458   3.532  15.430 -2.0863 -0.4670 -1.0351
  181MPD1     C 2753   4.027   4.574   9.804  0.1936 -0.1013  0.1868
  181MPD1    C1 2754   3.997   4.703   9.847 -0.5775  0.6056 -1.0717
  181MPD1    C2 2755   4.097   0.074   9.869  0.6248 -0.3328  0.3198
  181MPD1    C3 2756   4.230   0.034   9.852 -0.0175 -0.7825 -0.8776
  181MPD1    C4 2757   4.252   4.621   9.823 -0.2791 -0.0622  0.3088
  181MPD1    C5 2758   4.156   4.533   9.793 -0.5518 -0.4623  0.1931
  181MPD1     H 2759   4.064   0.177   9.882  0.9436 -0.3510  1.2582
  181MPD1    H1 2760   4.353   4.581   9.822  0.1132  0.9596 -1.0328
  181MPD1    H2 2761   3.951   4.500   9.778  0.3819  0.2726 -1.4057
  181MPD1    H3 2762   4.182   4.428   9.783 -0.7849 -0.9111  4.3272
  181MPD1     N 2763   4.339   0.116   9.865  0.0795  0.2298  0.5387
  181MPD1    H5 2764   4.430   0.089   9.828  1.3494 -0.3174  4.0514
  181MPD1    N1 2765   3.866   0.030   9.841 -0.8253  0.3352  0.1480
  181MPD1    H6 2766   3.805   4.669   9.843 -1.7135  0.9367 -2.3880
  181MPD1    H7 2767   3.820   0.094   9.905 -0.4270 -0.8531  1.6121
  182MPD1     C 2768   0.848   0.471   1.768  0.6184  0.8513 -0.1251
  182MPD1    C1 2769   0.858   0.379   1.668  0.0678 -0.0808  0.3272
  182MPD1    C2 2770   0.746   0.316   1.616  0.0246  0.8183  0.6530
  182MPD1    C3 2771   0.623   0.363   1.662 -0.3337  0.6299 -0.4203
  182MPD1    C4 2772   0.615   0.454   1.768 -0.7647  0.4012  0.4374
  182MPD1    C5 2773   0.724   0.509   1.817  0.2233 -0.1695  0.1764
  182MPD1     H 2774   0.747   0.245   1.534  0.7082  0.6422  0.8142
  182MPD1    H1 2775   0.520   0.503   1.787 -0.0118  1.9626  0.1607
  182MPD1    H2 2776   0.933   0.525   1.807  0.4271  0.1985  1.1866
  182MPD1    H3 2777   0.729   0.600   1.875  0.6936 -1.1486  1.6806
  182MPD1     N 2778   0.503   0.322   1.603 -0.0436  0.4711  0.4159
  182MPD1    H5 2779   0.419   0.353   1.651  0.0413 -0.2310  1.0156
  182MPD1    N1 2780   0.991   0.317   1.650 -0.7872  0.6849 -0.2247
  182MPD1    H6 2781   1.001   0.272   1.559 -1.7733  2.6205 -1.2841
  182MPD1    H7 2782   1.067   0.384   1.659  0.9578 -1.1499 -1.2438
  183MPD1     C 2783   1.448   1.189   9.461  0.2210 -0.2444 -0.3052
  183MPD1    C1 2784   1.315   1.230   9.444 -0.3670 -0.3389 -0.0560
  183MPD1    C2 2785   1.219   1.132   9.455  0.2962  0.8386  0.5651
  183MPD1    C3 2786   1.247   1.012   9.515 -0.1697 -0.8502 -0.0719
  183MPD1    C4 2787   1.377   0.986   9.558  0.1156 -0.0381 -0.1408
  183MPD1    C5 2788   1.474   1.076   9.531  0.0766 -0.2801  0.0925
  183MPD1     H 2789   1.119   1.141   9.415  0.3651  0.5042  0.3119
  183MPD1    H1 2790   1.410   0.889   9.594  0.3276  1.1811  2.9474
  183MPD1    H2 2791   1.521   1.267   9.444 -2.8803  2.4115 -1.3177
  183MPD1    H3 2792   1.577   1.048   9.546  0.3930  0.7708 -0.1062
  183MPD1     N 2793   1.129   0.943   9.558 -0.2537 -0.3340 -0.5529
  183MPD1    H5 2794   1.045   0.999   9.547 -0.6980 -0.9502 -0.3138
  183MPD1    N1 2795   1.287   1.355   9.377 -0.0213  0.3205 -0.1060
  183MPD1    H6 2796   1.194   1.388   9.402  0.7787  1.4848  1.3309
  183MPD1    H7 2797   1.360   1.425   9.392  1.6627 -1.4310 -0.2131
  184MPD1     C 2798   4.599   3.484  10.478  0.3690  1.0794 -0.4836
  184MPD1    C1 2799   4.552   3.409  10.373 -0.0664 -0.1870  0.4196
  184MPD1    C2 2800   4.624   3.404  10.260  0.1443  0.6343 -1.0891
  184MPD1    C3 2801   0.015   3.484  10.244 -0.0786 -0.0661  0.2812
  184MPD1    C4 2802   0.048   3.567  10.341  0.1063  0.6025 -0.0682
  184MPD1    C5 2803   4.704   3.564  10.458  0.1753 -0.2657  0.3221
  184MPD1     H 2804   4.595   3.333  10.183  0.2367  0.9777 -1.4430
  184MPD1    H1 2805   0.128   3.639  10.326 -1.1929  2.3868  1.4809
  184MPD1    H2 2806   4.545   3.498  10.570 -1.0152  0.7859 -1.2435
  184MPD1    H3 2807   0.015   3.625  10.541  1.8613 -1.1707  0.3420
  184MPD1     N 2808   0.091   3.488  10.119 -0.4683  0.3627 -0.3480
  184MPD1    H5 2809   0.170   3.552  10.116  1.1503 -1.6848 -1.6198
  184MPD1    N1 2810   4.457   3.306  10.393 -0.4833 -0.5694  0.1933
  184MPD1    H6 2811   4.403   3.286  10.309  0.8448  1.3570 -1.1160
  184MPD1    H7 2812   4.394   3.328  10.470 -0.1636  0.3579  0.1893
  185MPD1     C 2813   0.310   2.916   9.284  0.0329  0.1597 -0.2604
  185MPD1    C1 2814   0.367   3.041   9.269 -0.4033 -0.0470  0.5662
  185MPD1    C2 2815   0.328   3.141   9.354 -0.1448  0.0393 -0.3895
  185MPD1    C3 2816   0.246   3.116   9.464  0.0522 -0.2194  0.2247
  185MPD1    C4 2817   0.195   2.994   9.479 -0.4051  0.1303 -0.6009
  185MPD1    C5 2818   0.230   2.889   9.393  0.1223 -0.2347  0.7067
  185MPD1     H 2819   0.372   3.237   9.329 -0.4319 -0.0519 -1.2532
  185MPD1    H1 2820   0.118   2.978   9.554  1.8569  1.3291  1.9628
  185MPD1    H2 2821   0.337   2.835   9.216  2.0290  0.8826 -0.3235
  185MPD1    H3 2822   0.183   2.791   9.399 -1.9833  0.8112  1.4081
  185MPD1     N 2823   0.212   3.217   9.562  0.5859 -0.8579 -0.2813
  185MPD1    H5 2824   0.172   3.188   9.651  0.4539  0.2276  0.0110
  185MPD1    N1 2825   0.443   3.061   9.147  0.4617 -0.1013 -0.4105
  185MPD1    H6 2826   0.507   3.140   9.141  1.2047 -0.7875 -1.4464
  185MPD1    H7 2827   0.490   2.972   9.129 -2.6882 -1.9815  0.6514
  186MPD1     C 2828   3.702   2.809  15.713 -0.4244 -0.1325 -0.0232
  186MPD1    C1 2829   3.745   2.733  15.825  0.5015 -0.1600 -0.3220
  186MPD1    C2 2830   3.710   2.775  15.949 -0.5173 -0.4403 -0.9664
  186MPD1    C3 2831   3.636   2.889  15.968 -0.1149 -0.4482  0.2940
  186MPD1    C4 2832   3.590   2.959  15.856 -0.0194 -0.1628  0.2747
  186MPD1    C5 2833   3.610   2.912  15.734 -0.4127 -0.4540  0.7203
  186MPD1     H 2834   3.741   2.722  16.039  0.9711  0.5132 -0.9068
  186MPD1    H1 2835   3.522   3.043  15.865 -1.4117 -1.2431 -0.1666
  186MPD1    H2 2836   3.727   2.779  15.611  0.0546  1.9290 -0.5203
  186MPD1    H3 2837   3.559   2.964  15.654  1.5317 -0.4911 -0.5382
  186MPD1     N 2838   3.603   2.940  16.097  0.1579  0.4473  0.2858
  186MPD1    H5 2839   3.540   3.019  16.090 -2.4596 -1.7938 -1.0518
  186MPD1    N1 2840   3.846   2.635  15.810 -0.3979 -0.6743  0.0342
  186MPD1    H6 2841   3.863   2.578  15.892 -0.5477 -1.8499 -0.7595
  186MPD1    H7 2842   3.842   2.585  15.721  1.8361 -2.3642  0.9104
  187MPD1     C 2843   2.758   0.092   0.390 -0.5174  0.2080  0.4860
  187MPD1    C1 2844   2.866   0.119   0.308  0.2359 -0.4327 -0.6662
  187MPD1    C2 2845   2.848   0.159   0.178 -0.6987 -0.3230 -0.4407
  187MPD1    C3 2846   2.723   0.144   0.119  0.0504 -0.5223  0.1777
  187MPD1    C4 2847   2.613   0.120   0.207  0.2306 -0.4115 -0.2917
  187MPD1    C5 2848   2.634   0.100   0.343 -0.2258  0.7454 -0.1587
  187MPD1     H 2849   2.935   0.180   0.117 -2.2497  2.8460 -1.5632
  187MPD1    H1 2850   2.510   0.108   0.176  0.0796  0.7150 -0.2336
  187MPD1    H2 2851   2.764   0.069   0.495 -0.7247 -0.5349  0.3311
  187MPD1    H3 2852   2.552   0.062   0.403  0.8963 -0.3388  0.6925
  187MPD1     N 2853   2.689   0.163  17.671  0.7937  0.3719 -0.0745
  187MPD1    H5 2854   2.593   0.141  17.647  1.8415 -1.7793 -2.3525
  187MPD1    N1 2855   3.006   0.098   0.349 -0.2900 -0.6547  0.0749
  187MPD1    H6 2856   3.025   0.076   0.446  0.7380 -1.7886 -0.3844
  187MPD1    H7 2857   3.070   0.164   0.305  0.9107 -1.4068  0.6982
  188MPD1     C 2858   2.152   0.330  10.245 -0.1956  0.3927  0.0421
  188MPD1    C1 2859   2.211   0.238  10.328 -0.0182  0.6248  0.4382
  188MPD1    C2 2860   2.248   0.116  10.275  0.3805 -0.6688 -0.6607
  188MPD1    C3 2861   2.210   0.078  10.146  0.4396  1.0650  0.2005
  188MPD1    C4 2862   2.166   0.177  10.056 -0.0461  0.8596 -0.0899
  188MPD1    C5 2863   2.136   0.299  10.110 -0.0019  0.7057  0.7903
  188MPD1     H 2864   2.298   0.038  10.331  0.0557 -0.4277 -0.0473
  188MPD1    H1 2865   2.141   0.166   9.951 -0.7142 -1.9135  0.3715
  188MPD1    H2 2866   2.143   0.434  10.276 -2.0573  0.6512 -1.4162
  188MPD1    H3 2867   2.094   0.378  10.049 -0.7827  0.3813  0.9115
  188MPD1     N 2868   2.232   4.671  10.094 -0.6167  0.0423 -0.1570
  188MPD1    H5 2869   2.211   4.651   9.996  1.0963  1.4392 -0.8134
  188MPD1    N1 2870   2.255   0.277  10.452 -0.3216  0.0104 -0.1673
  188MPD1    H6 2871   2.266   0.207  10.526 -1.4651  0.8657  0.8162
  188MPD1    H7 2872   2.188   0.336  10.501  1.2158  1.6992 -0.0735
  189MPD1     C 2873   4.163   4.637   0.492  0.4450 -0.3262  0.3984
  189MPD1    C1 2874   4.044   4.578   0.476 -0.0868 -0.1219  0.0312
  189MPD1    C2 2875   3.952   4.631   0.386 -0.3144  0.2889 -0.1168
  189MPD1    C3 2876   3.981   0.031   0.315  0.6512 -0.1687 -0.7588
  189MPD1    C4 2877   4.112   0.075   0.320  0.2092  0.1549  0.1502
  189MPD1    C5 2878   4.203   0.025   0.414 -0.3306 -0.3327 -0.1312
  189MPD1     H 2879   3.854   4.584   0.374  1.3020 -2.7534 -1.4391
  189MPD1    H1 2880   4.143   0.145   0.244  0.4889  1.8646  1.8677
  189MPD1    H2 2881   4.228   4.580   0.558  0.9947  0.5074  0.5767
  189MPD1    H3 2882   4.303   0.063   0.427  0.0885 -1.9528  1.4690
  189MPD1     N 2883   3.868   0.079   0.234  0.1146 -0.0156 -0.6493
  189MPD1    H5 2884   3.777   0.035   0.246  0.9035 -1.0561  1.5679
  189MPD1    N1 2885   4.013   4.470   0.560  0.6729 -0.3625 -0.2627
  189MPD1    H6 2886   4.020   4.501   0.657 -1.6732 -0.1527 -0.1506
  189MPD1    H7 2887   3.927   4.421   0.537  0.4661  0.6948 -1.8139
  190MPD1     C 2888   2.873   3.680  15.271 -0.0856  0.4535 -0.0204
  190MPD1    C1 2889   3.008   3.716  15.274  0.1651 -0.4747  0.0563
  190MPD1    C2 2890   3.038   3.821  15.364 -0.1294  0.5988  0.5065
  190MPD1    C3 2891   2.958   3.860  15.466  0.7337 -0.4336 -0.0214
  190MPD1    C4 2892   2.835   3.791  15.471 -0.3484 -0.4552 -0.9884
  190MPD1    C5 2893   2.789   3.709  15.377 -0.3974  0.0837 -0.3663
  190MPD1     H 2894   3.137   3.860  15.349  0.5656 -1.8557 -1.2919
  190MPD1    H1 2895   2.764   3.818  15.548  0.0174 -3.0132  0.2523
  190MPD1    H2 2896   2.839   3.610  15.195 -0.8074  2.4631 -1.5515
  190MPD1    H3 2897   2.690   3.665  15.381 -0.6562  0.4960 -2.3266
  190MPD1     N 2898   3.015   3.948  15.565  0.4248  0.3379  0.5302
  190MPD1    H5 2899   3.104   3.997  15.558  1.2074 -0.9566  1.5106
  190MPD1    N1 2900   3.082   3.696  15.161 -0.4832 -0.6776  0.0164
  190MPD1    H6 2901   3.183   3.693  15.177 -0.7536 -0.8886  1.7051
  190MPD1    H7 2902   3.064   3.611  15.107 -0.4410 -0.4981 -0.2750
  191MPD1     C 2903   2.036   1.311  13.090 -0.6512 -0.0900  0.0137
  191MPD1    C1 2904   1.970   1.419  13.034 -0.0563 -0.8187 -0.5369
  191MPD1    C2 2905   2.023   1.480  12.923  0.6596 -0.8615 -0.7870
  191MPD1    C3 2906   2.153   1.453  12.886  0.3240  0.7447  0.1838
  191MPD1    C4 2907   2.220   1.361  12.958  0.0389  0.2430 -0.2428
  191MPD1    C5 2908   2.166   1.292  13.052 -0.3584 -0.3535 -0.1905
  191MPD1     H 2909   1.965   1.550  12.865 -1.6997 -1.9131  0.3237
  191MPD1    H1 2910   2.326   1.352  12.940  0.1267  1.3333 -0.2521
  191MPD1    H2 2911   1.998   1.257  13.175  1.6159 -0.2694  0.9064
  191MPD1    H3 2912   2.221   1.212  13.100  0.8555  0.7718  0.3112
  191MPD1     N 2913   2.195   1.510  12.767  0.5421 -0.3903  0.1022
  191MPD1    H5 2914   2.131   1.581  12.732  1.1502  0.0296 -0.1542
  191MPD1    N1 2915   1.839   1.443  13.066  0.5009  0.6371 -0.1820
  191MPD1    H6 2916   1.835   1.437  13.167 -1.9095  1.2203 -0.2347
  191MPD1    H7 2917   1.807   1.535  13.037 -4.1604 -0.1564  2.3753
  192MPD1     C 2918   1.791   1.878  12.060  0.1664  0.4677 -0.1121
  192MPD1    C1 2919   1.792   1.744  12.067  0.6078  0.1943 -0.6413
  192MPD1    C2 2920   1.896   1.684  12.133  0.5618  0.3641 -0.3751
  192MPD1    C3 2921   2.000   1.746  12.196  0.5665 -0.0641 -0.1877
  192MPD1    C4 2922   2.002   1.884  12.181 -0.1853  0.8486 -0.1157
  192MPD1    C5 2923   1.897   1.945  12.112 -0.3932  0.2813  0.3090
  192MPD1     H 2924   1.904   1.576  12.133 -0.9461  0.2461  0.6125
  192MPD1    H1 2925   2.088   1.940  12.217 -0.1561  1.3833 -1.0385
  192MPD1    H2 2926   1.714   1.936  12.011 -1.2329  0.6239  2.2976
  192MPD1    H3 2927   1.900   2.052  12.092  0.7464  0.5568  1.9801
  192MPD1     N 2928   2.102   1.680  12.276  0.1147  0.2790  0.9613
  192MPD1    H5 2929   2.158   1.742  12.334  0.6890 -1.1044  1.8802
  192MPD1    N1 2930   1.677   1.667  12.037  1.1957  0.1999 -0.4080
  192MPD1    H6 2931   1.623   1.718  11.967  1.8307  1.7095  0.1953
  192MPD1    H7 2932   1.708   1.580  11.995  0.3763 -0.7169  0.9155
  193MPD1     C 2933   2.111   1.438  15.970  0.0058 -0.1574  0.4668
  193MPD1    C1 2934   2.128   1.570  15.944  0.7669  0.0266  0.8090
  193MPD1    C2 2935   2.213   1.641  16.025 -0.1870  0.1848 -0.0500
  193MPD1    C3 2936   2.296   1.580  16.116  0.0581 -0.1595 -0.6680
  193MPD1    C4 2937   2.287   1.446  16.137  0.2969 -0.6306 -0.2736
  193MPD1    C5 2938   2.191   1.377  16.067 -0.9318  0.1074  0.3771
  193MPD1     H 2939   2.216   1.749  16.014 -0.1844  0.3922  1.9320
  193MPD1    H1 2940   2.351   1.388  16.203 -0.8239  0.0221  1.3758
  193MPD1    H2 2941   2.036   1.378  15.920  1.7253 -0.4014 -1.7790
  193MPD1    H3 2942   2.189   1.269  16.068  0.1463  0.0827  0.0712
  193MPD1     N 2943   2.384   1.653  16.197 -0.0075  0.7406 -0.2206
  193MPD1    H5 2944   2.466   1.603  16.229  0.2492  1.6816  0.5844
  193MPD1    N1 2945   2.051   1.635  15.850 -0.3278 -0.5905  0.3863
  193MPD1    H6 2946   2.074   1.731  15.826  0.1283 -0.4022  1.5728
  193MPD1    H7 2947   2.045   1.575  15.768 -0.0118 -2.6713  1.8869
  194MPD1     C 2948   0.280   3.510  17.142 -0.3822 -0.3692  0.2179
  194MPD1    C1 2949   0.145   3.470  17.165  0.6776  0.6164 -0.1124
  194MPD1    C2 2950   0.102   3.338  17.116 -0.5674 -0.1774  0.0785
  194MPD1    C3 2951   0.203   3.266  17.041 -0.0297 -0.2285 -0.2288
  194MPD1    C4 2952   0.331   3.317  17.026  0.0377 -0.3478  0.8596
  194MPD1    C5 2953   0.365   3.433  17.078  0.0480  0.0284 -0.4346
  194MPD1     H 2954   0.001   3.300  17.121 -0.7658  0.2199 -0.9642
  194MPD1    H1 2955   0.407   3.265  16.968  0.6251  0.9539  0.4658
  194MPD1    H2 2956   0.321   3.597  17.191  1.2952 -2.3428  2.3441
  194MPD1    H3 2957   0.469   3.457  17.062  0.5099 -1.1376  0.7710
  194MPD1     N 2958   0.178   3.134  16.994  0.1616  0.3506  0.4479
  194MPD1    H5 2959   0.263   3.090  16.959  1.0072  1.6876  0.8451
  194MPD1    N1 2960   0.048   3.557  17.212 -0.1552  0.3664 -0.7898
  194MPD1    H6 2961   0.094   3.621  17.277  2.5744 -1.0280 -1.3769
  194MPD1    H7 2962   4.694   3.518  17.268 -0.8318  1.3564 -1.0057
  195MPD1     C 2963   2.078   0.094   0.695 -0.7625  0.2089 -0.1696
  195MPD1    C1 2964   2.143   4.716   0.627  0.1504  0.1798 -1.0024
  195MPD1    C2 2965   2.070   4.605   0.581  0.4214  0.3500 -0.0190
  195MPD1    C3 2966   1.935   4.591   0.609  0.3030 -0.2370 -0.4313
  195MPD1    C4 2967   1.870   4.694   0.681  0.5747 -0.1234  0.4199
  195MPD1    C5 2968   1.942   0.080   0.717 -0.7184  0.3437 -0.2068
  195MPD1     H 2969   2.123   4.538   0.515 -3.2647 -0.5402 -2.0256
  195MPD1    H1 2970   1.765   4.699   0.707  0.0707  0.9332 -1.7746
  195MPD1    H2 2971   2.121   0.189   0.723 -0.0003 -0.4047  0.7328
  195MPD1    H3 2972   1.894   0.151   0.783 -0.6810 -0.7568  1.0139
  195MPD1     N 2973   1.851   4.478   0.581 -0.3329 -0.7682  0.2044
  195MPD1    H5 2974   1.752   4.484   0.602 -0.2672 -2.5615  1.0082
  195MPD1    N1 2975   2.265   0.020   0.570 -0.2812 -0.0182 -0.3496
  195MPD1    H6 2976   2.316   4.659   0.537 -0.9188 -0.4043 -0.3858
  195MPD1    H7 2977   2.323   0.075   0.632 -1.2580  2.8589 -1.9403
  196MPD1     C 2978   2.131   3.977   0.795 -0.4220 -0.7863 -0.3314
  196MPD1    C1 2979   2.009   3.923   0.767  0.4820 -0.0422  0.0290
  196MPD1    C2 2980   1.903   3.994   0.807  0.1490 -0.5374 -0.1447
  196MPD1    C3 2981   1.915   4.109   0.879 -0.4668 -0.1370 -0.5707
  196MPD1    C4 2982   2.040   4.163   0.896  0.0727  0.1595  0.1386
  196MPD1    C5 2983   2.147   4.093   0.855 -0.1048  0.2880 -0.6230
  196MPD1     H 2984   1.805   3.959   0.776 -0.0552 -0.1316  0.0482
  196MPD1    H1 2985   2.056   4.268   0.920  1.7215  0.0667 -0.5416
  196MPD1    H2 2986   2.222   3.929   0.760  0.0743  0.8746 -1.3121
  196MPD1    H3 2987   2.245   4.138   0.869 -0.1622  0.9292 -2.2957
  196MPD1     N 2988   1.801   4.184   0.925 -0.0919 -0.1437 -0.2629
  196MPD1    H5 2989   1.825   4.277   0.959 -1.1120 -0.5902  1.6278
  196MPD1    N1 2990   2.003   3.812   0.681 -0.6489 -0.2839  0.4381
  196MPD1    H6 2991   1.923   3.750   0.695 -2.0799  1.2922 -0.6713
  196MPD1    H7 2992   2.082   3.748   0.676 -0.1016  0.3981  0.5183
  197MPD1     C 2993   1.218   2.399   0.106  0.8950 -0.6111 -0.0613
  197MPD1    C1 2994   1.155   2.513   0.081  0.2976  0.4838  0.3025
  197MPD1    C2 2995   1.124   2.549  17.637 -0.1350  0.5767  0.1864
  197MPD1    C3 2996   1.162   2.468  17.534 -0.0983  0.1459 -0.3121
  197MPD1    C4 2997   1.209   2.343  17.562  0.0979  0.0562 -0.0064
  197MPD1    C5 2998   1.243   2.308   0.003 -0.1099  0.7228 -0.1641
  197MPD1     H 2999   1.080   2.648  17.624 -0.7508  0.0931 -1.5090
  197MPD1    H1 3000   1.242   2.272  17.487 -1.1131  0.3709 -0.8540
  197MPD1    H2 3001   1.242   2.367   0.206  2.7783  1.5151  0.1675
  197MPD1    H3 3002   1.297   2.216   0.023 -0.3285  0.9342  1.3915
  197MPD1     N 3003   1.139   2.498  17.393  0.3840  0.0808  0.9282
  197MPD1    H5 3004   1.147   2.421  17.328  1.8582  0.1674  1.0059
  197MPD1    N1 3005   1.084   2.582   0.185 -0.3411 -0.2252  0.3313
  197MPD1    H6 3006   1.116   2.575   0.281 -0.3141  1.1987  0.4163
  197MPD1    H7 3007   1.070   2.677   0.151 -0.4994  0.5620  2.6464
  198MPD1     C 3008   2.417   0.628  15.749  0.2721  0.5075 -0.1397
  198MPD1    C1 3009   2.433   0.701  15.865  0.7198 -0.2570  0.5275
  198MPD1    C2 3010   2.549   0.763  15.887 -0.5089  0.0301  0.5896
  198MPD1    C3 3011   2.653   0.768  15.796 -0.1245 -0.2508  0.1930
  198MPD1    C4 3012   2.628   0.708  15.674  0.7612  0.1736 -0.1285
  198MPD1    C5 3013   2.512   0.637  15.652 -0.1065 -0.1913  0.1227
  198MPD1     H 3014   2.566   0.801  15.987  1.4195  0.0514  0.2594
  198MPD1    H1 3015   2.703   0.702  15.596 -0.6595 -0.3137 -1.4458
  198MPD1    H2 3016   2.339   0.558  15.723  0.2357 -0.0046  1.3868
  198MPD1    H3 3017   2.489   0.607  15.551 -2.3024 -0.5376  0.7284
  198MPD1     N 3018   2.770   0.838  15.831  0.2067 -0.7007 -0.3080
  198MPD1    H5 3019   2.777   0.887  15.919 -1.5682  2.9563 -2.2184
  198MPD1    N1 3020   2.351   0.675  15.971  0.3625  0.1808 -0.5090
  198MPD1    H6 3021   2.354   0.747  16.042 -2.7717  0.0943 -0.2910
  198MPD1    H7 3022   2.254   0.676  15.937 -0.0679  0.5230  0.7431
  199MPD1     C 3023   0.811   0.717  10.105 -0.0590 -0.5501  0.0150
  199MPD1    C1 3024   0.807   0.841  10.053  0.7649  0.0480  0.7007
  199MPD1    C2 3025   0.707   0.868   9.960 -1.1997  0.1046 -0.5850
  199MPD1    C3 3026   0.601   0.787   9.940  0.5091  0.0074 -0.5449
  199MPD1    C4 3027   0.617   0.659   9.990  0.2321 -0.1202  0.1714
  199MPD1    C5 3028   0.721   0.622  10.067 -1.2262 -0.1890 -0.4980
  199MPD1     H 3029   0.716   0.972   9.931  0.4544  0.0098 -0.4703
  199MPD1    H1 3030   0.543   0.586   9.959 -1.1138  0.3259  2.3261
  199MPD1    H2 3031   0.887   0.673  10.170  1.7584 -0.8422 -2.3326
  199MPD1    H3 3032   0.731   0.517  10.092  3.9794  0.7003  1.1035
  199MPD1     N 3033   0.483   0.822   9.870 -0.3305 -0.4300  0.2355
  199MPD1    H5 3034   0.408   0.754   9.857 -0.0517 -1.0459  1.8234
  199MPD1    N1 3035   0.912   0.937  10.072 -0.0664  0.1208 -0.0151
  199MPD1    H6 3036   0.940   0.935  10.170  1.4461  2.1852 -0.3992
  199MPD1    H7 3037   0.886   1.033  10.051 -0.6582 -0.2789 -1.1096
  200MPD1     C 3038   3.681   1.803  14.968  0.6376  0.6507  0.2994
  200MPD1    C1 3039   3.672   1.745  14.843 -0.3814 -0.3622  0.5368
  200MPD1    C2 3040   3.772   1.780  14.748 -0.2794 -0.0354 -0.0521
  200MPD1    C3 3041   3.880   1.871  14.779  0.3944  0.3372  0.5318
  200MPD1    C4 3042   3.886   1.917  14.912 -0.5752  0.2604 -0.5711
  200MPD1    C5 3043   3.793   1.882  14.994 -0.1121  0.0294  0.2359
  200MPD1     H 3044   3.764   1.731  14.652  0.6262  0.2980 -0.2966
  200MPD1    H1 3045   3.969   1.982  14.938 -0.5118  0.1589 -0.5186
  200MPD1    H2 3046   3.618   1.784  15.054  1.2994  0.3175  0.7114
  200MPD1    H3 3047   3.805   1.931  15.090 -1.8587 -2.0564  1.5275
  200MPD1     N 3048   3.973   1.900  14.677 -0.6220 -0.4322  0.3266
  200MPD1    H5 3049   3.956   1.868  14.582 -0.1544  1.5960 -0.4317
  200MPD1    N1 3050   3.552   1.682  14.812 -0.0148  0.3409 -0.0482
  200MPD1    H6 3051   3.496   1.639  14.885 -3.0514  3.4168 -0.5874
  200MPD1    H7 3052   3.564   1.613  14.738  1.0721  0.7908 -0.2940
  201MPD1     C 3053   1.599   1.020  13.077 -0.5443  0.2537  0.0985
  201MPD1    C1 3054   1.725   0.976  13.105 -0.3591  0.2124  0.4482
  201MPD1    C2 3055   1.741   0.838  13.129 -0.6251  0.3731  0.2036
  201MPD1    C3 3056   1.632   0.753  13.131  0.1947 -0.0294  0.4348
  201MPD1    C4 3057   1.503   0.803  13.109 -0.2275 -0.4639  0.0952
  201MPD1    C5 3058   1.491   0.938  13.080 -0.6886 -0.0048 -0.8441
  201MPD1     H 3059   1.838   0.808  13.167  0.7958  1.7784 -2.3044
  201MPD1    H1 3060   1.420   0.734  13.110 -0.4844 -0.1613 -0.0754
  201MPD1    H2 3061   1.578   1.124  13.055 -3.1570  0.0774  1.8447
  201MPD1    H3 3062   1.390   0.972  13.060 -0.6177  0.7779  0.1684
  201MPD1     N 3063   1.647   0.612  13.159  0.2906 -0.0027  0.4195
  201MPD1    H5 3064   1.735   0.579  13.198  0.6185 -0.0980 -0.4005
  201MPD1    N1 3065   1.836   1.065  13.103  0.8831 -0.3667  0.0703
  201MPD1    H6 3066   1.928   1.021  13.110  0.1835 -1.5763  1.5313
  201MPD1    H7 3067   1.820   1.145  13.041  1.4433 -0.9685 -0.8576
  202MPD1     C 3068   2.017   0.649   9.817  0.7754 -0.2212  1.0769
  202MPD1    C1 3069   2.058   0.544   9.743  0.3094 -0.2215 -0.0977
  202MPD1    C2 3070   2.007   0.420   9.777 -0.0849 -0.1992 -0.6863
  202MPD1    C3 3071   1.913   0.405   9.876 -0.5510  0.0356 -0.2914
  202MPD1    C4 3072   1.899   0.525   9.958  0.1656 -0.7418 -0.3113
  202MPD1    C5 3073   1.948   0.643   9.930  0.6934  0.0905  0.2859
  202MPD1     H 3074   2.026   0.343   9.704  0.5469 -1.6402  0.9960
  202MPD1    H1 3075   1.832   0.530  10.043 -0.8040 -0.6619 -1.0793
  202MPD1    H2 3076   2.047   0.749   9.788 -0.0069 -0.1336  0.5685
  202MPD1    H3 3077   1.925   0.727   9.995 -0.8003 -0.5643  0.5888
  202MPD1     N 3078   1.847   0.287   9.911 -0.1286  0.1975 -0.5704
  202MPD1    H5 3079   1.801   0.296  10.001 -1.1036  1.2866 -1.1785
  202MPD1    N1 3080   2.097   0.562   9.609  0.3886  0.6069 -0.1358
  202MPD1    H6 3081   2.155   0.645   9.597  0.2770  0.7231  0.1373
  202MPD1    H7 3082   2.146   0.476   9.584 -0.7275 -0.0851  0.0712
  203MPD1     C 3083   1.394   1.437  13.473  0.2175 -0.4780  0.0265
  203MPD1    C1 3084   1.265   1.474  13.427 -0.1612 -0.6568 -0.0529
  203MPD1    C2 3085   1.164   1.377  13.431  0.9738 -0.3761 -0.4903
  203MPD1    C3 3086   1.187   1.248  13.481 -0.0333  0.6120  0.4038
  203MPD1    C4 3087   1.311   1.226  13.550  0.2328 -0.0135  0.1643
  203MPD1    C5 3088   1.410   1.327  13.547  0.2730  0.3874  0.0226
  203MPD1     H 3089   1.083   1.400  13.363  1.5393  0.8607 -0.7487
  203MPD1    H1 3090   1.323   1.136  13.610  3.0954  1.1207  1.2903
  203MPD1    H2 3091   1.485   1.495  13.461 -0.0869  0.5811  2.9065
  203MPD1    H3 3092   1.506   1.314  13.594  1.0898  0.6281 -1.5915
  203MPD1     N 3093   1.093   1.144  13.457  0.4058  0.4544 -0.3579
  203MPD1    H5 3094   1.006   1.166  13.409  0.9185  2.7005 -0.2910
  203MPD1    N1 3095   1.248   1.580  13.339 -0.2845 -0.2445 -0.3111
  203MPD1    H6 3096   1.313   1.657  13.355  0.7140 -0.7019 -2.1630
  203MPD1    H7 3097   1.154   1.618  13.344 -0.3517 -0.3703 -0.5909
  204MPD1     C 3098   0.272   2.455  17.648  0.2223 -0.2796  0.8770
  204MPD1    C1 3099   0.332   2.466  17.522 -0.0815  0.1931  0.5804
  204MPD1    C2 3100   0.341   2.351  17.454 -0.3668 -0.5583  0.4321
  204MPD1    C3 3101   0.307   2.226  17.510  0.1851 -0.8292 -0.3133
  204MPD1    C4 3102   0.270   2.219  17.641 -0.7369 -0.6515 -0.1530
  204MPD1    C5 3103   0.257   2.336   0.029  0.2497  0.5722  0.3005
  204MPD1     H 3104   0.353   2.349  17.346 -0.5699 -0.3448  0.4045
  204MPD1    H1 3105   0.245   2.126   0.003 -0.4483 -1.6451 -1.9385
  204MPD1    H2 3106   0.247   2.545   0.016 -0.3697  1.0104 -1.5743
  204MPD1    H3 3107   0.238   2.325   0.135  0.2592 -1.3512  0.1106
  204MPD1     N 3108   0.300   2.110  17.423  0.2664  1.0107  0.0041
  204MPD1    H5 3109   0.322   2.135  17.327 -0.0430 -0.0509 -0.3396
  204MPD1    N1 3110   0.355   2.595  17.457  1.1889 -0.2842  0.0206
  204MPD1    H6 3111   0.375   2.669  17.523  0.0231 -0.4771  0.5916
  204MPD1    H7 3112   0.434   2.589  17.393  1.2873 -0.5873  0.1687
  205MPD1     C 3113   0.463   0.390  16.415 -0.3735  0.8261 -0.5618
  205MPD1    C1 3114   0.552   0.455  16.499  0.5234 -0.0651 -0.1565
  205MPD1    C2 3115   0.506   0.518  16.612  0.4862  0.0837  0.3553
  205MPD1    C3 3116   0.366   0.519  16.638 -0.3838  0.0685 -0.1824
  205MPD1    C4 3117   0.287   0.438  16.556  0.9050  0.5102  0.0856
  205MPD1    C5 3118   0.333   0.376  16.444  0.8766  0.3333  0.4878
  205MPD1     H 3119   0.566   0.577  16.681 -0.2171 -0.5974  1.5456
  205MPD1    H1 3120   0.180   0.433  16.571  1.3785 -1.7594  2.6283
  205MPD1    H2 3121   0.499   0.343  16.324 -0.4166 -1.0973  0.4164
  205MPD1    H3 3122   0.267   0.328  16.373  1.7925 -0.3160  0.0751
  205MPD1     N 3123   0.300   0.575  16.747 -0.2553  0.3478 -0.2749
  205MPD1    H5 3124   0.205   0.545  16.767  0.3971 -2.7235 -1.7941
  205MPD1    N1 3125   0.686   0.422  16.481  0.6952  0.4012 -0.4585
  205MPD1    H6 3126   0.745   0.485  16.536  0.1614 -0.0898  0.6851
  205MPD1    H7 3127   0.705   0.436  16.382 -0.2517  0.2598 -0.6558
  206MPD1     C 3128   0.379   4.112  16.965  0.5226 -0.3479 -0.1666
  206MPD1    C1 3129   0.340   4.032  16.860  1.0028 -0.2997  0.3618
  206MPD1    C2 3130   0.203   4.025  16.826 -0.1206  0.3289  0.4767
  206MPD1    C3 3131   0.114   4.112  16.890  1.0245 -0.6457  0.0813
  206MPD1    C4 3132   0.155   4.189  16.995 -0.7960  0.1901 -0.1189
  206MPD1    C5 3133   0.285   4.176  17.046 -0.5699  0.1186  0.2425
  206MPD1     H 3134   0.156   3.956  16.757 -0.7744 -0.3257  1.5653
  206MPD1    H1 3135   0.087   4.255  17.047  0.5280  0.4554  1.2815
  206MPD1    H2 3136   0.480   4.111  17.004  0.8430 -0.6216 -1.0185
  206MPD1    H3 3137   0.316   4.242  17.126 -2.6954  2.3297 -0.7312
  206MPD1     N 3138   4.700   4.112  16.869 -0.0389  0.3912  0.3127
  206MPD1    H5 3139   4.653   4.167  16.941 -0.4637  0.4232  0.0147
  206MPD1    N1 3140   0.425   3.930  16.811 -0.0070  0.2528  0.3000
  206MPD1    H6 3141   0.524   3.954  16.816  0.3221 -1.7077  2.9209
  206MPD1    H7 3142   0.400   3.889  16.721 -2.4498  1.3507  0.4892
  207MPD1     C 3143   2.000   1.398   9.462 -0.1249 -0.0187  0.2799
  207MPD1    C1 3144   1.951   1.336   9.569  0.6595 -0.3954 -0.3298
  207MPD1    C2 3145   2.025   1.345   9.680  0.4063  0.5274 -0.8262
  207MPD1    C3 3146   2.147   1.412   9.683 -0.5323  0.5612 -0.2058
  207MPD1    C4 3147   2.191   1.482   9.576 -0.0128 -0.3278  0.2539
  207MPD1    C5 3148   2.121   1.471   9.458  0.3463 -0.3982 -0.0754
  207MPD1     H 3149   1.980   1.300   9.768  0.8112 -0.3728 -1.0803
  207MPD1    H1 3150   2.281   1.542   9.581 -0.1075 -0.3190  1.8156
  207MPD1    H2 3151   1.937   1.405   9.374  1.0177  0.2820 -0.5138
  207MPD1    H3 3152   2.154   1.513   9.364  0.8153 -0.4156  0.0825
  207MPD1     N 3153   2.219   1.423   9.802  0.5617 -0.1665 -0.0799
  207MPD1    H5 3154   2.304   1.478   9.800 -0.7879  1.9596  0.1072
  207MPD1    N1 3155   1.829   1.272   9.571 -0.0206 -0.0811  0.1580
  207MPD1    H6 3156   1.834   1.182   9.619 -0.7146 -0.0920  0.2097
  207MPD1    H7 3157   1.796   1.253   9.476 -1.5340  0.4990  0.5675
  208MPD1     C 3158   1.061   0.221   0.483 -0.3915 -0.0190 -0.5660
  208MPD1    C1 3159   0.983   0.198   0.586  0.1183 -0.5123 -0.4908
  208MPD1    C2 3160   0.848   0.189   0.572  0.1023  0.2137  0.1005
  208MPD1    C3 3161   0.789   0.195   0.447  0.4145  0.5333  0.2223
  208MPD1    C4 3162   0.875   0.207   0.342 -0.1428  0.9002  0.5279
  208MPD1    C5 3163   1.010   0.217   0.362  0.5388  0.0880  0.0187
  208MPD1     H 3164   0.782   0.173   0.656 -0.7302 -1.3142 -0.8386
  208MPD1    H1 3165   0.840   0.177   0.245 -0.6097 -0.5119  1.1353
  208MPD1    H2 3166   1.167   0.233   0.503 -0.3588 -2.8845  1.0212
  208MPD1    H3 3167   1.069   0.252   0.278  1.2138 -1.9622 -0.3538
  208MPD1     N 3168   0.648   0.181   0.434 -0.0442 -0.8635 -0.1640
  208MPD1    H5 3169   0.589   0.157   0.513  0.0946  0.0900  0.2322
  208MPD1    N1 3170   1.034   0.213   0.716  0.9449  0.2379 -0.1547
  208MPD1    H6 3171   1.135   0.199   0.721  0.9560  0.4403  0.1884
  208MPD1    H7 3172   0.983   0.155   0.782 -0.7364  0.5504 -1.1841
  209MPD1     C 3173   2.550   0.205  11.253  0.5940 -0.8404 -0.4639
  209MPD1    C1 3174   2.616   0.295  11.332 -0.3458  0.5079 -0.7283
  209MPD1    C2 3175   2.577   0.427  11.331 -0.5412  0.4270 -0.0679
  209MPD1    C3 3176   2.478   0.471  11.247 -0.7052 -0.2328 -0.8714
  209MPD1    C4 3177   2.413   0.375  11.169 -0.2573 -0.3886  0.0314
  209MPD1    C5 3178   2.451   0.247  11.172  0.0558 -0.2360 -0.1095
  209MPD1     H 3179   2.630   0.496  11.395 -0.3760 -0.9964  1.3254
  209MPD1    H1 3180   2.331   0.397  11.102 -1.3254  0.7846  1.7096
  209MPD1    H2 3181   2.584   0.105  11.227  0.2125 -1.3727  1.1078
  209MPD1    H3 3182   2.416   0.171  11.104 -1.2856 -0.7934  1.1873
  209MPD1     N 3183   2.451   0.609  11.228  0.0120  0.7154  0.1286
  209MPD1    H5 3184   2.513   0.665  11.285  0.4309 -0.3176  0.6846
  209MPD1    N1 3185   2.733   0.256  11.400 -0.5156  0.4197 -0.4098
  209MPD1    H6 3186   2.736   0.158  11.429  0.5785  0.1826 -1.3317
  209MPD1    H7 3187   2.741   0.303  11.490 -1.4632  1.0960 -0.6795
  210MPD1     C 3188   2.745   1.487  11.530  0.2531  0.0032 -0.6378
  210MPD1    C1 3189   2.806   1.364  11.516  0.2706  0.3960  0.9717
  210MPD1    C2 3190   2.758   1.283  11.417  0.3717 -0.4510 -0.3287
  210MPD1    C3 3191   2.637   1.297  11.351 -0.0555 -0.3240  0.8772
  210MPD1    C4 3192   2.571   1.423  11.375  0.0308 -0.2419  0.1073
  210MPD1    C5 3193   2.630   1.509  11.462 -0.1772 -0.6371 -0.0113
  210MPD1     H 3194   2.815   1.194  11.393  1.7355  0.4909 -0.5747
  210MPD1    H1 3195   2.483   1.459  11.323 -1.2493 -1.0864  1.6825
  210MPD1    H2 3196   2.802   1.566  11.578 -0.3437  2.0829 -3.3809
  210MPD1    H3 3197   2.581   1.606  11.465  1.4880  0.1470  2.0179
  210MPD1     N 3198   2.576   1.200  11.261  0.6973  0.3059  0.2212
  210MPD1    H5 3199   2.504   1.240  11.202  1.9730  0.6264 -1.1043
  210MPD1    N1 3200   2.938   1.360  11.566  0.5502  0.4056  0.3451
  210MPD1    H6 3201   2.938   1.413  11.653  2.8681 -0.2493  0.7437
  210MPD1    H7 3202   2.959   1.262  11.582  0.5582  0.0412 -1.9485
  211MPD1     C 3203   0.253   0.463  15.920 -0.4955  0.5101 -0.8398
  211MPD1    C1 3204   0.327   0.561  15.976 -0.0737 -0.1849  0.1718
  211MPD1    C2 3205   0.317   0.691  15.922  0.1225  0.5072  0.8767
  211MPD1    C3 3206   0.241   0.709  15.807  0.0895 -0.5401 -0.2917
  211MPD1    C4 3207   0.175   0.605  15.747  0.5053 -0.2221 -0.4724
  211MPD1    C5 3208   0.179   0.479  15.804  0.1594 -0.5804 -0.1941
  211MPD1     H 3209   0.365   0.776  15.969  1.0190 -0.6807  2.0953
  211MPD1    H1 3210   0.110   0.616  15.661  1.0737  0.2842 -0.8384
  211MPD1    H2 3211   0.245   0.365  15.967  2.0359  0.6256 -0.1866
  211MPD1    H3 3212   0.115   0.396  15.777  0.7878 -1.2212  0.2704
  211MPD1     N 3213   0.245   0.842  15.762 -0.3881 -0.0350  0.0799
  211MPD1    H5 3214   0.298   0.903  15.823 -0.1989  0.2622 -0.3877
  211MPD1    N1 3215   0.385   0.542  16.101  0.7943 -0.2002 -0.7371
  211MPD1    H6 3216   0.453   0.616  16.114 -0.8586  1.1102  0.3214
  211MPD1    H7 3217   0.434   0.453  16.099 -0.0376 -0.6772  0.5509
  212MPD1     C 3218   4.611   4.039  17.181  0.5828  0.5260 -0.4831
  212MPD1    C1 3219   4.495   4.094  17.122 -0.0288 -0.2113  0.0157
  212MPD1    C2 3220   4.386   4.012  17.094 -0.5343 -0.5072 -0.3660
  212MPD1    C3 3221   4.394   3.877  17.122 -1.0398  0.1144  0.8794
  212MPD1    C4 3222   4.506   3.828  17.180 -0.4733  0.6126  0.1506
  212MPD1    C5 3223   4.610   3.911  17.216  0.0990 -0.4983 -0.1876
  212MPD1     H 3224   4.306   4.059  17.039  1.6048  2.8543 -0.5596
  212MPD1    H1 3225   4.515   3.723  17.203  1.8087  0.6736 -0.4359
  212MPD1    H2 3226   4.701   4.095  17.202  0.2639  0.5006  0.9213
  212MPD1    H3 3227   4.696   3.875  17.273  1.5276  2.8695 -0.2130
  212MPD1     N 3228   4.291   3.788  17.102  0.2451 -0.3283 -0.2448
  212MPD1    H5 3229   4.322   3.695  17.129  3.3260  0.6917 -0.2869
  212MPD1    N1 3230   4.493   4.230  17.079 -0.2390 -0.8271  0.4597
  212MPD1    H6 3231   4.556   4.288  17.134  0.1588 -2.2739  1.5115
  212MPD1    H7 3232   4.403   4.277  17.072  0.9840  1.0032 -3.3392
  213MPD1     C 3233   2.426   4.688  16.084 -0.5142 -0.1760  0.2275
  213MPD1    C1 3234   2.294   4.657  16.068 -0.2520 -0.2581 -1.0425
  213MPD1    C2 3235   2.262   4.658  15.929 -0.0902  0.7390  0.3348
  213MPD1    C3 3236   2.352   4.663  15.821 -0.0200  0.3761  0.4801
  213MPD1    C4 3237   2.488   4.674  15.855 -0.4777  0.4399  0.5927
  213MPD1    C5 3238   2.527   4.678  15.986  0.5013  0.0732  0.7813
  213MPD1     H 3239   2.158   4.642  15.899  0.2719 -0.2623 -0.4166
  213MPD1    H1 3240   2.569   4.677  15.783  1.1404 -0.1131  2.3947
  213MPD1    H2 3241   2.462   4.700  16.186  2.7059  0.5172 -0.9920
  213MPD1    H3 3242   2.630   4.686  16.018  0.0538  3.1777  1.4416
  213MPD1     N 3243   2.306   4.664  15.685  0.5373 -0.2758  0.2944
  213MPD1    H5 3244   2.207   4.645  15.676  0.3837  0.0273  1.3716
  213MPD1    N1 3245   2.209   4.705  16.167 -0.1281  0.1096  0.1751
  213MPD1    H6 3246   2.116   4.671  16.141 -0.2538  0.2869  0.3949
  213MPD1    H7 3247   2.239   4.661  16.253 -0.1828  0.6043  0.4481
  214MPD1     C 3248   1.731   4.111  15.481 -0.2261  0.0746 -0.4613
  214MPD1    C1 3249   1.765   4.138  15.349  0.6601 -0.0825 -0.2279
  214MPD1    C2 3250   1.855   4.244  15.327  0.5775  0.0701 -0.3978
  214MPD1    C3 3251   1.911   4.317  15.426  0.0073  0.3715 -0.6351
  214MPD1    C4 3252   1.865   4.294  15.552  0.1412  0.0869  0.2651
  214MPD1    C5 3253   1.784   4.186  15.586  0.2953 -0.3824  0.0367
  214MPD1     H 3254   1.875   4.272  15.225  1.0157  1.3300  0.0243
  214MPD1    H1 3255   1.897   4.355  15.637 -0.1404 -0.1065  0.5116
  214MPD1    H2 3256   1.667   4.028  15.508  1.6704 -1.1455  0.2701
  214MPD1    H3 3257   1.747   4.172  15.686  0.4156 -3.2745 -0.3444
  214MPD1     N 3258   2.012   4.412  15.408  0.7133  0.1580 -0.2216
  214MPD1    H5 3259   2.039   4.474  15.484  0.9127 -1.8956  1.3688
  214MPD1    N1 3260   1.706   4.075  15.241  0.3416 -0.8602  0.2344
  214MPD1    H6 3261   1.767   4.074  15.160 -1.6302 -1.8719 -1.2206
  214MPD1    H7 3262   1.656   3.989  15.261 -1.7394  0.5310  1.0366
  215MPD1     C 3263   1.372   0.769  10.504  0.1750  0.3808 -0.8510
  215MPD1    C1 3264   1.316   0.808  10.625  0.2910 -0.2753 -0.0052
  215MPD1    C2 3265   1.391   0.877  10.709  0.5069  0.3667 -0.1683
  215MPD1    C3 3266   1.495   0.956  10.666  0.1708 -0.2708  0.0222
  215MPD1    C4 3267   1.532   0.930  10.534  0.2928  0.4879  0.6088
  215MPD1    C5 3268   1.481   0.831  10.452  0.1041  0.1775 -0.2486
  215MPD1     H 3269   1.358   0.884  10.812 -1.4126  0.1776 -0.7715
  215MPD1    H1 3270   1.625   0.969  10.495 -0.3358  0.1413 -1.2440
  215MPD1    H2 3271   1.318   0.696  10.445 -0.3700 -0.4310  0.6555
  215MPD1    H3 3272   1.530   0.813  10.357  2.0176  0.0866  0.7589
  215MPD1     N 3273   1.560   1.041  10.755 -0.0510  0.1158 -0.0039
  215MPD1    H5 3274   1.535   1.043  10.854 -0.0641 -2.2771  0.0422
  215MPD1    N1 3275   1.202   0.732  10.668 -0.3436 -1.0610  0.0789
  215MPD1    H6 3276   1.145   0.782  10.736 -1.6805 -0.4683 -1.4802
  215MPD1    H7 3277   1.140   0.708  10.591 -1.0982  0.0462  0.3293
  216MPD1     C 3278   4.100   3.392  17.220 -0.5228  0.3094 -0.0146
  216MPD1    C1 3279   4.062   3.411  17.354 -0.1130 -0.2125 -0.1656
  216MPD1    C2 3280   4.161   3.432  17.448  0.2709  0.1522 -0.2166
  216MPD1    C3 3281   4.289   3.454  17.415 -0.2757 -0.1802 -0.0987
  216MPD1    C4 3282   4.326   3.420  17.289 -0.5066  0.8232  0.4418
  216MPD1    C5 3283   4.232   3.392  17.195  0.5179  0.2389  0.0296
  216MPD1     H 3284   4.139   3.455  17.552  0.3528 -2.8352  0.4649
  216MPD1    H1 3285   4.430   3.432  17.259 -0.5545 -0.0227 -0.0507
  216MPD1    H2 3286   4.038   3.353  17.140 -0.8765 -0.8406  0.8257
  216MPD1    H3 3287   4.259   3.379  17.091 -1.7466  2.5990 -0.8368
  216MPD1     N 3288   4.377   3.493  17.518 -0.6262 -0.5291 -0.0890
  216MPD1    H5 3289   4.330   3.536  17.596  1.5705  0.0164  0.9129
  216MPD1    N1 3290   3.931   3.365  17.384 -0.1593  0.3357 -0.3724
  216MPD1    H6 3291   3.863   3.377  17.309 -0.1476 -2.0799 -0.7665
  216MPD1    H7 3292   3.889   3.406  17.467  1.3141  2.4703 -0.6688
  217MPD1     C 3293   0.336   0.323   9.202 -0.0788 -0.0268  0.0402
  217MPD1    C1 3294   0.227   0.248   9.251 -0.3757  0.5342  0.0021
  217MPD1    C2 3295   0.206   0.117   9.207 -0.2872  0.8351  0.6680
  217MPD1    C3 3296   0.286   0.065   9.106 -0.4946 -0.6183  0.1460
  217MPD1    C4 3297   0.395   0.139   9.062  0.4188 -0.2574 -0.5414
  217MPD1    C5 3298   0.418   0.267   9.107  0.1013 -0.5051 -0.0778
  217MPD1     H 3299   0.115   0.068   9.238 -0.0730  0.3611  0.5392
  217MPD1    H1 3300   0.460   0.106   8.982  1.4486  0.1797  0.1118
  217MPD1    H2 3301   0.355   0.422   9.241 -1.6763  0.4938 -0.4761
  217MPD1    H3 3302   0.511   0.314   9.078 -0.4129  1.2836  1.1171
  217MPD1     N 3303   0.282   4.655   9.058 -0.6643  0.1788  0.2608
  217MPD1    H5 3304   0.362   4.627   9.003  0.2979  1.6083  0.9247
  217MPD1    N1 3305   0.146   0.295   9.359 -0.6561 -0.2365  0.5032
  217MPD1    H6 3306   0.176   0.240   9.440  0.3314  0.8027  0.8269
  217MPD1    H7 3307   0.164   0.393   9.378  1.7129 -0.6711  0.4602
  218MPD1     C 3308   1.155   1.157  12.740 -0.1088 -0.4975 -0.2676
  218MPD1    C1 3309   1.278   1.204  12.762  0.3242  0.3934 -0.0329
  218MPD1    C2 3310   1.387   1.114  12.783  0.5711 -0.0096 -0.6971
  218MPD1    C3 3311   1.359   0.975  12.771  0.5703  0.6591  0.3950
  218MPD1    C4 3312   1.235   0.927  12.751 -0.1842 -0.2747  0.4235
  218MPD1    C5 3313   1.138   1.016  12.736 -0.4019  0.3037 -0.4746
  218MPD1     H 3314   1.489   1.149  12.781 -0.0250  1.7440 -1.3186
  218MPD1    H1 3315   1.207   0.822  12.755 -1.6076  0.0162 -2.0863
  218MPD1    H2 3316   1.073   1.222  12.712  0.5856  1.1582  1.5231
  218MPD1    H3 3317   1.035   0.986  12.724 -0.5112 -0.3875  2.2285
  218MPD1     N 3318   1.468   0.884  12.775  0.2358 -0.0064  0.6028
  218MPD1    H5 3319   1.557   0.932  12.775  1.3417 -2.0301  0.0339
  218MPD1    N1 3320   1.306   1.341  12.754  0.4337  0.0928  0.0300
  218MPD1    H6 3321   1.229   1.390  12.800 -0.4896 -0.5853 -0.7755
  218MPD1    H7 3322   1.382   1.362  12.817  0.0676 -1.5157  1.0180
  219MPD1     C 3323   2.298   1.109  12.697  0.2459 -0.4059 -0.3886
  219MPD1    C1 3324   2.315   0.998  12.775 -0.0295 -0.3223 -0.3085
  219MPD1    C2 3325   2.208   0.923  12.801 -0.1555 -0.0995  0.2791
  219MPD1    C3 3326   2.083   0.963  12.768 -0.2005  0.1151 -0.5688
  219MPD1    C4 3327   2.066   1.082  12.710 -0.0303 -0.4134  0.2675
  219MPD1    C5 3328   2.170   1.154  12.676 -0.5588 -0.2928 -0.0044
  219MPD1     H 3329   2.229   0.837  12.864  2.5867  1.2468  1.1792
  219MPD1    H1 3330   1.971   1.130  12.689 -0.0682 -1.0262 -0.9315
  219MPD1    H2 3331   2.379   1.154  12.641  0.1255 -0.7899 -0.8719
  219MPD1    H3 3332   2.157   1.248  12.624  4.2086  0.5440  0.2872
  219MPD1     N 3333   1.964   0.887  12.786  0.0822 -0.2014 -0.3868
  219MPD1    H5 3334   1.874   0.928  12.764 -1.3183 -2.5317  1.0873
  219MPD1    N1 3335   2.442   0.944  12.794  0.4285  0.9394 -0.1907
  219MPD1    H6 3336   2.514   1.016  12.797  0.7055  0.6543 -0.0201
  219MPD1    H7 3337   2.449   0.872  12.865  0.0539  0.3916 -0.7023
  220MPD1     C 3338   1.747   2.415   9.898 -0.8426 -0.2266 -0.1743
  220MPD1    C1 3339   1.859   2.376   9.969 -0.4052 -0.2185  0.6563
  220MPD1    C2 3340   1.878   2.240   9.966  0.2510 -0.6399 -0.7746
  220MPD1    C3 3341   1.809   2.152   9.888 -0.1423 -0.0641  0.4349
  220MPD1    C4 3342   1.697   2.198   9.813  0.2480 -0.2438 -0.0557
  220MPD1    C5 3343   1.667   2.330   9.822 -1.2103  0.1670 -0.8163
  220MPD1     H 3344   1.963   2.211  10.025  0.1940  3.1420  1.2028
  220MPD1    H1 3345   1.633   2.139   9.750  2.5616 -2.3838 -0.4140
  220MPD1    H2 3346   1.715   2.518   9.894  0.8857  0.2697 -1.2443
  220MPD1    H3 3347   1.581   2.367   9.766 -0.3351  1.1260 -1.5365
  220MPD1     N 3348   1.851   2.017   9.897  0.4040  0.1359 -0.3939
  220MPD1    H5 3349   1.922   1.987   9.962 -1.4386 -1.1511  1.0453
  220MPD1    N1 3350   1.911   2.461  10.066  0.4334 -0.2910 -0.2458
  220MPD1    H6 3351   2.007   2.442  10.092  1.1928  1.2349 -1.9171
  220MPD1    H7 3352   1.913   2.561  10.044  0.6252 -0.0520  0.8635
  221MPD1     C 3353   4.149   0.085  16.749 -0.4108  0.0573 -0.6185
  221MPD1    C1 3354   4.211   0.183  16.831 -0.0427 -0.0613 -0.0646
  221MPD1    C2 3355   4.349   0.189  16.829 -0.1730 -0.2088  0.1446
  221MPD1    C3 3356   4.420   0.114  16.738  0.5634  0.6295 -0.2700
  221MPD1    C4 3357   4.354   0.031  16.654 -0.1079 -0.6434  0.5323
  221MPD1    C5 3358   4.219   0.012  16.658  0.2474  0.5095  0.2050
  221MPD1     H 3359   4.400   0.264  16.888  1.4325 -0.2119 -1.2327
  221MPD1    H1 3360   4.405   4.700  16.573 -0.1994 -1.1384  0.7901
  221MPD1    H2 3361   4.042   0.071  16.758 -0.2594  0.3124  1.5256
  221MPD1    H3 3362   4.172   4.670  16.583  3.1466 -0.8568 -0.4802
  221MPD1     N 3363   4.558   0.116  16.726 -0.2634  0.4149  0.2460
  221MPD1    H5 3364   4.593   0.054  16.654 -1.5571 -0.5702  0.4794
  221MPD1    N1 3365   4.135   0.246  16.933  0.0807  0.1071  0.1659
  221MPD1    H6 3366   4.037   0.265  16.915  0.0284  1.1791  1.6112
  221MPD1    H7 3367   4.180   0.334  16.956  0.2107  0.8118 -2.7195
  222MPD1     C 3368   0.070   2.938   0.282 -0.1515 -0.4553  0.0474
  222MPD1    C1 3369   0.183   2.918   0.359  0.0370 -0.1506 -0.2523
  222MPD1    C2 3370   0.255   3.035   0.383  0.3308  0.1385  0.2857
  222MPD1    C3 3371   0.217   3.157   0.349  0.1934 -0.2139  0.5392
  222MPD1    C4 3372   0.099   3.175   0.284  0.0856  0.5495 -0.0615
  222MPD1    C5 3373   0.019   3.063   0.257 -0.0699  0.3882  0.1581
  222MPD1     H 3374   0.356   3.019   0.422 -0.1737 -2.0860  0.6980
  222MPD1    H1 3375   0.057   3.271   0.257 -3.5477 -1.9088 -3.1447
  222MPD1    H2 3376   0.011   2.855   0.245 -0.0136  0.3179 -1.8745
  222MPD1    H3 3377   4.642   3.079   0.213 -0.4292 -0.4355  0.6700
  222MPD1     N 3378   0.294   3.273   0.373  0.4864  1.0552 -0.4529
  222MPD1    H5 3379   0.262   3.355   0.322  1.5415  0.1073 -2.6366
  222MPD1    N1 3380   0.232   2.786   0.379  0.4613 -0.1347  0.2150
  222MPD1    H6 3381   0.158   2.716   0.390 -0.3751  0.9846  1.5604
  222MPD1    H7 3382   0.279   2.789   0.469  0.0976 -0.6687  0.4239
  223MPD1     C 3383   1.301   3.407   0.418 -0.0546  0.3551 -0.3209
  223MPD1    C1 3384   1.229   3.333   0.506 -0.2624  0.6201  0.3616
  223MPD1    C2 3385   1.093   3.350   0.515  0.1157 -0.8233  0.3595
  223MPD1    C3 3386   1.029   3.444   0.436 -1.2469 -0.5727 -0.3616
  223MPD1    C4 3387   1.110   3.528   0.359 -0.5736 -0.0522  0.3646
  223MPD1    C5 3388   1.240   3.505   0.354 -0.1104  0.1060 -0.0568
  223MPD1     H 3389   1.033   3.285   0.577 -2.2687 -0.7702 -1.9342
  223MPD1    H1 3390   1.071   3.596   0.284 -1.4680 -0.6082  0.3365
  223MPD1    H2 3391   1.407   3.390   0.410 -0.2437 -1.3348  0.8645
  223MPD1    H3 3392   1.300   3.564   0.286 -0.4794  2.0957  1.3584
  223MPD1     N 3393   0.885   3.453   0.437 -0.1639  0.2242  0.2623
  223MPD1    H5 3394   0.839   3.378   0.487 -0.5296  2.0864  2.7345
  223MPD1    N1 3395   1.295   3.235   0.577  0.5024  0.7173  0.1532
  223MPD1    H6 3396   1.387   3.220   0.538  0.7024  0.7545  0.6127
  223MPD1    H7 3397   1.250   3.152   0.614 -0.5028  2.3887  2.7070
  224MPD1     C 3398   0.974   0.943   9.222  0.0947 -0.7792  0.2119
  224MPD1    C1 3399   0.840   0.904   9.225 -0.3654 -0.1268  0.2138
  224MPD1    C2 3400   0.807   0.773   9.240 -0.7013  0.0919 -0.2289
  224MPD1    C3 3401   0.905   0.683   9.271 -0.5302  0.5688 -0.4492
  224MPD1    C4 3402   1.039   0.725   9.272  0.6814  0.6850 -0.1235
  224MPD1    C5 3403   1.076   0.855   9.247  0.0291 -0.1848  0.7887
  224MPD1     H 3404   0.705   0.745   9.218 -0.5630  0.7913 -1.7946
  224MPD1    H1 3405   1.124   0.660   9.287 -1.0963 -1.8871 -1.1562
  224MPD1    H2 3406   1.005   1.042   9.191 -0.2508 -0.3478  1.2380
  224MPD1    H3 3407   1.181   0.882   9.254 -0.2798  1.3999 -0.7390
  224MPD1     N 3408   0.882   0.549   9.293 -0.1825 -0.1947  0.1141
  224MPD1    H5 3409   0.968   0.498   9.312 -0.0486 -0.6174 -1.6156
  224MPD1    N1 3410   0.746   0.998   9.173 -0.2178  0.0849  0.2414
  224MPD1    H6 3411   0.770   1.092   9.206  0.5912  0.0769 -0.3269
  224MPD1    H7 3412   0.655   0.969   9.208 -0.6127 -0.7892 -1.5463
  225MPD1     C 3413   2.274   2.474  12.841 -0.0024  0.6278  0.4961
  225MPD1    C1 3414   2.319   2.412  12.723 -0.4263 -0.6620 -0.3618
  225MPD1    C2 3415   2.225   2.346  12.641  0.0222 -0.1726 -0.1285
  225MPD1    C3 3416   2.084   2.355  12.669  0.4445  0.3557  0.1256
  225MPD1    C4 3417   2.048   2.425  12.781  0.6598  0.0447 -0.3130
  225MPD1    C5 3418   2.139   2.478  12.865 -0.6705  0.0146 -0.6537
  225MPD1     H 3419   2.269   2.308  12.550  0.4746 -3.1737  1.3452
  225MPD1    H1 3420   1.941   2.424  12.802  0.7512 -0.5209  0.1223
  225MPD1    H2 3421   2.345   2.516  12.912  0.0782  1.6251 -0.1771
  225MPD1    H3 3422   2.102   2.521  12.957 -1.6554  0.1460 -1.1107
  225MPD1     N 3423   1.987   2.292  12.579 -0.0740 -0.5662 -0.3440
  225MPD1    H5 3424   1.891   2.322  12.591 -0.3210 -0.7380 -1.9490
  225MPD1    N1 3425   2.455   2.379  12.704  0.5709  0.0491 -0.7179
  225MPD1    H6 3426   2.475   2.352  12.608  2.1491 -1.5968  0.0801
  225MPD1    H7 3427   2.518   2.452  12.735 -1.2643  1.7230 -0.9286
  226MPD1     C 3428   3.999   0.986   9.674  0.1035 -0.0153 -0.0374
  226MPD1    C1 3429   3.997   0.861   9.617 -0.1531  0.7987  0.0362
  226MPD1    C2 3430   4.105   0.830   9.534 -0.1557 -0.3034 -0.1566
  226MPD1    C3 3431   4.207   0.920   9.505  0.1909  0.1031 -0.4706
  226MPD1    C4 3432   4.201   1.049   9.554  0.0182 -0.2209  0.0586
  226MPD1    C5 3433   4.103   1.076   9.645  0.1833  0.1397 -0.9344
  226MPD1     H 3434   4.107   0.728   9.495 -1.0814 -0.4873  0.2681
  226MPD1    H1 3435   4.271   1.125   9.521  0.3674 -0.4991  0.1561
  226MPD1    H2 3436   3.922   1.023   9.740 -0.9970 -0.2413 -1.1994
  226MPD1    H3 3437   4.099   1.173   9.693 -4.2568 -0.3848 -0.1790
  226MPD1     N 3438   4.323   0.879   9.425  0.0196 -0.1245 -0.3843
  226MPD1    H5 3439   4.319   0.781   9.401  1.3502 -0.5876  1.2322
  226MPD1    N1 3440   3.881   0.780   9.625 -0.2224 -0.5129 -0.2884
  226MPD1    H6 3441   3.903   0.685   9.593 -0.1328 -0.5607 -0.0863
  226MPD1    H7 3442   3.846   0.776   9.721 -2.2007  0.2553 -0.9973
  227MPD1     C 3443   4.671   0.116   8.909  0.1349  0.1255  0.1965
  227MPD1    C1 3444   0.055   0.204   8.898  0.2558 -0.0873 -0.0672
  227MPD1    C2 3445   0.038   0.329   8.948  0.4514 -0.1979  0.1164
  227MPD1    C3 3446   4.646   0.368   9.015 -0.0338 -0.2689 -0.2271
  227MPD1    C4 3447   4.534   0.280   9.015  0.6177 -0.7404 -0.1602
  227MPD1    C5 3448   4.551   0.151   8.967 -0.9294 -0.7759  0.3446
  227MPD1     H 3449   0.112   0.408   8.942 -0.3859  0.6205  0.6424
  227MPD1    H1 3450   4.443   0.298   9.072 -0.4559  0.5266 -2.2832
  227MPD1    H2 3451   4.693   0.018   8.868 -1.2039 -1.2342  2.7039
  227MPD1    H3 3452   4.470   0.079   8.971 -2.2051  0.5904 -0.8990
  227MPD1     N 3453   4.654   0.488   9.090 -0.1597 -0.4330  0.3700
  227MPD1    H5 3454   0.011   0.549   9.069 -1.7735  0.7207 -2.1912
  227MPD1    N1 3455   0.159   0.168   8.815  0.1742  0.5403  0.0587
  227MPD1    H6 3456   0.152   0.086   8.755  1.3866  0.7355 -0.3513
  227MPD1    H7 3457   0.244   0.151   8.868 -0.0619  2.1337  0.9217
  228MPD1     C 3458   3.919   4.182  12.828 -0.2509 -0.0007  0.2689
  228MPD1    C1 3459   3.850   4.175  12.708 -0.4766 -0.1196  0.6077
  228MPD1    C2 3460   3.715   4.171  12.719 -0.0993  0.0222 -0.0155
  228MPD1    C3 3461   3.649   4.157  12.841  0.3994  0.1465  0.4734
  228MPD1    C4 3462   3.723   4.139  12.955 -0.1841  0.4259 -0.1137
  228MPD1    C5 3463   3.855   4.162  12.949 -0.2072 -0.3804  0.2156
  228MPD1     H 3464   3.654   4.189  12.630  0.4899 -1.4325 -0.7003
  228MPD1    H1 3465   3.684   4.115  13.053 -1.1215 -1.1270 -0.8615
  228MPD1    H2 3466   4.027   4.194  12.827 -0.4250  1.4987 -0.5436
  228MPD1    H3 3467   3.917   4.154  13.038  0.8267  6.0048  0.1048
  228MPD1     N 3468   3.510   4.141  12.843  0.3296 -0.6215  0.0493
  228MPD1    H5 3469   3.466   4.157  12.753  2.1682 -0.9046 -0.8778
  228MPD1    N1 3470   3.921   4.219  12.594 -0.1178 -0.3857 -0.0939
  228MPD1    H6 3471   3.873   4.205  12.505  0.3017 -2.2478 -0.0219
  228MPD1    H7 3472   4.014   4.179  12.601 -0.2687 -0.7146  0.0219
  229MPD1     C 3473   3.376   3.235  14.232  0.0568 -0.8036 -0.0186
  229MPD1    C1 3474   3.475   3.266  14.137  0.1265 -0.0563  0.1605
  229MPD1    C2 3475   3.602   3.206  14.152 -0.1510 -0.2925  0.2724
  229MPD1    C3 3476   3.634   3.125  14.256  0.6054 -0.1271  0.2764
  229MPD1    C4 3477   3.541   3.121  14.361 -0.4925 -0.0026 -0.5617
  229MPD1    C5 3478   3.414   3.173  14.349 -0.0082  0.3908  0.5409
  229MPD1     H 3479   3.684   3.214  14.082  0.3731  0.8068  1.0075
  229MPD1    H1 3480   3.556   3.082  14.461  1.7660  0.3973 -0.7319
  229MPD1    H2 3481   3.279   3.282  14.229  1.4445  1.9234 -2.4049
  229MPD1    H3 3482   3.343   3.171  14.431  0.4013 -0.0920  0.8831
  229MPD1     N 3483   3.748   3.044  14.263  0.1561 -0.8738  0.0626
  229MPD1    H5 3484   3.742   2.979  14.340 -1.4488  0.6555  1.2245
  229MPD1    N1 3485   3.453   3.376  14.053 -0.1051 -0.7093 -0.2013
  229MPD1    H6 3486   3.518   3.376  13.974 -0.9641 -1.9141 -0.9121
  229MPD1    H7 3487   3.359   3.374  14.015 -0.1913 -0.1065 -0.0157
  230MPD1     C 3488   3.540   2.403  14.718  0.2283  0.4936 -0.0050
  230MPD1    C1 3489   3.519   2.538  14.700  0.0428 -0.2493  0.3792
  230MPD1    C2 3490   3.595   2.606  14.604  0.4600  0.2582  0.5148
  230MPD1    C3 3491   3.690   2.543  14.527 -0.6728  0.3793  0.2197
  230MPD1    C4 3492   3.707   2.406  14.540  0.4641 -0.2946 -0.2310
  230MPD1    C5 3493   3.630   2.340  14.635  0.7657 -0.1822  0.4058
  230MPD1     H 3494   3.579   2.713  14.604 -0.2360  0.1588 -0.1687
  230MPD1    H1 3495   3.782   2.354  14.481  0.2367 -2.1331  1.1328
  230MPD1    H2 3496   3.474   2.339  14.776 -0.5324  2.6242  1.4943
  230MPD1    H3 3497   3.658   2.237  14.650  0.7587 -0.0304  1.4741
  230MPD1     N 3498   3.767   2.624  14.440 -0.4639 -0.1867 -0.6119
  230MPD1    H5 3499   3.749   2.724  14.448  0.5871  0.0665 -1.4446
  230MPD1    N1 3500   3.440   2.609  14.794 -0.1876 -0.4457 -0.2752
  230MPD1    H6 3501   3.406   2.696  14.752 -0.6249 -0.3435  0.2899
  230MPD1    H7 3502   3.365   2.549  14.829 -0.2671  0.5420  1.2565
  231MPD1     C 3503   1.166   4.582  15.657  0.3168 -0.6714 -0.2961
  231MPD1    C1 3504   1.164   4.510  15.538 -0.4524  0.6602 -0.3039
  231MPD1    C2 3505   1.283   4.489  15.475 -0.0585 -0.0343 -0.5431
  231MPD1    C3 3506   1.401   4.546  15.519  0.6140  0.0246 -0.1091
  231MPD1    C4 3507   1.398   4.628  15.627 -0.2386 -0.3532 -0.1667
  231MPD1    C5 3508   1.281   4.640  15.696 -0.7968  1.6806 -0.0782
  231MPD1     H 3509   1.281   4.431  15.383  3.0101 -3.3808  1.4952
  231MPD1    H1 3510   1.474   4.694  15.668  0.2502 -0.0859 -1.4767
  231MPD1    H2 3511   1.082   4.602  15.723  1.8625  3.2133  0.4865
  231MPD1    H3 3512   1.280   4.698  15.787  0.5977 -0.6328  1.4030
  231MPD1     N 3513   1.517   4.540  15.436  0.3326 -0.6002  0.5507
  231MPD1    H5 3514   1.491   4.496  15.348  0.1122  1.6671 -0.5261
  231MPD1    N1 3515   1.050   4.446  15.478  0.6842  0.7557  0.4104
  231MPD1    H6 3516   1.054   4.426  15.379 -0.5106  1.3631  0.2395
  231MPD1    H7 3517   0.970   4.503  15.506  0.5697  0.1061  1.4236
  232MPD1     C 3518   3.805   2.595   0.556 -0.3162  0.3860 -0.1111
  232MPD1    C1 3519   3.706   2.687   0.528 -0.1502 -0.0938 -0.4672
  232MPD1    C2 3520   3.616   2.657   0.427  0.0801 -0.0789 -0.2967
  232MPD1    C3 3521   3.622   2.539   0.354 -0.5379 -0.2820  0.0338
  232MPD1    C4 3522   3.723   2.457   0.387 -0.0132  0.0199 -0.2042
  232MPD1    C5 3523   3.814   2.481   0.486  0.5670 -0.2076 -0.3973
  232MPD1     H 3524   3.549   2.733   0.389  1.4247  0.1788 -2.1437
  232MPD1    H1 3525   3.734   2.366   0.329  3.9955  1.1124 -1.1604
  232MPD1    H2 3526   3.872   2.619   0.638  0.6209 -2.0163 -0.1653
  232MPD1    H3 3527   3.893   2.408   0.503  0.2710 -0.2074  0.9435
  232MPD1     N 3528   3.532   2.509   0.251  0.3267 -0.0892 -0.4971
  232MPD1    H5 3529   3.472   2.586   0.225 -0.9358 -0.1539  2.1880
  232MPD1    N1 3530   3.717   2.811   0.579 -0.1537  0.3154  0.3525
  232MPD1    H6 3531   3.623   2.848   0.590 -0.5308 -0.5139 -0.0625
  232MPD1    H7 3532   3.758   2.819   0.672  2.1693  1.5871 -0.7867
  233MPD1     C 3533   3.863   1.303   0.960  0.7435 -0.4164 -0.4824
  233MPD1    C1 3534   3.788   1.199   0.916  0.3508  0.2102  0.6433
  233MPD1    C2 3535   3.821   1.072   0.966 -0.2621 -0.4260 -0.4385
  233MPD1    C3 3536   3.939   1.057   1.039 -0.2484  0.8218  0.2633
  233MPD1    C4 3537   4.012   1.164   1.078  0.1353  0.5156 -1.1856
  233MPD1    C5 3538   3.975   1.284   1.038  0.5721 -0.6188  0.3547
  233MPD1     H 3539   3.754   0.989   0.949 -0.8536 -0.4709  2.1048
  233MPD1    H1 3540   4.101   1.146   1.138 -1.1851  0.7534  0.8526
  233MPD1    H2 3541   3.819   1.402   0.952 -1.1923 -1.0347  2.3165
  233MPD1    H3 3542   4.027   1.374   1.070 -2.0163  0.1432  2.4452
  233MPD1     N 3543   3.987   0.925   1.084 -0.1778 -0.4281  0.1023
  233MPD1    H5 3544   4.047   0.934   1.165  0.6245  1.1862 -0.6738
  233MPD1    N1 3545   3.670   1.213   0.852 -0.1006  0.6775 -0.3989
  233MPD1    H6 3546   3.666   1.286   0.782 -2.2833 -0.7391 -1.7748
  233MPD1    H7 3547   3.644   1.126   0.805  0.4946 -0.0794  0.6755
  234MPD1     C 3548   1.142   3.480   9.869  0.4026 -0.0248  0.3610
  234MPD1    C1 3549   1.031   3.553   9.826  0.5272 -0.1770  0.7467
  234MPD1    C2 3550   1.042   3.665   9.736 -0.3828 -0.7292 -0.4432
  234MPD1    C3 3551   1.168   3.698   9.697 -1.2017  0.0014 -0.8678
  234MPD1    C4 3552   1.281   3.624   9.739 -0.4001  0.1885 -0.3477
  234MPD1    C5 3553   1.268   3.515   9.821  0.0239 -0.4735 -0.0170
  234MPD1     H 3554   0.958   3.724   9.702  1.4832  1.2643 -1.5380
  234MPD1    H1 3555   1.383   3.652   9.716 -0.5433  0.3157 -0.8389
  234MPD1    H2 3556   1.142   3.399   9.940 -1.5974  0.1739  0.5677
  234MPD1    H3 3557   1.356   3.462   9.854 -0.0136 -0.8162 -0.4867
  234MPD1     N 3558   1.169   3.797   9.595  0.0913 -0.3372 -0.2729
  234MPD1    H5 3559   1.083   3.843   9.567  1.6479  1.9095 -1.3667
  234MPD1    N1 3560   0.911   3.524   9.889 -0.6976 -0.8939  0.0986
  234MPD1    H6 3561   0.829   3.517   9.829 -0.0043  0.3448 -0.9914
  234MPD1    H7 3562   0.919   3.440   9.945  0.1830 -1.0992 -0.3477
  235MPD1     C 3563   2.472   1.771  11.265  0.7371  0.1410  0.1522
  235MPD1    C1 3564   2.533   1.890  11.272 -0.0351 -0.1124 -0.8259
  235MPD1    C2 3565   2.577   1.954  11.157  0.2771 -0.6324  0.6940
  235MPD1    C3 3566   2.554   1.895  11.031  0.5006 -0.0785  0.1823
  235MPD1    C4 3567   2.482   1.771  11.034  0.5737  0.2530  0.1065
  235MPD1    C5 3568   2.453   1.706  11.147 -0.1336  0.7867  0.5358
  235MPD1     H 3569   2.635   2.046  11.158 -0.5904 -0.0452 -1.3276
  235MPD1    H1 3570   2.464   1.724  10.938  0.5480  2.7966 -1.1343
  235MPD1    H2 3571   2.423   1.722  11.348 -0.4285 -0.5365 -0.9303
  235MPD1    H3 3572   2.413   1.606  11.145  1.1343  0.2985 -0.0764
  235MPD1     N 3573   2.606   1.943  10.907  0.0508 -0.0740 -0.4432
  235MPD1    H5 3574   2.657   2.030  10.920  1.4199 -0.9459  0.1158
  235MPD1    N1 3575   2.571   1.944  11.396  0.8759 -0.1052 -1.0218
  235MPD1    H6 3576   2.502   1.906  11.459  2.7318 -0.1153  0.9807
  235MPD1    H7 3577   2.563   2.046  11.397  1.8436  0.0015 -2.4389
  236MPD1     C 3578   2.103   3.390   9.673 -0.4613  0.6166  0.1651
  236MPD1    C1 3579   2.073   3.257   9.656  0.4271  0.2269  0.4056
  236MPD1    C2 3580   2.106   3.160   9.751 -0.1268  0.0108 -0.4311
  236MPD1    C3 3581   2.190   3.195   9.858 -0.4164 -0.1368  0.0938
  236MPD1    C4 3582   2.225   3.325   9.866 -0.3743  0.0554 -0.3958
  236MPD1    C5 3583   2.185   3.423   9.784 -0.4352 -0.1587  0.1712
  236MPD1     H 3584   2.063   3.061   9.740  3.6419 -1.5702 -0.8592
  236MPD1    H1 3585   2.302   3.351   9.938  0.5975 -0.0960 -1.3760
  236MPD1    H2 3586   2.070   3.469   9.607 -1.8780 -2.2320 -2.5283
  236MPD1    H3 3587   2.217   3.522   9.816 -1.7168  0.4921 -0.5970
  236MPD1     N 3588   2.250   3.101   9.938  0.4555 -0.0309  0.2106
  236MPD1    H5 3589   2.321   3.138  10.000 -0.7118 -0.1200  1.6006
  236MPD1    N1 3590   1.996   3.210   9.549 -0.3258  0.0117 -0.5970
  236MPD1    H6 3591   2.020   3.260   9.464  3.5774  1.2325  1.1632
  236MPD1    H7 3592   2.012   3.110   9.537  0.8356  0.1076  0.1095
  237MPD1     C 3593   2.023   1.510  15.098  0.3772  0.1581  0.0384
  237MPD1    C1 3594   1.975   1.436  14.990 -0.4954 -0.5219 -0.2998
  237MPD1    C2 3595   1.906   1.317  15.017  0.0124 -0.8522  0.0479
  237MPD1    C3 3596   1.895   1.268  15.148  0.1679  0.0773 -0.2521
  237MPD1    C4 3597   1.938   1.347  15.250  0.1429 -0.2676 -0.3271
  237MPD1    C5 3598   2.008   1.463  15.225 -0.6895  0.3484  0.1178
  237MPD1     H 3599   1.870   1.257  14.934 -1.5044 -1.0263  0.8378
  237MPD1    H1 3600   1.934   1.307  15.350 -1.3456 -0.7613 -0.5836
  237MPD1    H2 3601   2.076   1.603  15.077 -0.4355  0.4211 -0.8590
  237MPD1    H3 3602   2.064   1.501  15.309 -1.5444 -0.5202  1.0793
  237MPD1     N 3603   1.815   1.151  15.183  0.4802 -0.3416  0.5962
  237MPD1    H5 3604   1.813   1.118  15.279  1.4170 -0.1162  0.6902
  237MPD1    N1 3605   1.979   1.490  14.859 -0.3615  0.4685  0.1469
  237MPD1    H6 3606   2.058   1.554  14.852  0.1702 -0.1352  0.7092
  237MPD1    H7 3607   1.981   1.421  14.784 -0.3255  1.6974 -0.9853
  238MPD1     C 3608   3.166   0.684  15.001 -0.4959  0.2366 -0.3924
  238MPD1    C1 3609   3.113   0.639  15.118  0.0518 -0.0705 -0.6109
  238MPD1    C2 3610   3.060   0.511  15.125 -0.1849  0.5191 -0.2938
  238MPD1    C3 3611   3.060   0.425  15.018  0.1760  0.1191  0.4767
  238MPD1    C4 3612   3.111   0.482  14.902  0.3072  0.1508 -0.6706
  238MPD1    C5 3613   3.168   0.599  14.892 -0.3810  0.2202 -0.2496
  238MPD1     H 3614   3.030   0.481  15.225  0.4986  1.8849  0.3113
  238MPD1    H1 3615   3.109   0.420  14.812 -2.1189  0.9171 -1.1484
  238MPD1    H2 3616   3.188   0.788  14.977  1.1813 -0.3405 -1.3950
  238MPD1    H3 3617   3.216   0.627  14.799  1.3829 -0.2345  0.5263
  238MPD1     N 3618   3.011   0.293  15.020  0.1433 -0.6718  0.2439
  238MPD1    H5 3619   3.029   0.247  14.931  0.3796 -1.6564  0.8013
  238MPD1    N1 3620   3.101   0.728  15.223  0.5803 -0.3690 -0.3162
  238MPD1    H6 3621   3.105   0.829  15.209  0.3955 -0.7304 -3.0117
  238MPD1    H7 3622   3.024   0.705  15.285 -0.2572  0.1299 -1.1778
  239MPD1     C 3623   3.998   1.381  14.976 -0.4451  0.1617 -0.0214
  239MPD1    C1 3624   3.890   1.454  14.946  0.0403  0.0744  0.7683
  239MPD1    C2 3625   3.810   1.418  14.839  0.6961 -0.6123  0.1173
  239MPD1    C3 3626   3.852   1.324  14.744  0.0978  0.3356  0.1934
  239MPD1    C4 3627   3.972   1.265  14.778  1.2341  0.3231 -0.2110
  239MPD1    C5 3628   4.033   1.285  14.895 -0.3410 -0.3169 -0.5885
  239MPD1     H 3629   3.712   1.465  14.830 -0.2602 -2.6465 -0.1448
  239MPD1    H1 3630   4.011   1.180  14.723 -1.2268 -0.0727 -1.3379
  239MPD1    H2 3631   4.059   1.402  15.063 -0.8733  1.7751 -0.1210
  239MPD1    H3 3632   4.125   1.236  14.924  0.0934  0.1538 -1.1854
  239MPD1     N 3633   3.789   1.309  14.614 -0.5740 -0.2032  0.5156
  239MPD1    H5 3634   3.823   1.234  14.555  0.7980  2.0423 -1.5214
  239MPD1    N1 3635   3.849   1.554  15.037  0.4940 -0.8332 -0.4372
  239MPD1    H6 3636   3.934   1.590  15.079 -0.2651 -0.1346  0.4841
  239MPD1    H7 3637   3.817   1.627  14.974 -2.1779 -0.3652  1.4850
  240MPD1     C 3638   2.538   0.256  13.186 -1.1485  0.9677 -0.3263
  240MPD1    C1 3639   2.465   0.326  13.281 -0.7378  0.4132 -0.0879
  240MPD1    C2 3640   2.537   0.390  13.379  0.6788 -0.1356  0.5221
  240MPD1    C3 3641   2.681   0.385  13.383  0.4842  0.6748 -0.2064
  240MPD1    C4 3642   2.748   0.310  13.285  0.8004  0.4599  0.7523
  240MPD1    C5 3643   2.673   0.248  13.185 -0.2758 -0.2751  0.1079
  240MPD1     H 3644   2.488   0.445  13.458 -0.2963  1.1422 -0.9782
  240MPD1    H1 3645   2.852   0.278  13.286 -0.2041 -2.8799 -0.0599
  240MPD1    H2 3646   2.490   0.200  13.106 -0.2147  1.1381 -1.0128
  240MPD1    H3 3647   2.723   0.176  13.121 -0.0667 -1.8907  2.0924
  240MPD1     N 3648   2.757   0.449  13.488 -0.0231 -0.0300  0.4730
  240MPD1    H5 3649   2.702   0.485  13.565  1.8421  0.0729  1.7537
  240MPD1    N1 3650   2.332   0.354  13.255 -0.3969 -0.2492  0.1625
  240MPD1    H6 3651   2.286   0.377  13.343  0.3081  0.9132  0.2159
  240MPD1    H7 3652   2.277   0.283  13.207 -2.1754  1.5010 -0.3620
  241MPD1     C 3653   3.735   0.657  13.725 -0.0155  0.0159 -0.2086
  241MPD1    C1 3654   3.668   0.614  13.839 -0.6535 -0.6466  0.0145
  241MPD1    C2 3655   3.530   0.602  13.835  0.4457 -0.2557 -0.8001
  241MPD1    C3 3656   3.455   0.643  13.729  0.8531  0.0046  0.4529
  241MPD1    C4 3657   3.524   0.674  13.619 -0.1921  0.1611 -0.0478
  241MPD1    C5 3658   3.658   0.673  13.611 -0.0441  0.8603  0.0404
  241MPD1     H 3659   3.494   0.568  13.931  2.6278 -1.9563 -0.5807
  241MPD1    H1 3660   3.476   0.705  13.526  0.9244  0.1135 -0.6398
  241MPD1    H2 3661   3.842   0.678  13.724  0.1816 -0.9543  0.5218
  241MPD1    H3 3662   3.715   0.689  13.521  0.4848  1.6639  0.5172
  241MPD1     N 3663   3.311   0.631  13.713 -0.0505 -0.1931 -0.2104
  241MPD1    H5 3664   3.276   0.640  13.618  1.0535 -2.1277 -0.8093
  241MPD1    N1 3665   3.733   0.591  13.965 -1.0881  0.3269 -0.0880
  241MPD1    H6 3666   3.671   0.541  14.029  0.2153 -0.7308  0.3590
  241MPD1    H7 3667   3.820   0.538  13.961 -1.0566  0.4454 -0.8833
  242MPD1     C 3668   3.251   3.853  15.979 -0.0146  0.4335 -0.3548
  242MPD1    C1 3669   3.127   3.808  16.020 -0.5322  0.1341  0.3590
  242MPD1    C2 3670   3.065   3.723  15.928 -1.0006  0.5846  0.2352
  242MPD1    C3 3671   3.118   3.691  15.802  0.0503 -0.1206 -0.3210
  242MPD1    C4 3672   3.240   3.736  15.771  0.0609  0.5215  0.1443
  242MPD1    C5 3673   3.299   3.829  15.854  0.1320 -0.4676  0.6051
  242MPD1     H 3674   2.967   3.684  15.954 -1.2750 -0.5380 -2.4459
  242MPD1    H1 3675   3.286   3.703  15.679  0.2743 -0.9450  0.7740
  242MPD1    H2 3676   3.319   3.909  16.042 -1.9691  0.9020  1.3081
  242MPD1    H3 3677   3.398   3.866  15.831 -0.8768  2.3159  0.7531
  242MPD1     N 3678   3.060   3.608  15.701 -0.3240 -0.8901  0.3617
  242MPD1    H5 3679   3.111   3.611  15.613  0.4337 -2.1801  0.7636
  242MPD1    N1 3680   3.082   3.814  16.149 -0.0804  0.4620  0.1621
  242MPD1    H6 3681   2.982   3.794  16.139  0.5291 -1.8205 -1.1727
  242MPD1    H7 3682   3.105   3.901  16.196  0.2131  0.9057 -0.8048
  243MPD1     C 3683   4.578   2.569   0.212 -0.1342 -0.2809  0.6272
  243MPD1    C1 3684   4.532   2.476   0.297 -0.4735  0.1379  0.1366
  243MPD1    C2 3685   4.557   2.343   0.271 -0.1378 -0.0883  0.1591
  243MPD1    C3 3686   4.610   2.306   0.147  0.8017 -0.0770 -0.6787
  243MPD1    C4 3687   4.639   2.402   0.050  0.1514 -0.8699  0.0240
  243MPD1    C5 3688   4.624   2.536   0.087 -0.1505 -1.1703 -0.0116
  243MPD1     H 3689   4.534   2.272   0.350  1.0352  1.0052  1.4616
  243MPD1    H1 3690   4.682   2.380  17.639 -1.4419 -2.0092 -0.4233
  243MPD1    H2 3691   4.570   2.674   0.238  1.0254 -0.0752  0.1592
  243MPD1    H3 3692   4.664   2.616   0.025 -0.4470  0.5646  2.0295
  243MPD1     N 3693   4.635   2.175   0.123 -0.4350  0.4242  0.2440
  243MPD1    H5 3694   4.626   2.111   0.202  0.1449 -0.0149 -0.0445
  243MPD1    N1 3695   4.512   2.512   0.431  0.0307  0.4934 -0.2059
  243MPD1    H6 3696   4.458   2.439   0.478  1.6691 -0.0214  0.9057
  243MPD1    H7 3697   4.457   2.597   0.438 -0.4138  0.1279  0.7705
  244MPD1     C 3698   0.101   1.693   0.716  0.5278  0.8662  0.0556
  244MPD1    C1 3699   0.110   1.828   0.679 -0.3512  0.0005 -0.2751
  244MPD1    C2 3700   0.084   1.855   0.550  0.1864  0.0947  0.0131
  244MPD1    C3 3701   0.096   1.753   0.451  0.2544  0.7662  0.1410
  244MPD1    C4 3702   0.107   1.623   0.489 -0.1789  0.7527 -1.2308
  244MPD1    C5 3703   0.110   1.595   0.625  0.6984  0.1343  0.2019
  244MPD1     H 3704   0.059   1.955   0.516 -0.7891 -0.2787 -0.3991
  244MPD1    H1 3705   0.137   1.542   0.423  1.2242  0.2318  0.0392
  244MPD1    H2 3706   0.103   1.657   0.818  2.6853  0.7696 -0.0117
  244MPD1    H3 3707   0.126   1.494   0.659 -1.1557  0.1051  1.0148
  244MPD1     N 3708   0.088   1.805   0.316 -0.4917  0.6693  0.3861
  244MPD1    H5 3709   0.077   1.905   0.317  0.9480  0.8448 -0.8313
  244MPD1    N1 3710   0.105   1.929   0.770 -0.2613 -0.3685  0.3967
  244MPD1    H6 3711   0.129   1.911   0.867 -2.8424 -1.6445  0.7744
  244MPD1    H7 3712   0.129   2.018   0.725 -0.1871 -0.6390 -0.0942
  245MPD1     C 3713   1.180   2.676  13.164 -0.8453  0.5405  0.4998
  245MPD1    C1 3714   1.103   2.707  13.269  0.1816  0.1375 -0.2911
  245MPD1    C2 3715   1.155   2.801  13.359 -0.1212 -0.1836 -0.5117
  245MPD1    C3 3716   1.278   2.856  13.333 -0.2377  0.6727  0.0344
  245MPD1    C4 3717   1.360   2.820  13.235 -0.0855 -0.6586  0.6908
  245MPD1    C5 3718   1.306   2.722  13.151  0.1001 -0.2661 -0.8299
  245MPD1     H 3719   1.094   2.838  13.441  1.4783  0.3620  0.4200
  245MPD1    H1 3720   1.463   2.852  13.225 -0.6441  0.2378 -2.2543
  245MPD1    H2 3721   1.146   2.598  13.097  1.7076 -2.2828  2.4863
  245MPD1    H3 3722   1.371   2.688  13.071  0.6603  2.0901 -1.3836
  245MPD1     N 3723   1.318   2.949  13.434  0.2231  0.7960  0.2019
  245MPD1    H5 3724   1.246   2.974  13.501  0.9004 -0.1789  1.2982
  245MPD1    N1 3725   0.966   2.678  13.274  0.4023  0.5841 -0.5903
  245MPD1    H6 3726   0.920   2.657  13.362 -0.1069 -0.6628 -1.1658
  245MPD1    H7 3727   0.931   2.615  13.203 -1.5640 -0.1123  1.0337
  246MPD1     C 3728   1.514   3.228   9.702  0.0349  0.0308 -0.2880
  246MPD1    C1 3729   1.638   3.185   9.679  0.4925  0.5339  0.0337
  246MPD1    C2 3730   1.662   3.054   9.658  0.5965  0.1773 -0.2151
  246MPD1    C3 3731   1.559   2.962   9.652  0.6654  0.5375  0.2648
  246MPD1    C4 3732   1.429   3.004   9.670 -0.2119  0.7024  0.1255
  246MPD1    C5 3733   1.410   3.138   9.698 -0.2752 -0.1691 -0.2756
  246MPD1     H 3734   1.767   3.025   9.658  0.6111  0.2627 -1.4642
  246MPD1    H1 3735   1.342   2.940   9.677  0.3091  0.2179  2.0288
  246MPD1    H2 3736   1.493   3.321   9.753  0.2436  0.9241 -1.8393
  246MPD1    H3 3737   1.320   3.181   9.740  0.1352 -1.8537  2.2874
  246MPD1     N 3738   1.598   2.832   9.628  0.5902  0.1973 -0.3209
  246MPD1    H5 3739   1.695   2.831   9.600  0.8178 -1.7475  0.5397
  246MPD1    N1 3740   1.749   3.268   9.714  0.1753 -0.2446 -0.2919
  246MPD1    H6 3741   1.734   3.362   9.678  0.3705 -0.2888 -0.4852
  246MPD1    H7 3742   1.838   3.237   9.676 -0.4516 -0.4248 -1.6117
  247MPD1     C 3743   0.613   3.512  15.980 -0.0141  0.7448  0.0165
  247MPD1    C1 3744   0.735   3.524  16.049 -0.1841  0.6338  0.2527
  247MPD1    C2 3745   0.808   3.407  16.066  0.3354 -0.3538  0.0146
  247MPD1    C3 3746   0.774   3.294  15.996 -0.2586 -0.2398 -0.4812
  247MPD1    C4 3747   0.664   3.288  15.913 -0.2671 -0.2178  0.0218
  247MPD1    C5 3748   0.584   3.394  15.920  0.1606 -0.6386  0.8223
  247MPD1     H 3749   0.893   3.413  16.133  0.9825 -2.4372 -0.6276
  247MPD1    H1 3750   0.626   3.200  15.862 -2.1803  0.1734  0.7760
  247MPD1    H2 3751   0.549   3.598  15.969 -0.4025  0.4310 -0.1672
  247MPD1    H3 3752   0.490   3.392  15.866  0.5431  0.2095  0.1291
  247MPD1     N 3753   0.853   3.177  16.011  0.3656 -0.1768  0.4309
  247MPD1    H5 3754   0.841   3.106  15.940 -0.4589 -1.1508  1.5544
  247MPD1    N1 3755   0.761   3.637  16.127  0.2265 -0.2725  0.6377
  247MPD1    H6 3756   0.723   3.722  16.086  2.9283  2.1179  3.0770
  247MPD1    H7 3757   0.858   3.658  16.149  0.1103  0.3941  0.5348
  248MPD1     C 3758   1.719   2.699  17.260 -0.0311  0.0698 -0.6341
  248MPD1    C1 3759   1.613   2.776  17.301  0.5342 -0.4065 -0.4749
  248MPD1    C2 3760   1.564   2.741  17.425  0.2384  0.0249  0.3296
  248MPD1    C3 3761   1.611   2.630  17.496  0.1831  0.6076 -0.1866
  248MPD1    C4 3762   1.711   2.549  17.446 -0.2662 -0.6134 -0.1061
  248MPD1    C5 3763   1.767   2.587  17.326  0.6363  0.1137  0.5741
  248MPD1     H 3764   1.475   2.788  17.465  0.4570  0.4690  0.2839
  248MPD1    H1 3765   1.760   2.472  17.504  1.5891  1.7735  1.5234
  248MPD1    H2 3766   1.763   2.730  17.166 -0.8538  0.0172 -1.0412
  248MPD1    H3 3767   1.837   2.522  17.275 -1.0386 -0.7186 -0.6740
  248MPD1     N 3768   1.550   2.605  17.616 -0.0035  0.1814  0.7135
  248MPD1    H5 3769   1.519   2.691  17.659 -0.6085  0.1406  0.3607
  248MPD1    N1 3770   1.570   2.885  17.219 -0.2441 -0.2426 -0.3642
  248MPD1    H6 3771   1.472   2.912  17.225 -0.6875 -1.5647 -1.5735
  248MPD1    H7 3772   1.610   2.884  17.125  0.9719 -0.4551  0.1539
  249MPD1     C 3773   1.985   1.043   9.173  0.0223 -1.1791  0.5632
  249MPD1    C1 3774   2.000   1.005   9.304 -1.4804  0.7653  0.4153
  249MPD1    C2 3775   2.108   1.053   9.375  0.3649  1.2903 -0.9519
  249MPD1    C3 3776   2.204   1.138   9.314 -0.3318 -0.0622 -0.5390
  249MPD1    C4 3777   2.183   1.169   9.185  0.8148 -0.1941 -0.1446
  249MPD1    C5 3778   2.071   1.131   9.118  0.3731  0.0087 -0.4816
  249MPD1     H 3779   2.120   1.031   9.481  0.2758  1.1106 -0.9799
  249MPD1    H1 3780   2.243   1.244   9.134  0.3191  0.8126  0.7569
  249MPD1    H2 3781   1.905   1.003   9.111  0.9827  0.3054 -1.6374
  249MPD1    H3 3782   2.050   1.159   9.015 -0.9790  0.5252 -0.0707
  249MPD1     N 3783   2.314   1.168   9.389 -0.3969 -0.6412 -0.1840
  249MPD1    H5 3784   2.316   1.138   9.486 -0.0577 -0.0675 -0.0111
  249MPD1    N1 3785   1.920   0.899   9.356  0.2380 -0.0635 -0.0378
  249MPD1    H6 3786   1.910   0.916   9.456  0.6085  0.8181 -0.1473
  249MPD1    H7 3787   1.828   0.908   9.314  0.6829  0.4501 -0.9110
  250MPD2     C 3788   4.508   1.126  12.568  0.2404 -0.4987 -0.0061
  250MPD2    C1 3789   4.421   1.225  12.518  0.0998 -0.5810 -0.1018
  250MPD2    C2 3790   4.329   1.183  12.428  0.1275  0.1767 -0.4519
  250MPD2    C3 3791   4.318   1.049  12.390 -0.2281 -0.4235  0.6792
  250MPD2    C4 3792   4.395   0.951  12.447  0.5001 -0.0816  0.1874
  250MPD2    C5 3793   4.499   0.998  12.529  0.0204  0.5178 -0.3087
  250MPD2     H 3794   4.257   1.258  12.398  1.6155  1.4447 -0.8979
  250MPD2    H1 3795   4.381   0.844  12.438  1.3107 -0.1856  0.1573
  250MPD2    H2 3796   4.584   1.152  12.642  0.1632  2.3628 -0.9438
  250MPD2    H3 3797   4.576   0.927  12.555 -0.1981  0.6617  0.7699
  250MPD2     N 3798   4.210   1.009  12.313  0.1656 -0.5688  0.2428
  250MPD2    H5 3799   4.215   0.912  12.284 -0.0433 -0.0169 -1.6441
  250MPD2    N1 3800   4.440   1.358  12.571  0.2786  0.2927 -0.5275
  250MPD2    H7 3801   4.516   1.372  12.637 -1.5251  1.8440  1.2416
  251TMC3    C1 3802   4.387   1.574  12.642  0.1200  0.3128 -0.2170
  251TMC3    C2 3803   4.272   1.645  12.676  0.3739 -0.1561  0.6010
  251TMC3    C3 3804   4.274   1.702  12.799 -0.3236  0.4389 -0.0830
  251TMC3    C4 3805   4.492   1.554  12.731  0.3731 -0.2388 -0.0088
  251TMC3    C5 3806   4.489   1.626  12.846 -0.3712 -0.5066  0.0830
  251TMC3    C6 3807   4.373   1.695  12.888 -0.2121 -0.0735  0.0058
  251TMC3     C 3808   4.356   1.464  12.556 -0.1284  0.9321 -0.3931
  251TMC3     O 3809   4.245   1.466  12.498 -0.1936  0.0867  0.0963
  251TMC3     H 3810   4.191   1.666  12.607 -0.0180 -0.6074  0.9222
  251TMC3    H1 3811   4.583   1.508  12.696 -0.7467 -1.3048 -1.5374
  251TMC3    H2 3812   4.365   1.746  12.984 -0.3932 -0.1842  0.0491
  251TMC3    C7 3813   4.575   1.555  12.946 -0.6250 -1.0217  0.8639
  251TMC3    C8 3814   4.147   1.762  12.845  0.1133 -0.1714  0.6937
  251TMC3    O1 3815   4.596   1.437  12.917  0.1239  0.0692  0.7645
  251TMC3    O2 3816   4.152   1.839  12.940  0.7196  0.3695 -0.1208
  252TMC3    C1 3817   4.700   2.108   9.950  0.1615 -0.3950  0.3129
  252TMC3    C2 3818   0.040   2.217   9.899  0.6321 -0.6314 -0.0032
  252TMC3    C3 3819   0.070   2.210   9.764 -0.2644  0.8410  0.2713
  252TMC3    C4 3820   4.672   1.993   9.876  0.0162  0.7972 -0.3838
  252TMC3    C5 3821   4.709   1.989   9.748 -0.2980  0.2359 -0.3713
  252TMC3    C6 3822   0.043   2.100   9.688 -0.3314 -0.0494  0.5714
  252TMC3     C 3823   4.690   2.099  10.096 -0.3558  0.8945 -0.0480
  252TMC3     O 3824   4.682   2.201  10.163  0.0773 -0.5146 -0.1432
  252TMC3     H 3825   0.061   2.298   9.967  0.6683 -0.4883 -0.1860
  252TMC3    H1 3826   4.616   1.907   9.911  0.7516 -0.2387 -1.7710
  252TMC3    H2 3827   0.047   2.093   9.580  0.8172  1.8294  0.5076
  252TMC3    C7 3828   4.651   1.888   9.661  0.5784  0.0541 -1.2058
  252TMC3    C8 3829   0.153   2.314   9.703 -0.6713 -1.1492 -0.1491
  252TMC3    O1 3830   4.605   1.919   9.549  0.1005 -0.1336 -0.4777
  252TMC3    O2 3831   0.129   2.337   9.587  0.2936  0.0844  0.4744
  253MPD2     C 3832   1.475   1.366  14.980  0.4319 -0.1463 -0.1684
  253MPD2    C1 3833   1.343   1.347  14.979  0.4578 -0.3201  0.7943
  253MPD2    C2 3834   1.270   1.332  15.097  1.1892  0.2776 -0.7123
  253MPD2    C3 3835   1.330   1.347  15.218  0.1127 -0.0269 -0.4188
  253MPD2    C4 3836   1.468   1.355  15.224  0.5816 -0.3549 -0.8979
  253MPD2    C5 3837   1.536   1.369  15.108  0.3692 -0.7404 -0.4683
  253MPD2     H 3838   1.162   1.321  15.088  0.7467  2.9753  1.0406
  253MPD2    H1 3839   1.520   1.378  15.317 -0.6413 -4.4954  0.8066
  253MPD2    H2 3840   1.533   1.384  14.891  1.6171 -1.0755  0.4132
  253MPD2    H3 3841   1.642   1.390  15.117  0.1022  0.2817  0.2383
  253MPD2     N 3842   1.262   1.349  15.341 -0.0664 -0.2996  0.1095
  253MPD2    H5 3843   1.314   1.363  15.427  0.5603  1.7423 -0.6029
  253MPD2    N1 3844   1.267   1.349  14.858  0.6735 -0.5465 -0.6332
  253MPD2    H7 3845   1.167   1.336  14.871  0.8668 -0.9922  0.4533
  254TMC3    C1 3846   1.095   1.386  15.499 -0.1865 -0.1625 -0.0208
  254TMC3    C2 3847   0.972   1.447  15.529  0.7313 -0.3852 -1.1040
  254TMC3    C3 3848   0.929   1.433  15.658  0.0380  0.6286  0.2232
  254TMC3    C4 3849   1.174   1.321  15.592 -0.4123 -0.1275  0.5781
  254TMC3    C5 3850   1.112   1.315  15.721  1.5270 -0.2098 -0.6150
  254TMC3    C6 3851   1.000   1.375  15.756  0.4593 -0.3864 -0.7184
  254TMC3     C 3852   1.132   1.378  15.362  0.2207  0.0614 -0.6128
  254TMC3     O 3853   1.052   1.391  15.277 -0.0957 -0.7540  0.2484
  254TMC3     H 3854   0.931   1.500  15.444 -0.5082 -0.0155 -0.2820
  254TMC3    H1 3855   1.254   1.252  15.566  0.6126  1.0679  0.5901
  254TMC3    H2 3856   0.961   1.372  15.858  0.8663  1.0562 -0.5224
  254TMC3    C7 3857   1.194   1.270  15.838  0.0831 -0.0045  0.4132
  254TMC3    C8 3858   0.812   1.504  15.694  0.0926 -0.8314 -0.9108
  254TMC3    O1 3859   1.137   1.227  15.940 -0.0732 -0.1676 -0.2202
  254TMC3    O2 3860   0.773   1.485  15.812  0.0068  0.2721 -0.0628
  255MPD2     C 3861   3.253   3.339  10.416  0.8706  0.0376  0.4102
  255MPD2    C1 3862   3.375   3.400  10.439  0.4210 -0.2233 -0.0216
  255MPD2    C2 3863   3.492   3.328  10.443 -1.0682 -0.2619  0.3662
  255MPD2    C3 3864   3.487   3.188  10.443  0.3580  0.5550 -0.4330
  255MPD2    C4 3865   3.359   3.131  10.422 -0.0519  0.2240 -0.3260
  255MPD2    C5 3866   3.254   3.205  10.392 -0.4181  0.3688 -0.0107
  255MPD2     H 3867   3.588   3.367  10.474 -0.6543 -0.4421 -0.6865
  255MPD2    H1 3868   3.346   3.024  10.416 -1.0682  0.3813 -0.8965
  255MPD2    H2 3869   3.167   3.401  10.394  0.5428 -2.0168 -4.0272
  255MPD2    H3 3870   3.166   3.151  10.358 -1.1747  1.1363  0.6937
  255MPD2     N 3871   3.601   3.111  10.476  0.5740  0.5396 -0.1061
  255MPD2    H5 3872   3.685   3.163  10.498  0.4336  0.7136  0.0173
  255MPD2    N1 3873   3.369   3.542  10.448 -0.4507 -0.4123 -0.1243
  255MPD2    H7 3874   3.281   3.587  10.426 -0.9566 -1.1733  0.3269
  256TMC3    C1 3875   3.445   3.768  10.436  0.2231 -0.3988 -0.5158
  256TMC3    C2 3876   3.557   3.837  10.401  0.0691 -0.1311  0.8376
  256TMC3    C3 3877   3.545   3.909  10.287  0.0204  0.0248  0.7022
  256TMC3    C4 3878   3.317   3.794  10.389 -0.1135 -0.0085 -1.1956
  256TMC3    C5 3879   3.316   3.863  10.269  0.1178  0.7185  0.1563
  256TMC3    C6 3880   3.428   3.928  10.221 -0.7435  0.0860 -0.0197
  256TMC3     C 3881   3.469   3.631  10.476  0.3408  0.0877  0.0536
  256TMC3     O 3882   3.576   3.613  10.538 -0.1988 -0.3497 -0.3864
  256TMC3     H 3883   3.651   3.819  10.451 -0.4557  0.3600  1.9866
  256TMC3    H1 3884   3.233   3.743  10.433  0.6515 -1.3149 -1.2547
  256TMC3    H2 3885   3.409   3.995  10.138 -2.9869  0.0220  0.4404
  256TMC3    C7 3886   3.241   3.801  10.163  0.0090 -0.1855  0.2466
  256TMC3    C8 3887   3.668   3.959  10.226 -0.3752  0.3673 -0.7439
  256TMC3    O1 3888   3.293   3.811  10.053 -0.0877 -0.4875 -0.6004
  256TMC3    O2 3889   3.757   3.983  10.303  0.1037 -0.3162  0.7578
  257MPD2     C 3890   3.763   1.341  13.124  0.1073 -0.3388  0.6047
  257MPD2    C1 3891   3.634   1.306  13.080  0.9067  0.5482 -0.1725
  257MPD2    C2 3892   3.542   1.255  13.171 -0.2290  0.0389 -0.1479
  257MPD2    C3 3893   3.588   1.222  13.299 -1.2192 -0.5174  1.0855
  257MPD2    C4 3894   3.715   1.257  13.346  0.4964 -0.4940  0.2794
  257MPD2    C5 3895   3.797   1.322  13.256  0.3017 -0.0525 -0.7736
  257MPD2     H 3896   3.442   1.234  13.136 -0.0815 -1.8138  0.5297
  257MPD2    H1 3897   3.756   1.250  13.446  0.8213  0.6363  0.2196
  257MPD2    H2 3898   3.840   1.379  13.058 -0.0991  0.2911  0.7236
  257MPD2    H3 3899   3.898   1.348  13.285  0.5884 -0.0115 -1.8227
  257MPD2     N 3900   3.494   1.158  13.392  0.3096 -0.2606 -0.0412
  257MPD2    H5 3901   3.396   1.154  13.367 -0.0092 -1.9207  1.4732
  257MPD2    N1 3902   3.600   1.315  12.939 -0.0911 -0.5386 -1.1807
  257MPD2    H7 3903   3.674   1.351  12.880 -0.5164 -1.5663 -2.3134
  258TMC3    C1 3904   3.415   1.022  13.573  0.3444  0.5117  0.2664
  258TMC3    C2 3905   3.300   1.002  13.493 -0.4439 -0.1033  0.0033
  258TMC3    C3 3906   3.183   0.973  13.558 -0.7885  0.5042 -0.2175
  258TMC3    C4 3907   3.413   1.028  13.709 -0.2765 -1.2060  0.5576
  258TMC3    C5 3908   3.292   0.993  13.765  0.2694 -0.1614  0.0443
  258TMC3    C6 3909   3.182   0.964  13.693  0.5483  0.3749 -0.0515
  258TMC3     C 3910   3.530   1.090  13.511  0.0642  0.0716  1.3584
  258TMC3     O 3911   3.629   1.081  13.577  0.4174 -0.3747  0.2862
  258TMC3     H 3912   3.299   1.001  13.385  2.7394  1.9117 -0.0658
  258TMC3    H1 3913   3.501   1.049  13.769  0.9739  1.2967 -2.1415
  258TMC3    H2 3914   3.089   0.940  13.744  0.3856  1.7674  0.3248
  258TMC3    C7 3915   3.293   0.953  13.902 -0.0739  0.2065  0.3691
  258TMC3    C8 3916   3.070   0.895  13.493  0.0205 -0.3829  0.0788
  258TMC3    O1 3917   3.194   0.978  13.969 -0.3851 -0.3927  0.1116
  258TMC3    O2 3918   2.994   0.834  13.564 -0.0238 -0.3709 -0.2838
  259MPD2     C 3919   2.066   2.753   0.665  0.0371  1.1515 -0.6412
  259MPD2    C1 3920   2.180   2.668   0.666  0.8476 -0.0606  0.3158
  259MPD2    C2 3921   2.246   2.651   0.546  0.1163 -0.1352 -0.1344
  259MPD2    C3 3922   2.200   2.715   0.429  0.0280 -0.0114  0.1915
  259MPD2    C4 3923   2.097   2.804   0.441  0.0345 -0.6852 -0.2107
  259MPD2    C5 3924   2.041   2.835   0.561 -0.1685 -0.7377  0.0018
  259MPD2     H 3925   2.328   2.580   0.553 -1.3168 -1.8749 -0.7322
  259MPD2    H1 3926   2.061   2.863   0.357 -1.1739 -2.1042 -0.6923
  259MPD2    H2 3927   2.017   2.781   0.757  2.4301  1.6536  0.4962
  259MPD2    H3 3928   1.966   2.912   0.562  1.7130  1.1065 -0.8868
  259MPD2     N 3929   2.272   2.701   0.311  0.3139 -0.2658 -0.3790
  259MPD2    H5 3930   2.345   2.631   0.312  2.7997  2.3260 -0.6969
  259MPD2    N1 3931   2.209   2.599   0.787 -0.0967  0.3381  0.4851
  259MPD2    H7 3932   2.135   2.592   0.855 -0.3392  1.1626  0.3027
  260TMC3    C1 3933   2.368   2.760   0.109 -0.4247  0.2319 -0.8171
  260TMC3    C2 3934   2.405   2.866   0.030 -0.4656 -0.4252  0.3712
  260TMC3    C3 3935   2.468   2.846  17.603 -0.7261  0.0060 -0.5776
  260TMC3    C4 3936   2.402   2.631   0.072  0.5726  0.2504  0.0202
  260TMC3    C5 3937   2.449   2.615  17.628  0.2372  0.4350  0.5849
  260TMC3    C6 3938   2.486   2.719  17.550 -0.0777 -0.5652 -0.6846
  260TMC3     C 3939   2.269   2.793   0.204 -0.4545 -0.7506 -0.2185
  260TMC3     O 3940   2.211   2.900   0.186  0.2993  0.6427  0.2230
  260TMC3     H 3941   2.392   2.967   0.067  3.3803 -0.3544  1.5299
  260TMC3    H1 3942   2.366   2.541   0.121 -0.8802  1.6498  1.5596
  260TMC3    H2 3943   2.518   2.704  17.447 -0.5606  1.3835 -1.1277
  260TMC3    C7 3944   2.490   2.491  17.572 -0.8088  0.1756  0.9566
  260TMC3    C8 3945   2.590   2.925  17.607 -0.6965  0.1840  0.0056
  260TMC3    O1 3946   2.520   2.487  17.453  0.3366  0.0664 -0.4664
  260TMC3    O2 3947   2.577   3.040  17.640  0.1934 -0.6538 -0.7006
  261MPD2     C 3948   3.877   1.262  11.658  0.8002 -0.1548 -0.5280
  261MPD2    C1 3949   3.929   1.289  11.781 -0.0996 -0.0100 -0.2574
  261MPD2    C2 3950   4.038   1.378  11.789 -0.4958  0.4178  0.3074
  261MPD2    C3 3951   4.081   1.433  11.671 -0.1375  0.4300 -1.1751
  261MPD2    C4 3952   4.029   1.398  11.548 -0.6722 -0.1697  0.1123
  261MPD2    C5 3953   3.927   1.308  11.544  0.0217 -0.4134  0.8941
  261MPD2     H 3954   4.078   1.395  11.889  0.3895  3.2409 -0.5299
  261MPD2    H1 3955   4.066   1.444  11.457 -0.5833  0.1251  0.2951
  261MPD2    H2 3956   3.786   1.204  11.663  1.5120 -1.1750  0.4141
  261MPD2    H3 3957   3.873   1.280  11.455  2.3786  1.6693 -1.1805
  261MPD2     N 3958   4.167   1.541  11.676  0.1237  0.0104 -0.4570
  261MPD2    H5 3959   4.195   1.574  11.768  1.2172 -0.4034 -0.6372
  261MPD2    N1 3960   3.892   1.227  11.908 -0.0280  0.1866  0.7066
  261MPD2    H7 3961   3.943   1.246  11.994  0.9661 -0.6935  0.3053
  262TMC3    C1 3962   4.309   1.713  11.609 -0.1486  0.7614 -0.6332
  262TMC3    C2 3963   4.286   1.758  11.744 -0.0781 -0.2522  0.1587
  262TMC3    C3 3964   4.368   1.865  11.788 -1.1790 -0.4699  0.7064
  262TMC3    C4 3965   4.408   1.765  11.531 -0.1954  0.0922  0.3853
  262TMC3    C5 3966   4.479   1.874  11.579  0.5616  0.8035  0.7216
  262TMC3    C6 3967   4.463   1.928  11.707  0.0382 -0.2096 -0.7955
  262TMC3     C 3968   4.235   1.598  11.569 -0.5050 -0.7892 -0.0351
  262TMC3     O 3969   4.250   1.555  11.457 -0.0204 -0.1525  0.0943
  262TMC3     H 3970   4.201   1.725  11.801 -0.6617  0.5501 -0.2505
  262TMC3    H1 3971   4.404   1.737  11.427 -1.5072 -0.1112  0.4876
  262TMC3    H2 3972   4.532   1.997  11.754  1.0504 -0.5635 -1.7495
  262TMC3    C7 3973   4.573   1.948  11.487 -0.7936  0.1386 -0.0027
  262TMC3    C8 3974   4.324   1.951  11.892  0.5193  0.7807  0.4237
  262TMC3    O1 3975   4.622   1.884  11.396 -0.1696 -0.0245  0.0250
  262TMC3    O2 3976   4.370   2.064  11.890  0.0039 -0.0573 -0.5984
  263MPD2     C 3977   0.705   1.206  12.250  0.2870 -0.2080  0.3837
  263MPD2    C1 3978   0.637   1.088  12.210  0.2925 -0.4079  0.5646
  263MPD2    C2 3979   0.622   1.073  12.073 -0.3621 -0.1449  0.6966
  263MPD2    C3 3980   0.684   1.153  11.978  0.7369  0.4658  0.3337
  263MPD2    C4 3981   0.726   1.274  12.019 -0.0339  0.9916  0.3890
  263MPD2    C5 3982   0.731   1.300  12.154 -0.5783  0.1068 -0.2370
  263MPD2     H 3983   0.594   0.975  12.036  0.9787 -0.0490 -0.5729
  263MPD2    H1 3984   0.756   1.350  11.949 -1.7277  2.6454  1.4668
  263MPD2    H2 3985   0.729   1.235  12.352 -1.7262 -1.7982  1.3076
  263MPD2    H3 3986   0.769   1.387  12.207 -0.6265  0.9961 -1.6732
  263MPD2     N 3987   0.663   1.118  11.847 -0.3475 -0.1527  0.2072
  263MPD2    H5 3988   0.583   1.059  11.828  0.3969 -0.9885 -0.2773
  263MPD2    N1 3989   0.612   0.998  12.309 -0.3252  0.0415  0.1260
  263MPD2    H7 3990   0.647   1.015  12.403  3.0594  0.8121 -1.2587
  264TMC3    C1 3991   0.722   1.126  11.618 -0.2927  0.1973  0.4897
  264TMC3    C2 3992   0.600   1.063  11.586  0.5605  0.7223  0.9452
  264TMC3    C3 3993   0.575   1.019  11.463  0.0571 -0.4890 -0.2673
  264TMC3    C4 3994   0.827   1.142  11.525 -0.6678 -0.1352 -0.0564
  264TMC3    C5 3995   0.803   1.082  11.404 -0.6464  0.1971 -0.6740
  264TMC3    C6 3996   0.683   1.025  11.369 -0.6895  0.3313  0.0807
  264TMC3     C 3997   0.740   1.178  11.751 -0.2344  0.4009  0.1163
  264TMC3     O 3998   0.840   1.245  11.771  0.1411 -0.3093  0.1425
  264TMC3     H 3999   0.514   1.084  11.648 -0.7592  0.7594 -0.8843
  264TMC3    H1 4000   0.918   1.192  11.554 -1.6800  1.8809 -0.3234
  264TMC3    H2 4001   0.683   0.958  11.283 -1.1647 -0.0072  0.3412
  264TMC3    C7 4002   0.877   1.111  11.283  0.5185 -0.4499  0.7471
  264TMC3    C8 4003   0.452   1.070  11.410 -0.0551 -0.2221 -0.1762
  264TMC3    O1 4004   0.808   1.108  11.182  0.0529  0.0477 -0.3743
  264TMC3    O2 4005   0.348   1.067  11.473  0.7025  0.3065 -0.1231
  265MPD2     C 4006   2.364   0.976  15.541  0.1882 -0.4721 -0.4696
  265MPD2    C1 4007   2.443   1.076  15.492 -0.3683  0.0397 -0.0309
  265MPD2    C2 4008   2.526   1.049  15.387 -0.0504  0.0961 -0.0479
  265MPD2    C3 4009   2.536   0.921  15.333 -0.5660 -0.1245  0.2901
  265MPD2    C4 4010   2.449   0.826  15.382  0.2589 -0.2126  0.5946
  265MPD2    C5 4011   2.363   0.854  15.486  0.0361 -0.4695  0.0477
  265MPD2     H 4012   2.596   1.128  15.363 -1.4620  1.0063 -1.1892
  265MPD2    H1 4013   2.450   0.721  15.356 -0.2357  0.1436 -0.8284
  265MPD2    H2 4014   2.283   1.006  15.607 -0.0736 -0.6513 -0.7061
  265MPD2    H3 4015   2.292   0.781  15.523 -0.0963  0.5755  1.8656
  265MPD2     N 4016   2.630   0.880  15.235 -0.3221 -0.3405 -0.4484
  265MPD2    H5 4017   2.638   0.779  15.221 -1.2408 -0.6117  0.9880
  265MPD2    N1 4018   2.435   1.206  15.540 -0.3728  0.8607 -0.0767
  265MPD2    H7 4019   2.477   1.280  15.484 -2.5209  1.7035 -0.5602
  266TMC3    C1 4020   2.394   1.386  15.692 -0.3267 -0.3085  0.4384
  266TMC3    C2 4021   2.428   1.435  15.811 -0.6102  0.6170 -0.2225
  266TMC3    C3 4022   2.448   1.571  15.824 -0.5081  0.4933 -0.7535
  266TMC3    C4 4023   2.382   1.460  15.580 -0.2741  0.1581  0.1456
  266TMC3    C5 4024   2.392   1.599  15.593  0.6182 -0.1518  0.2942
  266TMC3    C6 4025   2.428   1.656  15.713 -0.1828  0.6422  0.2090
  266TMC3     C 4026   2.395   1.239  15.671  0.1208  0.6573 -0.2663
  266TMC3     O 4027   2.363   1.166  15.761  0.3645 -0.6169  0.1366
  266TMC3     H 4028   2.436   1.365  15.893 -1.8441 -0.2094 -0.8107
  266TMC3    H1 4029   2.350   1.410  15.489  1.5910 -1.9239  0.6433
  266TMC3    H2 4030   2.425   1.764  15.725  1.5563  0.6039  0.9746
  266TMC3    C7 4031   2.303   1.675  15.502  0.7187 -0.2548  0.3566
  266TMC3    C8 4032   2.549   1.604  15.922 -0.2127 -0.3100  0.2247
  266TMC3    O1 4033   2.202   1.619  15.463 -0.2309  0.3726  0.1505
  266TMC3    O2 4034   2.623   1.515  15.959  0.2252  0.3197  0.3307
  267MPD2     C 4035   0.634   3.389  17.495  0.0126  0.6880  0.1265
  267MPD2    C1 4036   0.575   3.334  17.606 -0.3235 -0.2939  0.0961
  267MPD2    C2 4037   0.454   3.386  17.658  0.4267  0.0371 -0.0525
  267MPD2    C3 4038   0.390   3.489  17.592 -0.4709  0.3287 -0.2187
  267MPD2    C4 4039   0.462   3.545  17.485  0.1759  0.1533  0.0666
  267MPD2    C5 4040   0.577   3.497  17.437 -0.1005  0.2809 -0.1557
  267MPD2     H 4041   0.406   3.332   0.053  1.6140 -0.0412  0.6092
  267MPD2    H1 4042   0.423   3.633  17.434 -2.7131  0.0109  2.0486
  267MPD2    H2 4043   0.727   3.348  17.457  0.1313  0.6781  0.4326
  267MPD2    H3 4044   0.622   3.546  17.351 -0.0097  0.9171  0.2513
  267MPD2     N 4045   0.267   3.545  17.631 -0.0760 -0.1900  0.3549
  267MPD2    H5 4046   0.219   3.606  17.565  0.1284  1.6546  1.9203
  267MPD2    N1 4047   0.655   3.228  17.664  0.0313  0.3845 -0.6207
  267MPD2    H7 4048   0.746   3.204  17.627  0.3322 -0.1519  0.4598
  268TMC3    C1 4049   0.698   3.048   0.121  0.1103  0.4698  1.1354
  268TMC3    C2 4050   0.740   2.969   0.015 -0.3786 -0.0280 -0.0064
  268TMC3    C3 4051   0.766   2.831   0.037 -0.2444  0.1704  0.2587
  268TMC3    C4 4052   0.686   3.000   0.243  0.3759  0.6462 -0.1238
  268TMC3    C5 4053   0.732   2.870   0.267  1.1221  0.4986 -0.0989
  268TMC3    C6 4054   0.776   2.786   0.161 -0.1603 -0.0649  0.4672
  268TMC3     C 4055   0.625   3.172   0.100  0.1058  0.5570 -0.0389
  268TMC3     O 4056   0.532   3.188   0.179  0.2269 -0.2418 -0.2153
  268TMC3     H 4057   0.713   3.004  17.602 -1.1932  0.6124  0.4478
  268TMC3    H1 4058   0.656   3.071   0.320  0.5475  0.1797  0.3708
  268TMC3    H2 4059   0.797   2.682   0.183 -0.4780 -0.0304  0.9361
  268TMC3    C7 4060   0.670   2.793   0.373 -0.9115  0.0344 -0.1895
  268TMC3    C8 4061   0.767   2.735  17.609 -0.0620 -0.1592 -0.2490
  268TMC3    O1 4062   0.694   2.671   0.373  0.4967  0.2325  0.2001
  268TMC3    O2 4063   0.803   2.622  17.636 -0.6063  0.2262  0.1601
  269MPD2     C 4064   0.441   1.973  15.251 -0.2805 -0.3350  0.8099
  269MPD2    C1 4065   0.361   1.964  15.368  0.5849  0.1286  0.5280
  269MPD2    C2 4066   0.319   2.082  15.433 -0.2107  0.2210  0.5579
  269MPD2    C3 4067   0.341   2.202  15.388 -0.0694 -0.1973 -0.1716
  269MPD2    C4 4068   0.410   2.214  15.267  0.6353  0.0582  0.2524
  269MPD2    C5 4069   0.456   2.099  15.200 -0.1887  0.0380  0.3845
  269MPD2     H 4070   0.263   2.082  15.526 -0.5815 -0.0699  0.3359
  269MPD2    H1 4071   0.431   2.318  15.244 -1.0688  1.3009  4.2896
  269MPD2    H2 4072   0.484   1.890  15.195  2.3844  1.1327  0.6745
  269MPD2    H3 4073   0.512   2.122  15.110  1.1203 -2.2705  0.6264
  269MPD2     N 4074   0.267   2.309  15.452  0.6430  0.1870  0.1428
  269MPD2    H5 4075   0.212   2.290  15.535  0.4804  2.7662  0.6376
  269MPD2    N1 4076   0.330   1.838  15.419  0.3343 -0.5310 -0.7379
  269MPD2    H7 4077   0.367   1.758  15.369 -0.1900  0.5934 -2.9038
  270TMC3    C1 4078   0.197   1.672  15.529 -0.8133  0.0720 -0.8801
  270TMC3    C2 4079   0.063   1.661  15.514 -0.4174 -0.1766  1.5273
  270TMC3    C3 4080   0.011   1.539  15.467  0.1638  0.0952  0.5247
  270TMC3    C4 4081   0.276   1.569  15.505  0.0274  0.2838 -0.2398
  270TMC3    C5 4082   0.219   1.451  15.477  0.4072  0.2074 -0.3071
  270TMC3    C6 4083   0.087   1.430  15.459  0.4172 -0.2028 -0.0248
  270TMC3     C 4084   0.241   1.806  15.519 -0.6650 -0.2531  0.4272
  270TMC3     O 4085   0.168   1.881  15.584  0.1479 -0.3142 -0.5700
  270TMC3     H 4086   0.003   1.751  15.506 -2.4016 -1.6089  0.5710
  270TMC3    H1 4087   0.383   1.580  15.517  0.1636  0.0569 -1.2641
  270TMC3    H2 4088   0.042   1.332  15.449  0.0287  0.0248 -0.5068
  270TMC3    C7 4089   0.299   1.335  15.466 -0.0050  0.7564 -0.3118
  270TMC3    C8 4090   4.612   1.539  15.379 -0.2741  0.2362 -0.1670
  270TMC3    O1 4091   0.406   1.332  15.525 -0.1551  0.0897  0.6459
  270TMC3    O2 4092   4.526   1.627  15.387 -0.1515  0.3194 -0.0626
  271MPD2     C 4093   4.108   1.403  13.688 -0.0962  0.6044 -0.2659
  271MPD2    C1 4094   4.043   1.335  13.791 -0.2561 -0.6218  0.0020
  271MPD2    C2 4095   3.907   1.332  13.792  0.5176 -0.1969  0.2717
  271MPD2    C3 4096   3.828   1.393  13.700 -0.1824  0.2410 -0.2769
  271MPD2    C4 4097   3.894   1.444  13.589  0.3631  0.2494  0.2792
  271MPD2    C5 4098   4.035   1.438  13.576  0.5431 -0.0927  0.0931
  271MPD2     H 4099   3.865   1.291  13.882 -0.5412 -0.3971 -0.3077
  271MPD2    H1 4100   3.838   1.486  13.506 -1.1220 -1.3812  0.4427
  271MPD2    H2 4101   4.214   1.423  13.696  0.0737  0.0829 -1.1284
  271MPD2    H3 4102   4.079   1.503  13.502 -0.3337  1.2176  0.7147
  271MPD2     N 4103   3.685   1.402  13.701  0.1209 -0.0529 -0.3417
  271MPD2    H5 4104   3.648   1.461  13.627  0.2671  1.9024  1.1337
  271MPD2    N1 4105   4.105   1.279  13.903  0.5904  0.2243  0.0270
  271MPD2    H7 4106   4.056   1.237  13.981  0.9752 -1.7500 -0.8123
  272TMC3    C1 4107   4.265   1.204  14.048  0.3742 -0.9629  0.1038
  272TMC3    C2 4108   4.398   1.172  14.072 -0.4058 -0.6746  0.2833
  272TMC3    C3 4109   4.442   1.159  14.201  0.1852 -0.5220 -0.2854
  272TMC3    C4 4110   4.185   1.228  14.149 -0.2502 -0.5817 -0.7028
  272TMC3    C5 4111   4.245   1.240  14.271 -0.1426  0.2854  0.0308
  272TMC3    C6 4112   4.359   1.185  14.308  0.5315  0.3527  0.4878
  272TMC3     C 4113   4.240   1.265  13.921  0.6609  0.2207  0.5539
  272TMC3     O 4114   4.335   1.289  13.841  0.4180 -0.0125 -0.1016
  272TMC3     H 4115   4.466   1.152  13.990  0.1257 -0.2714  0.6263
  272TMC3    H1 4116   4.093   1.283  14.133 -0.3255 -0.2086  1.0104
  272TMC3    H2 4117   4.402   1.198  14.407  1.5082  0.1461  0.0899
  272TMC3    C7 4118   4.181   1.333  14.364 -0.1696 -0.0020 -0.4192
  272TMC3    C8 4119   4.581   1.123  14.224 -0.2268 -0.4543 -0.2720
  272TMC3    O1 4120   4.066   1.364  14.344 -0.5434 -0.2436  1.1934
  272TMC3    O2 4121   4.647   1.160  14.128  0.3728 -0.5333 -0.1178
  273MPD2     C 4122   0.885   4.266  11.917 -0.4481  0.0846  0.5488
  273MPD2    C1 4123   0.876   4.310  12.044 -0.1576  0.0116 -0.8054
  273MPD2    C2 4124   0.744   4.322  12.089 -0.4555 -0.1078  0.2345
  273MPD2    C3 4125   0.635   4.271  12.033  0.2660  0.4148 -0.3625
  273MPD2    C4 4126   0.652   4.216  11.912 -0.0592 -1.0015 -0.7185
  273MPD2    C5 4127   0.780   4.206  11.853 -0.3560 -0.3283  0.1051
  273MPD2     H 4128   0.725   4.385  12.175  2.0313  2.5471 -1.1571
  273MPD2    H1 4129   0.566   4.185  11.853 -1.5717 -2.3541  2.1829
  273MPD2    H2 4130   0.980   4.277  11.866 -0.8833  3.5426  0.4877
  273MPD2    H3 4131   0.796   4.166  11.754  1.9957 -1.0482  0.7847
  273MPD2     N 4132   0.500   4.274  12.087 -0.2005 -0.0549  0.0789
  273MPD2    H5 4133   0.426   4.238  12.027  0.3225  0.8333 -1.0942
  273MPD2    N1 4134   0.987   4.374  12.111  0.1457 -0.5766  0.1911
  273MPD2    H7 4135   1.074   4.386  12.060  0.2985  1.8458  1.0377
  274TMC3    C1 4136   0.328   4.391  12.190  0.7757 -0.2456 -0.1622
  274TMC3    C2 4137   0.246   4.346  12.094 -0.2991  0.6236 -0.1057
  274TMC3    C3 4138   0.123   4.404  12.082  0.0200  0.5221 -0.3550
  274TMC3    C4 4139   0.309   4.516  12.238  0.3069 -0.4841 -0.5608
  274TMC3    C5 4140   0.201   4.582  12.196 -0.3884 -0.2309  0.5632
  274TMC3    C6 4141   0.093   4.529  12.126 -0.2311  0.6958  0.1536
  274TMC3     C 4142   0.464   4.346  12.201  0.5999  0.2681 -0.0046
  274TMC3     O 4143   0.539   4.390  12.286 -0.6545  0.0334  0.6291
  274TMC3     H 4144   0.263   4.247  12.052 -1.4981  0.2792  0.2233
  274TMC3    H1 4145   0.386   4.571  12.291 -0.6937  1.7680 -1.4635
  274TMC3    H2 4146   0.027   4.597  12.075  1.5400  1.3150 -1.3111
  274TMC3    C7 4147   0.213   0.004  12.241 -0.1695  0.1853 -0.1820
  274TMC3    C8 4148   0.036   4.350  11.989 -0.7386 -0.5442  0.8113
  274TMC3    O1 4149   0.269   0.039  12.346 -0.0369  0.2764  0.1319
  274TMC3    O2 4150   0.074   4.258  11.918  0.1816 -0.2374  0.9447
  275MPD2     C 4151   0.746   2.524  14.877  0.2029 -0.3438  0.7628
  275MPD2    C1 4152   0.774   2.518  14.743  0.6847  0.2183  0.6775
  275MPD2    C2 4153   0.668   2.483  14.662 -0.1257  0.3661  0.4915
  275MPD2    C3 4154   0.541   2.441  14.705  0.1321 -0.3036 -0.1619
  275MPD2    C4 4155   0.524   2.447  14.842  0.3593  0.0862  0.2758
  275MPD2    C5 4156   0.623   2.489  14.925  0.2693 -0.0418  0.5307
  275MPD2     H 4157   0.690   2.480  14.556 -0.8681 -3.0564  0.4166
  275MPD2    H1 4158   0.427   2.416  14.879 -0.2452 -1.9840 -3.0005
  275MPD2    H2 4159   0.824   2.551  14.948  0.9533  1.6823 -0.8187
  275MPD2    H3 4160   0.604   2.486  15.031  2.2350 -0.6726  0.8612
  275MPD2     N 4161   0.437   2.394  14.632 -0.3194  0.5175 -0.7396
  275MPD2    H5 4162   0.349   2.368  14.676  0.6131  1.0306  1.4394
  275MPD2    N1 4163   0.898   2.540  14.685  0.0717 -0.4264  0.9659
  275MPD2    H7 4164   0.898   2.518  14.586 -0.4753 -1.6188  1.2229
  276TMC3    C1 4165   1.118   2.615  14.652  0.4615 -0.0366  0.3540
  276TMC3    C2 4166   1.150   2.501  14.586  0.2871  0.3110  0.6100
  276TMC3    C3 4167   1.265   2.497  14.525 -0.1803 -0.0198 -0.3044
  276TMC3    C4 4168   1.197   2.721  14.668 -0.8268 -0.5774 -0.1081
  276TMC3    C5 4169   1.320   2.703  14.607 -0.0127  0.4846 -0.0970
  276TMC3    C6 4170   1.345   2.601  14.523 -0.3712 -0.2348  0.2060
  276TMC3     C 4171   0.995   2.612  14.733  0.5525  0.0778  0.8964
  276TMC3     O 4172   0.995   2.673  14.842  0.3242 -0.0242  0.1668
  276TMC3     H 4173   1.081   2.417  14.595  0.6851 -0.3425 -2.3685
  276TMC3    H1 4174   1.179   2.809  14.729 -1.4036 -2.8236  2.9776
  276TMC3    H2 4175   1.438   2.596  14.467 -1.2027 -0.7601 -1.1375
  276TMC3    C7 4176   1.429   2.737  14.688  0.4037 -0.0247 -0.6421
  276TMC3    C8 4177   1.339   2.371  14.538 -0.4306 -0.0480 -0.2482
  276TMC3    O1 4178   1.407   2.814  14.781  0.3549  0.1582 -0.4007
  276TMC3    O2 4179   1.458   2.393  14.530 -0.7787 -0.1437  0.1856
  277MPD2     C 4180   2.772   1.265  13.481  0.5766 -0.9521  0.3706
  277MPD2    C1 4181   2.639   1.280  13.509  0.2613  0.5368 -0.3338
  277MPD2    C2 4182   2.590   1.213  13.617  0.1426 -0.0413  0.0592
  277MPD2    C3 4183   2.665   1.117  13.687  0.1657  0.3728  0.4923
  277MPD2    C4 4184   2.796   1.098  13.647  0.3123 -0.1300 -0.5216
  277MPD2    C5 4185   2.851   1.172  13.548 -0.6251  0.0268 -0.3278
  277MPD2     H 4186   2.487   1.216  13.652 -0.1358  2.1092 -0.9246
  277MPD2    H1 4187   2.865   1.033  13.699  0.1287  0.8571  0.9475
  277MPD2    H2 4188   2.807   1.311  13.390 -0.9492 -2.4667 -0.9819
  277MPD2    H3 4189   2.951   1.150  13.512  0.4432 -0.1275  2.7292
  277MPD2     N 4190   2.593   1.049  13.785 -0.0972  0.3338 -0.1853
  277MPD2    H5 4191   2.494   1.074  13.787 -0.8632 -2.7159  0.6688
  277MPD2    N1 4192   2.567   1.373  13.428 -0.9055  0.4364  0.0603
  277MPD2    H7 4193   2.613   1.420  13.350  0.3298  2.8812  2.2473
  278TMC3    C1 4194   2.515   0.862  13.892 -0.5915 -0.1369 -0.2363
  278TMC3    C2 4195   2.516   0.738  13.839  0.1919  0.5230  0.0811
  278TMC3    C3 4196   2.395   0.686  13.809  0.2342  0.1305  0.1551
  278TMC3    C4 4197   2.404   0.942  13.911  0.2448  0.3850 -0.6293
  278TMC3    C5 4198   2.283   0.874  13.893  0.2958 -1.1613 -0.8251
  278TMC3    C6 4199   2.277   0.753  13.830  0.5867 -0.4873  1.0889
  278TMC3     C 4200   2.633   0.945  13.857 -0.1113 -0.6348 -0.4606
  278TMC3     O 4201   2.742   0.884  13.849 -0.6351 -0.8016 -0.7057
  278TMC3     H 4202   2.602   0.679  13.811  0.7789  1.2061  0.4186
  278TMC3    H1 4203   2.402   1.044  13.947  0.8423 -0.6956  2.4618
  278TMC3    H2 4204   2.181   0.705  13.816  1.5304 -2.4872  1.4061
  278TMC3    C7 4205   2.206   0.876  14.012  0.2873 -0.3195  0.8510
  278TMC3    C8 4206   2.393   0.573  13.717  0.0760 -0.4864 -0.0191
  278TMC3    O1 4207   2.250   0.955  14.092 -0.4935 -0.1964 -0.2450
  278TMC3    O2 4208   2.495   0.507  13.700 -0.3480 -0.1898  0.2634
  279MPD2     C 4209   1.467   1.293   0.397  0.1740  0.6561 -0.2222
  279MPD2    C1 4210   1.399   1.404   0.353  0.0726 -0.5339 -0.1196
  279MPD2    C2 4211   1.447   1.475   0.239  0.6356  0.7427  1.0674
  279MPD2    C3 4212   1.541   1.411   0.157 -0.9719  0.1987  0.3370
  279MPD2    C4 4213   1.590   1.292   0.194  0.3607  0.8128  0.7348
  279MPD2    C5 4214   1.546   1.229   0.307 -0.0963  0.0417  0.1664
  279MPD2     H 4215   1.390   1.559   0.201 -0.3815  0.0378  1.0294
  279MPD2    H1 4216   1.656   1.234   0.131  0.0877 -0.5650  1.7138
  279MPD2    H2 4217   1.449   1.244   0.492  0.3438 -0.5111 -0.7837
  279MPD2    H3 4218   1.595   1.135   0.330 -2.4762 -1.0145  0.9331
  279MPD2     N 4219   1.561   1.452   0.018 -0.0738 -0.2733 -0.4023
  279MPD2    H5 4220   1.618   1.386  17.651 -0.1892  0.4270 -1.3776
  279MPD2    N1 4221   1.282   1.449   0.430  0.8140 -0.5285  0.0609
  279MPD2    H7 4222   1.279   1.412   0.524  1.8550 -2.2534 -0.6023
  280TMC3    C1 4223   1.149   1.568   0.270  0.3070  0.3242 -0.3019
  280TMC3    C2 4224   1.142   1.460   0.183 -0.0960 -0.3431 -0.5542
  280TMC3    C3 4225   1.102   1.479   0.056  0.0340 -0.1441 -0.2251
  280TMC3    C4 4226   1.111   1.695   0.226 -0.0066 -0.0266  0.1187
  280TMC3    C5 4227   1.082   1.708   0.096 -0.7122  0.3758 -0.0635
  280TMC3    C6 4228   1.079   1.602   0.010  0.6520  0.1064 -0.0426
  280TMC3     C 4229   1.193   1.552   0.406 -0.6407  0.7117  0.6028
  280TMC3     O 4230   1.121   1.608   0.491  0.0994  0.3643  0.3611
  280TMC3     H 4231   1.163   1.363   0.226  0.8749 -1.2939 -3.1956
  280TMC3    H1 4232   1.107   1.776   0.298  0.4540 -1.1541  1.4026
  280TMC3    H2 4233   1.056   1.604  17.590 -0.1744 -0.6819  0.1145
  280TMC3    C7 4234   1.068   1.839   0.039 -0.3651  0.7271  0.4511
  280TMC3    C8 4235   1.125   1.376  17.640  0.0380  0.0355 -0.1029
  280TMC3    O1 4236   1.134   1.931   0.080  0.5078 -0.3221  0.1750
  280TMC3    O2 4237   1.077   1.384  17.526  0.3853 -0.0970 -0.1256
  281TMC3    C1 4238   0.278   0.950  13.382 -0.2125 -0.5995 -0.4010
  281TMC3    C2 4239   0.212   1.072  13.372 -0.6888  0.5387  0.8914
  281TMC3    C3 4240   0.079   1.066  13.332  0.2158 -0.6963 -0.1191
  281TMC3    C4 4241   0.213   0.830  13.373  0.6538 -0.0512 -0.3112
  281TMC3    C5 4242   0.081   0.834  13.324 -0.2096 -0.0598 -0.2172
  281TMC3    C6 4243   0.010   0.946  13.310  0.3503  0.5583 -0.2579
  281TMC3     C 4244   0.409   0.939  13.449 -0.5674  0.4425  0.1742
  281TMC3     O 4245   0.456   0.826  13.468  0.5984  0.2129  0.1765
  281TMC3     H 4246   0.261   1.168  13.375 -1.1417  0.7445  1.9921
  281TMC3    H1 4247   0.265   0.735  13.380 -1.1049 -1.0582 -0.8762
  281TMC3    H2 4248   4.624   0.951  13.294  0.2035  1.0442  0.8911
  281TMC3    C7 4249   4.718   0.722  13.355  0.6430  0.1389  0.2126
  281TMC3    C8 4250   0.008   1.188  13.309 -0.1122 -0.0083  0.2321
  281TMC3    O1 4251   4.602   0.736  13.323  0.1041 -0.1617  0.9356
  281TMC3    O2 4252   4.627   1.178  13.242  0.0300 -0.5628 -0.7160
  282MPD2     C 4253   2.456   2.741  15.126  0.4619 -0.9258 -0.0999
  282MPD2    C1 4254   2.344   2.808  15.171 -0.7459  0.1117 -0.4684
  282MPD2    C2 4255   2.228   2.795  15.096  0.6543 -0.4354 -0.5392
  282MPD2    C3 4256   2.224   2.734  14.979  0.5843 -0.7570  0.5221
  282MPD2    C4 4257   2.339   2.674  14.928  0.4116  0.0843  0.2628
  282MPD2    C5 4258   2.452   2.684  15.005  0.6532 -0.2062 -0.0959
  282MPD2     H 4259   2.140   2.846  15.133  0.5172  0.1130 -1.6104
  282MPD2    H1 4260   2.349   2.620  14.834 -1.3544  0.1278  0.0506
  282MPD2    H2 4261   2.548   2.731  15.184  1.3107  1.3653 -1.0755
  282MPD2    H3 4262   2.544   2.643  14.964  1.7296  1.5720  0.5260
  282MPD2     N 4263   2.096   2.735  14.913 -0.4952  0.3830 -0.6872
  282MPD2    H5 4264   2.024   2.782  14.968  0.4024  1.2742 -0.2809
  282MPD2    N1 4265   2.338   2.870  15.291 -0.5827  0.1318  0.3371
  282MPD2    H7 4266   2.247   2.909  15.315 -0.7207 -0.8303  1.3876
  283TMC3    C1 4267   2.391   2.919  15.514  0.6538  0.0719 -0.2274
  283TMC3    C2 4268   2.440   3.016  15.600 -0.1452  0.2253 -0.2849
  283TMC3    C3 4269   2.403   3.014  15.732  0.4284 -0.5808  0.2626
  283TMC3    C4 4270   2.300   2.822  15.558 -0.2785 -0.5117  0.0906
  283TMC3    C5 4271   2.270   2.824  15.687  0.1806  1.1770 -0.2336
  283TMC3    C6 4272   2.317   2.916  15.774  0.0733  0.2100  0.5477
  283TMC3     C 4273   2.437   2.902  15.377  0.8797 -0.4942  0.5929
  283TMC3     O 4274   2.553   2.927  15.355  0.0723  0.3617  0.5875
  283TMC3     H 4275   2.497   3.096  15.553 -0.2563  0.9223  0.7633
  283TMC3    H1 4276   2.279   2.735  15.496 -1.1275  0.4424 -0.9701
  283TMC3    H2 4277   2.281   2.908  15.876  0.2127  1.0517  0.6672
  283TMC3    C7 4278   2.152   2.746  15.738 -0.0887 -0.2448  0.4696
  283TMC3    C8 4279   2.414   3.128  15.827 -0.4250  0.0362  0.1743
  283TMC3    O1 4280   2.088   2.812  15.819 -0.0898  0.5907  0.3490
  283TMC3    O2 4281   2.405   3.098  15.944  0.1785 -0.1620  0.0670
  284MPD2     C 4282   0.766   2.215  12.080 -0.7046  0.4166 -0.1240
  284MPD2    C1 4283   0.791   2.171  11.955  0.8973 -0.6352 -0.6571
  284MPD2    C2 4284   0.700   2.097  11.891  0.5314 -0.3268  0.5402
  284MPD2    C3 4285   0.578   2.059  11.945 -0.3947 -0.5585  0.0326
  284MPD2    C4 4286   0.545   2.127  12.064  0.5951  0.3370 -0.5155
  284MPD2    C5 4287   0.637   2.196  12.133 -0.2916 -0.5976 -0.3017
  284MPD2     H 4288   0.736   2.056  11.797  2.5498 -0.9539  1.5955
  284MPD2    H1 4289   0.443   2.112  12.099  1.5129 -2.3536  0.9855
  284MPD2    H2 4290   0.835   2.277  12.137  1.3008 -0.5569 -1.5170
  284MPD2    H3 4291   0.615   2.244  12.227  2.3693 -0.8611  0.4651
  284MPD2     N 4292   0.488   1.957  11.898  0.9693  0.2946  0.4783
  284MPD2    H5 4293   0.402   1.956  11.951  0.5526 -1.0940 -0.2117
  284MPD2    N1 4294   0.910   2.196  11.885 -0.6162  0.0624 -0.5256
  284MPD2    H7 4295   0.913   2.159  11.791  1.4198 -2.1790  0.4208
  285TMC3    C1 4296   1.111   2.278  11.814  0.3560  0.0848 -0.0677
  285TMC3    C2 4297   1.123   2.171  11.722  0.3358  0.1244 -0.0695
  285TMC3    C3 4298   1.200   2.198  11.612  0.6764 -0.0671  0.8638
  285TMC3    C4 4299   1.199   2.384  11.821  0.1976  0.0269  0.6548
  285TMC3    C5 4300   1.267   2.408  11.707 -0.4063 -0.0813  0.0124
  285TMC3    C6 4301   1.266   2.317  11.598  0.4028  0.1490  0.1121
  285TMC3     C 4302   1.013   2.274  11.922  0.9931  0.4960  0.7186
  285TMC3     O 4303   1.026   2.355  12.012  0.1529 -0.1118  0.4561
  285TMC3     H 4304   1.053   2.088  11.723  0.1392  0.3125  1.4594
  285TMC3    H1 4305   1.194   2.455  11.903  0.0555  2.2987 -1.3077
  285TMC3    H2 4306   1.331   2.341  11.514 -0.7797  0.2964 -0.7621
  285TMC3    C7 4307   1.332   2.540  11.688 -0.0917  0.7868 -0.3736
  285TMC3    C8 4308   1.181   2.122  11.492 -0.1389 -0.6181  0.0225
  285TMC3    O1 4309   1.356   2.580  11.571 -0.0015  0.4675 -0.4447
  285TMC3    O2 4310   1.105   2.027  11.499 -0.0721 -0.3778 -0.2147
  286MPD2     C 4311   0.171   0.597   1.107  0.1687 -0.8287  0.0159
  286MPD2    C1 4312   0.270   0.686   1.140 -0.0485 -0.0863  0.1362
  286MPD2    C2 4313   0.390   0.631   1.183  0.0551 -0.0283  0.5422
  286MPD2    C3 4314   0.410   0.492   1.178  0.0637 -0.0362  0.4072
  286MPD2    C4 4315   0.307   0.415   1.152 -0.3439 -0.5943 -0.0717
  286MPD2    C5 4316   0.191   0.465   1.112  0.3168  0.2616  0.7551
  286MPD2     H 4317   0.472   0.699   1.200  0.4311 -0.0136 -1.3886
  286MPD2    H1 4318   0.316   0.307   1.151 -0.7952 -0.6240 -1.2755
  286MPD2    H2 4319   0.072   0.627   1.076  1.1679  0.0777 -2.2468
  286MPD2    H3 4320   0.109   0.394   1.107 -0.3283  0.9681  1.4317
  286MPD2     N 4321   0.530   0.429   1.214  0.2427 -0.4062  0.0285
  286MPD2    H5 4322   0.537   0.332   1.185 -0.7407 -0.3836 -0.2747
  286MPD2    N1 4323   0.261   0.825   1.125 -0.5931 -0.5334  0.4713
  286MPD2    H7 4324   0.344   0.880   1.141 -1.2820 -0.1156  2.7278
  287TMC3    C1 4325   0.759   0.400   1.271 -0.6278 -0.9906  0.0134
  287TMC3    C2 4326   0.760   0.274   1.212  0.3109  0.4716 -0.1936
  287TMC3    C3 4327   0.882   0.220   1.185 -0.4794 -0.3557 -0.2714
  287TMC3    C4 4328   0.884   0.460   1.304  0.0032  0.0039  0.5625
  287TMC3    C5 4329   0.996   0.389   1.279 -0.8828 -0.6600 -0.0895
  287TMC3    C6 4330   1.002   0.265   1.226  0.3234 -0.1455 -0.2179
  287TMC3     C 4331   0.653   0.489   1.252 -0.1455  0.0437  0.3161
  287TMC3     O 4332   0.672   0.603   1.291 -0.2181 -0.4719  0.4113
  287TMC3     H 4333   0.671   0.212   1.201  0.1381  1.0637 -2.1190
  287TMC3    H1 4334   0.893   0.561   1.342 -1.1942 -0.6417  2.5889
  287TMC3    H2 4335   1.091   0.206   1.209 -0.3280 -0.9135 -1.0247
  287TMC3    C7 4336   1.119   0.446   1.341  0.1251  0.5298  0.6568
  287TMC3    C8 4337   0.872   0.101   1.098  0.2633  0.4548  0.1979
  287TMC3    O1 4338   1.110   0.550   1.403  0.4459 -0.4881 -0.4831
  287TMC3    O2 4339   0.761   0.071   1.054  0.0694  0.4657 -0.6239
  288TMC3    C1 4340   2.295   0.697  14.572  0.4510 -0.2073 -0.7935
  288TMC3    C2 4341   2.279   0.650  14.703  0.2002  0.0744  0.6850
  288TMC3    C3 4342   2.340   0.718  14.808  0.2865 -0.7672  0.4954
  288TMC3    C4 4343   2.369   0.803  14.545  0.3233  0.1023 -0.6730
  288TMC3    C5 4344   2.424   0.870  14.657 -0.2158  0.3095 -0.5026
  288TMC3    C6 4345   2.429   0.820  14.784 -0.3125 -0.0160 -0.5727
  288TMC3     C 4346   2.278   0.596  14.473 -0.4500  0.4975  0.2360
  288TMC3     O 4347   2.243   0.483  14.506 -0.1059  0.0892 -0.6447
  288TMC3     H 4348   2.224   0.558  14.709 -1.0863  0.8349  0.5726
  288TMC3    H1 4349   2.368   0.841  14.444  5.0931 -0.8407 -1.0794
  288TMC3    H2 4350   2.472   0.876  14.867 -0.8040 -0.7804  0.1994
  288TMC3    C7 4351   2.523   0.971  14.624 -0.4481 -0.1510  0.2338
  288TMC3    C8 4352   2.337   0.664  14.949  0.3978 -0.4726  0.0519
  288TMC3    O1 4353   2.613   0.985  14.708 -0.1182  0.5603 -0.6983
  288TMC3    O2 4354   2.429   0.697  15.021  0.3105 -0.3212 -0.0653
  289MPD2     C 4355   2.793   0.645  14.295  0.1854  0.8329 -0.7446
  289MPD2    C1 4356   2.778   0.545  14.204  0.1748  0.1078 -0.1800
  289MPD2    C2 4357   2.713   0.431  14.242 -1.1458 -0.2779 -0.1913
  289MPD2    C3 4358   2.648   0.426  14.363  0.0130  0.2731 -0.4515
  289MPD2    C4 4359   2.666   0.526  14.452 -0.7452  0.2640 -0.0551
  289MPD2    C5 4360   2.745   0.638  14.422  0.5772 -0.4480 -0.5703
  289MPD2     H 4361   2.698   0.344  14.179  0.0609 -2.6154  2.7706
  289MPD2    H1 4362   2.628   0.513  14.553  0.5314  1.9978  0.6493
  289MPD2    H2 4363   2.844   0.736  14.264  1.5829  0.0827 -0.6237
  289MPD2    H3 4364   2.758   0.714  14.498 -1.4408 -1.9184  1.2439
  289MPD2     N 4365   2.556   0.325  14.397 -0.3887  0.4429 -0.1049
  289MPD2    H5 4366   2.503   0.340  14.482  0.2135 -1.2947  0.5942
  289MPD2    N1 4367   2.836   0.568  14.079  0.1818 -0.5117  0.0823
  289MPD2    H7 4368   2.878   0.660  14.068  1.1072 -0.8924  0.3831
  290TMC3    C1 4369   2.454   0.112  14.375 -0.2030  0.7118 -0.3386
  290TMC3    C2 4370   2.324   0.162  14.389 -0.3291  0.2477 -0.5921
  290TMC3    C3 4371   2.220   0.075  14.372 -0.1551  0.3349 -0.0483
  290TMC3    C4 4372   2.471   4.696  14.348  0.0123  0.7450  1.1728
  290TMC3    C5 4373   2.358   4.616  14.342 -0.6739  0.3743 -0.5568
  290TMC3    C6 4374   2.229   4.661  14.365 -1.0609  0.1533 -0.2235
  290TMC3     C 4375   2.551   0.203  14.326 -0.0021  0.3333 -0.1260
  290TMC3     O 4376   2.642   0.147  14.261 -0.1436 -0.3041 -0.5497
  290TMC3     H 4377   2.314   0.269  14.404 -2.6230 -0.1369  0.6178
  290TMC3    H1 4378   2.571   4.657  14.333 -0.4545  0.4126 -1.2182
  290TMC3    H2 4379   2.139   4.603  14.351 -1.3723  0.4008  0.7607
  290TMC3    C7 4380   2.383   4.478  14.376 -0.3378 -0.6825  0.9652
  290TMC3    C8 4381   2.089   0.126  14.366 -0.1716 -0.5665  0.3209
  290TMC3    O1 4382   2.283   4.432  14.428 -0.3962  0.3382 -0.1601
  290TMC3    O2 4383   2.005   0.059  14.307 -0.2197  0.3019 -0.3020
  291MPD2     C 4384   1.332   4.580  17.568 -0.1890  0.4016  0.5969
  291MPD2    C1 4385   1.275   4.463  17.628  1.1226 -0.3336  0.2453
  291MPD2    C2 4386   1.343   4.398   0.046 -1.1077  0.0775 -0.2864
  291MPD2    C3 4387   1.463   4.442   0.092  0.5085 -0.2801 -0.8358
  291MPD2    C4 4388   1.519   4.554   0.035 -0.0068  0.4755  0.3841
  291MPD2    C5 4389   1.452   4.629  17.618  0.8569 -0.5036  0.0829
  291MPD2     H 4390   1.288   4.316   0.092  0.5034 -0.6607  0.3285
  291MPD2    H1 4391   1.606   4.604   0.077 -0.3036  0.4933  0.9774
  291MPD2    H2 4392   1.287   4.629  17.483 -0.2623 -1.1183 -0.2377
  291MPD2    H3 4393   1.494   4.717  17.571 -0.3186  1.2225  2.2294
  291MPD2     N 4394   1.528   4.385   0.201 -0.3328  0.5682  0.5426
  291MPD2    H5 4395   1.614   4.431   0.227  0.4838  0.3973 -1.8800
  291MPD2    N1 4396   1.153   4.399  17.598 -0.6081 -0.6784 -0.1576
  291MPD2    H7 4397   1.150   4.299  17.617  0.3275 -0.6984 -0.1233
  292TMC3    C1 4398   0.940   4.364  17.489  0.0917  0.2489 -0.2486
  292TMC3    C2 4399   0.811   4.412  17.493 -0.0183  0.1899 -0.0968
  292TMC3    C3 4400   0.709   4.320  17.483 -0.2588 -0.8331  0.4554
  292TMC3    C4 4401   0.971   4.235  17.480  0.4248 -0.4500  0.0695
  292TMC3    C5 4402   0.867   4.148  17.476  0.3399  0.1963 -0.0032
  292TMC3    C6 4403   0.733   4.187  17.478 -0.0580  0.2482 -0.2914
  292TMC3     C 4404   1.043   4.459  17.533  0.2317 -0.0721 -0.1379
  292TMC3     O 4405   1.022   4.578  17.509  0.6525  0.6224 -0.5873
  292TMC3     H 4406   0.790   4.517  17.508  0.5246  0.2912 -0.0521
  292TMC3    H1 4407   1.072   4.200  17.465  0.5037 -0.1528 -0.0949
  292TMC3    H2 4408   0.660   4.108  17.490 -0.2450  0.5979  0.9314
  292TMC3    C7 4409   0.909   4.015  17.421  0.4458 -0.5159 -0.2820
  292TMC3    C8 4410   0.584   4.357  17.545 -1.0987 -0.5187  0.9680
  292TMC3    O1 4411   1.023   3.976  17.429  0.6944 -0.4463  0.2369
  292TMC3    O2 4412   0.541   4.467  17.517  0.2755  0.1937  0.3303
  293MPD2     C 4413   3.170   0.854  12.920 -0.0910 -0.0697 -0.1080
  293MPD2    C1 4414   3.267   0.897  12.827 -0.2490 -0.0096  0.0748
  293MPD2    C2 4415   3.396   0.902  12.889 -0.4075  0.0654 -0.6278
  293MPD2    C3 4416   3.421   0.884  13.023 -1.0887 -0.7247 -0.2751
  293MPD2    C4 4417   3.318   0.854  13.105 -0.3436  0.0354 -0.0162
  293MPD2    C5 4418   3.196   0.842  13.054  0.0211 -0.4374 -0.4129
  293MPD2     H 4419   3.480   0.921  12.823  1.0547  0.0848  1.2512
  293MPD2    H1 4420   3.336   0.834  13.210 -1.1066 -2.2030 -0.2968
  293MPD2    H2 4421   3.070   0.849  12.879 -0.4755 -0.7033  0.8900
  293MPD2    H3 4422   3.130   0.788  13.122 -0.4485  0.5734 -0.0699
  293MPD2     N 4423   3.550   0.906  13.070  0.4411  0.2004 -0.1788
  293MPD2    H5 4424   3.615   0.932  12.997 -0.2708 -0.6262 -1.1097
  293MPD2    N1 4425   3.232   0.922  12.692  0.1504 -0.1082 -0.3036
  293MPD2    H7 4426   3.135   0.907  12.665  1.0687 -2.5400 -2.3479
  294TMC3    C1 4427   3.258   0.988  12.465 -0.2168  0.1897  0.0340
  294TMC3    C2 4428   3.125   0.969  12.452 -0.0263 -0.4120  0.6097
  294TMC3    C3 4429   3.074   1.000  12.327  1.1096  0.1275  0.0497
  294TMC3    C4 4430   3.336   1.029  12.358 -0.4336  0.3027 -0.2575
  294TMC3    C5 4431   3.278   1.079  12.249 -0.2503 -0.4195 -0.0958
  294TMC3    C6 4432   3.142   1.063  12.225  0.3053 -0.0172  0.4553
  294TMC3     C 4433   3.322   0.963  12.598 -0.0895  0.6856 -0.0263
  294TMC3     O 4434   3.444   0.970  12.607 -0.0081  0.2077  0.1114
  294TMC3     H 4435   3.068   0.918  12.529 -1.0148 -1.1372 -0.5912
  294TMC3    H1 4436   3.443   1.027  12.377 -0.4631  0.1477 -0.1043
  294TMC3    H2 4437   3.102   1.129  12.148  0.1098 -1.1448 -0.4152
  294TMC3    C7 4438   3.362   1.144  12.144  0.2756 -0.0091  0.1689
  294TMC3    C8 4439   2.950   0.932  12.287  0.4366 -0.5647 -0.7053
  294TMC3    O1 4440   3.470   1.188  12.182  0.4437 -0.2512  0.5578
  294TMC3    O2 4441   2.908   0.840  12.352  0.0360  0.0681  0.3474
  295MPD2     C 4442   4.070   3.800  17.442 -0.1846 -0.0574  0.0703
  295MPD2    C1 4443   4.077   3.939  17.450  0.0705 -0.4985  0.5369
  295MPD2    C2 4444   3.966   4.012  17.477  0.8931  0.0209  0.2079
  295MPD2    C3 4445   3.845   3.952  17.497 -0.1813 -0.1923  0.7041
  295MPD2    C4 4446   3.834   3.813  17.482  0.2313  0.1579  0.0235
  295MPD2    C5 4447   3.944   3.744  17.450 -0.1226  0.8528  0.3815
  295MPD2     H 4448   3.976   4.120  17.485 -2.2645  0.0908  3.1517
  295MPD2    H1 4449   3.742   3.761  17.506  1.2129 -1.7019 -0.3036
  295MPD2    H2 4450   4.159   3.742  17.423 -0.1309  0.5364 -1.5316
  295MPD2    H3 4451   3.937   3.637  17.434 -0.3370  0.4926  2.8657
  295MPD2     N 4452   3.738   4.023  17.549 -0.0226 -0.2667  0.4676
  295MPD2    H5 4453   3.675   3.969  17.609  0.2555 -1.2833 -0.1484
  295MPD2    N1 4454   4.198   4.014  17.455 -0.5281 -0.4448 -0.1445
  295MPD2    H7 4455   4.187   4.115  17.455 -1.0381 -0.5045  0.5143
  296TMC3    C1 4456   3.616   4.202  17.656  0.4774 -0.6494 -0.5284
  296TMC3    C2 4457   3.657   4.299   0.052 -0.1500  0.0269  0.3727
  296TMC3    C3 4458   3.613   4.301   0.177 -0.3163  0.7042  0.5187
  296TMC3    C4 4459   3.526   4.105   0.012 -0.3417 -0.2232  0.5420
  296TMC3    C5 4460   3.480   4.125   0.141  0.0478 -0.1443 -0.2926
  296TMC3    C6 4461   3.522   4.213   0.233 -0.0491 -0.4019 -1.2689
  296TMC3     C 4462   3.713   4.161  17.556  0.4338 -0.6826 -0.3336
  296TMC3     O 4463   3.768   4.245  17.490  0.2131 -0.4520 -0.4085
  296TMC3     H 4464   3.735   4.365   0.014 -0.5476 -0.3002 -1.0033
  296TMC3    H1 4465   3.492   4.020  17.641  2.4771 -0.9392 -0.0768
  296TMC3    H2 4466   3.477   4.230   0.331 -0.1477  1.8196 -1.6908
  296TMC3    C7 4467   3.384   4.020   0.187 -0.0706 -0.0918  0.1971
  296TMC3    C8 4468   3.606   4.434   0.224  0.3140  0.2780 -0.3142
  296TMC3    O1 4469   3.319   3.967   0.101  0.7498  0.4097 -0.1001
  296TMC3    O2 4470   3.619   4.519   0.137  0.5194 -0.2159 -0.3238
  297MPD2     C 4471   1.407   1.841  16.421  1.0219 -0.6536  0.1663
  297MPD2    C1 4472   1.398   1.900  16.301  0.3349 -0.4436 -0.3418
  297MPD2    C2 4473   1.482   1.998  16.258 -0.2430  0.2706 -0.0247
  297MPD2    C3 4474   1.580   2.047  16.348  0.0608 -0.3597  0.5002
  297MPD2    C4 4475   1.592   1.987  16.471 -0.1299 -0.0572  0.2116
  297MPD2    C5 4476   1.503   1.891  16.502 -0.3760  0.2730 -0.1846
  297MPD2     H 4477   1.466   2.042  16.160 -2.5325 -0.5378 -0.0337
  297MPD2    H1 4478   1.661   2.027  16.545 -1.1975  1.1781  0.5493
  297MPD2    H2 4479   1.331   1.774  16.461 -1.0593  0.3089 -2.2371
  297MPD2    H3 4480   1.495   1.862  16.606  1.0456 -0.0739 -0.1692
  297MPD2     N 4481   1.648   2.162  16.311 -0.6479 -0.8974  0.3302
  297MPD2    H5 4482   1.651   2.182  16.212  2.1437  0.9494  0.8076
  297MPD2    N1 4483   1.296   1.869  16.206  0.6453  0.2177 -0.3508
  297MPD2    H7 4484   1.310   1.898  16.109  0.5048  1.2190 -0.0673
  298TMC3    C1 4485   1.081   1.824  16.126 -0.2920  0.2275 -0.2589
  298TMC3    C2 4486   1.126   1.762  16.011  0.2196 -0.0079  0.5654
  298TMC3    C3 4487   1.047   1.751  15.899  0.5018  0.5183  0.7046
  298TMC3    C4 4488   0.957   1.864  16.143  0.1217 -0.2783  0.5035
  298TMC3    C5 4489   0.889   1.879  16.022 -0.6338 -0.4659 -0.5066
  298TMC3    C6 4490   0.928   1.818  15.903  0.6886 -0.4168 -0.5303
  298TMC3     C 4491   1.169   1.826  16.239  0.2819  0.1012 -0.7795
  298TMC3     O 4492   1.111   1.799  16.345  0.0429  1.0667 -0.5819
  298TMC3     H 4493   1.224   1.717  16.008  0.0943 -0.4879  3.4887
  298TMC3    H1 4494   0.928   1.903  16.239  0.1304  1.6141 -0.2699
  298TMC3    H2 4495   0.850   1.814  15.828 -1.1363 -2.5763  1.4951
  298TMC3    C7 4496   0.787   1.987  16.025 -0.4990  0.4241  1.4680
  298TMC3    C8 4497   1.088   1.718  15.765  0.4700 -0.6401 -0.0097
  298TMC3    O1 4498   0.721   1.994  16.129  0.2480 -0.6249 -0.3894
  298TMC3    O2 4499   1.013   1.741  15.674 -0.2393 -0.1966  0.4799
  299MPD2     C 4500   1.633   1.607  10.592 -0.3215 -0.3808  0.0547
  299MPD2    C1 4501   1.717   1.694  10.525  0.0359  0.5578  0.5129
  299MPD2    C2 4502   1.691   1.715  10.392  0.0449 -0.5110 -0.0271
  299MPD2    C3 4503   1.563   1.676  10.345 -0.5595 -0.4375 -0.1134
  299MPD2    C4 4504   1.479   1.596  10.418  0.5765  0.6180 -0.4326
  299MPD2    C5 4505   1.518   1.558  10.539  0.0378 -0.2112  0.0759
  299MPD2     H 4506   1.764   1.773  10.337 -1.4995  1.8952  0.4251
  299MPD2    H1 4507   1.389   1.557  10.373  1.5604 -1.6176 -0.4390
  299MPD2    H2 4508   1.652   1.590  10.697 -1.4357  0.5853  0.4172
  299MPD2    H3 4509   1.453   1.494  10.598  0.0098 -0.6671 -0.4475
  299MPD2     N 4510   1.522   1.706  10.213 -0.3663 -0.5883 -0.0291
  299MPD2    H5 4511   1.438   1.661  10.177 -0.8373  0.2960 -0.0205
  299MPD2    N1 4512   1.825   1.748  10.597 -0.1925 -0.2356 -0.0415
  299MPD2    H7 4513   1.829   1.715  10.693 -1.6605  1.4251  0.5968
  300TMC3    C1 4514   1.499   1.826  10.014 -0.1607 -0.6450  0.6447
  300TMC3    C2 4515   1.468   1.961  10.008  0.0288  0.1114 -0.0190
  300TMC3    C3 4516   1.342   2.005  10.039 -0.0152 -0.2026 -0.8741
  300TMC3    C4 4517   1.397   1.741  10.005  0.3875 -0.1893 -0.7355
  300TMC3    C5 4518   1.273   1.787  10.019 -0.8160  0.0725 -0.3075
  300TMC3    C6 4519   1.236   1.917  10.052 -0.1284 -0.2453 -0.4864
  300TMC3     C 4520   1.579   1.804  10.139 -0.1751  0.2504 -0.0212
  300TMC3     O 4521   1.666   1.887  10.164  0.7273 -0.1148  0.5457
  300TMC3     H 4522   1.547   2.036  10.010  1.0413 -0.9645  0.7625
  300TMC3    H1 4523   1.414   1.635   9.991  1.3714 -0.3830  1.7855
  300TMC3    H2 4524   1.137   1.945  10.085  0.0261 -0.6267  0.3101
  300TMC3    C7 4525   1.190   1.679  10.056  0.6891 -0.0265  0.0199
  300TMC3    C8 4526   1.351   2.104  10.147 -0.3369  0.0957  0.3591
  300TMC3    O1 4527   1.165   1.588   9.976  0.3275  0.0490  0.1056
  300TMC3    O2 4528   1.461   2.133  10.192  0.6146  0.2006 -0.4032
  301MPD2     C 4529   4.386   1.852   1.415  0.6373 -0.5722 -0.1249
  301MPD2    C1 4530   4.287   1.873   1.329  0.1271 -0.2320  0.2457
  301MPD2    C2 4531   4.305   1.822   1.200  0.0230  0.1204 -0.0760
  301MPD2    C3 4532   4.420   1.760   1.161  0.1491  0.4776 -0.1735
  301MPD2    C4 4533   4.529   1.750   1.245  0.4104 -0.1922 -0.9816
  301MPD2    C5 4534   4.504   1.791   1.373  0.1366  0.3301 -0.5256
  301MPD2     H 4535   4.226   1.842   1.128 -1.2966  2.5097  2.0111
  301MPD2    H1 4536   4.624   1.710   1.212  0.2172  1.4201 -3.4786
  301MPD2    H2 4537   4.379   1.892   1.516  0.9537  0.9356 -0.6990
  301MPD2    H3 4538   4.575   1.779   1.454 -0.2878 -2.9771 -0.6459
  301MPD2     N 4539   4.436   1.713   1.028 -0.6377 -0.0393 -0.2323
  301MPD2    H5 4540   4.529   1.682   1.001 -0.0425  2.2977 -0.8259
  301MPD2    N1 4541   4.171   1.956   1.353  0.3418 -0.1345  0.5503
  301MPD2    H7 4542   4.110   1.973   1.273  1.1924 -2.5438 -0.6173
  302TMC3    C1 4543   4.384   1.672   0.802  0.4901 -0.2563 -1.0910
  302TMC3    C2 4544   4.462   1.559   0.785 -0.1373 -0.7473  0.1812
  302TMC3    C3 4545   4.486   1.529   0.652 -0.0242 -0.1023 -0.3776
  302TMC3    C4 4546   4.327   1.735   0.694 -0.3078 -0.0199 -0.7230
  302TMC3    C5 4547   4.362   1.708   0.567  0.1754  0.1634  0.5010
  302TMC3    C6 4548   4.434   1.597   0.541 -0.4748 -0.1379 -0.5212
  302TMC3     C 4549   4.336   1.699   0.938  0.1366 -0.1483  0.1622
  302TMC3     O 4550   4.218   1.718   0.948  0.8031 -0.3762  0.3261
  302TMC3     H 4551   4.510   1.503   0.865  0.0279 -1.6298 -0.5353
  302TMC3    H1 4552   4.269   1.825   0.714 -2.6936 -1.9150  0.8997
  302TMC3    H2 4553   4.471   1.578   0.441 -0.6699 -0.2297 -0.5761
  302TMC3    C7 4554   4.296   1.769   0.456 -0.3921  0.2685  0.2420
  302TMC3    C8 4555   4.561   1.408   0.623 -0.4212  0.3557 -0.4105
  302TMC3    O1 4556   4.329   1.736   0.344  0.4707 -0.4447 -0.0051
  302TMC3    O2 4557   4.587   1.395   0.505  0.2655  0.1814  0.4813
  303MPD2     C 4558   3.627   4.626  10.365 -0.0223  0.1247  0.2133
  303MPD2    C1 4559   3.549   4.697  10.280  1.1477 -1.0491 -0.1347
  303MPD2    C2 4560   3.608   0.080  10.208 -0.4972 -0.4773 -0.0979
  303MPD2    C3 4561   3.746   0.111  10.218 -0.0845  0.4918  0.6730
  303MPD2    C4 4562   3.827   0.017  10.283  0.2075 -0.0847  0.1988
  303MPD2    C5 4563   3.764   4.645  10.357 -0.3188  0.1147  0.0355
  303MPD2     H 4564   3.544   0.136  10.141 -1.1609  1.6874  2.3345
  303MPD2    H1 4565   3.934   0.027  10.294  0.4986  0.3075 -2.7896
  303MPD2    H2 4566   3.588   4.551  10.433 -1.5705  0.5726 -0.1843
  303MPD2    H3 4567   3.817   4.575  10.421 -1.9010 -0.0183  1.2158
  303MPD2     N 4568   3.807   0.231  10.156 -0.1403  0.3088  0.3656
  303MPD2    H5 4569   3.907   0.237  10.172 -0.0063  2.1776 -1.1692
  303MPD2    N1 4570   3.411   4.662  10.262  0.4728  0.1988  0.0502
  303MPD2    H7 4571   3.374   4.590  10.323 -0.0499 -0.5105 -1.1224
  304TMC3    C1 4572   3.182   4.684  10.210  0.1430  0.0966 -0.3288
  304TMC3    C2 4573   3.157   4.709  10.339  0.3607 -0.3647  0.3551
  304TMC3    C3 4574   3.029   0.026  10.368 -0.5646  0.6298  0.5219
  304TMC3    C4 4575   3.100   0.001  10.105 -0.1778 -0.9987 -0.0759
  304TMC3    C5 4576   2.972   0.040  10.145  0.7577 -0.4802 -0.8364
  304TMC3    C6 4577   2.932   0.033  10.275  0.3741  0.6878  0.7296
  304TMC3     C 4578   3.316   0.003  10.179  0.5307  0.5102 -1.1653
  304TMC3     O 4579   3.327   0.102  10.106  0.6666  0.0870 -0.3513
  304TMC3     H 4580   3.230   4.703  10.418 -0.3047 -1.8540  0.8618
  304TMC3    H1 4581   3.136   0.003  10.003  0.9750 -0.1155  0.3619
  304TMC3    H2 4582   2.831   0.044  10.310  0.0801  1.0840 -0.2429
  304TMC3    C7 4583   2.915   0.159  10.083  0.1325 -0.3669 -0.2499
  304TMC3    C8 4584   3.025   0.135  10.467 -0.5774  0.4203 -1.0049
  304TMC3    O1 4585   2.858   0.226  10.170 -0.0322 -0.0574  0.0050
  304TMC3    O2 4586   3.093   0.134  10.566 -0.3059  0.1572 -0.1443
  305MPD2     C 4587   2.124   3.379  14.292  0.1991 -0.3484  0.5433
  305MPD2    C1 4588   2.141   3.239  14.274  0.4499  0.5711 -0.0755
  305MPD2    C2 4589   2.122   3.192  14.147 -0.2172 -0.5232 -1.1267
  305MPD2    C3 4590   2.086   3.264  14.034 -0.6830 -0.4868 -0.6061
  305MPD2    C4 4591   2.075   3.403  14.053  0.3237 -0.3784 -0.3858
  305MPD2    C5 4592   2.094   3.461  14.182 -0.1154  0.7070 -0.0481
  305MPD2     H 4593   2.146   3.088  14.131 -0.7205 -0.3517 -3.0116
  305MPD2    H1 4594   2.061   3.470  13.969  0.4120 -0.3472 -0.3765
  305MPD2    H2 4595   2.147   3.424  14.388 -0.9711 -0.0611  0.6873
  305MPD2    H3 4596   2.091   3.569  14.183  1.5574  0.7518 -0.3080
  305MPD2     N 4597   2.063   3.218  13.906  0.1357 -0.1529  0.1528
  305MPD2    H5 4598   2.057   3.289  13.833  0.2111  1.0211  1.2737
  305MPD2    N1 4599   2.187   3.168  14.384 -0.1310 -0.0160 -0.4403
  305MPD2    H7 4600   2.166   3.204  14.476 -0.5870 -0.1935 -0.4781
  306TMC3    C1 4601   2.250   2.972  14.512 -1.0228  0.3453  0.0884
  306TMC3    C2 4602   2.355   2.886  14.516  0.6834 -0.7421 -0.2462
  306TMC3    C3 4603   2.431   2.880  14.633 -0.6071  0.8238 -0.2833
  306TMC3    C4 4604   2.212   3.031  14.623  0.3273  0.5073  0.1725
  306TMC3    C5 4605   2.283   3.013  14.740  0.0286  0.4968  0.5007
  306TMC3    C6 4606   2.400   2.946  14.745 -0.6340  0.3335 -0.6447
  306TMC3     C 4607   2.223   3.034  14.386 -0.3528 -1.1132 -0.6777
  306TMC3     O 4608   2.251   2.964  14.291 -0.1500  0.1316  0.3130
  306TMC3     H 4609   2.391   2.851  14.420 -1.6900  3.0356 -2.4605
  306TMC3    H1 4610   2.119   3.087  14.629  0.7146  1.2848 -1.2339
  306TMC3    H2 4611   2.445   2.910  14.837  0.6547 -0.9916 -1.7931
  306TMC3    C7 4612   2.233   3.080  14.856  0.5417 -0.3450  0.4761
  306TMC3    C8 4613   2.562   2.833  14.610 -0.4433  0.6286 -0.8546
  306TMC3    O1 4614   2.117   3.113  14.858 -0.6537  0.1285  0.3863
  306TMC3    O2 4615   2.587   2.764  14.514  0.4566 -0.6577  0.3791
  307MPD2     C 4616   0.222   0.481   0.599  0.2283 -0.3380  0.1006
  307MPD2    C1 4617   0.125   0.561   0.548 -0.1868 -0.7225  0.7230
  307MPD2    C2 4618   0.013   0.582   0.623  0.1431  0.2692  0.6398
  307MPD2    C3 4619   4.718   0.524   0.748 -0.6086 -0.5446  0.5569
  307MPD2    C4 4620   0.096   0.436   0.785 -0.6082  0.0255  0.0632
  307MPD2    C5 4621   0.214   0.420   0.721 -0.4966 -0.4111 -0.1850
  307MPD2     H 4622   4.653   0.639   0.578 -0.6077 -0.4558  1.0738
  307MPD2    H1 4623   0.095   0.396   0.886  2.6969 -2.0303 -0.7021
  307MPD2    H2 4624   0.311   0.453   0.544  1.4258  2.8822  0.3614
  307MPD2    H3 4625   0.287   0.343   0.743  0.4394  0.1700 -1.2699
  307MPD2     N 4626   4.601   0.564   0.818  0.6514  0.4549  0.6212
  307MPD2    H5 4627   4.541   0.635   0.778  1.3059  0.6004 -0.1014
  307MPD2    N1 4628   0.136   0.635   0.428  0.3897 -0.1056  0.1903
  307MPD2    H7 4629   0.057   0.692   0.400  0.4207 -0.4087 -0.5114
  308TMC3    C1 4630   4.225   0.566   0.818  0.2801 -0.2344 -0.1090
  308TMC3    C2 4631   4.213   0.701   0.840 -0.3039  0.2748 -0.7069
  308TMC3    C3 4632   4.312   0.761   0.913 -0.2984 -0.3722 -0.3178
  308TMC3    C4 4633   4.331   0.498   0.874 -0.1143  0.3803  0.0441
  308TMC3    C5 4634   4.423   0.558   0.952  0.3646 -0.0596  0.3533
  308TMC3    C6 4635   4.422   0.694   0.964 -0.4081  0.7151  0.3934
  308TMC3     C 4636   4.141   0.486   0.728  0.0152 -0.1452  0.3103
  308TMC3     O 4637   4.179   0.374   0.690 -0.3119 -0.0992 -0.0114
  308TMC3     H 4638   4.128   0.758   0.805 -1.4056  0.6380  2.5719
  308TMC3    H1 4639   4.338   0.390   0.869 -1.1021  0.3123  0.1853
  308TMC3    H2 4640   4.499   0.756   1.010 -0.0906  0.8688 -0.3380
  308TMC3    C7 4641   4.553   0.503   0.935  0.1324  0.4298 -0.0904
  308TMC3    C8 4642   4.320   0.906   0.913 -0.0773 -0.6204  0.1100
  308TMC3    O1 4643   4.591   0.403   0.993  0.4164  0.0214  0.0972
  308TMC3    O2 4644   4.375   0.962   1.006  0.1167  0.2772  0.5262
  309MPD2     C 4645   4.256   1.437  17.049  0.4490 -0.6990 -0.4439
  309MPD2    C1 4646   4.178   1.502  16.957 -0.4352 -0.2662 -0.5833
  309MPD2    C2 4647   4.049   1.541  17.001  0.4227 -0.0949 -0.5612
  309MPD2    C3 4648   3.992   1.496  17.126 -0.1221  0.2203 -0.2040
  309MPD2    C4 4649   4.081   1.438  17.218  0.8882  0.2476  0.8856
  309MPD2    C5 4650   4.207   1.399  17.171 -0.2160 -0.1251  0.5970
  309MPD2     H 4651   3.997   1.613  16.939 -1.3526 -0.0198  0.9913
  309MPD2    H1 4652   4.039   1.395  17.309  1.2801  1.9470  1.8751
  309MPD2    H2 4653   4.357   1.404  17.029  0.3134 -2.7055  2.2480
  309MPD2    H3 4654   4.282   1.349  17.230 -0.3377  0.1801  1.0124
  309MPD2     N 4655   3.859   1.507  17.168 -0.1603  0.2031 -0.8826
  309MPD2    H5 4656   3.843   1.476  17.264  1.5006 -1.1796 -1.0640
  309MPD2    N1 4657   4.225   1.544  16.833  0.2284  0.2039 -0.1523
  309MPD2    H7 4658   4.154   1.594  16.780  0.1705 -0.4486 -0.6978
  310TMC3    C1 4659   4.377   1.585  16.658 -0.5381 -0.1620  0.6227
  310TMC3    C2 4660   4.320   1.706  16.635  0.5177 -0.0471  0.7286
  310TMC3    C3 4661   4.363   1.768  16.519 -0.5331 -0.4394  0.6107
  310TMC3    C4 4662   4.482   1.533  16.587 -0.0715 -0.5385 -0.4467
  310TMC3    C5 4663   4.525   1.609  16.484  0.1497 -0.5794  0.2488
  310TMC3    C6 4664   4.459   1.718  16.442  0.3216  0.4018 -0.4353
  310TMC3     C 4665   4.348   1.510  16.776  0.0847 -0.0289  0.5513
  310TMC3     O 4666   4.432   1.437  16.816  0.1284  0.3191  0.4394
  310TMC3     H 4667   4.254   1.749  16.709 -0.5058 -1.3960  0.6038
  310TMC3    H1 4668   4.524   1.436  16.610 -1.5033 -0.7039  1.4336
  310TMC3    H2 4669   4.506   1.778  16.365 -1.2761 -0.1268 -1.7974
  310TMC3    C7 4670   4.604   1.540  16.387  0.7930 -0.2983 -0.2410
  310TMC3    C8 4671   4.294   1.870  16.448  0.2738 -0.0644  0.4901
  310TMC3    O1 4672   4.590   1.556  16.265 -0.0037 -0.1599  0.6963
  310TMC3    O2 4673   4.333   1.904  16.334  0.4365 -0.2544 -0.2296
  311MPD2     C 4674   1.221   2.645  12.782 -0.1678  0.6198  0.3955
  311MPD2    C1 4675   1.187   2.772  12.835 -0.7641 -0.4651 -0.5162
  311MPD2    C2 4676   1.067   2.797  12.892  0.0148  0.1485  0.3110
  311MPD2    C3 4677   0.973   2.697  12.885 -0.0608 -1.2266 -0.1288
  311MPD2    C4 4678   1.000   2.575  12.829 -0.0732  0.0484  0.5256
  311MPD2    C5 4679   1.125   2.551  12.778  0.4985 -1.0091 -0.0469
  311MPD2     H 4680   1.040   2.892  12.936 -0.4525 -0.6371  1.6930
  311MPD2    H1 4681   0.930   2.493  12.823 -0.9473  0.8639 -0.4988
  311MPD2    H2 4682   1.316   2.627  12.732 -0.4156  0.4153  0.0005
  311MPD2    H3 4683   1.147   2.456  12.729 -2.9084 -2.3601  1.0177
  311MPD2     N 4684   0.852   2.726  12.949 -0.1580  0.1610 -0.3031
  311MPD2    H5 4685   0.840   2.816  12.995 -2.3446  0.1226 -0.8015
  311MPD2    N1 4686   1.293   2.866  12.856 -0.2987 -0.7899  0.5516
  311MPD2    H7 4687   1.259   2.944  12.910 -0.6416  0.2373 -1.1651
  312TMC3    C1 4688   0.629   2.710  13.008 -0.2201 -0.0547  0.0280
  312TMC3    C2 4689   0.507   2.693  12.954  0.0772  0.2467 -0.0211
  312TMC3    C3 4690   0.405   2.768  12.992 -0.5288  0.3115  0.0563
  312TMC3    C4 4691   0.652   2.807  13.104 -0.6169 -0.3745 -0.5777
  312TMC3    C5 4692   0.544   2.892  13.129  0.5426 -0.4786 -0.6113
  312TMC3    C6 4693   0.419   2.879  13.070  0.0303  0.3568  0.0265
  312TMC3     C 4694   0.742   2.643  12.951 -0.2370 -0.1521  0.1254
  312TMC3     O 4695   0.715   2.558  12.870 -0.1390 -0.1862  0.4708
  312TMC3     H 4696   0.492   2.621  12.875  0.9391  1.7068 -1.5250
  312TMC3    H1 4697   0.735   2.802  13.173 -0.5518 -0.4961 -0.6658
  312TMC3    H2 4698   0.344   2.954  13.091  0.5955  0.5380  1.3964
  312TMC3    C7 4699   0.555   2.995  13.235  0.0433  0.1195 -1.0751
  312TMC3    C8 4700   0.284   2.747  12.907 -0.5641  0.0544 -0.0453
  312TMC3    O1 4701   0.451   3.048  13.270  0.3531  0.8803 -0.3910
  312TMC3    O2 4702   0.288   2.677  12.805  0.1437  0.4427 -0.6218
  313MPD2     C 4703   0.848   1.936  10.445 -0.4142  0.1560 -0.5235
  313MPD2    C1 4704   0.769   1.880  10.539 -0.6600 -0.1099  0.5546
  313MPD2    C2 4705   0.715   1.758  10.504  0.1041  0.9404  0.1649
  313MPD2    C3 4706   0.728   1.691  10.384  0.3899 -0.1283  0.0447
  313MPD2    C4 4707   0.821   1.748  10.295 -0.1577  0.1692 -0.1090
  313MPD2    C5 4708   0.880   1.868  10.332 -0.7865  0.4660 -0.7185
  313MPD2     H 4709   0.658   1.714  10.585  0.2831  1.1531  0.4062
  313MPD2    H1 4710   0.856   1.703  10.203  1.3501 -2.7969  1.9328
  313MPD2    H2 4711   0.898   2.032  10.458 -2.6579  1.0603  1.4912
  313MPD2    H3 4712   0.955   1.907  10.264 -1.2362  0.7411 -1.0597
  313MPD2     N 4713   0.658   1.562  10.364 -0.0064  0.0966  0.1834
  313MPD2    H5 4714   0.609   1.529  10.446  0.2528 -0.0560  0.2743
  313MPD2    N1 4715   0.738   1.956  10.657 -0.0498  0.0857  0.2838
  313MPD2    H7 4716   0.668   1.916  10.719 -0.2839 -0.1826 -0.1550
  314TMC3    C1 4717   0.732   2.131  10.808 -0.0310  0.3138 -0.4580
  314TMC3    C2 4718   0.802   2.182  10.914 -0.0510  0.5863 -0.0858
  314TMC3    C3 4719   0.732   2.232  11.025  0.5738 -0.0299  0.2991
  314TMC3    C4 4720   0.596   2.129  10.808 -0.3959  0.1926 -0.8109
  314TMC3    C5 4721   0.526   2.185  10.912 -0.1521 -0.0665 -0.0374
  314TMC3    C6 4722   0.593   2.234  11.022  0.4446 -0.4960 -0.1212
  314TMC3     C 4723   0.806   2.059  10.709 -0.2309 -0.8553  0.6678
  314TMC3     O 4724   0.927   2.084  10.701 -0.3745  0.3171 -0.0138
  314TMC3     H 4725   0.910   2.171  10.919 -0.3603 -2.3873  0.0321
  314TMC3    H1 4726   0.543   2.084  10.725 -1.1005 -1.2956  0.4356
  314TMC3    H2 4727   0.534   2.282  11.100 -0.0591 -1.2307 -0.0371
  314TMC3    C7 4728   0.409   2.258  10.876  0.0034 -0.1069 -0.2011
  314TMC3    C8 4729   0.805   2.275  11.142  0.2468  0.3847  0.5818
  314TMC3    O1 4730   0.319   2.260  10.962  0.0543  0.0969  0.6347
  314TMC3    O2 4731   0.766   2.261  11.258 -0.3852 -0.1341 -0.1961
  315MPD2     C 4732   0.645   1.212  17.005 -0.6353  0.2136 -0.6480
  315MPD2    C1 4733   0.641   1.288  17.117  0.0387 -0.1137 -0.8504
  315MPD2    C2 4734   0.621   1.425  17.111 -0.3542 -0.0307  0.0869
  315MPD2    C3 4735   0.606   1.488  16.988  0.2033 -0.2716  0.3759
  315MPD2    C4 4736   0.606   1.403  16.871 -0.1021  0.2976  0.7088
  315MPD2    C5 4737   0.620   1.268  16.881  0.4650  0.3756  0.0791
  315MPD2     H 4738   0.621   1.474  17.208 -1.1544 -1.8032  0.9854
  315MPD2    H1 4739   0.584   1.446  16.773 -0.6028  0.2832  0.8167
  315MPD2    H2 4740   0.637   1.104  17.007  1.1879  0.1053  1.4132
  315MPD2    H3 4741   0.616   1.215  16.787  1.4413 -1.1183  0.8839
  315MPD2     N 4742   0.591   1.633  16.985  0.4951 -0.2230  0.4320
  315MPD2    H5 4743   0.596   1.674  17.078  1.5482 -0.2843  0.4040
  315MPD2    N1 4744   0.661   1.212  17.230  0.4569  0.3384  0.4014
  315MPD2    H7 4745   0.681   1.113  17.222  0.4128  0.3548  0.0667
  316TMC3    C1 4746   0.574   1.851  16.916 -0.8914 -0.5086  0.1295
  316TMC3    C2 4747   0.603   1.885  17.045 -0.1031  0.8660  0.8086
  316TMC3    C3 4748   0.565   2.011  17.079 -0.5670 -0.0796 -0.9402
  316TMC3    C4 4749   0.500   1.929  16.829  0.1676  0.2944 -0.8281
  316TMC3    C5 4750   0.459   2.049  16.876  0.2492 -0.0146  0.3841
  316TMC3    C6 4751   0.492   2.099  16.997 -0.3640 -0.2800 -0.5459
  316TMC3     C 4752   0.582   1.714  16.878  0.8604 -0.8333  0.1322
  316TMC3     O 4753   0.556   1.666  16.768  0.2063  0.1539 -0.1256
  316TMC3     H 4754   0.689   1.837  17.091  1.2532 -0.3278 -2.9717
  316TMC3    H1 4755   0.475   1.900  16.728  0.3128 -0.6095 -0.6073
  316TMC3    H2 4756   0.464   2.198  17.032 -1.7212 -1.2244  1.0655
  316TMC3    C7 4757   0.373   2.120  16.775  0.8946 -0.0532 -0.3840
  316TMC3    C8 4758   0.635   2.073  17.191 -0.1060 -0.5077  0.3793
  316TMC3    O1 4759   0.394   2.092  16.659 -0.1513 -0.3336  0.0685
  316TMC3    O2 4760   0.588   2.178  17.226  0.0148  0.4576  0.2029
  317MPD2     C 4761   2.188   4.480  12.631  0.6059  0.2018  0.4222
  317MPD2    C1 4762   2.307   4.422  12.598  0.1585 -0.0845 -0.5280
  317MPD2    C2 4763   2.374   4.344  12.695  0.2728 -0.2376 -0.4403
  317MPD2    C3 4764   2.320   4.335  12.826 -0.3101  0.2722  0.1592
  317MPD2    C4 4765   2.201   4.400  12.859 -0.7521 -0.3904 -0.2535
  317MPD2    C5 4766   2.144   4.474  12.762  0.5095  0.5463 -0.6131
  317MPD2     H 4767   2.461   4.284  12.670 -2.0066 -2.5064 -2.9118
  317MPD2    H1 4768   2.157   4.384  12.956 -1.3719 -1.6251 -0.7235
  317MPD2    H2 4769   2.142   4.558  12.571  0.7459  0.6265  0.8608
  317MPD2    H3 4770   2.064   4.544  12.787  1.7774  2.8567 -2.9578
  317MPD2     N 4771   2.394   4.260  12.922 -0.2515 -0.6919  0.0576
  317MPD2    H5 4772   2.479   4.217  12.889 -1.6213 -0.4251 -3.7364
  317MPD2    N1 4773   2.363   4.423  12.464 -0.4537 -0.0419  0.5828
  317MPD2    H7 4774   2.458   4.394  12.444  0.3513  2.6672  0.4138
  318TMC3    C1 4775   2.439   4.142  13.126 -0.0702 -0.3604  0.1399
  318TMC3    C2 4776   2.380   4.083  13.239 -0.2910  0.5764  0.0019
  318TMC3    C3 4777   2.456   4.043  13.348  0.1338  0.5107  0.0470
  318TMC3    C4 4778   2.576   4.159  13.123  0.3009  0.5079  0.2112
  318TMC3    C5 4779   2.653   4.114  13.231 -0.3491 -0.3634  0.5125
  318TMC3    C6 4780   2.591   4.062  13.344  0.4990  0.1643  0.9284
  318TMC3     C 4781   2.357   4.239  13.061 -1.0207 -0.3651 -0.2145
  318TMC3     O 4782   2.265   4.286  13.125 -0.4630 -0.3904  0.2968
  318TMC3     H 4783   2.271   4.081  13.236 -0.3049 -1.5138  1.6355
  318TMC3    H1 4784   2.627   4.208  13.041  2.2041 -0.3262  0.8925
  318TMC3    H2 4785   2.640   4.033  13.436  1.1108 -0.6821  0.3323
  318TMC3    C7 4786   2.772   4.192  13.262 -0.5961  0.4244  0.2549
  318TMC3    C8 4787   2.391   3.991  13.471 -0.4251 -0.4834  0.3646
  318TMC3    O1 4788   2.790   4.304  13.216 -0.9923  0.3699 -0.2073
  318TMC3    O2 4789   2.466   3.937  13.550 -0.0706  0.5140 -0.7574
  319MPD2     C 4790   3.734   1.257  16.312  0.1626 -0.3178 -0.0148
  319MPD2    C1 4791   3.639   1.211  16.407 -0.6038  0.2011  0.2207
  319MPD2    C2 4792   3.507   1.192  16.371  0.4082 -0.1526  0.4433
  319MPD2    C3 4793   3.467   1.241  16.244  0.1305 -0.0906 -0.0219
  319MPD2    C4 4794   3.561   1.310  16.160  0.0404 -0.3095  0.1094
  319MPD2    C5 4795   3.696   1.313  16.189  0.0513  0.4232  0.0908
  319MPD2     H 4796   3.427   1.153  16.433  1.5025 -0.4717  1.6359
  319MPD2    H1 4797   3.527   1.344  16.062 -1.9996  0.3383  1.0445
  319MPD2    H2 4798   3.838   1.276  16.336 -0.6997  3.0314  1.0671
  319MPD2    H3 4799   3.771   1.362  16.128 -0.8490  1.8748  0.1480
  319MPD2     N 4800   3.330   1.241  16.204 -0.5289 -0.2450 -0.0967
  319MPD2    H5 4801   3.311   1.281  16.113  0.0432  4.0112  1.6480
  319MPD2    N1 4802   3.672   1.170  16.538  0.1637 -0.4471  0.2525
  319MPD2    H7 4803   3.588   1.144  16.589 -0.8197  0.7525 -0.7332
  320TMC3    C1 4804   3.094   1.244  16.226  0.1875  0.4571  0.3727
  320TMC3    C2 4805   3.096   1.318  16.109  0.4064  0.5413 -0.0233
  320TMC3    C3 4806   2.987   1.317  16.024 -0.2425 -0.4923 -0.3878
  320TMC3    C4 4807   2.984   1.167  16.249  0.3086 -0.1275 -0.4669
  320TMC3    C5 4808   2.876   1.168  16.164 -0.0638  0.7998  0.1828
  320TMC3    C6 4809   2.879   1.234  16.041 -0.4081  0.0308  0.2581
  320TMC3     C 4810   3.224   1.198  16.276 -0.1654  0.1070 -0.4783
  320TMC3     O 4811   3.213   1.156  16.393 -0.1593  0.6753  0.1003
  320TMC3     H 4812   3.167   1.398  16.095  0.8043  0.1134 -0.4534
  320TMC3    H1 4813   2.991   1.084  16.319  0.0032 -0.5029 -0.8823
  320TMC3    H2 4814   2.792   1.247  15.978  0.2134 -0.9658 -0.7978
  320TMC3    C7 4815   2.794   1.050  16.162 -0.3382 -0.1741  0.3863
  320TMC3    C8 4816   2.981   1.424  15.937 -0.5652 -0.3260  0.0953
  320TMC3    O1 4817   2.759   1.016  16.051  0.3857  0.2754  0.9169
  320TMC3    O2 4818   3.025   1.532  15.969 -0.3715 -0.0841 -0.0887
  321TMC3    C1 4819   3.764   1.160  16.745  0.1912 -0.2322 -0.4187
  321TMC3    C2 4820   3.649   1.082  16.773 -0.1535 -0.7050 -0.2449
  321TMC3    C3 4821   3.619   1.058  16.903 -0.1370  0.3106  0.5612
  321TMC3    C4 4822   3.841   1.217  16.846 -0.0635 -0.3071 -0.0852
  321TMC3    C5 4823   3.819   1.165  16.973 -0.3230 -0.5770 -0.5972
  321TMC3    C6 4824   3.702   1.099  17.002  0.0971 -0.0640 -0.1910
  321TMC3     C 4825   3.784   1.187  16.603 -0.8364 -0.2151 -0.3253
  321TMC3     O 4826   3.881   1.249  16.566 -0.0199 -0.1989 -0.4542
  321TMC3     H 4827   3.595   1.023  16.700  0.8770 -0.0129 -1.5652
  321TMC3    H1 4828   3.930   1.273  16.821 -0.8546 -0.0231 -2.2611
  321TMC3    H2 4829   3.672   1.097  17.106 -1.3926 -2.1326 -0.6576
  321TMC3    C7 4830   3.921   1.102  17.050  0.0150 -0.1471  0.0626
  321TMC3    C8 4831   3.557   0.923  16.932 -0.3576  0.5383  0.7008
  321TMC3    O1 4832   3.880   1.008  17.121 -0.2327  0.3451 -0.0235
  321TMC3    O2 4833   3.483   0.870  16.851  1.0637 -0.0987 -0.1493
  322MPD2     C 4834   2.092   2.590  13.759  0.3052  0.4017  0.2882
  322MPD2    C1 4835   2.116   2.499  13.858 -0.4563  0.0409  0.0750
  322MPD2    C2 4836   2.150   2.370  13.815  0.0093  0.1976 -0.3114
  322MPD2    C3 4837   2.146   2.338  13.680 -0.1249 -0.2693  0.2900
  322MPD2    C4 4838   2.117   2.427  13.582  0.0566 -0.1697 -0.0659
  322MPD2    C5 4839   2.084   2.555  13.623  0.0347  0.4252  0.0520
  322MPD2     H 4840   2.173   2.290  13.885  1.3456  0.9652  0.1073
  322MPD2    H1 4841   2.100   2.390  13.482 -2.3679  1.8539 -0.3988
  322MPD2    H2 4842   2.072   2.695  13.776 -0.6719  0.4083 -0.9414
  322MPD2    H3 4843   2.067   2.633  13.549 -0.9037  0.9105  0.7595
  322MPD2     N 4844   2.181   2.199  13.646  0.1101  0.0516 -0.0992
  322MPD2    H5 4845   2.202   2.140  13.726  1.6850 -1.1628 -1.3868
  322MPD2    N1 4846   2.122   2.541  13.993 -0.0454 -0.6552  0.1470
  322MPD2    H7 4847   2.110   2.639  14.018  0.1987 -0.6859  0.3884
  323TMC3    C1 4848   2.153   2.526  14.226 -0.6528  0.4331  0.1075
  323TMC3    C2 4849   2.208   2.654  14.218 -0.1049 -0.0670  0.1868
  323TMC3    C3 4850   2.342   2.671  14.254 -0.2737 -0.0152  0.1652
  323TMC3    C4 4851   2.233   2.436  14.300  0.0710  0.5154  0.5607
  323TMC3    C5 4852   2.348   2.467  14.360 -0.5030  0.3197 -0.0987
  323TMC3    C6 4853   2.415   2.584  14.337 -0.0117 -0.0473  0.1167
  323TMC3     C 4854   2.130   2.457  14.101 -0.1124 -0.2344  0.3030
  323TMC3     O 4855   2.133   2.331  14.103  0.2002 -0.3597  0.2745
  323TMC3     H 4856   2.156   2.725  14.155 -0.4532 -0.3989  0.0974
  323TMC3    H1 4857   2.186   2.340  14.317  1.7708 -0.4547 -0.2408
  323TMC3    H2 4858   2.522   2.599  14.349 -0.0075 -1.8569  2.2465
  323TMC3    C7 4859   2.406   2.377  14.451 -0.3353 -0.6274  0.4878
  323TMC3    C8 4860   2.413   2.715  14.134 -0.1187 -0.5080  0.0403
  323TMC3    O1 4861   2.404   2.261  14.412 -0.4352 -0.5295  0.3986
  323TMC3    O2 4862   2.518   2.668  14.097 -0.3542 -0.6221  0.4923
  324MPD2     C 4863   3.869   3.541  14.457 -0.4753 -0.5563  0.3048
  324MPD2    C1 4864   3.836   3.679  14.459  0.0168 -0.6470  0.0928
  324MPD2    C2 4865   3.718   3.716  14.417  0.1331  0.3285  0.0290
  324MPD2    C3 4866   3.628   3.622  14.365  0.1547 -0.4502  0.7495
  324MPD2    C4 4867   3.660   3.486  14.371 -0.1391 -0.1499  0.2127
  324MPD2    C5 4868   3.780   3.449  14.419  0.2221  0.2571  0.7742
  324MPD2     H 4869   3.696   3.822  14.405 -0.0474  0.1772 -0.9861
  324MPD2    H1 4870   3.582   3.417  14.340 -1.7809  2.4934 -1.4820
  324MPD2    H2 4871   3.965   3.508  14.495  1.0802 -0.3614 -3.4947
  324MPD2    H3 4872   3.794   3.342  14.411  2.6649  0.5917  0.6855
  324MPD2     N 4873   3.492   3.645  14.330 -0.1886 -0.1244 -0.5355
  324MPD2    H5 4874   3.439   3.568  14.292  0.9879 -0.7760 -0.8599
  324MPD2    N1 4875   3.916   3.773  14.530  0.3311  0.5257  0.1382
  324MPD2    H7 4876   3.878   3.867  14.535  0.7475  0.7338 -0.5773
  325TMC3    C1 4877   3.289   3.751  14.282 -0.2062  0.1121  0.6937
  325TMC3    C2 4878   3.239   3.623  14.288  0.2525  0.1437 -0.3330
  325TMC3    C3 4879   3.103   3.613  14.256 -0.0811 -0.2715  0.2682
  325TMC3    C4 4880   3.217   3.866  14.261 -0.7179 -0.2596 -0.5953
  325TMC3    C5 4881   3.091   3.848  14.215 -0.5464  0.4940  0.3359
  325TMC3    C6 4882   3.038   3.722  14.203 -0.1152 -0.2904  0.1304
  325TMC3     C 4883   3.427   3.767  14.330  0.1726  0.1779 -0.0294
  325TMC3     O 4884   3.464   3.877  14.364  1.1609  0.0425  1.0923
  325TMC3     H 4885   3.291   3.531  14.312  0.4301 -0.2877 -2.3090
  325TMC3    H1 4886   3.261   3.964  14.264  1.7047 -1.2497 -3.3613
  325TMC3    H2 4887   2.952   3.710  14.138 -0.5879 -1.1631  0.9129
  325TMC3    C7 4888   2.995   3.953  14.218 -0.4146  0.4063 -0.8179
  325TMC3    C8 4889   3.051   3.480  14.232  0.0503  0.4522  0.2384
  325TMC3    O1 4890   3.040   4.063  14.227  0.4524  0.2741  0.1328
  325TMC3    O2 4891   2.994   3.466  14.121 -0.4766  0.1414  0.1783
  326MPD2     C 4892   0.323   4.412  11.315  0.3589  0.0960 -0.0818
  326MPD2    C1 4893   0.245   4.490  11.232  0.8795 -0.8284  0.3645
  326MPD2    C2 4894   0.297   4.610  11.191 -0.1866 -0.4541  0.2930
  326MPD2    C3 4895   0.414   4.663  11.248  0.4270 -0.2310 -0.4756
  326MPD2    C4 4896   0.493   4.585  11.326 -0.0070  0.3678  0.1091
  326MPD2    C5 4897   0.441   4.462  11.357  0.3130 -0.5730  0.4792
  326MPD2     H 4898   0.230   4.663  11.126 -0.1802  0.4654  1.0423
  326MPD2    H1 4899   0.580   4.623  11.377 -1.0276  1.4713  1.0320
  326MPD2    H2 4900   0.300   4.310  11.343 -0.1826  0.3203  0.3077
  326MPD2    H3 4901   0.508   4.395  11.409  0.1480 -0.9847  0.1648
  326MPD2     N 4902   0.465   0.069  11.213  0.0089  0.4498 -0.1556
  326MPD2    H5 4903   0.552   0.094  11.258 -0.8725  2.3494  0.5023
  326MPD2    N1 4904   0.115   4.455  11.189 -0.6799  0.2102 -0.1644
  326MPD2    H7 4905   0.070   4.527  11.134  0.1593 -0.6144 -1.9310
  327TMC3    C1 4906   4.620   4.364  11.219 -0.4283 -1.0173 -0.2013
  327TMC3    C2 4907   4.577   4.450  11.125 -0.9809  0.3921  0.0897
  327TMC3    C3 4908   4.448   4.491  11.135  0.0920  0.3177 -0.4585
  327TMC3    C4 4909   4.541   4.322  11.321  0.4901  0.0476  0.0431
  327TMC3    C5 4910   4.415   4.365  11.324 -0.0403 -0.0472 -0.2356
  327TMC3    C6 4911   4.362   4.451  11.232  0.9159  1.2248  0.2121
  327TMC3     C 4912   0.041   4.341  11.235 -0.3144  0.1314  0.1374
  327TMC3     O 4913   0.073   4.229  11.274 -0.0594  0.1728  0.8529
  327TMC3     H 4914   4.626   4.460  11.029 -0.2027 -1.9620  0.2541
  327TMC3    H1 4915   4.573   4.238  11.382 -0.3961  0.1862  0.6969
  327TMC3    H2 4916   4.258   4.482  11.232  0.2157 -1.1375  0.8073
  327TMC3    C7 4917   4.361   4.386  11.459  0.3515  0.4654 -0.2257
  327TMC3    C8 4918   4.390   4.537  11.011 -0.0072  0.3114  0.6237
  327TMC3    O1 4919   4.244   4.417  11.468  0.0543 -0.9094 -0.4309
  327TMC3    O2 4920   4.472   4.593  10.931 -0.5429 -0.0288  0.0599
  328MPD2     C 4921   2.731   4.182  17.371 -0.2868  0.1935  0.5479
  328MPD2    C1 4922   2.600   4.154  17.355  0.2820 -0.1097 -0.4562
  328MPD2    C2 4923   2.514   4.228  17.284 -0.3643  0.3034  0.2419
  328MPD2    C3 4924   2.558   4.348  17.241 -0.1760 -0.6154  0.0198
  328MPD2    C4 4925   2.693   4.384  17.255  0.7959 -0.1099 -0.4656
  328MPD2    C5 4926   2.776   4.299  17.322  0.3102 -0.6018  0.1899
  328MPD2     H 4927   2.411   4.200  17.268  0.1786 -1.3973 -0.2129
  328MPD2    H1 4928   2.727   4.457  17.181  0.5842 -0.9253 -1.3626
  328MPD2    H2 4929   2.798   4.106  17.410 -0.3649 -0.3056 -0.2870
  328MPD2    H3 4930   2.879   4.331  17.319  0.8094 -2.1955  0.5195
  328MPD2     N 4931   2.482   4.436  17.149  0.0919 -0.4301 -0.6128
  328MPD2    H5 4932   2.537   4.508  17.102  2.3966 -1.6213  0.2418
  328MPD2    N1 4933   2.551   4.031  17.408  0.6538  0.3891  0.2409
  328MPD2    H7 4934   2.614   3.968  17.457  1.5004  0.4554 -0.7910
  329TMC3    C1 4935   2.418   3.843  17.427 -0.3338  0.9580 -0.3866
  329TMC3    C2 4936   2.308   3.790  17.500 -0.2086  0.4878 -0.2378
  329TMC3    C3 4937   2.306   3.654  17.512 -0.1173 -1.0280  0.3749
  329TMC3    C4 4938   2.514   3.766  17.377  0.0699 -0.8249  0.2844
  329TMC3    C5 4939   2.490   3.630  17.373 -0.5529 -0.2839 -0.3232
  329TMC3    C6 4940   2.390   3.568  17.446  0.5205 -0.1676  0.5005
  329TMC3     C 4941   2.423   3.982  17.395 -0.1836  0.7139  0.6276
  329TMC3     O 4942   2.329   4.018  17.328  0.0386  1.0922 -0.6680
  329TMC3     H 4943   2.237   3.861  17.541 -1.2749 -1.6044  1.5511
  329TMC3    H1 4944   2.593   3.812  17.319  1.1726 -0.7161  1.8708
  329TMC3    H2 4945   2.380   3.461  17.438 -1.3410  0.2149 -2.1394
  329TMC3    C7 4946   2.569   3.555  17.281 -0.0184  0.2477 -0.3656
  329TMC3    C8 4947   2.244   3.598  17.630  0.6786 -0.0261  0.3511
  329TMC3    O1 4948   2.614   3.625  17.191  0.0801 -0.3119 -0.5104
  329TMC3    O2 4949   2.232   3.477  17.643  0.3605  0.1211 -0.0133
  330TMC3    C1 4950   0.517   4.146   9.482  1.0673 -1.3166  0.3730
  330TMC3    C2 4951   0.558   4.022   9.520  0.2828 -0.1743  0.0689
  330TMC3    C3 4952   0.693   4.006   9.544  1.2974  0.0559 -0.0427
  330TMC3    C4 4953   0.602   4.255   9.483 -0.4020 -0.4417  0.9563
  330TMC3    C5 4954   0.730   4.231   9.503  0.2414  0.6364 -0.2248
  330TMC3    C6 4955   0.779   4.108   9.530  0.3559  0.2711  0.3874
  330TMC3     C 4956   0.374   4.175   9.449  0.4556 -0.2498  0.5689
  330TMC3     O 4957   0.334   4.284   9.489 -0.4465 -0.4389 -0.2218
  330TMC3     H 4958   0.485   3.944   9.534  0.5287 -0.4421 -0.1451
  330TMC3    H1 4959   0.566   4.337   9.422  0.6971  0.0347  0.9610
  330TMC3    H2 4960   0.886   4.098   9.544  0.5599  1.1269 -0.5274
  330TMC3    C7 4961   0.825   4.338   9.492  0.9927 -0.2507  0.0793
  330TMC3    C8 4962   0.751   3.874   9.551  0.7906 -0.0448 -0.2184
  330TMC3    O1 4963   0.948   4.317   9.516 -0.2290 -0.5371  0.3952
  330TMC3    O2 4964   0.865   3.864   9.508  0.5541  0.5501  0.0080
  331MPD2     C 4965   3.061   2.611  12.852 -0.7575  0.1833 -0.1827
  331MPD2    C1 4966   3.182   2.647  12.799 -0.2980  0.7732 -0.1188
  331MPD2    C2 4967   3.259   2.553  12.735 -0.0405 -0.2964  0.0804
  331MPD2    C3 4968   3.218   2.420  12.729 -0.3885 -0.1561  0.2015
  331MPD2    C4 4969   3.098   2.387  12.785 -0.1749 -0.3298  1.3104
  331MPD2    C5 4970   3.020   2.482  12.849 -0.0570  0.0678 -0.1172
  331MPD2     H 4971   3.347   2.576  12.676 -1.6140  0.8127 -1.8333
  331MPD2    H1 4972   3.057   2.288  12.770  0.1619 -0.3213  0.3476
  331MPD2    H2 4973   2.998   2.683  12.903  0.6567 -0.0306  1.8383
  331MPD2    H3 4974   2.924   2.455  12.891 -0.5644 -1.4027 -2.2487
  331MPD2     N 4975   3.302   2.329  12.659  0.5615  0.0847  1.2424
  331MPD2    H5 4976   3.388   2.371  12.626  0.7587 -0.0453  1.5832
  331MPD2    N1 4977   3.228   2.780  12.802  0.2109  0.0758 -0.5207
  331MPD2    H7 4978   3.156   2.845  12.834  0.0136 -0.9263  1.0421
  332TMC3    C1 4979   3.380   2.146  12.534 -0.2907 -0.0552  0.7493
  332TMC3    C2 4980   3.413   2.231  12.427 -0.6357 -0.7775  0.2092
  332TMC3    C3 4981   3.512   2.186  12.346  0.7211 -0.4512  0.0410
  332TMC3    C4 4982   3.424   2.018  12.541 -0.1794 -0.2568  0.4376
  332TMC3    C5 4983   3.521   1.975  12.453 -0.7337  0.4775 -0.5897
  332TMC3    C6 4984   3.571   2.058  12.360  0.4652  0.1814  0.7300
  332TMC3     C 4985   3.298   2.195  12.641  0.2483  0.5900  0.1664
  332TMC3     O 4986   3.230   2.118  12.704  0.5027  0.1507  0.4928
  332TMC3     H 4987   3.381   2.335  12.423  1.0306 -0.1502  2.8524
  332TMC3    H1 4988   3.397   1.955  12.625  1.5664 -2.3041 -0.5216
  332TMC3    H2 4989   3.654   2.027  12.298 -1.1781 -0.8303 -0.9965
  332TMC3    C7 4990   3.619   1.876  12.503 -0.4711  0.3118  0.0393
  332TMC3    C8 4991   3.546   2.282  12.241 -0.3865  0.5810 -0.3013
  332TMC3    O1 4992   3.591   1.756  12.507  0.0284 -0.3626 -0.2319
  332TMC3    O2 4993   3.510   2.400  12.254  0.4520 -0.0512  0.5864
  333MPD2     C 4994   3.551   2.962  11.495  0.1408  0.2473  0.3491
  333MPD2    C1 4995   3.631   2.871  11.434 -0.2222 -0.6292  0.5492
  333MPD2    C2 4996   3.595   2.739  11.447 -0.2940 -0.7629  0.4868
  333MPD2    C3 4997   3.495   2.695  11.531  0.7937 -0.2812 -0.6174
  333MPD2    C4 4998   3.425   2.789  11.599  0.1144 -0.6351  0.2732
  333MPD2    C5 4999   3.446   2.921  11.574  0.3238  0.0518 -0.3741
  333MPD2     H 5000   3.666   2.666  11.411 -0.1907 -0.5485  0.2547
  333MPD2    H1 5001   3.352   2.766  11.676  0.1982 -0.6632  0.3444
  333MPD2    H2 5002   3.571   3.068  11.486  1.1988  0.0107 -0.1070
  333MPD2    H3 5003   3.395   3.001  11.627  1.7914 -0.1824  1.4300
  333MPD2     N 5004   3.493   2.554  11.562 -0.5647 -0.3618 -0.1751
  333MPD2    H5 5005   3.561   2.498  11.511 -0.7666 -1.5674  0.8853
  333MPD2    N1 5006   3.737   2.920  11.357  0.7530  0.4639 -0.0495
  333MPD2    H7 5007   3.763   3.018  11.365  1.1304  0.4019 -0.4655
  334TMC3    C1 5008   3.935   2.940  11.245 -0.5492 -0.0186 -0.4503
  334TMC3    C2 5009   4.049   2.877  11.203  0.5593  0.0958 -0.5985
  334TMC3    C3 5010   4.150   2.948  11.146  0.3868 -0.5301  0.6097
  334TMC3    C4 5011   3.925   3.072  11.230  0.3621  0.3475 -0.7324
  334TMC3    C5 5012   4.024   3.146  11.175  0.1589 -0.0580  0.4869
  334TMC3    C6 5013   4.131   3.079  11.127 -0.8786  0.6524  0.0211
  334TMC3     C 5014   3.826   2.853  11.284 -0.0631 -0.2292 -0.1902
  334TMC3     O 5015   3.839   2.731  11.261  0.0000  0.3549  0.5587
  334TMC3     H 5016   4.061   2.771  11.221 -0.5983  0.0861  0.1714
  334TMC3    H1 5017   3.829   3.122  11.236  0.1763  0.1597 -2.1007
  334TMC3    H2 5018   4.210   3.131  11.074  1.1067 -0.7451  1.6087
  334TMC3    C7 5019   3.989   3.274  11.123  0.0507 -0.4178 -0.2770
  334TMC3    C8 5020   4.248   2.883  11.056  0.7799  0.4185  0.7154
  334TMC3    O1 5021   4.026   3.373  11.182  0.0099  0.3095 -0.0064
  334TMC3    O2 5022   4.215   2.791  10.989  0.1833 -0.7098 -0.7231
  335TMC3    C1 5023   3.260   4.429  17.615 -0.0576 -0.2850 -0.0150
  335TMC3    C2 5024   3.174   4.394  17.511 -1.2259  0.0331 -0.6197
  335TMC3    C3 5025   3.208   4.425  17.379 -0.6026 -0.3356  0.6488
  335TMC3    C4 5026   3.382   4.493  17.596  0.4426 -0.0331 -0.0704
  335TMC3    C5 5027   3.413   4.516  17.465 -0.0122  1.0780 -0.3958
  335TMC3    C6 5028   3.329   4.488  17.360  0.5625 -0.1931  0.1461
  335TMC3     C 5029   3.202   4.411   0.064 -0.3275  0.3242  0.2886
  335TMC3     O 5030   3.106   4.336   0.069 -0.2935  0.2044  0.3859
  335TMC3     H 5031   3.082   4.340  17.528 -0.5776 -0.1213  2.2621
  335TMC3    H1 5032   3.427   4.548  17.678 -0.8028 -1.1924  1.4005
  335TMC3    H2 5033   3.368   4.504  17.260  3.9455 -1.8740  1.2103
  335TMC3    C7 5034   3.529   4.601  17.436 -0.0420 -1.2543 -0.2379
  335TMC3    C8 5035   3.148   4.351  17.264  0.4859 -0.3500 -0.2685
  335TMC3    O1 5036   3.534   4.667  17.332 -0.0477  0.2064 -0.0724
  335TMC3    O2 5037   3.175   4.396  17.153  0.7954 -0.5517  0.5091
  336MPD2     C 5038   3.462   2.513  16.326  0.4378  0.8920 -0.6178
  336MPD2    C1 5039   3.473   2.439  16.208  1.5986 -0.1328 -0.6564
  336MPD2    C2 5040   3.525   2.312  16.232 -0.1705 -0.3264  0.3447
  336MPD2    C3 5041   3.537   2.253  16.355  0.0714  0.3925 -0.0044
  336MPD2    C4 5042   3.520   2.334  16.466  0.0201  0.1973 -0.0484
  336MPD2    C5 5043   3.483   2.463  16.451 -0.2604 -0.3679 -0.5491
  336MPD2     H 5044   3.548   2.251  16.145 -0.6534 -1.7319  1.1978
  336MPD2    H1 5045   3.520   2.289  16.565 -1.7747  2.0266  0.7995
  336MPD2    H2 5046   3.428   2.616  16.323  0.7720  1.0637  2.0749
  336MPD2    H3 5047   3.475   2.529  16.537  0.7394  1.1672 -1.6255
  336MPD2     N 5048   3.553   2.113  16.375 -0.0077 -0.6793 -0.3191
  336MPD2    H5 5049   3.537   2.075  16.467  1.7965 -2.6784 -0.8140
  336MPD2    N1 5050   3.434   2.477  16.077  0.0182  0.9852  0.1029
  336MPD2    H7 5051   3.476   2.423  16.002  0.8199 -0.4450  1.5718
  337TMC3    C1 5052   3.328   2.605  15.903 -0.3211 -0.5135  0.3164
  337TMC3    C2 5053   3.203   2.633  15.861 -0.1453 -0.1156  0.5640
  337TMC3    C3 5054   3.162   2.618  15.733  0.5111  0.4241  0.2842
  337TMC3    C4 5055   3.424   2.558  15.817 -0.3899 -0.5580 -0.2907
  337TMC3    C5 5056   3.383   2.549  15.683 -0.0354  0.8227  0.3487
  337TMC3    C6 5057   3.254   2.570  15.639 -0.3402 -0.8753 -0.0103
  337TMC3     C 5058   3.358   2.590  16.047  0.1775  0.5971  0.1467
  337TMC3     O 5059   3.297   2.654  16.131 -0.1702 -0.4046  0.0549
  337TMC3     H 5060   3.129   2.665  15.934  0.7092  0.2371  1.2754
  337TMC3    H1 5061   3.528   2.561  15.848  0.1391  0.9811 -2.2015
  337TMC3    H2 5062   3.236   2.551  15.534 -2.4591  1.1800 -0.0197
  337TMC3    C7 5063   3.467   2.493  15.580 -0.4146 -0.2486 -0.1924
  337TMC3    C8 5064   3.016   2.612  15.716  0.5737 -0.7313 -0.1737
  337TMC3    O1 5065   3.427   2.504  15.466 -0.3461 -0.3747  0.6460
  337TMC3    O2 5066   2.944   2.673  15.793  0.5139  0.2915  0.6114
  338MPD2     C 5067   3.006   1.052   0.693 -0.3351  0.0775  0.7978
  338MPD2    C1 5068   3.028   1.099   0.566  0.1907  0.3170 -0.3819
  338MPD2    C2 5069   2.942   1.203   0.535 -0.8902  0.2452 -0.4428
  338MPD2    C3 5070   2.847   1.266   0.615 -0.2996 -0.3022 -0.1552
  338MPD2    C4 5071   2.828   1.206   0.739  0.4241 -0.5271 -0.0485
  338MPD2    C5 5072   2.910   1.106   0.773 -0.4153 -0.3585  0.9687
  338MPD2     H 5073   2.950   1.250   0.437 -0.6719  0.9644 -0.0744
  338MPD2    H1 5074   2.771   1.241   0.824  0.5155  2.3875 -1.1774
  338MPD2    H2 5075   3.057   0.961   0.722  0.2355 -0.5317 -2.1161
  338MPD2    H3 5076   2.889   1.073   0.874  1.2302  0.4362  1.5832
  338MPD2     N 5077   2.780   1.377   0.561  0.1027  0.0687  0.6338
  338MPD2    H5 5078   2.815   1.413   0.472 -0.9280 -1.9587 -0.6037
  338MPD2    N1 5079   3.125   1.051   0.471 -0.2574 -0.0461  0.1045
  338MPD2    H7 5080   3.129   1.086   0.376 -0.0271 -0.4893 -0.0520
  339TMC3    C1 5081   2.658   1.575   0.580 -0.2673  0.3222  0.3849
  339TMC3    C2 5082   2.566   1.650   0.646 -0.0669  0.6124  0.1633
  339TMC3    C3 5083   2.529   1.768   0.588  0.2332  0.3540  0.2225
  339TMC3    C4 5084   2.730   1.618   0.477 -0.2613 -0.2451  0.0322
  339TMC3    C5 5085   2.683   1.734   0.418 -0.0587  1.0256  0.2037
  339TMC3    C6 5086   2.587   1.811   0.475  0.0351  0.4914 -0.4411
  339TMC3     C 5087   2.698   1.451   0.638  0.6278  0.7711  0.4378
  339TMC3     O 5088   2.666   1.437   0.753 -0.2196 -0.1117 -0.6063
  339TMC3     H 5089   2.516   1.608   0.732  0.5068 -0.4503 -0.0264
  339TMC3    H1 5090   2.827   1.579   0.447  0.7291  1.2504  1.2642
  339TMC3    H2 5091   2.532   1.877   0.409  0.5533  0.9356 -0.4277
  339TMC3    C7 5092   2.764   1.794   0.320 -0.1979 -0.5428 -0.0077
  339TMC3    C8 5093   2.454   1.869   0.665 -0.5289 -0.0950  0.4807
  339TMC3    O1 5094   2.773   1.915   0.333 -0.0451  0.2912  0.2008
  339TMC3    O2 5095   2.449   1.982   0.613  0.0167 -0.8172 -0.1568
  340MPD2     C 5096   3.127   3.316  10.032 -0.2984 -1.0595 -0.2244
  340MPD2    C1 5097   3.236   3.393  10.001  0.1400  0.7388 -0.1510
  340MPD2    C2 5098   3.248   3.521  10.054  0.0647  0.9709 -0.3291
  340MPD2    C3 5099   3.144   3.576  10.132 -0.0115  0.5387 -0.7560
  340MPD2    C4 5100   3.039   3.499  10.171  0.1277  0.6693 -0.4017
  340MPD2    C5 5101   3.028   3.373  10.114  0.0279 -0.1440 -0.3027
  340MPD2     H 5102   3.331   3.589  10.039  1.5933 -0.9424 -0.5499
  340MPD2    H1 5103   2.955   3.537  10.226  0.5497  0.3738  0.4444
  340MPD2    H2 5104   3.123   3.209  10.018  1.7239 -0.9325 -1.6840
  340MPD2    H3 5105   2.944   3.315  10.149  2.0768 -2.5289  0.6543
  340MPD2     N 5106   3.157   3.700  10.201  0.2574  0.5712 -0.0812
  340MPD2    H5 5107   3.094   3.715  10.280  2.1615  0.3800  1.4945
  340MPD2    N1 5108   3.343   3.335   9.937  0.8138  0.3144 -0.2161
  340MPD2    H7 5109   3.348   3.234   9.928  0.4691  0.2863 -0.1035
  341TMC3    C1 5110   3.528   3.301   9.808 -0.2573  0.9641 -0.3335
  341TMC3    C2 5111   3.496   3.168   9.795  0.0848 -0.8098 -0.2019
  341TMC3    C3 5112   3.587   3.073   9.759 -0.4988  0.0913  0.4418
  341TMC3    C4 5113   3.651   3.346   9.776  0.5717 -0.5631 -0.7425
  341TMC3    C5 5114   3.737   3.248   9.729  0.3196  0.2055  0.3329
  341TMC3    C6 5115   3.709   3.117   9.715 -0.0193  1.2311 -0.1982
  341TMC3     C 5116   3.440   3.400   9.874  0.4643 -0.8627 -0.6608
  341TMC3     O 5117   3.474   3.515   9.863  0.7100 -0.1950 -0.0760
  341TMC3     H 5118   3.394   3.132   9.807  0.4518 -2.3325 -1.5430
  341TMC3    H1 5119   3.680   3.449   9.792  2.8153 -1.8292  3.2717
  341TMC3    H2 5120   3.772   3.045   9.665 -0.3988  0.9793 -0.3165
  341TMC3    C7 5121   3.874   3.277   9.697 -0.3697 -0.5307 -0.1127
  341TMC3    C8 5122   3.560   2.931   9.774  0.6078 -0.0465  0.4809
  341TMC3    O1 5123   3.948   3.178   9.692 -0.2478  0.0451  0.3725
  341TMC3    O2 5124   3.440   2.902   9.773  0.0974 -0.1890 -0.6408
  342MPD2     C 5125   1.402   2.725  16.771  0.1210  0.7571  0.2980
  342MPD2    C1 5126   1.406   2.705  16.908  0.5425  0.1449  0.4004
  342MPD2    C2 5127   1.341   2.796  16.989  0.1080  0.4545 -0.0697
  342MPD2    C3 5128   1.266   2.898  16.933  0.4994 -0.5537 -0.4199
  342MPD2    C4 5129   1.264   2.912  16.793  0.8181  0.0811 -0.2603
  342MPD2    C5 5130   1.329   2.827  16.712 -0.2979 -0.0268 -0.4768
  342MPD2     H 5131   1.340   2.791  17.097 -0.9720  0.5910 -0.0714
  342MPD2    H1 5132   1.210   2.996  16.750 -1.5922  0.0244  2.6789
  342MPD2    H2 5133   1.449   2.658  16.699 -0.3120 -0.2145  0.9098
  342MPD2    H3 5134   1.314   2.842  16.606  1.2925 -1.5353 -0.9264
  342MPD2     N 5135   1.218   3.005  17.016 -0.1737  0.0064  0.2412
  342MPD2    H5 5136   1.168   3.079  16.968  1.5468  1.7050  1.0827
  342MPD2    N1 5137   1.472   2.590  16.954  0.2001 -0.1112 -0.3411
  342MPD2    H7 5138   1.523   2.536  16.885 -0.2652 -0.4220 -0.4430
  343TMC3    C1 5139   1.572   2.449  17.108  0.3545  0.9933  0.7371
  343TMC3    C2 5140   1.695   2.464  17.049  0.5889  0.1121 -0.0019
  343TMC3    C3 5141   1.784   2.361  17.039 -0.3912  0.1318  0.0090
  343TMC3    C4 5142   1.533   2.318  17.138 -0.0703 -0.4817 -0.5695
  343TMC3    C5 5143   1.619   2.216  17.117  0.2686  0.0348 -0.3488
  343TMC3    C6 5144   1.744   2.227  17.070  0.5662 -0.1998  0.3735
  343TMC3     C 5145   1.461   2.540  17.081 -0.1810 -0.7693  0.2780
  343TMC3     O 5146   1.382   2.558  17.168  0.6246  0.2461 -0.0093
  343TMC3     H 5147   1.715   2.563  17.012  0.3598 -1.2809 -3.7955
  343TMC3    H1 5148   1.430   2.309  17.172 -0.3260  0.8640 -1.0032
  343TMC3    H2 5149   1.797   2.137  17.043 -0.8080 -0.9516  0.2015
  343TMC3    C7 5150   1.573   2.075  17.112  0.5350  0.5212  0.2918
  343TMC3    C8 5151   1.924   2.389  17.011  0.6507  0.0935 -0.5097
  343TMC3    O1 5152   1.606   1.995  17.019 -0.1896 -0.1478  0.6054
  343TMC3    O2 5153   1.947   2.510  16.994 -0.2993  0.4408 -0.2068
  344MPD2     C 5154   2.479   2.330  10.725 -0.5220 -0.6193 -0.1136
  344MPD2    C1 5155   2.422   2.257  10.618  0.2175 -0.0601 -0.4088
  344MPD2    C2 5156   2.452   2.290  10.482 -0.2775  0.2673 -0.1380
  344MPD2    C3 5157   2.540   2.396  10.452 -0.0107  0.0983  0.6090
  344MPD2    C4 5158   2.584   2.471  10.560  0.7877  0.5412  0.2322
  344MPD2    C5 5159   2.560   2.435  10.687 -0.2705  0.1141  0.4017
  344MPD2     H 5160   2.418   2.221  10.406  0.4216 -1.2516  0.9144
  344MPD2    H1 5161   2.648   2.556  10.542  0.0355  1.1395  0.3688
  344MPD2    H2 5162   2.472   2.301  10.829  2.0510 -1.2286 -0.1190
  344MPD2    H3 5163   2.610   2.493  10.763  1.4721  0.5210 -1.0581
  344MPD2     N 5164   2.593   2.426  10.325  1.1439 -0.3808 -0.6928
  344MPD2    H5 5165   2.656   2.505  10.315  1.6294 -0.5776  0.8412
  344MPD2    N1 5166   2.326   2.153  10.625 -0.6025  0.6166  0.0278
  344MPD2    H7 5167   2.289   2.113  10.539 -1.8878 -0.4496  1.0687
  345TMC3    C1 5168   2.640   2.404  10.103 -0.3286 -0.1202 -0.4000
  345TMC3    C2 5169   2.776   2.399  10.112 -0.1780 -0.2964  0.3758
  345TMC3    C3 5170   2.843   2.441   9.996 -0.4017 -0.4552 -0.2237
  345TMC3    C4 5171   2.573   2.452   9.988  0.4479 -0.2475  0.2687
  345TMC3    C5 5172   2.650   2.508   9.887  0.0517  0.0888 -0.4233
  345TMC3    C6 5173   2.782   2.485   9.883 -0.9778 -0.3315 -0.1868
  345TMC3     C 5174   2.548   2.365  10.209 -0.5070 -0.0196  0.4372
  345TMC3     O 5175   2.448   2.302  10.179  0.3682 -0.2823  0.6368
  345TMC3     H 5176   2.818   2.347  10.197  0.9379  0.0449  0.0245
  345TMC3    H1 5177   2.465   2.464   9.988  0.5313  0.4362  1.1382
  345TMC3    H2 5178   2.828   2.535   9.799 -0.4230 -1.5038 -0.5893
  345TMC3    C7 5179   2.624   2.651   9.878  0.3353  0.7152 -0.4757
  345TMC3    C8 5180   2.977   2.497   9.998 -0.1798  0.2827 -0.4674
  345TMC3    O1 5181   2.685   2.735   9.939  0.3895  0.2346 -0.0629
  345TMC3    O2 5182   3.033   2.540   9.901  0.4210  0.0327  0.5698
  346MPD2     C 5183   2.640   3.127  14.159 -0.4363 -0.7908  0.0441
  346MPD2    C1 5184   2.623   3.258  14.117 -0.0882 -0.2530  0.4727
  346MPD2    C2 5185   2.565   3.344  14.215  0.1693  0.3669  0.8639
  346MPD2    C3 5186   2.546   3.299  14.347 -0.0590 -0.6287  0.4230
  346MPD2    C4 5187   2.582   3.172  14.382 -0.5064  0.0018  0.3745
  346MPD2    C5 5188   2.626   3.083  14.291  0.2031 -0.0352  0.8379
  346MPD2     H 5189   2.547   3.445  14.180  1.1327 -0.4465 -1.9777
  346MPD2    H1 5190   2.571   3.130  14.481 -2.0382  0.8941  0.5870
  346MPD2    H2 5191   2.678   3.054  14.089  0.3190  0.9481 -1.3487
  346MPD2    H3 5192   2.667   2.988  14.323 -1.5600 -0.8670  0.6365
  346MPD2     N 5193   2.480   3.393  14.434 -0.3027 -0.0091  0.3613
  346MPD2    H5 5194   2.486   3.492  14.414 -0.8414 -0.1516 -0.4884
  346MPD2    N1 5195   2.660   3.303  13.988 -0.0856  0.4662  0.0627
  346MPD2    H7 5196   2.638   3.398  13.960  1.0549  1.5019  2.6819
  347TMC3    C1 5197   2.373   3.464  14.629 -0.5633  1.0011 -0.2305
  347TMC3    C2 5198   2.342   3.576  14.554 -0.3553 -0.0447 -0.7094
  347TMC3    C3 5199   2.377   3.696  14.601 -0.3274  0.0544  0.7194
  347TMC3    C4 5200   2.418   3.470  14.756  0.9766 -0.1082 -1.2722
  347TMC3    C5 5201   2.463   3.589  14.798 -0.0063  0.2219 -0.6245
  347TMC3    C6 5202   2.442   3.702  14.726  0.4455  0.7046 -0.1408
  347TMC3     C 5203   2.422   3.354  14.551 -1.1083  0.7526  0.3066
  347TMC3     O 5204   2.431   3.245  14.608  0.2949  0.4441 -0.0148
  347TMC3     H 5205   2.282   3.565  14.464 -0.9352  0.6685 -0.4143
  347TMC3    H1 5206   2.417   3.377  14.811 -0.1396  0.6895  0.0588
  347TMC3    H2 5207   2.501   3.789  14.754 -1.5290  2.3394 -1.0520
  347TMC3    C7 5208   2.477   3.592  14.943  0.0991  1.0781 -0.1460
  347TMC3    C8 5209   2.432   3.773  14.495 -0.3544 -0.3955  0.1073
  347TMC3    O1 5210   2.507   3.490  14.995  0.0813  0.4517 -0.0331
  347TMC3    O2 5211   2.438   3.713  14.388 -0.0781 -0.1709 -0.2061
  348MPD2     C 5212   1.184   3.559  12.155 -0.8971 -0.1794 -1.0073
  348MPD2    C1 5213   1.310   3.597  12.123 -0.1184  0.0115  0.5555
  348MPD2    C2 5214   1.341   3.652  12.002  0.3461 -0.6557 -0.1259
  348MPD2    C3 5215   1.241   3.662  11.900 -0.3516  0.6294 -0.1912
  348MPD2    C4 5216   1.119   3.601  11.932  0.3512 -0.1122  0.9505
  348MPD2    C5 5217   1.083   3.560  12.058 -0.2336  0.1880  0.1743
  348MPD2     H 5218   1.436   3.704  11.999  0.5069 -1.0218 -1.3212
  348MPD2    H1 5219   1.040   3.595  11.858  1.1696  3.7305 -0.2346
  348MPD2    H2 5220   1.163   3.505  12.247 -2.1938  0.5350 -0.8802
  348MPD2    H3 5221   0.979   3.533  12.069 -0.7155  1.8836 -0.1675
  348MPD2     N 5222   1.273   3.729  11.782 -0.1103 -0.8726 -0.2941
  348MPD2    H5 5223   1.368   3.765  11.775 -0.8420  1.0233 -0.5809
  348MPD2    N1 5224   1.424   3.583  12.206 -0.2159 -0.2325  0.0319
  348MPD2    H7 5225   1.518   3.597  12.170 -1.0149 -1.9108 -2.7235
  349TMC3    C1 5226   1.559   3.491  12.365 -0.1041  0.2724 -0.0245
  349TMC3    C2 5227   1.558   3.356  12.403  0.0446 -0.3273 -0.3096
  349TMC3    C3 5228   1.651   3.273  12.351  0.3911  0.0743 -0.1410
  349TMC3    C4 5229   1.656   3.543  12.287  0.0615 -0.1801 -0.3676
  349TMC3    C5 5230   1.742   3.453  12.229 -0.5035 -0.0102  0.4486
  349TMC3    C6 5231   1.744   3.316  12.260 -0.2437 -0.4189  0.3533
  349TMC3     C 5232   1.423   3.533  12.334 -0.2599 -1.2304 -0.1528
  349TMC3     O 5233   1.334   3.491  12.407 -0.3519 -0.1226  0.2445
  349TMC3     H 5234   1.481   3.306  12.460  1.0020 -1.1002  0.3034
  349TMC3    H1 5235   1.660   3.649  12.265  1.5369 -0.5642 -1.9565
  349TMC3    H2 5236   1.820   3.250  12.219 -2.3816 -1.0123 -2.6698
  349TMC3    C7 5237   1.772   3.474  12.088  0.1544  0.5550 -0.3265
  349TMC3    C8 5238   1.650   3.134  12.393 -0.9337  0.3150  0.0435
  349TMC3    O1 5239   1.779   3.374  12.018  0.0007  0.2665 -0.0547
  349TMC3    O2 5240   1.586   3.115  12.495 -0.2258  0.3358 -0.1837
  350MPD2     C 5241   4.621   0.932  10.028 -1.0114 -0.5200  1.1412
  350MPD2    C1 5242   0.005   0.842  10.021 -0.5001 -0.6905 -0.0248
  350MPD2    C2 5243   0.134   0.883  10.044  0.3452  0.5538  0.3362
  350MPD2    C3 5244   0.166   1.017  10.076 -0.4638  0.4726  0.2177
  350MPD2    C4 5245   0.060   1.106  10.066  0.1862  0.8656 -0.2682
  350MPD2    C5 5246   4.650   1.068  10.054  0.1841  0.0050 -0.3432
  350MPD2     H 5247   0.207   0.803  10.038 -0.9991 -0.6890  0.5809
  350MPD2    H1 5248   0.069   1.213  10.083  1.3660  0.7862 -0.3989
  350MPD2    H2 5249   4.516   0.912  10.009 -0.8363 -0.6507  0.2948
  350MPD2    H3 5250   4.563   1.129  10.076 -1.2079 -1.9456 -0.4371
  350MPD2     N 5251   0.302   1.052  10.099 -0.5078  0.0769  0.0111
  350MPD2    H5 5252   0.360   0.971  10.114  1.0495  1.5320  1.7981
  350MPD2    N1 5253   4.703   0.706   9.993 -0.3123 -0.2887 -0.4174
  350MPD2    H7 5254   0.063   0.647   9.975  0.6305  1.2250 -1.1533
  351TMC3    C1 5255   4.577   0.520   9.931 -0.3059 -0.2934 -0.4980
  351TMC3    C2 5256   4.686   0.479   9.857 -0.1391  0.2819  0.6192
  351TMC3    C3 5257   4.672   0.354   9.802 -0.4477 -0.2787  0.4569
  351TMC3    C4 5258   4.464   0.453   9.949 -0.2431  0.2497 -0.6374
  351TMC3    C5 5259   4.458   0.318   9.900  0.0281 -0.3568 -0.1697
  351TMC3    C6 5260   4.562   0.270   9.825 -0.6810  0.4114 -0.4604
  351TMC3     C 5261   4.578   0.652   9.988 -0.1935 -0.5650 -0.8122
  351TMC3     O 5262   4.470   0.697  10.024 -0.0121 -0.0787  0.5423
  351TMC3     H 5263   0.048   0.542   9.828  1.5574 -1.8533  0.8223
  351TMC3    H1 5264   4.373   0.504   9.980  1.2770  1.7046  1.4953
  351TMC3    H2 5265   4.570   0.165   9.800 -0.9234  0.1939  0.3983
  351TMC3    C7 5266   4.331   0.247   9.923 -1.0281 -0.3454  0.8128
  351TMC3    C8 5267   0.067   0.297   9.739  0.0260  0.0266  0.5162
  351TMC3    O1 5268   4.242   0.302   9.985  0.5183 -0.1711  0.4290
  351TMC3    O2 5269   0.173   0.357   9.754  0.5147  0.3117 -0.5011
  352MPD2     C 5270   4.086   2.841   1.238  0.0662 -0.0991  0.2546
  352MPD2    C1 5271   3.960   2.813   1.296  0.4654  0.2629  0.7153
  352MPD2    C2 5272   3.950   2.695   1.374  0.0549  0.1596 -0.2163
  352MPD2    C3 5273   4.059   2.612   1.398 -0.0651 -0.1974  0.4001
  352MPD2    C4 5274   4.181   2.645   1.343 -0.3607 -0.2211 -0.0622
  352MPD2    C5 5275   4.194   2.760   1.269 -0.1392  0.5708  0.4327
  352MPD2     H 5276   3.846   2.679   1.402 -0.5703  1.5918 -1.6328
  352MPD2    H1 5277   4.267   2.583   1.364 -0.9019 -1.4626 -1.5698
  352MPD2    H2 5278   4.105   2.918   1.164  0.1198  0.8702  1.2645
  352MPD2    H3 5279   4.290   2.800   1.238  0.1395 -1.3511 -1.1823
  352MPD2     N 5280   4.047   2.481   1.464  0.4217  0.1312 -0.2635
  352MPD2    H5 5281   4.127   2.420   1.451 -1.2945 -1.8811 -1.3074
  352MPD2    N1 5282   3.844   2.896   1.262  0.6415  0.3342 -0.1657
  352MPD2    H7 5283   3.751   2.865   1.288 -0.5754  1.1395 -3.5662
  353TMC3    C1 5284   3.913   2.301   1.547 -0.8816 -0.1281 -0.3740
  353TMC3    C2 5285   4.027   2.223   1.540 -0.4430 -0.6650  0.3006
  353TMC3    C3 5286   4.036   2.116   1.452  0.6161 -0.1769  0.3047
  353TMC3    C4 5287   3.818   2.274   1.460  0.4389 -0.2043 -0.1222
  353TMC3    C5 5288   3.836   2.187   1.361 -0.1631 -0.2110 -0.1447
  353TMC3    C6 5289   3.943   2.101   1.357  0.0173  0.0679  0.0895
  353TMC3     C 5290   3.938   2.443   1.546 -0.6716 -0.1880  0.4327
  353TMC3     O 5291   3.846   2.508   1.590 -0.2327 -0.0465  0.2569
  353TMC3     H 5292   4.111   2.254   1.602 -2.2116 -0.1207  2.4540
  353TMC3    H1 5293   3.738   2.347   1.458  1.2251  0.6912  1.2283
  353TMC3    H2 5294   3.957   2.042   1.267  2.2466  0.9702 -0.1565
  353TMC3    C7 5295   3.770   2.209   1.229  0.8631 -0.2991 -0.1447
  353TMC3    C8 5296   4.144   2.025   1.469  0.5121 -0.0896  0.2500
  353TMC3    O1 5297   3.786   2.123   1.139 -0.5094  0.0463  0.1122
  353TMC3    O2 5298   4.202   2.022   1.575  0.0729 -0.4180 -0.2496
  354TMC3    C1 5299   0.166   4.574  13.555  0.3368 -1.0384 -0.2083
  354TMC3    C2 5300   0.289   4.612  13.601 -0.3735 -0.1948 -0.0786
  354TMC3    C3 5301   0.361   4.695  13.526  0.8385  0.4393  0.0348
  354TMC3    C4 5302   0.105   4.630  13.444 -0.2774 -0.0812 -0.5137
  354TMC3    C5 5303   0.187   4.709  13.368 -1.0682  0.3572  0.3204
  354TMC3    C6 5304   0.317   0.026  13.410  0.0376  0.1068  0.2018
  354TMC3     C 5305   0.085   4.493  13.646 -0.0871  0.1308  0.2111
  354TMC3     O 5306   4.685   4.508  13.652 -0.3335 -0.1111 -0.3985
  354TMC3     H 5307   0.336   4.567  13.688  1.6733 -0.4597 -1.3193
  354TMC3    H1 5308   0.005   4.601  13.416 -1.0221  0.1338  1.8692
  354TMC3    H2 5309   0.383   0.061  13.333 -0.7906  0.6146 -0.2761
  354TMC3    C7 5310   0.137   0.065  13.254  0.1462  0.0721  0.7428
  354TMC3    C8 5311   0.510   4.704  13.549  0.4897 -0.0735  0.3475
  354TMC3    O1 5312   0.047   0.026  13.178 -0.1204  0.9606  0.6693
  354TMC3    O2 5313   0.555   4.609  13.609  0.4285  0.4552 -0.1464
  355MPD2     C 5314   1.144   0.664  12.437 -0.1508 -0.5979  0.2313
  355MPD2    C1 5315   1.095   0.707  12.313 -0.1643 -0.5809  0.5636
  355MPD2    C2 5316   1.183   0.758  12.218  0.0535 -0.4612  0.7878
  355MPD2    C3 5317   1.311   0.790  12.258  0.1856  0.0248 -0.4699
  355MPD2    C4 5318   1.349   0.765  12.390  0.3871 -0.0466 -0.3367
  355MPD2    C5 5319   1.269   0.706  12.473  0.3428  0.8138 -0.1912
  355MPD2     H 5320   1.155   0.772  12.115  0.0146 -2.2421  0.5652
  355MPD2    H1 5321   1.437   0.817  12.426 -0.1097  0.6914 -0.1861
  355MPD2    H2 5322   1.088   0.606  12.509  2.0181 -0.1227  2.3167
  355MPD2    H3 5323   1.282   0.708  12.581  0.1559 -0.9677 -0.1420
  355MPD2     N 5324   1.396   0.875  12.174  0.2858 -0.8169  0.0394
  355MPD2    H5 5325   1.483   0.905  12.216 -1.1505  3.2760  0.1246
  355MPD2    N1 5326   0.962   0.677  12.279  0.0466 -0.4636 -0.5909
  355MPD2    H7 5327   0.915   0.617  12.346 -0.2539  1.6887  1.1002
  356TMC3    C1 5328   1.458   1.038  12.024  0.0498 -0.9657  0.7234
  356TMC3    C2 5329   1.427   1.115  11.907  0.4513 -0.2834  0.4231
  356TMC3    C3 5330   1.478   1.243  11.897  0.8916 -0.2672  0.3305
  356TMC3    C4 5331   1.540   1.086  12.121  0.4409  0.2118  0.0275
  356TMC3    C5 5332   1.590   1.212  12.098 -0.1680  0.6526 -0.1498
  356TMC3    C6 5333   1.556   1.291  11.998  1.3140  0.1134  0.1508
  356TMC3     C 5334   1.359   0.934  12.054 -0.5371 -0.3679  0.1366
  356TMC3     O 5335   1.262   0.910  11.982 -0.0139  0.0724  0.1998
  356TMC3     H 5336   1.351   1.080  11.838 -0.5909 -0.0455  1.4522
  356TMC3    H1 5337   1.587   1.028  12.199  1.1429 -1.3018 -1.5247
  356TMC3    H2 5338   1.602   1.388  11.979  0.9299  0.5338  1.3934
  356TMC3    C7 5339   1.677   1.259  12.202  0.2740  0.2241 -0.0859
  356TMC3    C8 5340   1.491   1.304  11.769 -0.2193  0.6115 -0.6252
  356TMC3    O1 5341   1.739   1.170  12.255  0.2927  0.2516 -0.3192
  356TMC3    O2 5342   1.434   1.242  11.677 -0.2881 -0.4189  0.1070
  357MPD2     C 5343   0.023   0.736   1.439  0.0642  0.7073 -0.3722
  357MPD2    C1 5344   4.696   0.608   1.432 -0.2692  0.2393 -0.2043
  357MPD2    C2 5345   4.565   0.584   1.381  0.1772 -0.2000 -0.2820
  357MPD2    C3 5346   4.482   0.690   1.341  0.6608  0.1188 -0.4854
  357MPD2    C4 5347   4.531   0.821   1.355 -1.1467  0.7430 -0.2564
  357MPD2    C5 5348   4.661   0.843   1.392 -0.8375  0.3081  0.3084
  357MPD2     H 5349   4.524   0.483   1.378  0.7660 -0.4849  1.1890
  357MPD2    H1 5350   4.472   0.905   1.321 -1.6566 -0.1063 -1.5198
  357MPD2    H2 5351   0.127   0.753   1.462 -0.2188 -0.0973  1.5285
  357MPD2    H3 5352   4.705   0.943   1.392 -0.4512  0.1335 -1.9114
  357MPD2     N 5353   4.351   0.680   1.296  0.2767  0.4170  0.2686
  357MPD2    H5 5354   4.306   0.770   1.279  1.0361  0.6609 -0.4347
  357MPD2    N1 5355   0.061   0.500   1.459 -0.0789 -0.0890 -0.2094
  357MPD2    H7 5356   0.160   0.521   1.447 -0.2895  1.0479  0.0299
  358TMC3    C1 5357   0.127   0.280   1.449 -0.7959 -0.1062  0.5649
  358TMC3    C2 5358   0.102   0.182   1.358 -0.6397  0.2222  0.3530
  358TMC3    C3 5359   0.197   0.110   1.302 -0.3919 -0.5045 -0.4305
  358TMC3    C4 5360   0.254   0.310   1.489 -0.4577 -0.0119 -0.0099
  358TMC3    C5 5361   0.350   0.224   1.440 -0.1732  0.3860 -1.1167
  358TMC3    C6 5362   0.327   0.133   1.345 -0.5074  0.0858 -0.2335
  358TMC3     C 5363   0.018   0.372   1.471 -0.3880 -0.2074  0.3703
  358TMC3     O 5364   4.632   0.325   1.509 -0.2634 -0.4068  0.2370
  358TMC3     H 5365   4.717   0.165   1.339 -0.1631 -0.8276 -1.3394
  358TMC3    H1 5366   0.277   0.391   1.558  0.6803 -0.6774  0.3968
  358TMC3    H2 5367   0.400   0.056   1.321 -0.5779  0.4879 -1.7634
  358TMC3    C7 5368   0.489   0.248   1.490 -0.4722  0.0191 -0.0091
  358TMC3    C8 5369   0.183   0.052   1.171 -0.1224 -0.6242  0.2594
  358TMC3    O1 5370   0.565   0.192   1.414  0.3249 -0.5246  0.0662
  358TMC3    O2 5371   0.282   0.019   1.108 -0.2054 -0.1436 -0.1564
  359MPD2     C 5372   0.844   0.092  12.727 -0.2345  0.0924  0.5971
  359MPD2    C1 5373   0.842   4.698  12.644 -0.0625 -0.6828 -0.4502
  359MPD2    C2 5374   0.723   4.627  12.621 -0.5154 -0.2440 -0.1945
  359MPD2    C3 5375   0.606   4.656  12.684  0.8500  0.2836  0.5729
  359MPD2    C4 5376   0.607   0.052  12.753  0.4232  0.4270 -0.4457
  359MPD2    C5 5377   0.721   0.133  12.776  0.3531  0.6203  0.1473
  359MPD2     H 5378   0.733   4.547  12.547  0.8011  0.4932 -0.8283
  359MPD2    H1 5379   0.519   0.088  12.806  0.3933  2.6113 -1.9600
  359MPD2    H2 5380   0.933   0.148  12.753  0.9791 -0.6191 -1.9926
  359MPD2    H3 5381   0.710   0.222  12.838 -1.2836 -0.1900  1.0319
  359MPD2     N 5382   0.497   4.568  12.682  0.0899  0.3686 -0.4936
  359MPD2    H5 5383   0.409   4.608  12.715 -0.8932 -1.8951 -0.3978
  359MPD2    N1 5384   0.959   4.655  12.576 -0.3825 -0.0269  0.0224
  359MPD2    H7 5385   0.947   4.571  12.519  0.4910 -0.7839  0.9730
  360TMC3    C1 5386   1.155   4.646  12.456 -0.1197 -0.1043  0.1873
  360TMC3    C2 5387   1.221   4.721  12.357  0.0447  0.4399  0.3972
  360TMC3    C3 5388   1.223   4.679  12.225 -0.2018 -0.5498 -0.2414
  360TMC3    C4 5389   1.102   4.521  12.416 -0.2698  0.3616  0.1443
  360TMC3    C5 5390   1.102   4.492  12.280  0.0547 -0.1408 -0.1490
  360TMC3    C6 5391   1.164   4.562  12.184  0.2279  0.5925  1.0060
  360TMC3     C 5392   1.078   0.002  12.548  0.3849  0.4936 -0.4378
  360TMC3     O 5393   1.120   0.111  12.586  0.3561  0.2928  0.0675
  360TMC3     H 5394   1.233   0.107  12.371 -2.2808  0.7142  0.2145
  360TMC3    H1 5395   1.055   4.455  12.487  0.9389  0.4497  1.0249
  360TMC3    H2 5396   1.160   4.542  12.077  0.1059  2.9561  0.5693
  360TMC3    C7 5397   0.986   4.411  12.239  0.2187  0.1994  0.5330
  360TMC3    C8 5398   1.278   0.041  12.125  0.1732 -0.4329 -0.1259
  360TMC3    O1 5399   0.894   4.388  12.316  0.4997  0.2572 -0.2132
  360TMC3    O2 5400   1.268   0.161  12.138 -0.1799  0.5235 -0.1848
  361MPD2     C 5401   2.448   2.928  16.832 -0.3601 -0.8675 -0.2744
  361MPD2    C1 5402   2.498   2.958  16.960  0.4184 -0.3315  0.2817
  361MPD2    C2 5403   2.557   2.870  17.037 -0.9634 -0.0684  0.3421
  361MPD2    C3 5404   2.579   2.747  16.975 -0.3027  0.4555  0.5568
  361MPD2    C4 5405   2.526   2.712  16.853  0.4393 -0.6766  0.0881
  361MPD2    C5 5406   2.470   2.805  16.777  0.5536  0.6553 -0.0559
  361MPD2     H 5407   2.585   2.903  17.136  0.4058 -0.9435  0.2493
  361MPD2    H1 5408   2.541   2.618  16.802 -0.9577 -0.4069 -0.8422
  361MPD2    H2 5409   2.401   3.003  16.770  1.9688 -1.1025 -2.3102
  361MPD2    H3 5410   2.437   2.778  16.677 -0.4557  0.5918  0.2935
  361MPD2     N 5411   2.670   2.648  17.031 -0.0955 -0.2031  0.2043
  361MPD2    H5 5412   2.702   2.571  16.972  0.9206  0.6205 -0.3231
  361MPD2    N1 5413   2.465   3.084  17.014  0.0100  0.0724  0.2319
  361MPD2    H7 5414   2.470   3.088  17.115 -0.2838 -1.4673  0.3069
  362TMC3    C1 5415   2.424   3.320  16.999  1.0417  0.4247 -0.4179
  362TMC3    C2 5416   2.341   3.310  17.105  0.0949 -0.1256  0.1070
  362TMC3    C3 5417   2.244   3.402  17.126  0.5356  0.6468 -0.1206
  362TMC3    C4 5418   2.418   3.424  16.905  0.2109 -0.5242  0.2057
  362TMC3    C5 5419   2.310   3.505  16.926 -0.2410  1.1564  0.3149
  362TMC3    C6 5420   2.223   3.500  17.036  0.2585 -0.4638  0.2026
  362TMC3     C 5421   2.458   3.199  16.928  0.4928 -0.5897 -0.0463
  362TMC3     O 5422   2.486   3.215  16.808  0.3966 -0.2424 -0.2009
  362TMC3     H 5423   2.334   3.218  17.161  1.4166  1.3437  2.6826
  362TMC3    H1 5424   2.482   3.425  16.818 -3.3442 -2.3743 -2.4128
  362TMC3    H2 5425   2.123   3.542  17.030  0.1075 -1.1356 -2.0615
  362TMC3    C7 5426   2.279   3.611  16.833  0.9589  0.3924  1.3660
  362TMC3    C8 5427   2.145   3.372  17.234  0.3353 -0.3847 -0.2943
  362TMC3    O1 5428   2.185   3.684  16.857 -0.0461 -1.0588 -0.5342
  362TMC3    O2 5429   2.148   3.258  17.286  0.0944  0.1289  0.4592
  363TMC3    C1 5430   1.004   0.772   9.659 -0.5995  0.0444  0.6298
  363TMC3    C2 5431   1.007   0.664   9.749  0.4592  0.2536 -0.2958
  363TMC3    C3 5432   0.899   0.584   9.747 -0.3401  0.4620  0.6062
  363TMC3    C4 5433   0.896   0.804   9.587 -0.2698  0.1235  0.6961
  363TMC3    C5 5434   0.788   0.721   9.595  0.6038  0.6245  0.4642
  363TMC3    C6 5435   0.785   0.613   9.673 -0.0964  1.1743 -0.1854
  363TMC3     C 5436   1.130   0.827   9.631 -0.0070 -0.3673 -0.6297
  363TMC3     O 5437   1.227   0.756   9.664 -0.5593  0.5524 -0.2050
  363TMC3     H 5438   1.095   0.659   9.813  1.4563 -1.1634 -1.7739
  363TMC3    H1 5439   0.910   0.859   9.495 -1.5588 -2.4934 -1.0801
  363TMC3    H2 5440   0.694   0.564   9.704  0.0524  1.5372  0.8110
  363TMC3    C7 5441   0.659   0.766   9.535 -0.3506 -0.0246 -1.2118
  363TMC3    C8 5442   0.896   0.465   9.825  0.0608  0.3542 -0.0692
  363TMC3    O1 5443   0.567   0.682   9.524 -0.4010 -0.0755 -0.4239
  363TMC3    O2 5444   0.792   0.399   9.830 -0.0278 -0.1221  0.3519
  364MPD2     C 5445   4.066   4.525  10.616 -0.2434 -0.7012 -0.2432
  364MPD2    C1 5446   4.172   4.606  10.631 -0.1269  0.4868  0.3860
  364MPD2    C2 5447   4.243   4.607  10.756  0.6064 -0.0929 -0.1901
  364MPD2    C3 5448   4.193   4.521  10.855  0.6831  0.1390 -0.3696
  364MPD2    C4 5449   4.079   4.459  10.838  0.2098 -0.2695  0.6816
  364MPD2    C5 5450   4.007   4.456  10.720 -0.3038  0.1284 -0.1318
  364MPD2     H 5451   4.332   4.668  10.766  1.3277 -1.2213  0.2540
  364MPD2    H1 5452   4.041   4.397  10.919 -1.2957  0.1830  0.3273
  364MPD2    H2 5453   4.013   4.510  10.523 -0.0620 -3.2256  0.0484
  364MPD2    H3 5454   3.918   4.396  10.707 -0.0686  0.3175 -2.5473
  364MPD2     N 5455   4.257   4.498  10.982 -0.8776 -0.4962 -0.2423
  364MPD2    H5 5456   4.213   4.436  11.049  1.0802 -1.9151 -0.2683
  364MPD2    N1 5457   4.222   4.672  10.515  0.6380  0.1857 -0.0707
  364MPD2    H7 5458   4.198   4.623  10.429 -1.5016  0.7786  0.1991
  365TMC3    C1 5459   4.376   0.097  10.388 -0.5333  0.1621  0.5704
  365TMC3    C2 5460   4.422   0.004  10.298 -0.2119  0.4579 -0.1477
  365TMC3    C3 5461   4.513   0.042  10.199 -0.7308 -0.0691  0.1121
  365TMC3    C4 5462   4.437   0.217  10.404 -0.1081  0.3609 -0.3096
  365TMC3    C5 5463   4.533   0.246  10.305  0.4184  0.7402 -0.2222
  365TMC3    C6 5464   4.570   0.162  10.201  0.1436 -0.3181  0.8069
  365TMC3     C 5465   4.315   0.058  10.516  0.2116  0.1565 -0.2460
  365TMC3     O 5466   4.353   0.113  10.616  0.5565  0.2297 -0.1975
  365TMC3     H 5467   4.374   4.628  10.293  1.2486 -0.3360  1.1819
  365TMC3    H1 5468   4.400   0.291  10.474  0.3775  0.4405 -0.1389
  365TMC3    H2 5469   4.640   0.198  10.127 -0.3585  1.0738  1.0094
  365TMC3    C7 5470   4.596   0.378  10.288  0.1246  0.3300 -0.4552
  365TMC3    C8 5471   4.547   4.677  10.084  0.0304 -0.4988 -0.2979
  365TMC3    O1 5472   4.703   0.378  10.233 -0.1717 -0.6779 -0.5154
  365TMC3    O2 5473   4.615   0.013   9.995 -0.2138  0.5673  0.4786
  366MPD2     C 5474   3.403   0.925  15.170  0.5564 -0.7148 -0.2199
  366MPD2    C1 5475   3.424   1.023  15.260  0.8199 -0.5826  0.1815
  366MPD2    C2 5476   3.553   1.068  15.272 -0.0710  0.6532 -0.4308
  366MPD2    C3 5477   3.662   1.025  15.188 -0.0616  0.4681  0.8252
  366MPD2    C4 5478   3.626   0.924  15.101 -0.3967  0.2814  0.0698
  366MPD2    C5 5479   3.498   0.868  15.092  0.2794  0.1786 -0.0585
  366MPD2     H 5480   3.575   1.146  15.344  0.0244  1.4251 -1.2918
  366MPD2    H1 5481   3.688   0.875  15.026 -0.7725 -1.1718  0.6971
  366MPD2    H2 5482   3.306   0.879  15.162 -0.1170  0.9852 -1.7352
  366MPD2    H3 5483   3.487   0.779  15.031 -2.2875  0.3853  0.1120
  366MPD2     N 5484   3.794   1.083  15.169 -0.5703  0.1196  0.1570
  366MPD2    H5 5485   3.858   1.035  15.106 -1.9830 -2.3117  0.5744
  366MPD2    N1 5486   3.320   1.092  15.332  0.3778 -0.0015  0.0820
  366MPD2    H7 5487   3.353   1.164  15.396 -0.4829 -0.9713  1.6379
  367TMC3    C1 5488   3.118   1.201  15.359 -0.2786  1.2475 -0.0363
  367TMC3    C2 5489   3.188   1.280  15.446  0.2697 -0.4258 -0.0978
  367TMC3    C3 5490   3.158   1.413  15.443 -0.6495 -0.3523  0.0098
  367TMC3    C4 5491   3.007   1.237  15.291 -0.1649  0.3879 -0.1943
  367TMC3    C5 5492   2.978   1.373  15.294 -0.0008  0.0264  0.0189
  367TMC3    C6 5493   3.058   1.461  15.359  0.1348 -0.1653 -0.4660
  367TMC3     C 5494   3.183   1.075  15.308  0.1012  0.2314  0.9407
  367TMC3     O 5495   3.120   0.996  15.241  0.2153  0.6151  0.5221
  367TMC3     H 5496   3.276   1.252  15.503  0.4837 -0.3223 -0.3758
  367TMC3    H1 5497   2.959   1.171  15.220 -0.3013  1.7827 -1.3873
  367TMC3    H2 5498   3.044   1.567  15.343  2.8322  0.2912  0.2084
  367TMC3    C7 5499   2.884   1.437  15.208  0.3324 -0.7247  0.1419
  367TMC3    C8 5500   3.242   1.504  15.516  0.0222  0.0771  0.7987
  367TMC3    O1 5501   2.898   1.560  15.186  0.1083  0.2254 -0.2009
  367TMC3    O2 5502   3.344   1.460  15.563  0.1216 -0.2858 -0.2119
  368MPD2     C 5503   3.737   3.530  13.417  0.1090  0.6718 -0.0318
  368MPD2    C1 5504   3.722   3.630  13.315  0.3304  0.0203 -0.7545
  368MPD2    C2 5505   3.830   3.713  13.290  0.0875  0.2594  0.8249
  368MPD2    C3 5506   3.953   3.700  13.357 -0.4394 -0.2495  0.3356
  368MPD2    C4 5507   3.953   3.598  13.459  0.1803  0.7905  0.1374
  368MPD2    C5 5508   3.855   3.509  13.475 -0.4551 -0.4652 -0.4522
  368MPD2     H 5509   3.819   3.796  13.221 -1.4249  0.6230  1.4935
  368MPD2    H1 5510   4.038   3.605  13.526  0.4709 -2.1126  0.0841
  368MPD2    H2 5511   3.650   3.478  13.455 -1.8140  2.7727 -1.4950
  368MPD2    H3 5512   3.869   3.441  13.559  0.4828  0.7890  0.4015
  368MPD2     N 5513   4.069   3.787  13.344  0.6371 -0.1606 -0.2501
  368MPD2    H5 5514   4.150   3.759  13.399  1.1339 -1.0495 -1.4288
  368MPD2    N1 5515   3.594   3.644  13.249 -0.1203 -0.1838  0.4133
  368MPD2    H7 5516   3.521   3.584  13.288  0.2636  0.3338  1.9606
  369TMC3    C1 5517   3.414   3.724  13.111 -0.0438 -0.7865 -0.3008
  369TMC3    C2 5518   3.402   3.755  12.980 -0.0833 -0.3261 -0.2906
  369TMC3    C3 5519   3.276   3.737  12.927 -0.3444 -0.3843 -0.5990
  369TMC3    C4 5520   3.317   3.664  13.183 -0.8792 -0.2496 -1.3045
  369TMC3    C5 5521   3.196   3.631  13.123 -0.4965  0.2999  0.7450
  369TMC3    C6 5522   3.181   3.663  12.986  0.7985 -0.2513 -0.6448
  369TMC3     C 5523   3.558   3.733  13.148  1.2641 -0.3435  0.3938
  369TMC3     O 5524   3.627   3.807  13.084 -0.2598 -0.2080  0.2735
  369TMC3     H 5525   3.482   3.798  12.922  0.4305  0.5834  1.0903
  369TMC3    H1 5526   3.345   3.635  13.284 -1.3486  0.4048 -0.9863
  369TMC3    H2 5527   3.106   3.614  12.925 -0.4436  0.3116  0.4130
  369TMC3    C7 5528   3.135   3.515  13.180 -0.0917  0.1487  0.6513
  369TMC3    C8 5529   3.239   3.778  12.789  0.1572  0.1355  0.3428
  369TMC3    O1 5530   3.220   3.443  13.225 -0.2323 -0.1496 -0.2403
  369TMC3    O2 5531   3.123   3.761  12.754 -0.2368 -0.2390  0.1931
  370TMC3    C1 5532   3.472   4.020  16.296 -0.4391  0.1562 -0.1295
  370TMC3    C2 5533   3.396   3.941  16.378  0.5868 -0.7276 -0.5996
  370TMC3    C3 5534   3.387   3.803  16.358 -0.2730  0.0798  0.5736
  370TMC3    C4 5535   3.536   3.964  16.185  0.0916 -0.1873 -0.1407
  370TMC3    C5 5536   3.528   3.828  16.166  0.5534 -0.0600  0.0145
  370TMC3    C6 5537   3.454   3.741  16.252  0.0925  0.7791 -0.0530
  370TMC3     C 5538   3.543   4.114  16.372  0.1616  0.5087 -0.2749
  370TMC3     O 5539   3.526   4.108  16.493 -0.4936  0.4400 -0.4570
  370TMC3     H 5540   3.334   3.985  16.456  0.4862  1.0743 -1.7122
  370TMC3    H1 5541   3.603   4.026  16.127 -0.5790  1.0927  0.4568
  370TMC3    H2 5542   3.442   3.634  16.237 -0.4901  0.5849  1.6999
  370TMC3    C7 5543   3.610   3.772  16.058 -0.2026  0.2791 -0.2673
  370TMC3    C8 5544   3.357   3.718  16.478  0.2194  0.2076 -0.4333
  370TMC3    O1 5545   3.648   3.856  15.980  0.0183 -0.3072 -0.5939
  370TMC3    O2 5546   3.329   3.601  16.461  0.4475  0.2542 -0.0103
  371TMC3    C1 5547   0.201   2.526  15.520 -0.4125  0.5002 -0.4009
  371TMC3    C2 5548   0.084   2.475  15.564  0.2562  0.3763  0.7992
  371TMC3    C3 5549   4.718   2.559  15.625  0.4540 -1.0408  0.2867
  371TMC3    C4 5550   0.217   2.670  15.517 -0.6371 -0.1814 -0.6090
  371TMC3    C5 5551   0.110   2.750  15.563  0.5699  0.5218 -0.3915
  371TMC3    C6 5552   0.006   2.695  15.624  0.2783  0.3647  0.2346
  371TMC3     C 5553   0.276   2.443  15.424  0.8526 -0.4534  0.7662
  371TMC3     O 5554   0.340   2.502  15.336  0.1422  0.2505  0.4086
  371TMC3     H 5555   0.076   2.367  15.569 -0.0535  0.3126 -1.0956
  371TMC3    H1 5556   0.304   2.716  15.472  0.7832 -0.6037  1.6579
  371TMC3    H2 5557   4.649   2.756  15.668  2.2175  1.8002  1.6786
  371TMC3    C7 5558   0.106   2.896  15.544 -0.2166  0.0915  0.1569
  371TMC3    C8 5559   4.627   2.491  15.719  0.5466  0.0426  0.4148
  371TMC3    O1 5560   0.010   2.952  15.596  0.1396  0.1766  0.4216
  371TMC3    O2 5561   4.657   2.378  15.758 -0.4936 -0.3098 -0.2166
  372MPD2     C 5562   4.036   2.462  13.358  0.0980  0.5441  0.6903
  372MPD2    C1 5563   4.063   2.566  13.447  0.2325 -0.3148 -0.1391
  372MPD2    C2 5564   4.189   2.567  13.501  0.0630  0.1850 -0.2335
  372MPD2    C3 5565   4.270   2.462  13.485  0.4827 -0.2793 -0.0800
  372MPD2    C4 5566   4.238   2.352  13.411 -0.2604  0.0887 -0.0964
  372MPD2    C5 5567   4.116   2.348  13.346 -0.7934 -0.7267 -0.7330
  372MPD2     H 5568   4.223   2.647  13.565  0.7289  0.5206 -1.0168
  372MPD2    H1 5569   4.306   2.269  13.393 -0.8930  0.2199 -3.2128
  372MPD2    H2 5570   3.942   2.457  13.304  1.6747 -0.0917 -1.9896
  372MPD2    H3 5571   4.083   2.260  13.291  0.7607 -2.8149  1.6967
  372MPD2     N 5572   4.401   2.464  13.556 -0.6248  0.1407  0.0532
  372MPD2    H5 5573   4.406   2.539  13.624  2.8469 -0.6614  0.7128
  372MPD2    N1 5574   3.978   2.667  13.480 -0.0280  0.2371 -0.7054
  372MPD2    H7 5575   4.021   2.740  13.535  2.0084 -1.0956 -0.5054
  373TMC3    C1 5576   4.625   2.443  13.615  0.1265  0.0780  0.2508
  373TMC3    C2 5577   4.603   2.547  13.704  0.2384 -0.3715 -0.1757
  373TMC3    C3 5578   4.712   2.593  13.767 -0.0393  0.1677  0.6193
  373TMC3    C4 5579   0.032   2.403  13.580 -0.5172  0.1862  0.3804
  373TMC3    C5 5580   0.142   2.461  13.639 -0.3292  0.8990 -0.4518
  373TMC3    C6 5581   0.125   2.554  13.743  0.2766  0.1925 -0.0418
  373TMC3     C 5582   4.515   2.381  13.536  0.4298 -0.2174 -0.0577
  373TMC3     O 5583   4.536   2.298  13.454 -0.4677 -0.4046 -0.1312
  373TMC3     H 5584   4.507   2.587  13.734  0.3568  0.1225 -0.4454
  373TMC3    H1 5585   0.045   2.332  13.500 -2.3223  1.2039 -0.8172
  373TMC3    H2 5586   0.198   2.581  13.818  1.9733 -1.5415 -1.1001
  373TMC3    C7 5587   0.249   2.365  13.650 -0.5897 -0.2534  0.0801
  373TMC3    C8 5588   4.689   2.697  13.866  0.3887 -0.3056 -0.5275
  373TMC3    O1 5589   0.228   2.252  13.618  0.0348 -0.0124 -0.5449
  373TMC3    O2 5590   4.604   2.775  13.833 -0.1729  0.2112  0.1912
  374TMC3    C1 5591   0.156   3.458   9.897  0.6069 -0.8931 -0.3661
  374TMC3    C2 5592   0.196   3.592   9.901  0.8398 -0.1593 -0.1220
  374TMC3    C3 5593   0.245   3.645   9.781 -0.6280 -0.0598  0.3175
  374TMC3    C4 5594   0.150   3.389   9.780 -0.3465  0.7671  0.1575
  374TMC3    C5 5595   0.213   3.439   9.667  0.1344 -0.0871 -0.6157
  374TMC3    C6 5596   0.254   3.569   9.665 -0.1282  0.2722  0.0516
  374TMC3     C 5597   0.065   3.419  10.004 -0.2440 -0.3312 -0.5545
  374TMC3     O 5598   0.011   3.310   9.996 -0.1573  0.4681  1.3578
  374TMC3     H 5599   0.175   3.655   9.986  1.1981 -1.1796  0.7235
  374TMC3    H1 5600   0.116   3.286   9.787  2.0544 -0.0248  0.2641
  374TMC3    H2 5601   0.269   3.617   9.569  1.5429  0.2718  0.2992
  374TMC3    C7 5602   0.239   3.352   9.550  0.2864 -0.2033 -0.5099
  374TMC3    C8 5603   0.327   3.768   9.781  0.6743  0.2216 -0.5239
  374TMC3    O1 5604   0.298   3.410   9.460 -0.2900 -0.2585 -0.0911
  374TMC3    O2 5605   0.360   3.806   9.668 -0.5614 -0.3247  0.1859
  375MPD2     C 5606   0.109   4.626  16.988  0.4294  0.1087 -0.4181
  375MPD2    C1 5607   0.008   4.558  16.918 -0.4052 -0.3066 -0.8778
  375MPD2    C2 5608   0.046   4.489  16.810  0.5326 -0.2617 -0.4761
  375MPD2    C3 5609   0.176   4.479  16.770 -0.3347  0.2212 -0.0536
  375MPD2    C4 5610   0.278   4.535  16.841 -0.3854 -0.3427 -0.0827
  375MPD2    C5 5611   0.246   4.614  16.954 -0.0438  0.0834 -0.5737
  375MPD2     H 5612   4.680   4.442  16.766  0.0781  0.6229 -0.5291
  375MPD2    H1 5613   0.381   4.523  16.808 -0.0550  1.7822  0.1296
  375MPD2    H2 5614   0.086   4.695  17.069  1.5084  0.6451 -0.5712
  375MPD2    H3 5615   0.330   4.648  17.013 -0.7546  0.2296  0.3538
  375MPD2     N 5616   0.223   4.401  16.663 -0.0034  0.0481  0.3888
  375MPD2    H5 5617   0.324   4.395  16.648  0.2698  0.8691  1.9319
  375MPD2    N1 5618   4.592   4.567  16.943 -0.1584 -0.3646 -0.0138
  375MPD2    H7 5619   4.527   4.536  16.872 -1.1742 -0.2940  0.8749
  376TMC3    C1 5620   0.207   4.249  16.476 -0.5555  0.0898 -0.1913
  376TMC3    C2 5621   0.317   4.173  16.497 -0.7049 -0.3816 -0.1678
  376TMC3    C3 5622   0.345   4.095  16.386  0.2155 -0.1204  0.4642
  376TMC3    C4 5623   0.118   4.245  16.371  0.3959  0.1891 -0.1941
  376TMC3    C5 5624   0.157   4.173  16.265  0.1380  0.1348 -0.0590
  376TMC3    C6 5625   0.274   4.102  16.265 -0.7644 -0.3378  0.3474
  376TMC3     C 5626   0.142   4.323  16.589 -0.5535 -0.6133 -0.2241
  376TMC3     O 5627   0.017   4.331  16.583  0.3195  0.0623  0.1614
  376TMC3     H 5628   0.380   4.179  16.585 -0.1065 -0.4187 -0.5940
  376TMC3    H1 5629   0.042   4.320  16.349 -0.2748 -0.8195 -1.3323
  376TMC3    H2 5630   0.293   4.036  16.182  0.7567 -0.3900  0.7331
  376TMC3    C7 5631   0.087   4.180  16.144 -0.3273  0.0699  0.1816
  376TMC3    C8 5632   0.485   4.070  16.359  0.4793 -0.2190 -0.1152
  376TMC3    O1 5633   0.158   4.155  16.046  0.4445 -0.2301 -0.1241
  376TMC3    O2 5634   0.513   4.081  16.244 -0.4010  0.6450  0.9835
  377MPD2     C 5635   2.498   3.777  12.268 -0.8343  0.2917  0.0276
  377MPD2    C1 5636   2.559   3.740  12.389 -0.4437  0.5620  0.5492
  377MPD2    C2 5637   2.512   3.794  12.507 -0.1263  1.6055  0.6247
  377MPD2    C3 5638   2.396   3.867  12.508  0.3511  0.3146 -0.1911
  377MPD2    C4 5639   2.329   3.891  12.391  0.1954  0.2428  0.3538
  377MPD2    C5 5640   2.374   3.833  12.280 -1.0541 -1.1419 -0.0145
  377MPD2     H 5641   2.554   3.755  12.599 -1.8557 -3.2746 -0.6644
  377MPD2    H1 5642   2.229   3.932  12.384 -0.2315 -0.7304  0.8975
  377MPD2    H2 5643   2.534   3.741  12.172  3.6112 -1.5801  2.4215
  377MPD2    H3 5644   2.319   3.850  12.188  1.8985 -0.2849 -1.6419
  377MPD2     N 5645   2.343   3.913  12.631 -0.2217  0.0338  0.2376
  377MPD2    H5 5646   2.260   3.971  12.634 -0.1072  0.0813  2.6583
  377MPD2    N1 5647   2.673   3.659  12.380 -0.1388 -0.3776  0.3241
  377MPD2    H7 5648   2.696   3.629  12.286 -3.8432 -1.4262 -0.2491
  378TMC3    C1 5649   3.075   3.555  12.298 -0.2226 -0.7719  0.3719
  378TMC3    C2 5650   2.944   3.592  12.320 -0.5312 -0.2923 -0.5385
  378TMC3    C3 5651   2.888   3.564  12.445 -0.3356  0.1650  0.2357
  378TMC3    C4 5652   3.158   3.513  12.402  0.3122 -0.0930  0.4324
  378TMC3    C5 5653   3.096   3.487  12.522 -0.5505 -0.2962 -0.0556
  378TMC3    C6 5654   2.965   3.523  12.551 -0.0012 -0.3927 -0.4067
  378TMC3     C 5655   3.115   3.551  12.154 -0.6767  0.1214 -0.0562
  378TMC3     O 5656   3.030   3.555  12.071 -0.3242 -0.8480  0.1675
  378TMC3     H 5657   2.895   3.640  12.236 -0.4311  0.0520 -0.4015
  378TMC3    H1 5658   3.261   3.486  12.380  0.4497 -1.7670  3.1362
  378TMC3    H2 5659   2.918   3.505  12.647 -0.0918  1.5182 -0.0910
  378TMC3    C7 5660   3.172   3.457  12.638 -0.2756 -0.8338  0.1272
  378TMC3    C8 5661   2.763   3.638  12.484 -0.0228  0.2996 -0.7590
  378TMC3    O1 5662   3.110   3.406  12.731 -0.2398 -0.1654  0.0240
  378TMC3    O2 5663   2.753   3.660  12.607  0.7565  0.7397  0.0271
  379MPD2     C 5664   3.889   2.144  16.332 -0.6518  0.0640  0.1146
  379MPD2    C1 5665   3.970   2.063  16.261 -0.6143  0.3074  0.1606
  379MPD2    C2 5666   4.067   1.986  16.319  0.0661 -0.2795  0.0693
  379MPD2    C3 5667   4.085   1.993  16.458 -1.0250 -0.3003 -0.6684
  379MPD2    C4 5668   3.990   2.058  16.528 -0.1500  0.0245 -0.5990
  379MPD2    C5 5669   3.893   2.140  16.471  0.1277 -0.0640 -0.2089
  379MPD2     H 5670   4.120   1.911  16.260 -1.7646 -1.3240 -0.2566
  379MPD2    H1 5671   3.981   2.056  16.636 -1.1933  0.7131 -0.6704
  379MPD2    H2 5672   3.807   2.190  16.277  0.5265  0.8417 -0.9709
  379MPD2    H3 5673   3.820   2.192  16.532 -1.7748 -0.1636 -2.4050
  379MPD2     N 5674   4.187   1.913  16.519  0.1564  0.2788  0.1739
  379MPD2    H5 5675   4.187   1.878  16.614  1.0699  0.5657  0.2773
  379MPD2    N1 5676   3.927   2.045  16.124  0.5037  0.2638 -0.9467
  379MPD2    H7 5677   3.850   2.097  16.084  0.3711  1.0532  0.3392
  380TMC3    C1 5678   3.960   2.001  15.892 -0.3603  0.3037 -0.6852
  380TMC3    C2 5679   4.056   1.978  15.791 -0.0780 -0.2231 -0.6422
  380TMC3    C3 5680   4.006   1.951  15.666 -0.0520 -0.1332 -0.3045
  380TMC3    C4 5681   3.827   1.998  15.870  0.2009 -0.1155  0.2811
  380TMC3    C5 5682   3.780   1.960  15.748 -0.1889 -0.2108  0.2023
  380TMC3    C6 5683   3.871   1.942  15.643 -0.2584  0.1785  0.3868
  380TMC3     C 5684   4.014   1.997  16.025 -0.5594  0.2774  0.1399
  380TMC3     O 5685   4.125   1.949  16.040 -0.7536  0.3094  0.8574
  380TMC3     H 5686   4.161   1.990  15.812  0.1870 -0.0589 -2.0742
  380TMC3    H1 5687   3.754   1.999  15.950  2.0009  0.4008  1.9183
  380TMC3    H2 5688   3.830   1.903  15.551  0.6005  1.0621 -0.3787
  380TMC3    C7 5689   3.641   1.983  15.728  0.8035 -0.5107 -0.2948
  380TMC3    C8 5690   4.101   1.987  15.557  0.2217 -0.0448 -0.6250
  380TMC3    O1 5691   3.591   2.070  15.794  0.7891  0.2005 -0.0034
  380TMC3    O2 5692   4.211   2.020  15.602 -0.1190 -0.9370  0.5689
  381TMC3    C1 5693   3.572   2.964  16.332 -0.6290  0.1785 -0.4221
  381TMC3    C2 5694   3.570   3.101  16.310  0.1075  0.1623  0.2038
  381TMC3    C3 5695   3.530   3.183  16.410  0.3932 -0.3484 -0.0107
  381TMC3    C4 5696   3.545   2.909  16.456 -0.4717 -0.7009 -0.3347
  381TMC3    C5 5697   3.496   2.998  16.548  0.0579 -0.4926 -0.4321
  381TMC3    C6 5698   3.494   3.136  16.526 -0.4956 -0.0665  0.0954
  381TMC3     C 5699   3.621   2.880  16.223  0.3338 -0.3492 -0.0471
  381TMC3     O 5700   3.674   2.771  16.255 -0.6756 -0.0683  0.4674
  381TMC3     H 5701   3.599   3.144  16.215  2.6966 -0.5353  0.6676
  381TMC3    H1 5702   3.558   2.803  16.471  1.2730 -1.0876 -4.5884
  381TMC3    H2 5703   3.478   3.201  16.612  1.4213  0.0492  0.3512
  381TMC3    C7 5704   3.461   2.944  16.682  0.4285  0.3856 -0.4773
  381TMC3    C8 5705   3.583   3.315  16.390 -0.3809 -0.1264  0.0629
  381TMC3    O1 5706   3.528   2.847  16.712 -0.3558  0.4678 -0.1056
  381TMC3    O2 5707   3.577   3.360  16.275  0.1790 -0.0025  0.1158
  382MPD2     C 5708   2.824   0.501  16.629  0.8884  0.2860 -0.1731
  382MPD2    C1 5709   2.877   0.561  16.748 -0.4028 -0.3228  0.3621
  382MPD2    C2 5710   2.837   0.505  16.869 -0.5060  0.9416 -0.1654
  382MPD2    C3 5711   2.758   0.396  16.874 -0.3882  0.4460 -0.2099
  382MPD2    C4 5712   2.708   0.338  16.760 -0.6817  0.0593  0.6215
  382MPD2    C5 5713   2.740   0.395  16.639 -0.2969 -0.5670  0.0469
  382MPD2     H 5714   2.878   0.546  16.960  1.5814  1.2949 -1.2571
  382MPD2    H1 5715   2.645   0.251  16.775 -1.1410 -0.0996 -2.3115
  382MPD2    H2 5716   2.848   0.538  16.530  0.9527 -1.3368 -0.7631
  382MPD2    H3 5717   2.700   0.353  16.548 -3.1583 -0.2690  1.1804
  382MPD2     N 5718   2.725   0.331  16.990 -0.0194 -0.2506 -0.3439
  382MPD2    H5 5719   2.647   0.266  16.987 -0.4370  0.2237  0.1373
  382MPD2    N1 5720   2.946   0.687  16.754  0.2627 -0.6142 -0.1160
  382MPD2    H7 5721   2.958   0.733  16.843 -0.7283  1.6261 -1.1452
  383TMC3    C1 5722   2.719   0.277  17.215  0.4878  0.6169  0.7321
  383TMC3    C2 5723   2.591   0.230  17.199 -0.2168 -0.6570  0.5988
  383TMC3    C3 5724   2.526   0.177  17.306 -0.3382  0.4417  0.1551
  383TMC3    C4 5725   2.781   0.273  17.334 -0.3387 -0.0251 -0.2556
  383TMC3    C5 5726   2.711   0.219  17.440 -0.1988  0.2718  0.1327
  383TMC3    C6 5727   2.576   0.164  17.428  0.5527 -0.0332  0.0159
  383TMC3     C 5728   2.778   0.361  17.117 -0.3680  0.1402  0.6631
  383TMC3     O 5729   2.869   0.432  17.159  0.3497  0.2534  0.4439
  383TMC3     H 5730   2.537   0.268  17.113 -2.1487  0.4730  2.3420
  383TMC3    H1 5731   2.881   0.314  17.345 -1.0877  1.6356  0.3548
  383TMC3    H2 5732   2.514   0.127  17.508  1.5645 -1.6927  0.0318
  383TMC3    C7 5733   2.773   0.217  17.571  0.6510  0.0449  0.9157
  383TMC3    C8 5734   2.390   0.149  17.285 -0.1256  0.0432  0.4828
  383TMC3    O1 5735   2.884   0.267  17.580  0.2687  0.4108  0.0551
  383TMC3    O2 5736   2.333   0.226  17.205 -0.0296 -0.2324  0.5841
  384MPD2     C 5737   0.024   1.729  11.817 -0.0150 -0.0883 -0.3781
  384MPD2    C1 5738   4.695   1.611  11.865  0.5814  0.2562  0.3045
  384MPD2    C2 5739   4.704   1.501  11.781 -0.4942  0.0340  0.0013
  384MPD2    C3 5740   0.016   1.523  11.650 -0.0576  0.0837 -0.4571
  384MPD2    C4 5741   0.045   1.650  11.599 -0.5252 -0.2470 -0.2521
  384MPD2    C5 5742   0.051   1.751  11.689 -0.2025  0.6814 -0.6790
  384MPD2     H 5743   4.667   1.403  11.806 -0.1147 -0.2427 -0.5177
  384MPD2    H1 5744   0.075   1.663  11.495 -0.8683  0.3271 -0.2767
  384MPD2    H2 5745   0.033   1.809  11.890  0.0017 -0.1891 -0.2698
  384MPD2    H3 5746   0.096   1.844  11.656 -1.3041  0.7160 -2.0896
  384MPD2     N 5747   4.719   1.412  11.566  0.6615 -0.0818  0.0064
  384MPD2    H5 5748   4.699   1.325  11.613  0.4322  0.6318  1.2225
  384MPD2    N1 5749   4.657   1.589  11.996 -0.2104  0.6262  0.3508
  384MPD2    H7 5750   4.637   1.492  12.017 -1.3342  0.4582 -1.4735
  385TMC3    C1 5751   4.658   1.280  11.398  0.4970  0.3521 -0.1975
  385TMC3    C2 5752   4.526   1.266  11.361  0.2539 -0.1738 -0.0939
  385TMC3    C3 5753   4.463   1.152  11.402 -0.1508  0.0121  0.2063
  385TMC3    C4 5754   0.001   1.183  11.469  0.0257  0.1129 -0.9076
  385TMC3    C5 5755   4.655   1.073  11.517 -0.1569  0.0371  0.1379
  385TMC3    C6 5756   4.522   1.061  11.483  0.0316  0.0446 -0.4690
  385TMC3     C 5757   4.694   1.413  11.429 -0.6989  0.7844 -0.0121
  385TMC3     O 5758   4.695   1.498  11.341 -0.0073  0.0606 -0.1565
  385TMC3     H 5759   4.488   1.347  11.299 -1.6460 -1.2969 -0.3931
  385TMC3    H1 5760   0.102   1.190  11.508 -0.6487 -1.3945  1.0834
  385TMC3    H2 5761   4.466   0.974  11.518 -0.0360 -0.3537 -1.5509
  385TMC3    C7 5762   4.668   1.057  11.665 -0.0507 -0.8495  0.0857
  385TMC3    C8 5763   4.327   1.137  11.365  0.2183  0.2217 -0.1698
  385TMC3    O1 5764   0.026   1.134  11.724  0.3281 -0.5004 -0.2569
  385TMC3    O2 5765   4.263   1.063  11.436  0.6639 -0.5784 -1.1335
  386TMC3    C1 5766   3.894   4.149  11.858  0.8803  1.0725 -0.0724
  386TMC3    C2 5767   3.974   4.120  11.746  0.4413  1.0214  0.1329
  386TMC3    C3 5768   3.922   4.041  11.648 -0.4518  0.3229 -0.1256
  386TMC3    C4 5769   3.763   4.127  11.856 -0.0092  0.2063 -0.5814
  386TMC3    C5 5770   3.712   4.051  11.756  0.5085 -0.2023 -0.4407
  386TMC3    C6 5771   3.785   4.010  11.646 -0.2535 -0.2024 -0.5436
  386TMC3     C 5772   3.953   4.206  11.972 -0.0878  0.3954 -0.5419
  386TMC3     O 5773   3.872   4.270  12.040 -0.5371 -0.7738  0.4458
  386TMC3     H 5774   4.080   4.144  11.744  0.7804 -0.2982  1.7330
  386TMC3    H1 5775   3.695   4.161  11.933 -0.5243 -0.7850 -0.6071
  386TMC3    H2 5776   3.747   3.947  11.566 -0.7122  0.3817 -0.7849
  386TMC3    C7 5777   3.568   4.076  11.730 -0.4581 -0.7750 -0.5917
  386TMC3    C8 5778   3.999   4.009  11.527  0.0242  0.2583 -0.2397
  386TMC3    O1 5779   3.501   4.138  11.808 -0.3050 -0.1397  0.0810
  386TMC3    O2 5780   3.929   3.984  11.427 -0.4495 -0.1914  0.5814
  387MPD2     C 5781   2.492   4.133   9.579  0.0926 -0.3051 -0.1778
  387MPD2    C1 5782   2.571   4.125   9.693 -0.2159 -0.0430 -0.3256
  387MPD2    C2 5783   2.646   4.013   9.708 -0.3271 -0.0493  0.7069
  387MPD2    C3 5784   2.641   3.905   9.622 -0.4253  0.0188  0.0997
  387MPD2    C4 5785   2.558   3.912   9.510 -0.0065 -0.2888 -0.6092
  387MPD2    C5 5786   2.490   4.025   9.494 -0.0641 -0.0309 -0.3142
  387MPD2     H 5787   2.711   4.008   9.794  1.9395 -1.8640 -1.1004
  387MPD2    H1 5788   2.554   3.831   9.438 -0.6167 -1.2317  0.4761
  387MPD2    H2 5789   2.426   4.215   9.556 -1.8529 -1.4431  1.3840
  387MPD2    H3 5790   2.437   4.037   9.400 -0.7053  1.3550  0.2290
  387MPD2     N 5791   2.723   3.796   9.658 -0.3882 -0.2811 -0.2645
  387MPD2    H5 5792   2.763   3.805   9.751  0.3472 -2.1106 -0.4065
  387MPD2    N1 5793   2.574   4.216   9.797 -0.8671 -0.2301 -0.1018
  387MPD2    H7 5794   2.629   4.191   9.879  2.2963  1.7111 -1.5931
  388TMC3    C1 5795   2.482   4.370   9.946  0.4045  0.3802  0.0212
  388TMC3    C2 5796   2.382   4.466   9.970  0.3614  0.2793  0.3537
  388TMC3    C3 5797   2.313   4.444  10.089  0.8374  0.6002  0.8606
  388TMC3    C4 5798   2.522   4.286  10.040  0.4837 -0.7098  0.3744
  388TMC3    C5 5799   2.447   4.269  10.146  0.5420 -0.1896  0.6589
  388TMC3    C6 5800   2.334   4.338  10.168 -0.3066  0.5339  0.0303
  388TMC3     C 5801   2.485   4.324   9.812  0.4176  0.7154  0.6323
  388TMC3     O 5802   2.429   4.390   9.724  0.8413 -0.3531 -0.4868
  388TMC3     H 5803   2.363   4.556   9.912  1.5547  0.1029 -0.2900
  388TMC3    H1 5804   2.620   4.242  10.035  1.1080  0.5550  1.4406
  388TMC3    H2 5805   2.271   4.320  10.255 -0.0227 -0.4347  0.0352
  388TMC3    C7 5806   2.469   4.153  10.232  0.2323 -0.6516 -0.1359
  388TMC3    C8 5807   2.265   4.557  10.164 -0.0629 -0.1723  0.4632
  388TMC3    O1 5808   2.387   4.121  10.320 -0.2365 -0.5594 -0.0843
  388TMC3    O2 5809   2.273   4.550  10.289  0.4246  0.2984  0.0133
  389MPD2     C 5810   1.673   2.497  11.442  0.6697 -0.1671 -0.3085
  389MPD2    C1 5811   1.645   2.415  11.332 -0.5007  0.2376 -0.2827
  389MPD2    C2 5812   1.594   2.285  11.359 -0.3602  0.1178  0.2641
  389MPD2    C3 5813   1.583   2.240  11.488  0.0075 -0.1816 -0.2001
  389MPD2    C4 5814   1.608   2.327  11.595  0.1462  0.1348 -0.1535
  389MPD2    C5 5815   1.662   2.444  11.570  0.4597 -0.0799  0.2172
  389MPD2     H 5816   1.569   2.218  11.277 -1.7834  0.2045  0.6428
  389MPD2    H1 5817   1.596   2.297  11.698  1.3305 -1.1393 -0.3809
  389MPD2    H2 5818   1.715   2.596  11.425  0.6381  0.0556  0.8526
  389MPD2    H3 5819   1.696   2.504  11.654 -0.6676  0.8737 -0.0083
  389MPD2     N 5820   1.552   2.108  11.522 -0.0919  0.7243 -0.2642
  389MPD2    H5 5821   1.529   2.100  11.620 -0.8916 -0.8868 -0.5706
  389MPD2    N1 5822   1.655   2.474  11.206  0.3466  0.0357  0.3943
  389MPD2    H7 5823   1.672   2.574  11.205  1.6594 -0.1789  0.5414
  390TMC3    C1 5824   1.465   1.889  11.493  0.2068 -0.5105  0.5252
  390TMC3    C2 5825   1.464   1.853  11.628  0.0023 -0.0615 -0.1366
  390TMC3    C3 5826   1.364   1.771  11.674  0.6401  0.4513  0.4536
  390TMC3    C4 5827   1.372   1.833  11.403  0.6636 -0.1283 -0.9392
  390TMC3    C5 5828   1.267   1.766  11.462  0.5718  0.3711  0.1612
  390TMC3    C6 5829   1.262   1.742  11.596 -0.1580  0.5013  0.0989
  390TMC3     C 5830   1.543   1.997  11.436  0.9353 -0.4546  0.1553
  390TMC3     O 5831   1.576   1.990  11.318  0.2473 -0.1369  0.3134
  390TMC3     H 5832   1.551   1.879  11.688 -0.4956 -0.6200  0.8225
  390TMC3    H1 5833   1.372   1.860  11.298 -0.0978 -0.1492 -0.9426
  390TMC3    H2 5834   1.175   1.693  11.639  0.6956 -1.9965 -1.0255
  390TMC3    C7 5835   1.180   1.699  11.378  0.1486 -0.6589  0.0063
  390TMC3    C8 5836   1.383   1.721  11.811  0.3297  0.1360 -0.1621
  390TMC3    O1 5837   1.212   1.656  11.270  0.1454  0.1755 -0.5043
  390TMC3    O2 5838   1.473   1.776  11.875 -1.0381 -0.5793  0.3552
  391MPD2     C 5839   1.369   3.694  10.884  0.3345 -0.1699  0.1483
  391MPD2    C1 5840   1.269   3.747  10.956  0.7095 -0.0219 -0.0001
  391MPD2    C2 5841   1.157   3.791  10.889  0.3490 -0.5082 -0.5911
  391MPD2    C3 5842   1.156   3.794  10.756 -0.9914 -0.6308  0.2616
  391MPD2    C4 5843   1.256   3.728  10.686  0.6806 -0.4181 -0.2877
  391MPD2    C5 5844   1.372   3.687  10.746  0.3333  0.0403  0.0630
  391MPD2     H 5845   1.076   3.844  10.937  1.3404  1.3561 -0.9574
  391MPD2    H1 5846   1.242   3.721  10.579  0.7942 -1.7000 -0.2234
  391MPD2    H2 5847   1.464   3.661  10.924  0.1483 -1.2217 -0.2771
  391MPD2    H3 5848   1.458   3.644  10.697 -1.1733 -2.1284 -0.6862
  391MPD2     N 5849   1.037   3.844  10.700  0.0668 -0.1408  0.2802
  391MPD2    H5 5850   0.980   3.908  10.753  1.2965  0.4100  0.9437
  391MPD2    N1 5851   1.277   3.764  11.093  0.0657 -0.6530 -0.9514
  391MPD2    H7 5852   1.365   3.743  11.139 -1.1118  1.5588  2.3622
  392TMC3    C1 5853   0.895   3.929  10.547 -0.2089 -0.1208 -0.5365
  392TMC3    C2 5854   0.837   3.916  10.424  1.2749 -0.2139  0.2648
  392TMC3    C3 5855   0.749   4.010  10.384 -0.0474  0.0759  0.3769
  392TMC3    C4 5856   0.888   4.043  10.617  0.2060 -0.6170 -0.0643
  392TMC3    C5 5857   0.809   4.143  10.565  0.2414 -0.9611 -0.2597
  392TMC3    C6 5858   0.740   4.131  10.448  0.1129 -1.0339  0.0435
  392TMC3     C 5859   1.008   3.845  10.568 -0.6179 -0.6830 -0.7010
  392TMC3     O 5860   1.048   3.773  10.477 -0.4631 -0.3211  0.2229
  392TMC3     H 5861   0.859   3.832  10.358  1.9932  0.9277 -0.9366
  392TMC3    H1 5862   0.950   4.070  10.702  0.0746  1.4348 -0.6114
  392TMC3    H2 5863   0.667   4.208  10.426  0.0887 -0.2934  2.7027
  392TMC3    C7 5864   0.843   4.278  10.606 -0.2559 -0.1376  0.2726
  392TMC3    C8 5865   0.666   3.981  10.271  0.4827 -0.0681 -0.0517
  392TMC3    O1 5866   0.871   4.286  10.724 -0.7348 -0.5418  0.4117
  392TMC3    O2 5867   0.608   3.877  10.281 -0.3987  0.1566  0.2859
  393TMC3    C1 5868   0.168   1.425  10.880 -0.2902  0.6050 -0.2505
  393TMC3    C2 5869   0.037   1.443  10.894 -0.4267  0.0518  0.2151
  393TMC3    C3 5870   4.695   1.349  10.980  0.1394 -0.6353  0.3139
  393TMC3    C4 5871   0.235   1.314  10.928  0.1330 -0.3836  0.0711
  393TMC3    C5 5872   0.165   1.211  10.996 -0.4007  0.4643  0.0647
  393TMC3    C6 5873   0.039   1.237  11.030 -0.2747 -0.1308 -0.1355
  393TMC3     C 5874   0.238   1.494  10.777 -0.4565 -0.4576  0.6345
  393TMC3     O 5875   0.324   1.429  10.720 -0.2113 -1.1476 -0.1111
  393TMC3     H 5876   4.712   1.522  10.836  0.2708 -0.6909 -1.3650
  393TMC3    H1 5877   0.343   1.310  10.924  0.0869  0.6758 -2.0946
  393TMC3    H2 5878   4.696   1.159  11.071 -0.0208 -1.0290 -1.4195
  393TMC3    C7 5879   0.202   1.081  10.956 -0.1237 -0.3221  0.4952
  393TMC3    C8 5880   4.556   1.378  11.006 -0.3833  0.0883  0.8553
  393TMC3    O1 5881   0.133   0.991  10.998 -0.0355  0.5813 -0.0423
  393TMC3    O2 5882   4.486   1.285  11.032 -0.4468  0.0685 -0.0360
  394TMC3    C1 5883   1.600   2.511  10.978 -0.4134  0.2443  1.6894
  394TMC3    C2 5884   1.482   2.501  10.913 -0.2342  0.5381 -0.5032
  394TMC3    C3 5885   1.475   2.485  10.778 -1.0744  0.5358 -0.3157
  394TMC3    C4 5886   1.717   2.511  10.908 -0.3500 -0.0199 -0.2821
  394TMC3    C5 5887   1.710   2.494  10.770  0.3465  0.1910 -0.3633
  394TMC3    C6 5888   1.594   2.469  10.706  0.4305  0.1596  0.9104
  394TMC3     C 5889   1.606   2.422  11.092 -0.0053  0.1917 -0.2746
  394TMC3     O 5890   1.570   2.305  11.073 -0.5098  0.2742  0.8528
  394TMC3     H 5891   1.393   2.509  10.975  0.6181  0.1367  0.7710
  394TMC3    H1 5892   1.815   2.508  10.954 -0.3808  3.5464  0.0211
  394TMC3    H2 5893   1.599   2.470  10.597  0.3189  2.2794  0.9143
  394TMC3    C7 5894   1.837   2.489  10.695 -0.5051 -0.6722  0.2766
  394TMC3    C8 5895   1.353   2.438  10.715  0.0424  0.0140  0.5500
  394TMC3    O1 5896   1.925   2.562  10.731 -0.1813  0.3854  0.4395
  394TMC3    O2 5897   1.248   2.472  10.767 -0.1557 -0.1456  0.1131
  395TMC3    C1 5898   0.793   4.621  14.633  0.4160 -0.3766  0.1931
  395TMC3    C2 5899   0.704   4.673  14.720  0.1094 -0.8365 -0.0381
  395TMC3    C3 5900   0.746   0.017  14.835  0.3864 -0.0529 -0.7607
  395TMC3    C4 5901   0.924   4.622  14.671  0.1962  0.4511 -0.2937
  395TMC3    C5 5902   0.969   4.704  14.770 -0.2141 -0.3772 -0.0199
  395TMC3    C6 5903   0.876   0.053  14.844  0.3701  0.7355 -0.3861
  395TMC3     C 5904   0.742   4.498  14.590 -0.9652  0.2451 -0.3368
  395TMC3     O 5905   0.640   4.499  14.517 -0.6095 -0.1249  0.0196
  395TMC3     H 5906   0.601   4.647  14.701 -0.6658  1.0186  1.6933
  395TMC3    H1 5907   0.991   4.556  14.616 -0.2822 -0.1566 -0.1497
  395TMC3    H2 5908   0.900   0.110  14.933 -0.9015  0.4450  0.1458
  395TMC3    C7 5909   1.106   4.691  14.823 -0.6807 -0.3888  0.5399
  395TMC3    C8 5910   0.666   0.035  14.957  0.5556 -0.0636  0.0990
  395TMC3    O1 5911   1.135   0.015  14.931 -0.0242  0.1449  0.1868
  395TMC3    O2 5912   0.695   0.123  15.034 -0.0092 -0.2009 -1.0095
  396MPD2     C 5913   0.978   0.564  17.097  0.2675  0.5433 -0.2679
  396MPD2    C1 5914   1.090   0.637  17.125  0.7420 -0.4865 -0.2477
  396MPD2    C2 5915   1.152   0.711  17.026 -0.5939  0.3349  0.2125
  396MPD2    C3 5916   1.095   0.728  16.904 -0.0198  0.4160  0.4287
  396MPD2    C4 5917   0.977   0.660  16.878  0.0623  0.6764 -0.3278
  396MPD2    C5 5918   0.925   0.577  16.971 -0.4167 -0.4417 -0.4317
  396MPD2     H 5919   1.238   0.775  17.043  0.0300  0.1947 -2.4280
  396MPD2    H1 5920   0.924   0.664  16.783  1.9972 -2.6864 -1.5207
  396MPD2    H2 5921   0.936   0.499  17.174 -1.7006  1.9719 -0.1468
  396MPD2    H3 5922   0.844   0.509  16.946  0.0950 -1.5844  1.0043
  396MPD2     N 5923   1.171   0.812  16.818  0.4438  0.2605  0.3204
  396MPD2    H5 5924   1.263   0.841  16.850  0.5751  0.1118  0.0765
  396MPD2    N1 5925   1.141   0.613  17.248 -0.9412 -0.6139 -0.8285
  396MPD2    H7 5926   1.076   0.568  17.313 -0.4160 -0.4066 -0.1626
  397TMC3    C1 5927   1.286   0.602  17.439 -0.7367 -0.1906 -0.4831
  397TMC3    C2 5928   1.402   0.527  17.451  0.5649  0.4400 -0.5469
  397TMC3    C3 5929   1.398   0.389  17.472  0.5281  0.3384  0.1881
  397TMC3    C4 5930   1.173   0.549  17.497  0.1302  0.5934  0.7011
  397TMC3    C5 5931   1.175   0.411  17.523  0.1415 -0.2308 -0.1411
  397TMC3    C6 5932   1.281   0.322  17.499  0.4779 -0.8691 -0.0873
  397TMC3     C 5933   1.266   0.644  17.297 -0.2362  0.2871  0.6729
  397TMC3     O 5934   1.359   0.703  17.248  0.0592 -0.3519  0.4909
  397TMC3     H 5935   1.493   0.564  17.405  3.0932 -1.3412  3.0317
  397TMC3    H1 5936   1.078   0.600  17.505  0.2186  0.5415  2.0659
  397TMC3    H2 5937   1.275   0.214  17.512 -0.2882 -1.1457 -2.7598
  397TMC3    C7 5938   1.047   0.364  17.486  0.1387  0.0534  0.2798
  397TMC3    C8 5939   1.521   0.312  17.490 -0.3985 -0.1160 -0.7851
  397TMC3    O1 5940   0.987   0.437  17.406  0.5672 -0.4384 -0.2403
  397TMC3    O2 5941   1.504   0.218  17.571  0.3946  0.5663  0.0353
  398MPD2     C 5942   3.641   0.775  17.477  0.2880  0.3073 -0.1827
  398MPD2    C1 5943   3.692   0.744  17.605  0.4075  0.3556 -0.0108
  398MPD2    C2 5944   3.757   0.842  17.676  0.2104 -0.3557 -0.4501
  398MPD2    C3 5945   3.753   0.972  17.624 -0.7264 -0.3878  0.2576
  398MPD2    C4 5946   3.705   0.995  17.503  0.3097 -0.6835 -0.8827
  398MPD2    C5 5947   3.652   0.897  17.430  0.2276  0.2276  0.5601
  398MPD2     H 5948   3.796   0.831   0.091 -1.4855 -2.6054 -0.0429
  398MPD2    H1 5949   3.690   1.097  17.468  3.0836  0.6329  1.6756
  398MPD2    H2 5950   3.585   0.707  17.414 -0.8410  0.2136  0.9043
  398MPD2    H3 5951   3.598   0.925  17.340  0.3758  1.5948  0.8859
  398MPD2     N 5952   3.821   1.081  17.685 -0.0302 -0.9369  0.0372
  398MPD2    H5 5953   3.814   1.174  17.644  1.7808 -0.2163  1.3993
  398MPD2    N1 5954   3.679   0.614  17.664  0.0704 -0.5695 -0.3487
  398MPD2    H7 5955   3.733   0.593   0.061 -0.1323 -4.5663 -1.2482
  399TMC3    C1 5956   3.621   0.388  17.670 -0.0378 -0.8978  0.8694
  399TMC3    C2 5957   3.741   0.343   0.024  0.0735  0.4207  0.4894
  399TMC3    C3 5958   3.746   0.217   0.083 -0.1554 -0.7112  0.0263
  399TMC3    C4 5959   3.507   0.317  17.683  0.1954  0.3896 -0.2377
  399TMC3    C5 5960   3.520   0.202   0.054 -0.3587  0.8316  0.1151
  399TMC3    C6 5961   3.630   0.142   0.100 -0.0551  0.3419  0.3398
  399TMC3     C 5962   3.599   0.521  17.612  0.0360  0.3691 -0.0573
  399TMC3     O 5963   3.498   0.528  17.547 -0.2197  0.0658  0.4727
  399TMC3     H 5964   3.836   0.393   0.008  0.0237 -0.2542 -2.0198
  399TMC3    H1 5965   3.409   0.355  17.656 -0.1986 -0.7855 -0.4784
  399TMC3    H2 5966   3.623   0.034   0.109  0.0051  0.1303 -2.2015
  399TMC3    C7 5967   3.400   0.123   0.045  0.3767 -0.2646  0.0342
  399TMC3    C8 5968   3.873   0.185   0.152  0.5916  0.2294  0.0407
  399TMC3    O1 5969   3.388   0.026   0.122 -0.1483 -0.0887 -0.0849
  399TMC3    O2 5970   3.974   0.248   0.123 -0.0970 -0.2944  0.1533
  400TMC3    C1 5971   2.308   4.503  16.997 -0.1002  0.0024 -0.2740
  400TMC3    C2 5972   2.188   4.480  16.935 -0.0708 -0.0115  0.1840
  400TMC3    C3 5973   2.115   4.590  16.895 -0.2179  0.3788  0.3016
  400TMC3    C4 5974   2.372   4.625  16.982 -0.3985  0.1884  0.1648
  400TMC3    C5 5975   2.300   0.010  16.931  0.5680 -0.3409  0.1047
  400TMC3    C6 5976   2.167   4.713  16.891 -0.1436 -0.0104  0.6190
  400TMC3     C 5977   2.362   4.403  17.090 -0.0905  0.3229 -0.1462
  400TMC3     O 5978   2.294   4.303  17.105 -0.3236 -0.1142 -0.1943
  400TMC3     H 5979   2.141   4.383  16.942  1.7917 -0.9479 -0.1149
  400TMC3    H1 5980   2.472   4.639  17.022  0.0286 -0.4307 -0.6733
  400TMC3    H2 5981   2.102   0.076  16.870  0.0513  0.2981  1.2352
  400TMC3    C7 5982   2.366   0.129  16.887  0.0289 -0.5114  0.2639
  400TMC3    C8 5983   1.979   4.576  16.842  0.4781 -0.2551  0.1325
  400TMC3    O1 5984   2.479   0.145  16.938 -0.1865 -0.0940 -0.7782
  400TMC3    O2 5985   1.917   4.680  16.808 -0.0834  0.1799  0.0227
  401MPD2     C 5986   0.171   3.469   0.687 -0.3398 -0.1990 -0.0498
  401MPD2    C1 5987   0.285   3.539   0.722  0.0295 -0.8622 -1.3977
  401MPD2    C2 5988   0.397   3.469   0.770 -0.7518 -0.5457  0.5973
  401MPD2    C3 5989   0.385   3.333   0.798 -0.4627 -0.3089  0.2027
  401MPD2    C4 5990   0.267   3.272   0.771 -0.3235  1.3284 -0.3458
  401MPD2    C5 5991   0.174   3.330   0.694  0.3878  0.1882  0.1856
  401MPD2     H 5992   0.491   3.519   0.789 -1.1480 -0.3188  2.0185
  401MPD2    H1 5993   0.257   3.165   0.784  0.2951  1.4236  0.8810
  401MPD2    H2 5994   0.089   3.524   0.642 -1.3892 -2.3634 -0.7587
  401MPD2    H3 5995   0.090   3.270   0.660  1.0146  0.3808 -1.7196
  401MPD2     N 5996   0.493   3.262   0.851  0.0208  0.2820 -0.5179
  401MPD2    H5 5997   0.584   3.305   0.842  1.1805 -2.4372 -1.6683
  401MPD2    N1 5998   0.292   3.680   0.723  0.0874  0.3916 -0.3419
  401MPD2    H7 5999   0.374   3.726   0.761  0.4233  0.6347 -1.3763
  402TMC3    C1 6000   0.612   3.065   0.863 -0.7421 -0.6334 -0.2877
  402TMC3    C2 6001   0.639   2.948   0.928 -0.1109  0.4427  0.2574
  402TMC3    C3 6002   0.752   2.886   0.897  0.8908  0.3473 -0.2296
  402TMC3    C4 6003   0.688   3.112   0.762  0.1208  0.3171 -0.3292
  402TMC3    C5 6004   0.791   3.036   0.718 -0.3908 -1.0135  0.4007
  402TMC3    C6 6005   0.826   2.923   0.794  0.3188 -0.4630  0.2350
  402TMC3     C 6006   0.490   3.135   0.896 -0.3130 -0.5338 -0.4646
  402TMC3     O 6007   0.397   3.077   0.945  0.2572 -0.0567  0.0423
  402TMC3     H 6008   0.569   2.917   1.005 -1.7946  0.6573 -1.1962
  402TMC3    H1 6009   0.652   3.193   0.700 -1.1737 -1.3593 -1.7538
  402TMC3    H2 6010   0.911   2.862   0.765 -0.4063 -1.1627 -0.4193
  402TMC3    C7 6011   0.853   3.073   0.591  0.2196 -0.1465 -0.0582
  402TMC3    C8 6012   0.804   2.790   0.990 -0.2265  0.3328  1.1405
  402TMC3    O1 6013   0.814   3.175   0.535 -0.3779 -0.8354  0.6378
  402TMC3    O2 6014   0.920   2.756   0.970  0.2139 -0.1143  0.1642
  403MPD2     C 6015   4.114   1.367  13.066  0.0900  0.0853  0.3470
  403MPD2    C1 6016   4.160   1.274  13.160 -0.2757  0.0148 -0.8767
  403MPD2    C2 6017   4.248   1.318  13.256  0.3471 -0.0160  0.6113
  403MPD2    C3 6018   4.290   1.449  13.269  0.0317 -0.2244 -0.6513
  403MPD2    C4 6019   4.240   1.538  13.172 -0.2191  0.4612 -0.4730
  403MPD2    C5 6020   4.159   1.496  13.074 -0.0242 -0.2034 -0.4963
  403MPD2     H 6021   4.296   1.248  13.324 -1.4708 -0.7738  1.0932
  403MPD2    H1 6022   4.274   1.641  13.164  1.3570  0.1408  2.0582
  403MPD2    H2 6023   4.032   1.341  13.000  2.4568  0.3077 -2.7093
  403MPD2    H3 6024   4.106   1.572  13.016 -1.3941 -1.0711 -0.3840
  403MPD2     N 6025   4.365   1.482  13.373  0.4734  0.0198  0.0644
  403MPD2    H5 6026   4.384   1.406  13.437 -0.3752 -0.5950 -0.4167
  403MPD2    N1 6027   4.111   1.142  13.164  0.6544 -0.3770  0.1404
  403MPD2    H7 6028   4.139   1.088  13.245 -0.4498 -3.0658 -1.2436
  404TMC3    C1 6029   3.948   0.957  13.137  0.5378  0.7712 -0.0389
  404TMC3    C2 6030   3.989   0.914  13.260 -0.8396  0.0601  1.0832
  404TMC3    C3 6031   3.902   0.879  13.366  0.0645  0.3451 -0.7540
  404TMC3    C4 6032   3.812   0.958  13.122  0.1450  0.2641  0.2284
  404TMC3    C5 6033   3.731   0.918  13.227  0.1267 -0.3644 -0.7770
  404TMC3    C6 6034   3.770   0.892  13.352 -0.4200 -0.1940 -0.0196
  404TMC3     C 6035   4.027   1.075  13.078 -0.2289  0.9447  0.1038
  404TMC3     O 6036   3.984   1.116  12.972  0.0618  0.4470 -0.0227
  404TMC3     H 6037   4.095   0.913  13.281 -0.7821 -1.1490  0.7400
  404TMC3    H1 6038   3.779   0.985  13.022 -0.6337  0.4501  0.5312
  404TMC3    H2 6039   3.702   0.865  13.432  0.4243  0.8910  1.0709
  404TMC3    C7 6040   3.593   0.881  13.202  0.0610  0.5509  0.3966
  404TMC3    C8 6041   3.966   0.873  13.491  0.7191 -0.0190 -1.1879
  404TMC3    O1 6042   3.533   0.830  13.297  0.1897  0.4043  0.2687
  404TMC3    O2 6043   4.084   0.836  13.495 -0.2036 -0.0957 -0.0490
  405MPD2     C 6044   4.464   2.492  14.378 -0.0736 -0.2304  0.0164
  405MPD2    C1 6045   4.393   2.383  14.346  1.0645 -0.3437  0.4335
  405MPD2    C2 6046   4.317   2.389  14.229 -0.3291  0.1434 -0.5470
  405MPD2    C3 6047   4.322   2.501  14.149 -0.4066  0.8651 -0.3142
  405MPD2    C4 6048   4.386   2.614  14.193 -0.4866  0.2929  0.2472
  405MPD2    C5 6049   4.458   2.613  14.309 -1.1790 -0.4333 -0.1084
  405MPD2     H 6050   4.265   2.303  14.189  0.6473 -1.5257  1.7501
  405MPD2    H1 6051   4.405   2.694  14.122  1.7882  0.1247  0.6523
  405MPD2    H2 6052   4.528   2.491  14.466  0.7582 -0.2815 -0.5864
  405MPD2    H3 6053   4.526   2.695  14.329 -1.4707 -0.0987 -0.4876
  405MPD2     N 6054   4.239   2.502  14.033 -0.3696  0.3948 -0.3175
  405MPD2    H5 6055   4.171   2.427  14.033  0.1234 -0.0841  2.6236
  405MPD2    N1 6056   4.402   2.268  14.427 -0.3077  0.2140  0.3288
  405MPD2    H7 6057   4.417   2.277  14.527  3.1690 -1.4497 -0.0563
  406TMC3    C1 6058   3.883   2.603  13.834 -0.0281  0.1937 -0.9983
  406TMC3    C2 6059   3.865   2.472  13.781 -0.1039 -0.0785  0.4268
  406TMC3    C3 6060   3.976   2.391  13.775  0.2279 -0.0704  0.3798
  406TMC3    C4 6061   4.007   2.650  13.866 -0.1069 -0.1917  0.1123
  406TMC3    C5 6062   4.115   2.570  13.860  0.6646 -0.0653 -0.0375
  406TMC3    C6 6063   4.098   2.441  13.808 -1.0113 -0.4854  0.4075
  406TMC3     C 6064   3.770   2.679  13.892  0.0961  0.1683 -0.5353
  406TMC3     O 6065   3.796   2.800  13.892  0.6732  0.3944 -0.0192
  406TMC3     H 6066   3.770   2.436  13.742  0.3146  0.5670 -1.1996
  406TMC3    H1 6067   4.022   2.754  13.892  2.1802 -0.1988 -1.2484
  406TMC3    H2 6068   4.184   2.376  13.795  1.2810  3.1370 -2.5409
  406TMC3    C7 6069   4.226   2.605  13.939 -0.1035 -0.1876 -0.4474
  406TMC3    C8 6070   3.971   2.250  13.760 -0.8363  0.7314  0.1110
  406TMC3    O1 6071   4.272   2.715  13.934  0.0537 -0.3517  0.6713
  406TMC3    O2 6072   3.896   2.202  13.678  0.0362  0.3576  0.2034
  407MPD2     C 6073   2.243   3.625   9.309  0.9033  0.0785 -0.1062
  407MPD2    C1 6074   2.312   3.550   9.405  0.3694 -0.6703 -0.2537
  407MPD2    C2 6075   2.349   3.603   9.529 -0.7975  0.6235 -0.1825
  407MPD2    C3 6076   2.302   3.728   9.571  0.3336 -0.5781 -0.0245
  407MPD2    C4 6077   2.226   3.800   9.483 -0.2044  0.2351 -0.7463
  407MPD2    C5 6078   2.200   3.748   9.355  0.0422  0.3755  0.1747
  407MPD2     H 6079   2.411   3.541   9.593 -1.1223  1.8219  1.3094
  407MPD2    H1 6080   2.185   3.894   9.518 -0.3367 -0.4856  1.0384
  407MPD2    H2 6081   2.203   3.589   9.216  0.3564 -1.3735  0.6861
  407MPD2    H3 6082   2.126   3.790   9.288 -1.3277 -0.8906  0.8883
  407MPD2     N 6083   2.315   3.776   9.705 -0.4317  0.1934 -0.6919
  407MPD2    H5 6084   2.264   3.863   9.719 -3.5227 -2.3341  3.5837
  407MPD2    N1 6085   2.365   3.419   9.379  0.0710  0.4767 -0.0078
  407MPD2    H7 6086   2.404   3.381   9.465 -1.0789 -0.0658  0.2755
  408TMC3    C1 6087   2.395   3.205   9.296  0.0354 -0.0041 -0.1051
  408TMC3    C2 6088   2.531   3.216   9.327 -0.5361  0.3550  0.2672
  408TMC3    C3 6089   2.608   3.098   9.310  0.4977 -0.8770  0.7427
  408TMC3    C4 6090   2.343   3.097   9.230 -0.0061  0.2849  0.3263
  408TMC3    C5 6091   2.411   2.978   9.242  0.1236 -0.6148 -0.4495
  408TMC3    C6 6092   2.540   2.973   9.290  0.1560 -0.1781  0.0450
  408TMC3     C 6093   2.324   3.336   9.277 -0.3867 -0.1470  0.4522
  408TMC3     O 6094   2.252   3.356   9.180 -0.1163 -0.8585 -0.2924
  408TMC3     H 6095   2.575   3.312   9.352  1.3832 -0.2751 -0.6269
  408TMC3    H1 6096   2.240   3.100   9.197 -0.5766 -3.5352  1.6978
  408TMC3    H2 6097   2.603   2.885   9.303 -0.0099 -0.2153  0.6159
  408TMC3    C7 6098   2.322   2.859   9.250 -0.0470  0.3641  1.4399
  408TMC3    C8 6099   2.739   3.091   9.378 -0.1061  0.0214 -0.5956
  408TMC3    O1 6100   2.202   2.886   9.227 -0.0288  0.4357  0.1872
  408TMC3    O2 6101   2.775   2.981   9.425 -0.3003  0.2979  0.3088
  409MPD2     C 6102   1.287   4.230  17.319 -0.3209  0.0427  0.2369
  409MPD2    C1 6103   1.408   4.284  17.351 -0.1556 -0.3177  0.3578
  409MPD2    C2 6104   1.447   4.403  17.304 -0.2416  0.1173 -0.1811
  409MPD2    C3 6105   1.366   4.473  17.218  0.0874  0.1285 -0.9159
  409MPD2    C4 6106   1.240   4.426  17.200 -0.7316  0.8982  0.6883
  409MPD2    C5 6107   1.201   4.306  17.250 -0.3578 -0.0217  0.2644
  409MPD2     H 6108   1.549   4.429  17.330 -0.1468 -0.9934  0.5406
  409MPD2    H1 6109   1.165   4.472  17.136 -0.0339 -1.0412 -1.5173
  409MPD2    H2 6110   1.254   4.132  17.353  0.3390 -0.2874 -0.0838
  409MPD2    H3 6111   1.103   4.263  17.231 -1.9679  2.8260  2.2264
  409MPD2     N 6112   1.407   4.584  17.146  0.0671 -0.3699 -0.0959
  409MPD2    H5 6113   1.333   4.642  17.107  1.5267  0.2429 -1.9754
  409MPD2    N1 6114   1.509   4.229  17.434 -0.0615  0.3744 -0.2576
  409MPD2    H7 6115   1.604   4.264  17.424  0.9334 -1.9612  0.8942
  410TMC3    C1 6116   1.547   0.051  17.092 -0.0382 -0.0217  0.1131
  410TMC3    C2 6117   1.664   0.105  17.135 -0.3582  0.1827  0.2508
  410TMC3    C3 6118   1.744   0.159  17.044  0.8921 -0.2971 -0.9333
  410TMC3    C4 6119   1.513   0.052  16.963 -0.3334  0.3605  0.3496
  410TMC3    C5 6120   1.595   0.121  16.874 -0.0943  0.5058 -0.4266
  410TMC3    C6 6121   1.718   0.159  16.911  0.0046  0.0596  0.5651
  410TMC3     C 6122   1.531   4.641  17.161  0.3524  0.6374  0.7943
  410TMC3     O 6123   1.629   4.615  17.233  0.1477  0.3217 -0.6224
  410TMC3     H 6124   1.677   0.138  17.237  0.7139  2.0324 -0.4852
  410TMC3    H1 6125   1.409   0.031  16.943  0.4130 -1.0332 -2.1127
  410TMC3    H2 6126   1.792   0.188  16.838  0.6332  0.2883  1.2989
  410TMC3    C7 6127   1.538   0.152  16.742  0.6438  0.3904 -0.0315
  410TMC3    C8 6128   1.881   0.131  17.069 -0.2843  1.1017 -0.1557
  410TMC3    O1 6129   1.438   0.085  16.709 -0.0203  0.8296  0.0386
  410TMC3    O2 6130   1.975   0.190  17.012  0.7601  0.0994  0.1630
  411MPD2     C 6131   2.058   0.069  14.784  0.2291  0.1678  0.2348
  411MPD2    C1 6132   1.934   0.031  14.736  0.6432  0.2694 -0.3755
  411MPD2    C2 6133   1.921   4.635  14.665  0.2204 -0.1151 -0.3185
  411MPD2    C3 6134   2.035   4.560  14.634  0.7033 -0.3290 -0.3247
  411MPD2    C4 6135   2.157   4.599  14.679  0.0813  0.4350 -0.7521
  411MPD2    C5 6136   2.167   4.714  14.749 -0.1339  0.3546  0.0199
  411MPD2     H 6137   1.827   4.597  14.627  0.7365  0.7365 -2.4252
  411MPD2    H1 6138   2.249   4.552  14.647 -0.0980  0.1386 -0.8357
  411MPD2    H2 6139   2.077   0.160  14.838 -0.2938  1.3497 -1.5891
  411MPD2    H3 6140   2.264   0.031  14.779  0.0628 -0.4887  0.4533
  411MPD2     N 6141   2.036   4.450  14.550  0.6781 -0.3842 -0.5582
  411MPD2    H5 6142   2.126   4.422  14.512 -0.0735 -2.0825 -1.1194
  411MPD2    N1 6143   1.813   0.098  14.766 -0.2424 -0.1495 -0.7354
  411MPD2    H7 6144   1.739   0.078  14.700 -0.2114  0.5475 -0.9817
  412TMC3    C1 6145   1.944   4.263  14.443 -0.2379  0.0743  0.7923
  412TMC3    C2 6146   1.848   4.170  14.435  0.0555 -0.6338 -0.1189
  412TMC3    C3 6147   1.801   4.126  14.317  0.4693 -0.1171  0.2256
  412TMC3    C4 6148   2.016   4.287  14.330 -0.1374  0.3487 -0.1927
  412TMC3    C5 6149   1.978   4.239  14.210 -0.1956  0.9791 -0.1220
  412TMC3    C6 6150   1.868   4.158  14.202  0.2932  0.3196  0.4066
  412TMC3     C 6151   1.932   4.366  14.542  0.3355  0.0720 -0.2832
  412TMC3     O 6152   1.819   4.376  14.581 -0.0378 -0.0241 -0.1097
  412TMC3     H 6153   1.787   4.149  14.522  1.1571  0.1852  0.8525
  412TMC3    H1 6154   2.096   4.360  14.322  0.7041 -0.7975 -2.1415
  412TMC3    H2 6155   1.819   4.132  14.109  1.3373  0.2831 -0.1320
  412TMC3    C7 6156   1.982   4.330  14.095 -0.0832  0.1890  0.4906
  412TMC3    C8 6157   1.659   4.167  14.311 -0.1603 -0.3798 -0.4170
  412TMC3    O1 6158   1.873   4.360  14.053 -0.8066  0.3459  0.4075
  412TMC3    O2 6159   1.590   4.132  14.406  0.2195  0.0691  0.1737
  413MPD2     C 6160   2.976   3.239  14.946  0.1757  0.1788 -0.2875
  413MPD2    C1 6161   3.051   3.229  15.060 -0.0124 -0.3146 -0.7077
  413MPD2    C2 6162   3.175   3.172  15.055 -0.2987 -0.0518  0.6062
  413MPD2    C3 6163   3.226   3.107  14.943  0.1911  0.2342  0.2266
  413MPD2    C4 6164   3.138   3.103  14.834 -0.2072 -0.4426 -0.1402
  413MPD2    C5 6165   3.019   3.169  14.839 -0.1006 -0.3592 -0.8724
  413MPD2     H 6166   3.255   3.187  15.126  0.2484 -0.2974  0.0441
  413MPD2    H1 6167   3.167   3.060  14.739  0.0329 -1.6074  0.4576
  413MPD2    H2 6168   2.885   3.298  14.939 -0.8015 -1.3777 -0.7352
  413MPD2    H3 6169   2.964   3.187  14.747 -0.3974 -0.8213 -0.7874
  413MPD2     N 6170   3.365   3.063  14.946 -0.7112 -0.9747  0.2521
  413MPD2    H5 6171   3.419   3.065  15.032 -0.4897 -2.5324  0.1523
  413MPD2    N1 6172   2.996   3.296  15.173  0.2148 -0.1927 -0.2797
  413MPD2    H7 6173   2.906   3.341  15.162 -0.5075 -0.8270  3.2276
  414TMC3    C1 6174   3.553   2.947  14.864 -0.2299 -0.3882 -0.1213
  414TMC3    C2 6175   3.597   2.934  14.992  0.4519 -0.4848 -0.4575
  414TMC3    C3 6176   3.726   2.900  15.003  0.3479 -0.1361  0.6935
  414TMC3    C4 6177   3.624   2.936  14.756 -0.3414 -0.3642 -0.1655
  414TMC3    C5 6178   3.757   2.897  14.768 -0.0852  0.0459  0.0791
  414TMC3    C6 6179   3.807   2.878  14.895 -0.4260  0.2938 -0.3536
  414TMC3     C 6180   3.420   2.994  14.836 -0.6220  0.4430  0.4554
  414TMC3     O 6181   3.374   2.995  14.722  0.1837 -0.3944 -0.0958
  414TMC3     H 6182   3.537   2.947  15.082 -0.2920 -2.6493 -0.6361
  414TMC3    H1 6183   3.574   2.971  14.666  0.2197 -0.7811 -0.6406
  414TMC3    H2 6184   3.915   2.867  14.899 -0.3648  0.0697 -2.4268
  414TMC3    C7 6185   3.838   2.943  14.653  0.2433  0.5342 -0.6085
  414TMC3    C8 6186   3.780   2.859  15.134 -0.4309  0.5796  0.4492
  414TMC3    O1 6187   3.782   2.935  14.546  0.0921  0.3957  0.1413
  414TMC3    O2 6188   3.703   2.829  15.224 -0.0140 -0.3083 -0.4222
  415TMC3    C1 6189   3.828   0.444  10.066 -0.3454  0.4308  0.7228
  415TMC3    C2 6190   3.931   0.421   9.973 -0.4653 -0.5598  0.2015
  415TMC3    C3 6191   3.996   0.533   9.923 -0.6705 -0.1387  0.2304
  415TMC3    C4 6192   3.773   0.569  10.072  0.4928  0.4376  0.0283
  415TMC3    C5 6193   3.832   0.681  10.018  0.2024 -0.5833  1.1487
  415TMC3    C6 6194   3.947   0.661   9.942  0.0079 -0.3624  1.0173
  415TMC3     C 6195   3.735   0.336  10.102  0.0446 -0.2538 -0.4914
  415TMC3     O 6196   3.618   0.360  10.111 -0.2195 -0.1122  0.7008
  415TMC3     H 6197   3.961   0.319   9.954 -1.5362 -0.4451 -2.1076
  415TMC3    H1 6198   3.689   0.587  10.138 -0.0215 -1.7383 -0.0353
  415TMC3    H2 6199   3.994   0.747   9.896  0.1745 -1.3125 -0.6056
  415TMC3    C7 6200   3.781   0.814  10.043  0.5142  0.3962 -0.3868
  415TMC3    C8 6201   4.083   0.512   9.812  0.1519 -0.5093 -0.2495
  415TMC3    O1 6202   3.861   0.910  10.050 -0.0612  0.2310 -0.1434
  415TMC3    O2 6203   4.053   0.412   9.752  0.3355 -1.4827  0.1829
  416MPD2     C 6204   0.094   0.494  12.124  0.5754 -0.3222  0.1462
  416MPD2    C1 6205   0.154   0.448  12.239 -0.1069 -0.3027  0.3796
  416MPD2    C2 6206   0.172   0.305  12.251  0.7764 -1.0054 -0.2019
  416MPD2    C3 6207   0.141   0.220  12.141 -0.1004 -0.6655 -0.0257
  416MPD2    C4 6208   0.084   0.275  12.026 -0.3987  0.6238 -0.1014
  416MPD2    C5 6209   0.061   0.408  12.022 -0.4050  0.3356 -0.1989
  416MPD2     H 6210   0.227   0.275  12.339  1.1453 -0.9256 -0.4040
  416MPD2    H1 6211   0.062   0.212  11.941 -1.7119 -0.7216  1.2260
  416MPD2    H2 6212   0.084   0.598  12.095 -0.4646 -0.6862 -0.8085
  416MPD2    H3 6213   0.011   0.442  11.932 -0.1721  0.4772 -0.2748
  416MPD2     N 6214   0.151   0.080  12.145  0.1254 -0.9184 -0.1116
  416MPD2    H5 6215   0.135   0.034  12.056 -0.3812 -1.1789  0.1102
  416MPD2    N1 6216   0.213   0.546  12.321  0.1000  0.5687 -0.2762
  416MPD2    H7 6217   0.225   0.641  12.287 -2.9535  1.0823  0.0786
  417TMC3    C1 6218   0.367   0.630  12.484 -0.3148 -0.4202 -0.4050
  417TMC3    C2 6219   0.372   0.676  12.611  0.0759 -0.3220 -0.0670
  417TMC3    C3 6220   0.432   0.795  12.634 -0.1518  0.4532 -0.2631
  417TMC3    C4 6221   0.424   0.699  12.377  0.5538  0.2914 -0.0367
  417TMC3    C5 6222   0.510   0.802  12.405 -0.1660  0.3309  0.3048
  417TMC3    C6 6223   0.506   0.858  12.534 -0.6258 -0.0712  0.4163
  417TMC3     C 6224   0.270   0.529  12.449  0.0747  0.1632  0.4090
  417TMC3     O 6225   0.267   0.431  12.517  0.1388  0.7902 -0.5214
  417TMC3     H 6226   0.306   0.633  12.686 -0.5318 -1.0683 -1.0385
  417TMC3    H1 6227   0.418   0.652  12.279  1.2365 -0.7826  0.4348
  417TMC3    H2 6228   0.571   0.940  12.563 -1.1158  0.1205  0.9778
  417TMC3    C7 6229   0.544   0.886  12.289  0.3888  0.2890 -0.0395
  417TMC3    C8 6230   0.454   0.840  12.778 -0.2373 -0.1458  1.1604
  417TMC3    O1 6231   0.505   0.844  12.180  0.4546  0.3495  0.7430
  417TMC3    O2 6232   0.457   0.740  12.849 -0.0340 -0.2842 -0.0194
  418TMC3    C1 6233   4.105   1.360   0.064 -0.2221  0.3469 -0.2827
  418TMC3    C2 6234   4.017   1.258   0.038  0.0965 -0.0575 -0.6182
  418TMC3    C3 6235   3.956   1.200   0.143 -0.3407  0.1563  0.5142
  418TMC3    C4 6236   4.120   1.416   0.188 -0.2428  0.4952  0.8446
  418TMC3    C5 6237   4.053   1.355   0.291  0.0457 -0.4105 -0.6305
  418TMC3    C6 6238   3.980   1.241   0.273  0.7563  0.3499 -0.2276
  418TMC3     C 6239   4.223   1.370  17.669 -0.7802  0.3383 -0.7140
  418TMC3     O 6240   4.212   1.456  17.581 -0.3973 -0.0877 -0.4771
  418TMC3     H 6241   4.027   1.200  17.633  1.5690  1.6716 -1.5494
  418TMC3    H1 6242   4.188   1.497   0.210  0.8214  0.0205 -0.7125
  418TMC3    H2 6243   3.937   1.184   0.355 -0.7339 -0.0086 -1.2477
  418TMC3    C7 6244   4.110   1.380   0.420  0.5229  0.9022 -0.3150
  418TMC3    C8 6245   3.887   1.076   0.119  0.2653 -0.1831  0.1446
  418TMC3    O1 6246   4.107   1.496   0.462 -0.4734  0.2689  0.1587
  418TMC3    O2 6247   3.881   1.003   0.221  0.0228 -0.0999 -0.5783
  419MPD2     C 6248   2.711   4.688  12.468  0.2080  0.1141 -0.1139
  419MPD2    C1 6249   2.586   0.019  12.497 -0.7349 -0.2567 -0.0074
  419MPD2    C2 6250   2.521   4.709  12.619  0.4292 -0.4797 -0.0590
  419MPD2    C3 6251   2.594   4.638  12.720  0.0604  0.1075 -0.5708
  419MPD2    C4 6252   2.711   4.579  12.682 -0.4165 -0.6172 -0.0260
  419MPD2    C5 6253   2.768   4.604  12.565 -0.6495 -0.1781 -0.0495
  419MPD2     H 6254   2.430   0.042  12.642  0.5036  0.0373 -0.9359
  419MPD2    H1 6255   2.765   4.500  12.734  0.3216  0.5353  0.9380
  419MPD2    H2 6256   2.754   4.696  12.369  2.1798 -0.4911  0.7035
  419MPD2    H3 6257   2.856   4.543  12.546 -1.1683 -0.4369 -1.6009
  419MPD2     N 6258   2.534   4.628  12.846 -0.2858 -0.0002 -0.4731
  419MPD2    H5 6259   2.457   4.693  12.863  0.4816  0.3438  1.7544
  419MPD2    N1 6260   2.510   0.106  12.416  0.3835  0.4393 -0.6104
  419MPD2    H7 6261   2.430   0.148  12.460 -0.4473  0.2199 -1.9056
  420TMC3    C1 6262   2.500   4.569  13.068  0.0474 -0.1673  0.3986
  420TMC3    C2 6263   2.374   4.620  13.059  0.2710  0.1164 -0.6262
  420TMC3    C3 6264   2.304   4.648  13.171  0.2261  1.0641 -0.5981
  420TMC3    C4 6265   2.555   4.548  13.193 -0.0056 -0.3895 -0.2657
  420TMC3    C5 6266   2.479   4.569  13.301 -0.2325  0.0562 -0.8672
  420TMC3    C6 6267   2.360   4.639  13.294 -0.0596  0.0206  0.0126
  420TMC3     C 6268   2.581   4.563  12.951 -0.1127 -0.3236 -0.0596
  420TMC3     O 6269   2.682   4.488  12.952 -0.0067 -0.2753 -0.1310
  420TMC3     H 6270   2.320   4.634  12.966 -2.8216  0.7472  1.2626
  420TMC3    H1 6271   2.652   4.504  13.209  0.6149  0.5725 -1.3514
  420TMC3    H2 6272   2.304   4.654  13.386  0.5731  1.6815  0.1292
  420TMC3    C7 6273   2.536   4.540  13.426 -0.4642  0.6672  0.8164
  420TMC3    C8 6274   2.196   0.026  13.150  0.7149 -0.3118 -0.0689
  420TMC3    O1 6275   2.604   4.436  13.436 -0.6201 -0.3110 -0.3603
  420TMC3    O2 6276   2.225   0.143  13.130  0.5139  0.6175 -0.2881
  421TMC3    C1 6277   4.485   1.598  13.540 -0.1647 -0.8597 -0.2703
  421TMC3    C2 6278   4.508   1.715  13.609 -0.8867 -0.4706 -0.7081
  421TMC3    C3 6279   4.581   1.702  13.724  0.4013  0.3100 -0.5670
  421TMC3    C4 6280   4.533   1.483  13.572  0.8950 -0.2253 -0.3755
  421TMC3    C5 6281   4.617   1.477  13.685  0.0237 -0.0816  0.0217
  421TMC3    C6 6282   4.639   1.580  13.764 -0.1668  0.9641 -0.5057
  421TMC3     C 6283   4.403   1.611  13.417  0.5768 -0.3447  0.3348
  421TMC3     O 6284   4.385   1.723  13.370  0.1827 -0.0037  0.0506
  421TMC3     H 6285   4.472   1.810  13.572 -1.4112  0.5033  2.2869
  421TMC3    H1 6286   4.550   1.403  13.500  1.1741 -1.0721  0.6445
  421TMC3    H2 6287   4.692   1.567  13.858 -3.3425  0.1910  1.2034
  421TMC3    C7 6288   4.709   1.367  13.705 -0.1045 -0.4184 -0.3532
  421TMC3    C8 6289   4.656   1.824  13.747  0.4902  0.4150 -0.3928
  421TMC3    O1 6290   0.088   1.386  13.773 -0.5362 -0.1676 -0.0709
  421TMC3    O2 6291   0.059   1.810  13.754 -0.1030  0.9364 -0.1766
  422TMC3    C1 6292   1.713   3.079  12.828 -0.1554  0.1142  1.0296
  422TMC3    C2 6293   1.665   3.182  12.905 -0.2193  0.1269  0.0630
  422TMC3    C3 6294   1.552   3.161  12.981 -0.6482  0.6782  0.0182
  422TMC3    C4 6295   1.629   2.970  12.807 -0.1196 -0.3883  0.5533
  422TMC3    C5 6296   1.512   2.946  12.877  0.3766  0.5309 -0.3302
  422TMC3    C6 6297   1.474   3.043  12.962 -0.0773 -0.4818 -0.3289
  422TMC3     C 6298   1.832   3.092  12.739  0.4570  1.2194 -0.1914
  422TMC3     O 6299   1.877   3.201  12.710  0.3217 -0.1925  0.0252
  422TMC3     H 6300   1.714   3.279  12.907  0.6225 -0.3126  0.7712
  422TMC3    H1 6301   1.646   2.914  12.716 -1.7997 -1.5124  0.9239
  422TMC3    H2 6302   1.395   3.012  13.031 -0.1069  0.4585  0.0627
  422TMC3    C7 6303   1.425   2.849  12.820  0.2001 -0.5104  0.3099
  422TMC3    C8 6304   1.526   3.257  13.088  0.5234  0.3008  0.4567
  422TMC3    O1 6305   1.478   2.769  12.744 -0.7576  0.1381  0.4848
  422TMC3    O2 6306   1.616   3.335  13.117  0.1976 -0.1144 -0.2307
  423MPD2     C 6307   3.608   3.568   0.745  0.4752 -0.8162 -0.9233
  423MPD2    C1 6308   3.536   3.446   0.751 -0.4742  0.1410  0.1998
  423MPD2    C2 6309   3.455   3.414   0.649 -0.1604  0.0805 -0.3386
  423MPD2    C3 6310   3.456   3.495   0.532 -0.0672  0.2065  0.2985
  423MPD2    C4 6311   3.533   3.611   0.525  1.1955 -0.4459  0.7396
  423MPD2    C5 6312   3.606   3.649   0.632  0.6040  0.5835 -0.2380
  423MPD2     H 6313   3.385   3.331   0.652 -0.6325  0.4929 -0.1324
  423MPD2    H1 6314   3.534   3.676   0.438  4.8067 -2.1289 -0.4836
  423MPD2    H2 6315   3.668   3.592   0.832 -2.1318  1.5912  0.1826
  423MPD2    H3 6316   3.670   3.736   0.634 -2.5042  2.8571 -1.1522
  423MPD2     N 6317   3.378   3.463   0.415 -0.8017  0.3191  0.3161
  423MPD2    H5 6318   3.396   3.534   0.345 -0.2705 -2.5299 -2.4071
  423MPD2    N1 6319   3.527   3.364   0.871  0.0518 -0.1338 -0.1266
  423MPD2    H7 6320   3.451   3.298   0.878 -0.6441  0.8594  1.7788
  424TMC3    C1 6321   3.612   3.255   1.062  0.9524  0.7548  0.0036
  424TMC3    C2 6322   3.723   3.194   1.099  0.0089 -0.2848  0.2841
  424TMC3    C3 6323   3.713   3.069   1.153 -0.0999  0.0941 -0.7271
  424TMC3    C4 6324   3.491   3.195   1.082  0.0830 -0.1464 -0.0580
  424TMC3    C5 6325   3.484   3.069   1.141 -0.0462  0.0706  0.3936
  424TMC3    C6 6326   3.596   3.001   1.172 -0.8409  0.7668 -0.5761
  424TMC3     C 6327   3.618   3.362   0.974  0.0752  0.8795  0.3246
  424TMC3     O 6328   3.709   3.436   0.999 -0.7683 -0.2429  0.4331
  424TMC3     H 6329   3.822   3.239   1.093 -0.4261  0.4864 -1.2457
  424TMC3    H1 6330   3.401   3.248   1.053 -1.2206 -3.0702 -1.3756
  424TMC3    H2 6331   3.574   2.904   1.215  0.1258  1.0317  0.5088
  424TMC3    C7 6332   3.361   3.017   1.194  0.3407  0.6707 -0.2297
  424TMC3    C8 6333   3.849   3.019   1.187  0.4971  0.2195  0.2457
  424TMC3    O1 6334   3.355   2.897   1.214  0.2715  0.3142  0.0751
  424TMC3    O2 6335   3.952   3.088   1.175  0.1796  0.0730  0.0721
  425MPD2     C 6336   1.907   3.448  16.947 -0.2849 -0.6678  0.0678
  425MPD2    C1 6337   1.877   3.326  17.009  0.4406  0.8638  0.9090
  425MPD2    C2 6338   1.764   3.310  17.087 -0.3112 -0.2427  0.3327
  425MPD2    C3 6339   1.684   3.423  17.105  0.3547  0.4368 -0.3793
  425MPD2    C4 6340   1.709   3.537  17.035 -0.3924  0.3370  0.9451
  425MPD2    C5 6341   1.817   3.553  16.955 -0.3650  0.1482 -0.2400
  425MPD2     H 6342   1.732   3.218  17.136  1.6791 -1.0775  0.0512
  425MPD2    H1 6343   1.654   3.628  17.057 -0.6818  0.3949 -0.0347
  425MPD2    H2 6344   2.003   3.454  16.896 -0.4666 -0.1629 -0.2173
  425MPD2    H3 6345   1.836   3.644  16.901 -0.1806  0.6258  0.6357
  425MPD2     N 6346   1.569   3.398  17.174 -0.3348 -0.2965  0.6991
  425MPD2    H5 6347   1.573   3.304  17.214 -1.3637 -0.2153  0.9845
  425MPD2    N1 6348   1.963   3.215  16.988  0.0605 -0.1023  0.6096
  425MPD2    H7 6349   2.034   3.221  16.916 -0.6876  0.1528 -0.0965
  426TMC3    C1 6350   2.075   3.004  17.022  0.3981 -0.0514 -0.5071
  426TMC3    C2 6351   2.085   2.962  16.891  0.3425  0.7929  0.1508
  426TMC3    C3 6352   2.133   2.840  16.867  0.1251  0.4587  0.2116
  426TMC3    C4 6353   2.099   2.917  17.123  0.3642 -0.4353  0.3951
  426TMC3    C5 6354   2.161   2.797  17.098  0.2133  0.0209 -0.5559
  426TMC3    C6 6355   2.166   2.749  16.967 -0.2866  0.4257 -0.0442
  426TMC3     C 6356   1.969   3.098  17.057  0.0423 -0.2777 -0.7109
  426TMC3     O 6357   1.899   3.070  17.151  0.7640 -0.2634  0.0201
  426TMC3     H 6358   2.053   3.031  16.813  2.1707  1.7399  0.2382
  426TMC3    H1 6359   2.094   2.960  17.223 -1.8915  0.1831  0.0049
  426TMC3    H2 6360   2.210   2.654  16.940 -2.4364 -0.1195 -1.5917
  426TMC3    C7 6361   2.186   2.706  17.214 -0.6286 -0.8041  0.1352
  426TMC3    C8 6362   2.112   2.792  16.733  0.3637 -0.2072  0.7123
  426TMC3    O1 6363   2.258   2.612  17.190 -0.3901  0.2017 -0.4168
  426TMC3    O2 6364   2.152   2.865  16.646 -0.0766  0.3115 -0.2948
  427MPD2     C 6365   0.955   0.572  14.901 -0.0401  0.2950  0.0580
  427MPD2    C1 6366   0.876   0.481  14.971 -0.1403 -0.0804 -0.1848
  427MPD2    C2 6367   0.738   0.501  14.973  0.0698 -0.0998 -0.3543
  427MPD2    C3 6368   0.676   0.606  14.904  0.0858  0.0841  0.5047
  427MPD2    C4 6369   0.750   0.693  14.831  0.6734 -0.4620 -0.1101
  427MPD2    C5 6370   0.889   0.672  14.830  0.2178 -0.2312  0.7779
  427MPD2     H 6371   0.677   0.441  15.039  0.6021 -2.2449 -1.8305
  427MPD2    H1 6372   0.718   0.786  14.787  1.9496 -0.2506 -0.5709
  427MPD2    H2 6373   1.063   0.567  14.895 -0.0804  0.6174 -0.8890
  427MPD2    H3 6374   0.956   0.747  14.791 -1.5127  0.4061 -0.9765
  427MPD2     N 6375   0.539   0.625  14.907 -0.3894  0.3005  0.1776
  427MPD2    H5 6376   0.500   0.709  14.865  0.5333  0.9166  0.5496
  427MPD2    N1 6377   0.922   0.374  15.056 -0.5063 -0.2714  0.2572
  427MPD2    H7 6378   0.847   0.328  15.107 -0.4509 -0.7531 -0.0899
  428TMC3    C1 6379   1.064   0.243  15.181 -0.2350  0.2461 -0.6228
  428TMC3    C2 6380   0.956   0.178  15.228  0.6836  0.0981  0.1521
  428TMC3    C3 6381   0.962   0.133  15.355  0.4854 -0.4938 -0.1265
  428TMC3    C4 6382   1.172   0.265  15.265 -0.4387 -0.3390 -0.4217
  428TMC3    C5 6383   1.167   0.229  15.395 -0.0097 -0.4603  0.6617
  428TMC3    C6 6384   1.062   0.158  15.444  0.0175 -0.0076 -0.2035
  428TMC3     C 6385   1.054   0.338  15.067  0.1178  0.4522 -0.0386
  428TMC3     O 6386   1.151   0.380  15.003 -0.4629  0.0953  0.2677
  428TMC3     H 6387   0.872   0.160  15.161 -0.1109 -1.1065  1.4717
  428TMC3    H1 6388   1.254   0.309  15.209 -0.1144 -0.1424  0.2102
  428TMC3    H2 6389   1.061   0.114  15.543  2.6845 -0.1979 -0.2675
  428TMC3    C7 6390   1.282   0.262  15.473  0.3466 -0.0884 -0.6954
  428TMC3    C8 6391   0.894   0.007  15.384 -0.0272  0.6049 -0.1302
  428TMC3    O1 6392   1.266   0.277  15.593 -0.0033  0.4581 -0.0294
  428TMC3    O2 6393   0.893   4.652  15.286  0.4306 -0.8722 -0.6635
  429MPD2     C 6394   2.065   0.874  17.645 -0.3688 -0.2155 -0.2248
  429MPD2    C1 6395   2.106   0.744  17.612  0.1047  0.0158  0.0590
  429MPD2    C2 6396   2.181   0.732  17.497  0.1122 -0.3849  0.2946
  429MPD2    C3 6397   2.210   0.841  17.421 -0.3783  0.3640 -0.0571
  429MPD2    C4 6398   2.144   0.955  17.443 -0.3045 -0.0451  0.1261
  429MPD2    C5 6399   2.080   0.975  17.561  0.0693  0.1395 -0.2872
  429MPD2     H 6400   2.214   0.639  17.453 -1.8095 -0.0267 -1.8910
  429MPD2    H1 6401   2.139   1.041  17.378 -0.6314 -0.0074  0.1992
  429MPD2    H2 6402   2.003   0.894   0.046 -1.1395  0.4893 -0.9300
  429MPD2    H3 6403   2.051   1.076  17.588  0.4482 -0.8177  3.6957
  429MPD2     N 6404   2.310   0.830  17.319  0.3447  0.0235 -0.0608
  429MPD2    H5 6405   2.339   0.733  17.311  0.4669  0.0183  0.4691
  429MPD2    N1 6406   2.074   0.627   0.000 -0.7382  0.7311 -0.1099
  429MPD2    H7 6407   2.108   0.540  17.647 -1.4021  0.9685 -1.2141
  430TMC3    C1 6408   2.445   0.899  17.132 -0.6738  0.3900  0.6153
  430TMC3    C2 6409   2.450   0.996  17.031  0.0840  0.1634  0.1550
  430TMC3    C3 6410   2.525   0.974  16.919  0.9091 -0.0279 -0.2474
  430TMC3    C4 6411   2.503   0.777  17.123  0.0755 -0.7338  0.0688
  430TMC3    C5 6412   2.561   0.755  17.007  0.4354 -0.4971 -0.0432
  430TMC3    C6 6413   2.584   0.850  16.908 -0.1763 -0.1231 -0.5462
  430TMC3     C 6414   2.355   0.937  17.244  0.7655 -0.2150 -0.9569
  430TMC3     O 6415   2.325   1.056  17.240  0.2083  0.4073  0.1355
  430TMC3     H 6416   2.423   1.100  17.045 -4.0966 -0.8156 -0.8036
  430TMC3    H1 6417   2.515   0.712  17.210 -0.9970  0.7683  1.3330
  430TMC3    H2 6418   2.645   0.821  16.823  2.2413 -0.6544  1.3703
  430TMC3    C7 6419   2.523   0.622  16.953  0.6657 -0.4700  0.4016
  430TMC3    C8 6420   2.454   0.995  16.794  0.0784  0.4538 -0.2495
  430TMC3    O1 6421   2.497   0.531  17.038 -0.6068  0.2138 -0.1533
  430TMC3    O2 6422   2.441   0.894  16.723  0.1034 -0.6726 -0.1317
  431MPD2     C 6423   2.732   1.021  12.002 -0.0039  0.1757  0.5649
  431MPD2    C1 6424   2.781   0.940  12.103 -0.0597  0.9806  0.5392
  431MPD2    C2 6425   2.709   0.821  12.135  0.7089  1.1349  0.2154
  431MPD2    C3 6426   2.589   0.789  12.069 -0.0662  0.5170  0.4182
  431MPD2    C4 6427   2.539   0.872  11.970  0.2528 -0.2169 -0.5731
  431MPD2    C5 6428   2.616   0.981  11.934  0.1825 -0.2877  0.2370
  431MPD2     H 6429   2.746   0.745  12.203 -0.1497  0.4151 -0.1295
  431MPD2    H1 6430   2.445   0.850  11.921  0.5046  1.8535 -1.9966
  431MPD2    H2 6431   2.777   1.114  11.972  1.2845 -0.4482  0.5498
  431MPD2    H3 6432   2.575   1.051  11.861 -3.3297 -0.3747  2.1020
  431MPD2     N 6433   2.519   0.663  12.085  0.0645 -0.2137  0.0275
  431MPD2    H5 6434   2.435   0.650  12.029 -0.6931 -0.3840  1.2024
  431MPD2    N1 6435   2.897   0.989  12.170  0.7743 -0.5011 -0.1217
  431MPD2    H7 6436   2.947   1.068  12.134 -2.9519  2.5063  1.2598
  432TMC3    C1 6437   2.469   0.443  12.156 -0.4478 -0.8206 -0.4173
  432TMC3    C2 6438   2.443   0.412  12.022  0.1761  0.8467  0.3491
  432TMC3    C3 6439   2.433   0.285  11.987 -0.4722  0.8789  0.3602
  432TMC3    C4 6440   2.479   0.347  12.250 -0.2026  0.3055 -0.7400
  432TMC3    C5 6441   2.447   0.218  12.217 -0.2792 -0.4412  0.0622
  432TMC3    C6 6442   2.429   0.188  12.083 -0.1522 -0.1014 -0.6602
  432TMC3     C 6443   2.528   0.572  12.188  0.1000  0.4152  0.8569
  432TMC3     O 6444   2.603   0.583  12.285 -0.2496 -0.4584 -0.4644
  432TMC3     H 6445   2.457   0.482  11.941  1.7050  0.0679 -0.0432
  432TMC3    H1 6446   2.523   0.369  12.346 -0.3147 -1.9151 -0.1664
  432TMC3    H2 6447   2.392   0.091  12.053  2.3109 -0.9129 -1.0021
  432TMC3    C7 6448   2.533   0.118  12.279  1.0002  0.0768 -0.6039
  432TMC3    C8 6449   2.462   0.242  11.848 -0.2044  0.0384 -1.0328
  432TMC3    O1 6450   2.591   0.045  12.203  0.2329  0.0547 -0.4275
  432TMC3    O2 6451   2.465   0.325  11.758 -0.2319 -0.7817  0.3909
  433MPD2     C 6452   1.614   4.166  10.734  0.4322  0.1974  0.6214
  433MPD2    C1 6453   1.641   4.063  10.820 -0.5681 -0.2787  0.3180
  433MPD2    C2 6454   1.660   4.092  10.957  0.4052  0.2222 -0.3341
  433MPD2    C3 6455   1.691   4.221  10.993  0.4599  0.7417  0.1216
  433MPD2    C4 6456   1.678   4.327  10.902  0.0395  0.3646 -0.1579
  433MPD2    C5 6457   1.630   4.297  10.773  0.4177  0.1086 -0.1128
  433MPD2     H 6458   1.647   4.010  11.027 -2.4515  1.6045  0.7722
  433MPD2    H1 6459   1.692   4.430  10.933 -0.8791  1.1624 -2.4256
  433MPD2    H2 6460   1.571   4.148  10.636  0.1013  2.8094  0.2893
  433MPD2    H3 6461   1.596   4.373  10.704 -0.2777 -1.1365 -1.1337
  433MPD2     N 6462   1.727   4.228  11.130  0.1225  0.2753 -0.4463
  433MPD2    H5 6463   1.754   4.146  11.183 -1.0622  1.2421  1.6294
  433MPD2    N1 6464   1.639   3.925  10.778  0.6983  0.0829 -0.0458
  433MPD2    H7 6465   1.599   3.908  10.686 -1.3329  1.6188  0.5437
  434TMC3    C1 6466   1.711   3.709  10.758 -0.1661  0.2706  0.6179
  434TMC3    C2 6467   1.735   3.594  10.829  0.6868 -0.2466 -0.0078
  434TMC3    C3 6468   1.825   3.501  10.775  0.3204  0.1118 -0.8004
  434TMC3    C4 6469   1.771   3.734  10.640  0.6657  0.3687 -0.3060
  434TMC3    C5 6470   1.863   3.639  10.593 -0.3144 -0.3004 -0.4547
  434TMC3    C6 6471   1.892   3.523  10.657  0.2078  0.1376 -0.0070
  434TMC3     C 6472   1.698   3.827  10.843  0.4744 -0.4680  1.0372
  434TMC3     O 6473   1.756   3.835  10.949 -0.2880 -0.0993 -0.4915
  434TMC3     H 6474   1.687   3.585  10.926  0.4284  0.8046 -0.0413
  434TMC3    H1 6475   1.743   3.823  10.586  1.7122 -0.0243 -1.5198
  434TMC3    H2 6476   1.973   3.464  10.615  2.3157  2.6978  0.4301
  434TMC3    C7 6477   1.905   3.652  10.454  1.6653 -0.2731 -0.1242
  434TMC3    C8 6478   1.908   3.459  10.883  0.4168  0.7901 -0.2342
  434TMC3    O1 6479   1.905   3.768  10.413 -0.0644 -0.8551 -0.3047
  434TMC3    O2 6480   1.886   3.513  10.987  0.0746  0.2796 -0.0094
  435MPD2     C 6481   3.594   4.220  15.547  0.1086  1.0420 -0.6849
  435MPD2    C1 6482   3.553   4.176  15.676 -0.7923 -0.1620  0.0771
  435MPD2    C2 6483   3.634   4.108  15.763 -0.0648  0.2252  0.0123
  435MPD2    C3 6484   3.759   4.075  15.726  0.5784 -0.4759  0.6164
  435MPD2    C4 6485   3.791   4.100  15.593  0.4615  0.5602 -0.0230
  435MPD2    C5 6486   3.720   4.178  15.511 -0.1833 -0.6240  0.5935
  435MPD2     H 6487   3.600   4.099  15.865  0.2057  1.6230  0.2253
  435MPD2    H1 6488   3.882   4.062  15.549  0.0430 -1.1310  0.6035
  435MPD2    H2 6489   3.543   4.294  15.486  0.8821  2.2082  0.0815
  435MPD2    H3 6490   3.753   4.202  15.411 -0.0476  0.5366  0.9216
  435MPD2     N 6491   3.842   3.992  15.805 -0.5772 -0.1758  0.2053
  435MPD2    H5 6492   3.798   3.958  15.890 -0.9352 -0.7797 -0.2103
  435MPD2    N1 6493   3.428   4.216  15.728  0.1701  0.3168 -0.2384
  435MPD2    H7 6494   3.415   4.183  15.823  0.5146 -1.6210 -0.8767
  436TMC3    C1 6495   3.121   4.182  15.947 -0.7420 -0.4888 -0.5726
  436TMC3    C2 6496   3.209   4.258  15.873  0.5021  0.0715 -0.0815
  436TMC3    C3 6497   3.196   4.247  15.736 -0.1324 -0.4809 -0.2994
  436TMC3    C4 6498   3.021   4.106  15.882  0.4888 -0.0634  0.7088
  436TMC3    C5 6499   3.024   4.093  15.740  0.5653  0.1276  0.9194
  436TMC3    C6 6500   3.109   4.163  15.671  0.2762  0.6928  0.5873
  436TMC3     C 6501   3.143   4.171  16.094 -0.2010  0.8693  0.2658
  436TMC3     O 6502   3.252   4.210  16.138 -0.5308  0.0621  0.0265
  436TMC3     H 6503   3.291   4.308  15.922  0.0817 -0.0731  0.7583
  436TMC3    H1 6504   2.963   4.036  15.940  2.9341 -2.3928  0.3236
  436TMC3    H2 6505   3.108   4.172  15.563  0.4889  2.5741  0.7358
  436TMC3    C7 6506   2.948   3.988  15.675 -0.3622 -0.8658 -0.4177
  436TMC3    C8 6507   3.324   4.270  15.662 -0.1678 -0.4793 -0.5368
  436TMC3    O1 6508   2.843   3.950  15.723  0.1878  0.0495  0.3849
  436TMC3    O2 6509   3.306   4.298  15.544 -0.1939 -0.5773  0.4804
  437TMC3    C1 6510   2.334   1.538  12.577 -0.7583 -0.1503  0.1745
  437TMC3    C2 6511   2.214   1.545  12.506 -0.3591 -0.7081 -0.1941
  437TMC3    C3 6512   2.224   1.517  12.376  0.1349  0.0020 -0.3420
  437TMC3    C4 6513   2.461   1.508  12.526 -0.5278 -0.1002 -0.1101
  437TMC3    C5 6514   2.457   1.488  12.390 -0.0042 -0.5047  0.4610
  437TMC3    C6 6515   2.342   1.484  12.320  0.2007  0.2510 -0.0759
  437TMC3     C 6516   2.316   1.485  12.711  0.8855 -0.2978 -0.6477
  437TMC3     O 6517   2.404   1.407  12.743  0.3797  0.0688 -0.0110
  437TMC3     H 6518   2.118   1.581  12.541  0.5293  0.1725  1.3268
  437TMC3    H1 6519   2.548   1.507  12.590 -0.8554  0.5797  0.3473
  437TMC3    H2 6520   2.352   1.459  12.215 -0.7643  0.5891 -0.2543
  437TMC3    C7 6521   2.574   1.532  12.316  0.2441  0.3087 -0.2093
  437TMC3    C8 6522   2.121   1.549  12.277 -0.0817 -0.0930  0.0407
  437TMC3    O1 6523   2.554   1.628  12.238 -0.1876 -0.2473  0.7214
  437TMC3    O2 6524   2.118   1.470  12.183  0.1632 -0.1582 -0.2665
  438MPD2     C 6525   0.018   1.946  16.507  0.1642  0.0548 -0.7367
  438MPD2    C1 6526   0.110   1.846  16.542 -0.0276 -0.3300  0.2693
  438MPD2    C2 6527   0.122   1.813  16.675 -0.5149 -0.2712  0.2537
  438MPD2    C3 6528   0.056   1.876  16.772 -0.3725 -0.2899 -0.1829
  438MPD2    C4 6529   4.680   1.968  16.740  0.7908  0.7475  0.0786
  438MPD2    C5 6530   4.653   1.985  16.607 -0.0373  0.0623 -1.0043
  438MPD2     H 6531   0.208   1.753  16.702  0.1628  0.0994 -1.0994
  438MPD2    H1 6532   4.624   2.017  16.819  3.1943  1.9098  1.0791
  438MPD2    H2 6533   0.003   1.969  16.402 -1.0862 -1.8749 -0.9734
  438MPD2    H3 6534   4.566   2.043  16.578 -0.4378  0.5369  1.1380
  438MPD2     N 6535   0.099   1.838  16.903 -0.4623 -0.2317 -0.3957
  438MPD2    H5 6536   0.148   1.752  16.925 -1.9425 -0.9080  0.2636
  438MPD2    N1 6537   0.194   1.777  16.452  0.9067 -0.2295 -0.1049
  438MPD2    H7 6538   0.253   1.708  16.497  0.2802 -0.5915  0.1532
  439TMC3    C1 6539   0.279   1.696  16.245 -0.5919 -0.2326 -0.1418
  439TMC3    C2 6540   0.260   1.675  16.112 -0.4190  0.1812 -0.8952
  439TMC3    C3 6541   0.330   1.581  16.049 -0.6442  0.0755 -0.3856
  439TMC3    C4 6542   0.391   1.648  16.303  0.5653  0.1487  0.4692
  439TMC3    C5 6543   0.472   1.558  16.232  0.3842  0.1563  0.0583
  439TMC3    C6 6544   0.431   1.518  16.114  1.0850  0.0737 -0.5294
  439TMC3     C 6545   0.186   1.781  16.314 -0.1043 -0.3411  0.1887
  439TMC3     O 6546   0.108   1.850  16.242 -0.0510  0.4360  0.1606
  439TMC3     H 6547   0.192   1.736  16.054 -2.4819 -2.0049 -0.7573
  439TMC3    H1 6548   0.425   1.681  16.401  0.3852  2.3536 -0.2294
  439TMC3    H2 6549   0.479   1.437  16.060  0.3711 -1.6522  1.4282
  439TMC3    C7 6550   0.599   1.513  16.294 -0.0410  0.3869  0.4750
  439TMC3    C8 6551   0.352   1.593  15.909  0.2173 -0.5134 -0.9579
  439TMC3    O1 6552   0.614   1.508  16.415  0.0681  0.1341  0.4950
  439TMC3    O2 6553   0.381   1.486  15.858  0.0676  0.3329  0.1148
  440MPD2     C 6554   4.450   3.002  14.581 -0.2836  0.2521 -0.7856
  440MPD2    C1 6555   4.374   2.886  14.597 -0.1948 -1.0147  0.2799
  440MPD2    C2 6556   4.411   2.807  14.702 -0.6491  0.2712 -1.3223
  440MPD2    C3 6557   4.501   2.853  14.796  0.3782 -0.2537 -0.1996
  440MPD2    C4 6558   4.567   2.969  14.784 -0.1943 -0.3013  0.6641
  440MPD2    C5 6559   4.546   3.043  14.666 -0.4969  0.3461  0.2761
  440MPD2     H 6560   4.360   2.713  14.721  0.6997  0.3691  2.8179
  440MPD2    H1 6561   4.644   2.996  14.855  0.4117 -1.2612  0.3774
  440MPD2    H2 6562   4.415   3.069  14.503 -1.9661  0.8996  0.5184
  440MPD2    H3 6563   4.590   3.142  14.658 -1.7343  0.8537 -0.3412
  440MPD2     N 6564   4.541   2.768  14.906 -0.5825 -0.7418  0.6483
  440MPD2    H5 6565   4.599   2.818  14.973 -0.7365  0.5519 -0.1683
  440MPD2    N1 6566   4.272   2.840  14.504 -0.0607  0.0213 -0.1342
  440MPD2    H7 6567   4.214   2.769  14.547  0.1076 -0.5252 -0.8126
  441TMC3    C1 6568   4.549   2.599  15.069 -0.0129 -0.3079 -0.5843
  441TMC3    C2 6569   4.541   2.694  15.167  0.0113 -0.0623 -0.3727
  441TMC3    C3 6570   4.542   2.647  15.296  0.0219 -0.3330 -0.3984
  441TMC3    C4 6571   4.546   2.463  15.103 -0.7891 -0.0429  0.0982
  441TMC3    C5 6572   4.551   2.421  15.229 -0.4195 -0.1511 -0.4556
  441TMC3    C6 6573   4.567   2.515  15.321 -0.0736 -0.6325  0.0827
  441TMC3     C 6574   4.505   2.637  14.939 -0.1715 -0.2135  0.0697
  441TMC3     O 6575   4.443   2.553  14.873 -0.3419  0.9393  0.3354
  441TMC3     H 6576   4.545   2.801  15.154  1.2201  0.1345  1.6010
  441TMC3    H1 6577   4.563   2.387  15.027  1.7008  0.7180 -0.1245
  441TMC3    H2 6578   4.564   2.485  15.426 -2.9499 -1.3478 -0.2072
  441TMC3    C7 6579   4.462   2.311  15.271  0.2363  2.0768 -0.4576
  441TMC3    C8 6580   4.442   2.709  15.385  1.2922  0.2262 -0.5585
  441TMC3    O1 6581   4.467   2.278  15.392  0.1066  0.3704  0.0627
  441TMC3    O2 6582   4.448   2.693  15.509  0.3879 -0.4522  0.2956
  442MPD2     C 6583   1.677   2.944  16.882 -0.6242 -0.0792  0.5681
  442MPD2    C1 6584   1.646   2.978  16.751  0.7207  0.5517  0.0213
  442MPD2    C2 6585   1.688   2.896  16.646 -0.4463  0.4684 -0.3288
  442MPD2    C3 6586   1.728   2.765  16.668  1.0339  0.6135 -0.1764
  442MPD2    C4 6587   1.744   2.726  16.797  0.0926  1.3074  0.1541
  442MPD2    C5 6588   1.739   2.825  16.893 -0.1061  0.6416 -0.1842
  442MPD2     H 6589   1.674   2.936  16.547 -0.5044  2.0070  0.2945
  442MPD2    H1 6590   1.800   2.636  16.821 -0.8714  0.8389  0.6347
  442MPD2    H2 6591   1.660   3.008  16.967 -0.3424 -0.8030  1.1631
  442MPD2    H3 6592   1.767   2.801  16.995 -2.7760 -1.3943  0.0376
  442MPD2     N 6593   1.759   2.669  16.559  0.1127  0.0227 -0.4903
  442MPD2    H5 6594   1.743   2.572  16.584  0.4653 -0.1387 -0.8783
  442MPD2    N1 6595   1.590   3.109  16.730 -0.5775  0.2208 -0.1862
  442MPD2    H7 6596   1.566   3.127  16.633 -1.3806  1.0018  0.1601
  443TMC3    C1 6597   1.485   3.305  16.763  0.5505  1.4575  0.6810
  443TMC3    C2 6598   1.518   3.334  16.632  0.1048 -0.2473 -0.0426
  443TMC3    C3 6599   1.416   3.359  16.548  0.3376 -0.1745 -0.4598
  443TMC3    C4 6600   1.365   3.331  16.812  0.7392 -0.6399  0.3289
  443TMC3    C5 6601   1.260   3.343  16.730  0.7179  0.1132 -0.0073
  443TMC3    C6 6602   1.284   3.352  16.596 -0.1473 -0.6255 -0.6960
  443TMC3     C 6603   1.551   3.198  16.827  0.5728  0.4452  0.5901
  443TMC3     O 6604   1.528   3.174  16.946 -0.0621  0.0029 -0.2113
  443TMC3     H 6605   1.615   3.326  16.585  1.0871 -0.7915  2.0698
  443TMC3    H1 6606   1.341   3.309  16.916  1.0120  1.7187  0.9102
  443TMC3    H2 6607   1.206   3.339  16.521  0.9654 -0.4973 -1.8650
  443TMC3    C7 6608   1.133   3.283  16.773 -0.2079  0.3165  0.2540
  443TMC3    C8 6609   1.426   3.284  16.426  0.1982  0.2288  0.3345
  443TMC3    O1 6610   1.131   3.241  16.886 -0.7309 -0.4461 -0.6300
  443TMC3    O2 6611   1.491   3.180  16.428 -0.1323  0.2167 -1.0274
  444MPD2     C 6612   2.201   2.371  16.963  0.1005  0.0500 -1.1527
  444MPD2    C1 6613   2.116   2.276  16.906 -0.2742 -0.4062 -0.0626
  444MPD2    C2 6614   2.158   2.182  16.807 -0.3967 -0.0413 -0.2121
  444MPD2    C3 6615   2.289   2.196  16.759  0.0964 -1.5427 -0.7118
  444MPD2    C4 6616   2.369   2.295  16.802  0.3149 -0.1160  0.3853
  444MPD2    C5 6617   2.328   2.371  16.910  0.4256 -0.3373 -0.7090
  444MPD2     H 6618   2.088   2.106  16.774 -0.4717 -0.0922  0.0667
  444MPD2    H1 6619   2.464   2.317  16.754  0.2474  4.4293  2.3160
  444MPD2    H2 6620   2.172   2.442  17.040  0.5428 -1.1083  0.0777
  444MPD2    H3 6621   2.390   2.447  16.954  1.3462 -0.0840 -2.4512
  444MPD2     N 6622   2.322   2.110  16.643  0.1073 -0.3683 -0.3333
  444MPD2    H5 6623   2.262   2.033  16.615 -0.5939  0.1928 -0.3600
  444MPD2    N1 6624   1.974   2.284  16.935  0.0562  0.0376 -0.2223
  444MPD2    H7 6625   1.910   2.213  16.901  0.1950  0.4884 -1.4138
  445TMC3    C1 6626   2.475   2.000  16.515 -0.0785  0.0560 -0.2441
  445TMC3    C2 6627   2.396   1.953  16.414 -0.1469 -0.3315 -0.2488
  445TMC3    C3 6628   2.442   1.845  16.336 -0.4474  0.1791  0.1790
  445TMC3    C4 6629   2.603   1.956  16.537 -0.3479  0.3867 -0.1598
  445TMC3    C5 6630   2.646   1.851  16.462  0.2549  0.2371  0.2599
  445TMC3    C6 6631   2.568   1.798  16.364 -0.2231 -0.2033  0.2219
  445TMC3     C 6632   2.441   2.125  16.576  0.4598 -0.1363  0.1466
  445TMC3     O 6633   2.536   2.198  16.586  0.3042  0.0545 -0.3101
  445TMC3     H 6634   2.295   1.991  16.408 -0.9666 -2.6207 -0.8237
  445TMC3    H1 6635   2.658   1.988  16.625  1.5773  0.0143 -1.2219
  445TMC3    H2 6636   2.614   1.723  16.300 -0.3273  1.0980 -1.3721
  445TMC3    C7 6637   2.780   1.814  16.481  0.4065 -0.2300 -0.0126
  445TMC3    C8 6638   2.346   1.779  16.242 -0.1217 -0.7214 -0.6103
  445TMC3    O1 6639   2.851   1.896  16.537  0.5373 -0.0691  0.6971
  445TMC3    O2 6640   2.237   1.835  16.247 -0.3496  0.1966  0.8610
  446MPD2     C 6641   1.754   3.193  11.388 -0.1171 -0.2923  0.3274
  446MPD2    C1 6642   1.692   3.266  11.285 -0.8126  0.5839  0.1304
  446MPD2    C2 6643   1.731   3.396  11.259 -0.5453 -0.5014 -0.1041
  446MPD2    C3 6644   1.833   3.451  11.331 -0.3810 -0.1672  0.1504
  446MPD2    C4 6645   1.883   3.378  11.443  0.3796 -0.2609  0.6482
  446MPD2    C5 6646   1.836   3.256  11.478 -0.2327  0.1096 -0.4492
  446MPD2     H 6647   1.704   3.445  11.166  2.9620  0.8587 -0.3903
  446MPD2    H1 6648   1.968   3.403  11.505  0.0254  1.8090  0.3185
  446MPD2    H2 6649   1.726   3.091  11.409 -0.1705 -0.1425  1.0183
  446MPD2    H3 6650   1.888   3.212  11.562  0.0811 -0.0147 -0.7105
  446MPD2     N 6651   1.905   3.566  11.280 -0.5883  0.2334  0.1949
  446MPD2    H5 6652   1.890   3.586  11.182  1.1955 -2.8878 -0.7080
  446MPD2    N1 6653   1.605   3.203  11.191 -0.5425  0.3372 -0.3800
  446MPD2    H7 6654   1.569   3.268  11.121 -2.4474  0.0870  0.3771
  447TMC3    C1 6655   2.092   3.712  11.257  0.0385 -0.1717 -1.3740
  447TMC3    C2 6656   2.060   3.717  11.118  0.5123  0.2239  0.4802
  447TMC3    C3 6657   2.161   3.764  11.037  0.7890 -0.0765  0.0701
  447TMC3    C4 6658   2.215   3.747  11.303 -0.1953 -0.3459 -0.0126
  447TMC3    C5 6659   2.314   3.792  11.221  0.3839 -0.1316 -0.6531
  447TMC3    C6 6660   2.292   3.796  11.090 -0.1310 -0.4768  0.0995
  447TMC3     C 6661   2.017   3.617  11.340 -0.0731 -0.3796 -0.3338
  447TMC3     O 6662   2.061   3.600  11.453 -0.4301  0.6768 -0.4028
  447TMC3     H 6663   1.960   3.707  11.076  0.2845  1.3248  0.7574
  447TMC3    H1 6664   2.231   3.754  11.410  1.4485  0.5166 -0.3104
  447TMC3    H2 6665   2.362   3.830  11.014  0.1532 -1.4224 -0.0691
  447TMC3    C7 6666   2.437   3.730  11.257 -0.1515  0.9430  0.0651
  447TMC3    C8 6667   2.164   3.729  10.896 -0.3592  0.3115 -0.6776
  447TMC3    O1 6668   2.488   3.675  11.164  0.4926 -0.2421  0.7142
  447TMC3    O2 6669   2.074   3.761  10.824  0.2410 -0.2020 -0.4681
  448TMC3    C1 6670   0.088   2.923  16.984  0.0480  0.1244 -0.4671
  448TMC3    C2 6671   4.712   2.860  16.912 -0.5242 -0.4831  0.5511
  448TMC3    C3 6672   0.027   2.739  16.862  0.4453 -0.9375 -1.0429
  448TMC3    C4 6673   0.206   2.872  17.022  0.5056 -0.2445 -0.5525
  448TMC3    C5 6674   0.229   2.746  16.984  0.4253 -0.2634  0.0282
  448TMC3    C6 6675   0.144   2.683  16.895 -0.2536  0.2159  0.0162
  448TMC3     C 6676   0.063   3.063  17.010 -0.8320 -1.1002 -0.3126
  448TMC3     O 6677   4.663   3.094  17.016 -0.0557 -0.3958  0.2114
  448TMC3     H 6678   4.628   2.904  16.861  0.5510  0.1752 -0.6566
  448TMC3    H1 6679   0.279   2.924  17.084 -0.0003  1.6901 -1.5985
  448TMC3    H2 6680   0.166   2.592  16.840 -1.7512  0.3210 -0.7547
  448TMC3    C7 6681   0.334   2.664  17.036 -0.4448  0.6649 -0.4099
  448TMC3    C8 6682   4.699   2.715  16.729 -0.0166  0.2607  0.1430
  448TMC3    O1 6683   0.338   2.545  16.999  0.2568  0.3066  0.1633
  448TMC3    O2 6684   0.060   2.678  16.646  0.0990  0.1521  0.1582
  449MPD2     C 6685   1.873   1.748  14.124 -0.2721 -1.0490  0.6210
  449MPD2    C1 6686   1.760   1.675  14.083 -0.1205  0.7110 -0.3739
  449MPD2    C2 6687   1.754   1.539  14.111 -0.9580  0.5938  0.1056
  449MPD2    C3 6688   1.854   1.481  14.176 -0.7385 -0.9860  0.0053
  449MPD2    C4 6689   1.961   1.550  14.219 -0.1044 -0.0580 -0.5914
  449MPD2    C5 6690   1.972   1.681  14.190  0.6940 -0.4748 -0.0539
  449MPD2     H 6691   1.672   1.478  14.076  2.0542 -2.7651 -1.1000
  449MPD2    H1 6692   2.043   1.512  14.279 -1.4572  0.3101  1.5207
  449MPD2    H2 6693   1.886   1.853  14.099 -1.2544 -0.4069  2.8568
  449MPD2    H3 6694   2.056   1.733  14.236 -1.3215 -0.4498  3.6097
  449MPD2     N 6695   1.842   1.340  14.175  0.4227  0.2934  1.0222
  449MPD2    H5 6696   1.771   1.295  14.119  0.7937  0.0726  0.7258
  449MPD2    N1 6697   1.651   1.729  14.007  0.5254  0.2827  0.3132
  449MPD2    H7 6698   1.572   1.669  13.985  0.0815  1.4632 -1.3119
  450TMC3    C1 6699   1.507   1.863  13.883 -0.3268  0.3626 -0.4153
  450TMC3    C2 6700   1.526   1.855  13.742  0.2132  0.0814 -0.6106
  450TMC3    C3 6701   1.442   1.789  13.663 -0.1166 -0.5597 -0.1564
  450TMC3    C4 6702   1.411   1.779  13.933 -0.3861  0.1266  0.2029
  450TMC3    C5 6703   1.330   1.702  13.854  0.8710 -0.3306 -0.7072
  450TMC3    C6 6704   1.337   1.718  13.712 -0.0404  0.6517 -0.6611
  450TMC3     C 6705   1.633   1.851  13.953 -0.2577  0.3126 -0.1282
  450TMC3     O 6706   1.723   1.931  13.918  0.5398  0.6831 -0.0515
  450TMC3     H 6707   1.601   1.912  13.688  1.1042  0.4299  0.9992
  450TMC3    H1 6708   1.402   1.760  14.039  0.9475  1.2634  0.5167
  450TMC3    H2 6709   1.294   1.639  13.651 -0.6067 -1.9949  3.1846
  450TMC3    C7 6710   1.337   1.564  13.896 -0.0854 -0.1281 -0.3889
  450TMC3    C8 6711   1.465   1.814  13.520 -0.0974  0.0370 -0.0245
  450TMC3    O1 6712   1.441   1.535  13.952 -0.1684 -0.1335  0.0616
  450TMC3    O2 6713   1.370   1.804  13.439  0.3772  0.1634  0.2512
  451MPD2     C 6714   2.878   0.917   1.319  0.8738 -0.4961 -0.9303
  451MPD2    C1 6715   2.802   0.856   1.224 -0.9985 -0.2638 -0.7222
  451MPD2    C2 6716   2.822   0.722   1.196 -0.3974 -0.2661  0.2027
  451MPD2    C3 6717   2.913   0.647   1.268  0.6163  0.2159  0.2187
  451MPD2    C4 6718   2.987   0.711   1.366 -0.7108 -0.7711 -0.6313
  451MPD2    C5 6719   2.977   0.847   1.384  0.0346 -0.1320  0.5002
  451MPD2     H 6720   2.762   0.681   1.115 -1.0033 -1.4214  1.2371
  451MPD2    H1 6721   3.053   0.655   1.431 -0.6108  0.7398  0.5795
  451MPD2    H2 6722   2.869   1.021   1.346  1.4811 -0.3210 -1.4115
  451MPD2    H3 6723   3.033   0.904   1.457  2.0107 -0.7965 -0.4836
  451MPD2     N 6724   2.937   0.507   1.251 -0.7057 -0.0495  0.5528
  451MPD2    H5 6725   3.009   0.467   1.310 -0.4335 -1.9246 -1.0594
  451MPD2    N1 6726   2.709   0.936   1.153 -0.5001 -0.3437  1.1591
  451MPD2    H7 6727   2.698   1.027   1.198  2.1103 -0.5268  2.1935
  452TMC3    C1 6728   2.919   0.277   1.176  0.1039 -0.0438 -0.2254
  452TMC3    C2 6729   2.964   0.246   1.300  0.5640 -0.0521  0.3881
  452TMC3    C3 6730   2.999   0.114   1.317  0.6214 -0.3629  0.0211
  452TMC3    C4 6731   2.908   0.196   1.072  0.2071 -0.3133  0.6488
  452TMC3    C5 6732   2.936   0.065   1.095  0.6465 -0.7921 -0.0265
  452TMC3    C6 6733   2.987   0.028   1.219  0.3539  0.2967 -0.7631
  452TMC3     C 6734   2.871   0.415   1.164 -0.4632 -0.7421  0.1208
  452TMC3     O 6735   2.774   0.432   1.092 -0.6831  0.0923  0.7713
  452TMC3     H 6736   2.957   0.315   1.384 -0.8090  0.9231 -0.5260
  452TMC3    H1 6737   2.870   0.230   0.977  2.7069  0.5753 -0.0248
  452TMC3    H2 6738   3.013   4.646   1.242 -2.1105 -0.3628 -0.9655
  452TMC3    C7 6739   2.913   4.695   0.984  0.0116  0.3257  0.1898
  452TMC3    C8 6740   3.047   0.065   1.446 -0.2024 -0.4880 -0.2117
  452TMC3    O1 6741   2.904   0.023   0.874 -0.2697 -0.1889  0.2358
  452TMC3    O2 6742   3.039   4.666   1.458 -0.4275  0.3596 -0.3419
  453TMC3    C1 6743   4.213   2.732  12.316 -0.0528 -0.3145 -0.1681
  453TMC3    C2 6744   4.126   2.635  12.338 -0.8430 -0.7692  0.1319
  453TMC3    C3 6745   4.083   2.560  12.229  0.5778 -0.9246 -0.4987
  453TMC3    C4 6746   4.238   2.768  12.192 -0.1696  0.8474 -0.8571
  453TMC3    C5 6747   4.187   2.699  12.086 -0.1906  1.1023  0.2896
  453TMC3    C6 6748   4.106   2.595  12.101  0.4155  0.2320  0.0779
  453TMC3     C 6749   4.267   2.821  12.424  0.3379 -0.3198  0.3980
  453TMC3     O 6750   4.362   2.887  12.394  0.5786  0.4028  0.2606
  453TMC3     H 6751   4.094   2.601  12.435  1.0561  0.2162  1.0957
  453TMC3    H1 6752   4.294   2.858  12.167 -2.0571  2.7986  2.0432
  453TMC3    H2 6753   4.080   2.535  12.015 -0.7707  1.1595 -0.1941
  453TMC3    C7 6754   4.229   2.735  11.949 -0.4255  0.3930 -0.7367
  453TMC3    C8 6755   4.014   2.431  12.247 -0.2296  0.7392 -0.8909
  453TMC3    O1 6756   4.172   2.685  11.856 -0.5506 -0.6086  0.3715
  453TMC3    O2 6757   3.928   2.417  12.335 -0.1289  0.2172 -0.0533
  454MPD2     C 6758   3.130   2.261  16.042 -0.7740 -0.1605 -0.1551
  454MPD2    C1 6759   3.018   2.343  16.035  0.2367  0.7430 -0.0540
  454MPD2    C2 6760   2.983   2.410  16.151  0.5014 -0.4621 -0.8919
  454MPD2    C3 6761   3.047   2.403  16.271  0.1630 -0.0186 -0.1002
  454MPD2    C4 6762   3.153   2.322  16.281 -1.0085  0.2891 -0.2808
  454MPD2    C5 6763   3.184   2.251  16.161  0.4747  0.8085 -0.0893
  454MPD2     H 6764   2.909   2.489  16.151 -1.1556 -2.0187  1.2795
  454MPD2    H1 6765   3.214   2.307  16.369  0.3165  1.2272 -1.0236
  454MPD2    H2 6766   3.171   2.212  15.954  0.9138  1.6087 -0.3571
  454MPD2    H3 6767   3.268   2.182  16.164  0.7813  1.2003  0.5130
  454MPD2     N 6768   3.003   2.466  16.397 -0.1425  0.1841 -0.2857
  454MPD2    H5 6769   3.071   2.469  16.472 -0.1728  1.8579 -0.3311
  454MPD2    N1 6770   2.928   2.348  15.931 -0.2135  0.0811 -0.0877
  454MPD2    H7 6771   2.844   2.403  15.946 -2.0079 -2.1323 -2.0648
  455TMC3    C1 6772   2.758   2.501  16.367  0.3409  0.4488 -0.4734
  455TMC3    C2 6773   2.653   2.585  16.363  0.8137 -0.0135  0.5174
  455TMC3    C3 6774   2.543   2.532  16.303 -0.2201  0.1134 -0.4272
  455TMC3    C4 6775   2.744   2.371  16.341 -0.2323 -0.0868 -0.0356
  455TMC3    C5 6776   2.636   2.328  16.273  0.6458 -0.0882 -0.1507
  455TMC3    C6 6777   2.529   2.407  16.253  0.2984  0.1754 -0.0664
  455TMC3     C 6778   2.890   2.553  16.421 -0.9261  0.4949  0.4677
  455TMC3     O 6779   2.871   2.629  16.516 -0.3578 -0.5967  0.0054
  455TMC3     H 6780   2.657   2.692  16.375  2.4211  0.0278 -0.3166
  455TMC3    H1 6781   2.830   2.308  16.361 -1.7782 -2.5746 -1.1388
  455TMC3    H2 6782   2.441   2.391  16.192  0.7902 -1.1986 -0.4151
  455TMC3    C7 6783   2.630   2.204  16.191  0.5591 -0.1678 -0.4113
  455TMC3    C8 6784   2.425   2.578  16.364  0.3709  0.9851 -0.4208
  455TMC3    O1 6785   2.533   2.193  16.122  0.0052  0.7026  0.4522
  455TMC3    O2 6786   2.437   2.679  16.434 -0.3958  0.1799 -0.4275
  456MPD2     C 6787   0.688   2.200  15.742  0.3841  0.1990  0.9413
  456MPD2    C1 6788   0.690   2.157  15.871 -0.2576 -0.2247 -0.0054
  456MPD2    C2 6789   0.590   2.195  15.962 -0.7224  0.0435 -0.4536
  456MPD2    C3 6790   0.494   2.281  15.916  0.3317  0.1034  0.6676
  456MPD2    C4 6791   0.500   2.317  15.782  0.5451  0.5780  0.0188
  456MPD2    C5 6792   0.596   2.278  15.691  0.0344 -0.0528  0.3247
  456MPD2     H 6793   0.591   2.172  16.068  0.4045 -0.3411 -0.5437
  456MPD2    H1 6794   0.415   2.368  15.738  2.3032  2.0190 -1.7306
  456MPD2    H2 6795   0.757   2.164  15.666 -0.6180 -1.9894  1.0712
  456MPD2    H3 6796   0.600   2.303  15.586  0.2014 -0.4449  0.2374
  456MPD2     N 6797   0.384   2.312  15.997  0.3369  0.2290  0.1384
  456MPD2    H5 6798   0.365   2.258  16.080 -1.1083  0.8579  0.2171
  456MPD2    N1 6799   0.788   2.062  15.907  0.0711 -0.1832  0.8023
  456MPD2    H7 6800   0.867   2.046  15.845 -0.3027  1.2799 -0.0299
  457TMC3    C1 6801   0.180   2.409  16.059 -0.2887  0.3645  0.2072
  457TMC3    C2 6802   0.095   2.516  16.075 -0.8827 -0.3267 -0.3598
  457TMC3    C3 6803   4.692   2.503  16.138 -0.0970  0.5520  0.3721
  457TMC3    C4 6804   0.146   2.290  16.113 -0.2007 -0.0499  0.0694
  457TMC3    C5 6805   0.039   2.289  16.196 -0.6880  0.1352 -0.4495
  457TMC3    C6 6806   4.669   2.386  16.202 -0.5368  0.1489  0.5891
  457TMC3     C 6807   0.303   2.427  15.981  0.3677 -0.5587  0.0275
  457TMC3     O 6808   0.323   2.523  15.905 -0.2137 -0.1587  0.3161
  457TMC3     H 6809   0.125   2.615  16.040  0.5989  0.2406  2.5126
  457TMC3    H1 6810   0.204   2.199  16.101 -0.3567 -0.3646  1.6956
  457TMC3    H2 6811   4.572   2.365  16.245 -0.5340  0.9667  0.9937
  457TMC3    C7 6812   0.081   2.251  16.328 -0.7422 -0.0083  0.0035
  457TMC3    C8 6813   4.642   2.616  16.208 -0.1832  0.3822 -0.0008
  457TMC3    O1 6814   0.189   2.197  16.329  0.5109 -0.7951 -0.3174
  457TMC3    O2 6815   0.004   2.692  16.254  0.3934 -0.2063  0.2867
  458MPD2     C 6816   3.090   1.541  12.212 -1.1699  0.6265  0.4524
  458MPD2    C1 6817   3.066   1.476  12.330  0.3586  0.6298  0.4181
  458MPD2    C2 6818   2.933   1.460  12.373  0.1183  0.5475 -0.1430
  458MPD2    C3 6819   2.821   1.506  12.307  0.1252 -0.2049 -0.5244
  458MPD2    C4 6820   2.847   1.582  12.193  0.1348  0.3405 -0.0785
  458MPD2    C5 6821   2.981   1.602  12.152 -0.3755  0.7269  0.2637
  458MPD2     H 6822   2.905   1.400  12.460  2.2932 -1.4745 -0.8459
  458MPD2    H1 6823   2.768   1.628  12.134  1.4384  0.1391 -1.9918
  458MPD2    H2 6824   3.192   1.543  12.175 -1.3834  1.6372 -0.0708
  458MPD2    H3 6825   2.990   1.652  12.057  1.4777  0.5302  0.3299
  458MPD2     N 6826   2.690   1.476  12.362  0.0688  0.0008 -0.1951
  458MPD2    H5 6827   2.680   1.402  12.431  1.9427 -0.1568 -0.1095
  458MPD2    N1 6828   3.185   1.442  12.399  0.2367 -0.4570  0.4445
  458MPD2    H7 6829   3.270   1.496  12.384 -0.2531  0.1873  0.0063
  459TMC3    C1 6830   3.333   1.353  12.553 -0.0733 -0.1302 -0.3268
  459TMC3    C2 6831   3.441   1.373  12.473 -0.1718 -0.1726 -0.7261
  459TMC3    C3 6832   3.562   1.377  12.539 -0.9665  0.3978 -0.0114
  459TMC3    C4 6833   3.347   1.314  12.687  0.4053 -0.4377 -0.0804
  459TMC3    C5 6834   3.471   1.321  12.749 -0.1036  0.6122 -1.3902
  459TMC3    C6 6835   3.580   1.347  12.673  0.0566  0.3567 -0.0814
  459TMC3     C 6836   3.197   1.368  12.507 -0.3643  0.1170  0.2688
  459TMC3     O 6837   3.118   1.320  12.584 -0.5267  0.6047  0.0790
  459TMC3     H 6838   3.427   1.383  12.366  0.1031  0.6496 -0.6847
  459TMC3    H1 6839   3.260   1.287  12.747  1.4463 -0.1117  1.5657
  459TMC3    H2 6840   3.672   1.387  12.714 -0.3269  1.8790 -0.7036
  459TMC3    C7 6841   3.477   1.285  12.883 -0.3397  0.1576  0.6756
  459TMC3    C8 6842   3.680   1.433  12.467 -0.7298 -1.0419  0.6838
  459TMC3    O1 6843   3.385   1.219  12.930  0.0326  0.5311  0.0508
  459TMC3    O2 6844   3.791   1.428  12.521  0.5715 -0.2037  0.4905
  460MPD2     C 6845   2.406   3.502  10.738 -0.5165 -0.2097 -0.4809
  460MPD2    C1 6846   2.307   3.594  10.739 -0.9453  0.7286  0.0159
  460MPD2    C2 6847   2.252   3.643  10.622 -0.6101  0.2025  0.4719
  460MPD2    C3 6848   2.290   3.589  10.498 -0.3808  0.7808  0.6323
  460MPD2    C4 6849   2.390   3.488  10.506 -0.6135  0.2982  0.6548
  460MPD2    C5 6850   2.441   3.447  10.622 -0.8385  0.2526 -0.0143
  460MPD2     H 6851   2.179   3.723  10.619 -0.0277  0.7893  1.8685
  460MPD2    H1 6852   2.437   3.444  10.419  3.3555  0.7134  2.5923
  460MPD2    H2 6853   2.447   3.457  10.828  0.6481  1.2812 -0.2623
  460MPD2    H3 6854   2.522   3.375  10.619 -0.6665  0.4221  0.7800
  460MPD2     N 6855   2.246   3.656  10.381  0.2431  0.4950 -0.2615
  460MPD2    H5 6856   2.194   3.742  10.395 -1.2388 -0.3961 -0.1863
  460MPD2    N1 6857   2.263   3.642  10.867  0.1909  0.6325 -0.3889
  460MPD2    H7 6858   2.302   3.602  10.952 -1.6316 -1.8841 -0.7488
  461TMC3    C1 6859   2.264   3.703  10.147 -0.4313  0.5430 -0.3180
  461TMC3    C2 6860   2.347   3.678  10.044  0.4956 -0.2501 -0.2096
  461TMC3    C3 6861   2.349   3.770   9.941  1.0092  0.1334 -0.3044
  461TMC3    C4 6862   2.205   3.823  10.173  0.6373  0.3614 -0.0001
  461TMC3    C5 6863   2.215   3.910  10.064  0.9047 -0.4624  0.3208
  461TMC3    C6 6864   2.276   3.886   9.943 -0.4636  0.0378 -0.7402
  461TMC3     C 6865   2.277   3.611  10.257 -0.0480 -0.0886  0.2379
  461TMC3     O 6866   2.340   3.509  10.228 -0.0875 -0.3387  0.0650
  461TMC3     H 6867   2.415   3.595  10.033  1.5975  0.3255  2.5125
  461TMC3    H1 6868   2.139   3.831  10.259 -0.4211 -1.9325 -0.6140
  461TMC3    H2 6869   2.295   3.967   9.874  1.6639 -0.6860 -0.9992
  461TMC3    C7 6870   2.162   4.049  10.084 -0.7632 -0.2149  0.4698
  461TMC3    C8 6871   2.377   3.715   9.809  0.0948 -0.1103 -0.6518
  461TMC3    O1 6872   2.156   4.113   9.980 -0.1303  0.4451  0.4436
  461TMC3    O2 6873   2.446   3.618   9.814  0.6673  0.2116  0.3445
  462TMC3    C1 6874   1.798   4.275   0.477 -0.4419 -0.0476 -0.1166
  462TMC3    C2 6875   1.816   4.142   0.483  0.4317  0.0185 -0.7432
  462TMC3    C3 6876   1.734   4.060   0.427 -0.1499 -0.7226 -0.5862
  462TMC3    C4 6877   1.691   4.327   0.415 -0.9774  0.9899  0.8452
  462TMC3    C5 6878   1.594   4.234   0.377  0.5696 -0.3803  0.3221
  462TMC3    C6 6879   1.610   4.098   0.389  0.0129  0.8363  0.1371
  462TMC3     C 6880   1.903   4.365   0.523  0.1497 -0.5067 -0.4219
  462TMC3     O 6881   2.018   4.329   0.503  0.1965 -0.3614  0.0938
  462TMC3     H 6882   1.917   4.104   0.499  0.8073  0.8225 -1.2181
  462TMC3    H1 6883   1.691   4.433   0.392  4.5963  0.3967 -1.9996
  462TMC3    H2 6884   1.546   4.029   0.337 -0.9681  0.1893  2.1906
  462TMC3    C7 6885   1.496   4.271   0.274 -0.3196  0.0525 -0.1955
  462TMC3    C8 6886   1.765   3.925   0.387 -1.1064  0.7982  0.2081
  462TMC3    O1 6887   1.396   4.206   0.253 -0.0959 -0.1526 -0.1203
  462TMC3    O2 6888   1.672   3.848   0.389 -0.2657  0.5586 -0.0615
  463MPD2     C 6889   3.621   3.122   1.566 -0.6394 -0.4099  0.5351
  463MPD2    C1 6890   3.494   3.155   1.526  0.0698  0.3178 -0.5925
  463MPD2    C2 6891   3.466   3.256   1.441 -0.4916 -0.2835  0.1296
  463MPD2    C3 6892   3.569   3.345   1.404  0.0164  0.9036 -0.5534
  463MPD2    C4 6893   3.697   3.314   1.454  0.1771  0.8549  0.4726
  463MPD2    C5 6894   3.717   3.206   1.530  0.5554 -0.1316 -0.5300
  463MPD2     H 6895   3.366   3.267   1.402 -0.9481 -0.4234  1.2357
  463MPD2    H1 6896   3.783   3.375   1.429 -0.0923  0.7099 -0.8170
  463MPD2    H2 6897   3.640   3.030   1.621  1.3381  0.2034  0.8649
  463MPD2    H3 6898   3.819   3.203   1.567 -0.1206  0.5156  1.3516
  463MPD2     N 6899   3.551   3.455   1.315  0.2290 -0.2867 -0.0893
  463MPD2    H5 6900   3.632   3.512   1.296 -0.2167 -0.0386 -1.2700
  463MPD2    N1 6901   3.383   3.070   1.552 -0.4179  0.2733  0.4873
  463MPD2    H7 6902   3.294   3.111   1.525  0.6399  1.2941 -1.3860
  464TMC3    C1 6903   3.240   2.900   1.610 -0.2927 -0.5108 -0.0686
  464TMC3    C2 6904   3.138   2.988   1.613  0.1578 -0.3170 -0.0735
  464TMC3    C3 6905   3.009   2.944   1.602  0.2483  0.3283  0.1532
  464TMC3    C4 6906   3.229   2.763   1.613  0.3529 -0.2633  0.1878
  464TMC3    C5 6907   3.100   2.720   1.599 -0.2383  0.0816  0.8446
  464TMC3    C6 6908   2.990   2.803   1.592 -0.1250 -0.5641 -0.5499
  464TMC3     C 6909   3.375   2.947   1.609 -0.3243 -0.1549 -0.4181
  464TMC3     O 6910   3.464   2.872   1.636 -0.1187 -0.2199  0.9519
  464TMC3     H 6911   3.149   3.095   1.625 -0.5786  0.1195 -3.4706
  464TMC3    H1 6912   3.313   2.695   1.606  0.2343 -0.5396  1.5387
  464TMC3    H2 6913   2.888   2.769   1.581 -1.0015  0.4731  4.0646
  464TMC3    C7 6914   3.103   2.611   1.499  0.0725 -0.0542 -0.0255
  464TMC3    C8 6915   2.892   3.028   1.632  0.3213 -0.1177 -0.4594
  464TMC3    O1 6916   3.211   2.566   1.464 -0.0544  0.1086  0.9003
  464TMC3    O2 6917   2.789   2.962   1.650 -0.0976 -0.1825 -0.6185
  465MPD2     C 6918   4.541   1.657  17.161  0.1354 -0.0519  0.1657
  465MPD2    C1 6919   4.474   1.740  17.256 -0.1906 -0.4289 -0.3512
  465MPD2    C2 6920   4.367   1.826  17.215  0.2774  0.8769 -0.2193
  465MPD2    C3 6921   4.332   1.839  17.076  0.3446 -0.4292 -0.7599
  465MPD2    C4 6922   4.415   1.762  16.985  0.5387  0.5200  0.3469
  465MPD2    C5 6923   4.514   1.674  17.029  0.4064  0.1984 -0.2977
  465MPD2     H 6924   4.309   1.885  17.285 -1.1304  0.0867 -0.7040
  465MPD2    H1 6925   4.409   1.774  16.877 -0.4849 -1.5360  0.1704
  465MPD2    H2 6926   4.613   1.581  17.188  1.1951  0.6435 -0.7458
  465MPD2    H3 6927   4.553   1.611  16.950  2.5666  1.3474 -0.1544
  465MPD2     N 6928   4.232   1.934  17.051  0.9504 -0.2624  1.2224
  465MPD2    H5 6929   4.194   1.973  17.137 -1.1691  0.1065  0.1059
  465MPD2    N1 6930   4.518   1.755  17.388 -0.3035 -0.0533 -0.0467
  465MPD2    H7 6931   4.465   1.820  17.446  0.1857 -0.4717  0.8665
  466TMC3    C1 6932   3.945   2.189  17.088  0.2649 -0.0493  0.0168
  466TMC3    C2 6933   3.957   2.302  17.018 -0.6816  0.3238  0.2022
  466TMC3    C3 6934   4.034   2.300  16.900  0.3757 -0.2600 -0.0128
  466TMC3    C4 6935   4.008   2.073  17.052 -0.7595 -0.3725  0.0768
  466TMC3    C5 6936   4.093   2.079  16.944  0.3258 -0.5757  0.2467
  466TMC3    C6 6937   4.103   2.186  16.863  0.4504  0.4419 -0.2534
  466TMC3     C 6938   3.944   2.228  17.228  0.0769 -0.3544 -0.5333
  466TMC3     O 6939   3.942   2.350  17.255  0.0690 -0.0696  0.2234
  466TMC3     H 6940   3.886   2.383  17.034  1.5008  2.1979  0.2683
  466TMC3    H1 6941   3.982   1.974  17.090 -2.7087 -0.1341 -0.6012
  466TMC3    H2 6942   4.165   2.183  16.774 -0.7772  0.7354 -1.1328
  466TMC3    C7 6943   4.195   1.978  16.929  0.3175 -0.4302 -0.0993
  466TMC3    C8 6944   4.020   2.405  16.801 -0.5954  1.1058  0.1457
  466TMC3    O1 6945   4.250   1.965  16.820  0.1075 -0.1400 -0.4567
  466TMC3    O2 6946   4.038   2.371  16.684  0.4889  0.1782 -0.2323
  467TMC3    C1 6947   0.434   0.231  14.064 -0.2627 -0.6698 -0.4113
  467TMC3    C2 6948   0.400   0.225  13.929 -0.1227  0.0912  0.2042
  467TMC3    C3 6949   0.273   0.223  13.897  0.0145 -0.0793  0.1861
  467TMC3    C4 6950   0.342   0.239  14.166 -0.1828 -0.1039 -0.0630
  467TMC3    C5 6951   0.210   0.237  14.126  0.1135  1.1602  0.4517
  467TMC3    C6 6952   0.172   0.230  13.995  0.2345 -0.3396  0.7092
  467TMC3     C 6953   0.576   0.229  14.096  0.4713  0.4112  0.1475
  467TMC3     O 6954   0.614   0.320  14.169  0.4208 -0.1767 -0.5751
  467TMC3     H 6955   0.483   0.215  13.860  1.7890  1.4169  2.3163
  467TMC3    H1 6956   0.370   0.236  14.270  1.8447  1.1977 -0.5651
  467TMC3    H2 6957   0.067   0.237  13.970  0.0917 -2.2738  0.7323
  467TMC3    C7 6958   0.104   0.273  14.218  0.2967 -0.1137  0.3880
  467TMC3    C8 6959   0.239   0.286  13.774  0.0595 -0.0612 -0.5640
  467TMC3    O1 6960   0.128   0.244  14.337  0.3191 -0.0003 -0.5874
  467TMC3    O2 6961   0.311   0.380  13.739  0.4953 -0.1987  1.0701
  468MPD2     C 6962   3.844   3.538  10.715 -0.4751 -0.3475  0.0918
  468MPD2    C1 6963   3.921   3.580  10.825  0.1463 -0.1069  0.5428
  468MPD2    C2 6964   3.944   3.482  10.922 -0.2478  0.3308 -0.6371
  468MPD2    C3 6965   3.879   3.363  10.922 -0.8132  0.3538  0.3600
  468MPD2    C4 6966   3.806   3.321  10.812  0.1127  0.2559 -0.5758
  468MPD2    C5 6967   3.780   3.418  10.716  0.2763 -0.1539  0.5054
  468MPD2     H 6968   4.014   3.516  10.998 -1.3095  1.9044 -0.3527
  468MPD2    H1 6969   3.757   3.226  10.799 -0.9750  0.7201  0.1447
  468MPD2    H2 6970   3.817   3.592  10.625 -0.9201 -0.6520  0.0461
  468MPD2    H3 6971   3.717   3.383  10.635  0.6680  1.2787 -0.4376
  468MPD2     N 6972   3.912   3.262  11.014  0.0645  0.7073 -0.1879
  468MPD2    H5 6973   3.876   3.169  10.992 -0.5102  0.8154  0.3081
  468MPD2    N1 6974   3.988   3.702  10.827 -0.1393 -0.0857 -0.2129
  468MPD2    H7 6975   4.032   3.728  10.914  3.0290 -3.0984 -0.9319
  469TMC3    C1 6976   4.060   3.919  10.742  0.0122  0.1897 -0.2264
  469TMC3    C2 6977   4.129   3.938  10.863 -0.6658  0.7194  0.1106
  469TMC3    C3 6978   4.222   4.036  10.856  0.2421 -0.0423  0.5275
  469TMC3    C4 6979   4.068   4.014  10.640  0.1716  0.5000  0.3870
  469TMC3    C5 6980   4.143   4.128  10.651  0.1887 -0.0016  0.3832
  469TMC3    C6 6981   4.225   4.141  10.764 -0.7185  0.3395  0.3239
  469TMC3     C 6982   3.997   3.790  10.719  0.6412 -0.0910  0.2766
  469TMC3     O 6983   3.947   3.785  10.607 -0.2625 -0.3408 -1.0538
  469TMC3     H 6984   4.124   3.871  10.948 -0.8379  1.0193  0.3357
  469TMC3    H1 6985   4.014   3.991  10.549  0.1895 -1.6480  0.9150
  469TMC3    H2 6986   4.283   4.231  10.781  0.6910 -0.8085  1.5735
  469TMC3    C7 6987   4.170   4.199  10.534  0.6456 -0.9200  0.0808
  469TMC3    C8 6988   4.315   4.042  10.975  0.5124 -0.6636 -0.0924
  469TMC3    O1 6989   4.284   4.246  10.522  0.0925 -0.5054 -0.1559
  469TMC3    O2 6990   4.438   4.039  10.954  0.3330 -0.3454  0.1097
  470TMC3    C1 6991   1.586   4.265   0.946 -0.5297 -0.4626 -0.1451
  470TMC3    C2 6992   1.634   4.390   0.981  0.5748  0.5117 -0.3529
  470TMC3    C3 6993   1.556   4.470   1.058 -0.3408  0.1790  0.7621
  470TMC3    C4 6994   1.456   4.232   0.988 -0.1824  0.0558  0.6507
  470TMC3    C5 6995   1.384   4.320   1.063  0.8669  0.6733 -0.1270
  470TMC3    C6 6996   1.435   4.437   1.114 -0.1067  0.1316  0.1374
  470TMC3     C 6997   1.669   4.159   0.894  0.2221 -0.0364  0.4710
  470TMC3     O 6998   1.622   4.051   0.872  0.4312 -0.4785  0.0427
  470TMC3     H 6999   1.725   4.420   0.929 -0.4199  0.3797 -2.1659
  470TMC3    H1 7000   1.414   4.132   0.978  2.3734 -1.2726  3.0007
  470TMC3    H2 7001   1.370   4.512   1.157  0.2315  0.5684 -0.1052
  470TMC3    C7 7002   1.241   4.297   1.073 -0.5779  0.2142  0.2862
  470TMC3    C8 7003   1.589   4.612   1.074  0.3651  0.8781  0.0624
  470TMC3    O1 7004   1.188   4.216   1.003  0.5183  0.3820  0.2399
  470TMC3    O2 7005   1.485   4.674   1.068 -0.2144 -0.0299 -0.4492
  471MPD2     C 7006   2.129   1.248  16.487 -0.2077  0.4556  0.2288
  471MPD2    C1 7007   2.161   1.113  16.497  0.0618  0.9805 -0.2617
  471MPD2    C2 7008   2.254   1.075  16.588 -0.1008  1.0175 -0.5085
  471MPD2    C3 7009   2.299   1.161  16.689  0.5147 -0.0997  0.0964
  471MPD2    C4 7010   2.249   1.291  16.683  0.0858 -0.1448 -0.4497
  471MPD2    C5 7011   2.179   1.337  16.573 -0.4119  0.4190 -0.5322
  471MPD2     H 7012   2.286   0.972  16.579 -2.7285  0.0269  1.4200
  471MPD2    H1 7013   2.289   1.367  16.748 -2.5216 -0.8960  2.0118
  471MPD2    H2 7014   2.058   1.283  16.412 -0.9598 -0.8249  0.3323
  471MPD2    H3 7015   2.153   1.442  16.565  2.2434  1.0368 -1.0365
  471MPD2     N 7016   2.393   1.122  16.784 -0.0801 -0.1150 -0.0043
  471MPD2    H5 7017   2.411   1.191  16.856 -0.0167  0.3473 -0.4610
  471MPD2    N1 7018   2.112   1.011  16.409 -0.2616  0.0218  0.5652
  471MPD2    H7 7019   2.160   0.922  16.411  3.7710  2.2821  2.2629
  472TMC3    C1 7020   1.948   0.903  16.260  0.2395 -0.8901 -0.5157
  472TMC3    C2 7021   1.874   0.934  16.146  0.4584 -0.1410  0.1486
  472TMC3    C3 7022   1.821   0.833  16.072  0.0449 -0.7325 -0.3982
  472TMC3    C4 7023   1.958   0.773  16.314 -0.4594 -1.1887 -0.0436
  472TMC3    C5 7024   1.892   0.681  16.245  0.2410  0.3089 -0.9022
  472TMC3    C6 7025   1.832   0.710  16.125  0.6626  0.3021 -0.2919
  472TMC3     C 7026   2.005   1.029  16.328 -0.0793  0.3975 -0.5970
  472TMC3     O 7027   1.954   1.135  16.299 -0.0555 -0.0027  0.3838
  472TMC3     H 7028   1.874   1.034  16.105  2.3434  0.5364  1.8600
  472TMC3    H1 7029   2.005   0.752  16.409  0.6268  1.8685  0.0784
  472TMC3    H2 7030   1.773   0.638  16.071 -1.3116  0.0668  2.1985
  472TMC3    C7 7031   1.834   0.568  16.329 -0.3550  0.9130  0.8627
  472TMC3    C8 7032   1.679   0.852  16.032 -0.4493 -0.4577  0.1611
  472TMC3    O1 7033   1.872   0.566  16.445  0.2064  0.2121  0.2274
  472TMC3    O2 7034   1.650   0.840  15.911  0.3212  0.1574  0.4365
  473MPD2     C 7035   1.776   3.107  14.148  0.2058  0.1681 -0.2670
  473MPD2    C1 7036   1.738   3.224  14.089 -0.2623  0.3415  0.1114
  473MPD2    C2 7037   1.747   3.343  14.159  0.3023  0.3589  1.0692
  473MPD2    C3 7038   1.784   3.351  14.290  0.2919 -0.1925 -0.0264
  473MPD2    C4 7039   1.809   3.230  14.352  0.2386 -0.0667  0.5270
  473MPD2    C5 7040   1.806   3.107  14.281  0.4357  0.3267  0.4604
  473MPD2     H 7041   1.704   3.423  14.098  0.3789  0.7534  1.5348
  473MPD2    H1 7042   1.830   3.222  14.458  1.1352  0.6986  0.4039
  473MPD2    H2 7043   1.789   3.011  14.101 -0.3295 -0.0051 -0.0557
  473MPD2    H3 7044   1.836   3.020  14.339  0.8240  0.1548  0.0039
  473MPD2     N 7045   1.801   3.477  14.357  0.1081 -0.6018  0.4074
  473MPD2    H5 7046   1.846   3.483  14.448  1.9251 -0.0880 -0.5235
  473MPD2    N1 7047   1.689   3.231  13.953  0.3033 -0.5474  0.0660
  473MPD2    H7 7048   1.696   3.324  13.912  0.6258  0.1389  1.6737
  474TMC3    C1 7049   1.857   3.703  14.358  0.6119  0.1509  0.2593
  474TMC3    C2 7050   1.949   3.776  14.285 -0.4859 -0.0390  0.3906
  474TMC3    C3 7051   2.055   3.821  14.357  0.1712 -0.6168  0.8915
  474TMC3    C4 7052   1.868   3.684  14.491  0.5175  0.3769  0.6353
  474TMC3    C5 7053   1.966   3.750  14.565  0.5139 -0.3018 -0.6535
  474TMC3    C6 7054   2.071   3.807  14.491  0.4248  0.0451  0.4367
  474TMC3     C 7055   1.791   3.591  14.287 -0.0841 -0.1065 -0.0439
  474TMC3     O 7056   1.768   3.620  14.171  0.1457  0.1520 -0.5129
  474TMC3     H 7057   1.952   3.785  14.177  0.0889  2.7840  0.6373
  474TMC3    H1 7058   1.786   3.634  14.541 -0.7784  0.7156 -1.1293
  474TMC3    H2 7059   2.153   3.852  14.545  1.3919 -1.2380  0.0380
  474TMC3    C7 7060   2.027   3.662  14.651 -1.0692 -0.0146  0.7412
  474TMC3    C8 7061   2.158   3.878  14.270  0.2679  0.3052  0.1418
  474TMC3    O1 7062   2.045   3.548  14.614  0.0240  0.5880  0.4103
  474TMC3    O2 7063   2.167   3.833  14.159  0.3810  0.2577  0.2606
  475MPD2     C 7064   0.389   0.813  10.569  0.0495 -0.1684  0.1066
  475MPD2    C1 7065   0.463   0.927  10.593 -0.2847  0.6961 -0.5024
  475MPD2    C2 7066   0.439   1.007  10.701  0.6104 -0.0238 -0.5625
  475MPD2    C3 7067   0.347   0.968  10.787  0.1474  0.4085 -0.1041
  475MPD2    C4 7068   0.295   0.839  10.784 -0.0423  0.5373  0.0433
  475MPD2    C5 7069   0.316   0.760  10.671 -0.0461  0.2972 -0.8313
  475MPD2     H 7070   0.490   1.102  10.713 -1.4186  0.8856  0.7137
  475MPD2    H1 7071   0.229   0.802  10.862 -0.2361  2.3048  0.7306
  475MPD2    H2 7072   0.404   0.758  10.477 -0.6150  1.4337 -0.9556
  475MPD2    H3 7073   0.260   0.667  10.669 -1.9352  1.4743 -2.7851
  475MPD2     N 7074   0.309   1.077  10.876  0.0324  0.2705 -0.6983
  475MPD2    H5 7075   0.370   1.158  10.867 -1.0846  1.0083 -1.7313
  475MPD2    N1 7076   0.542   0.974  10.484  0.3773 -0.2241 -0.3075
  475MPD2    H7 7077   0.543   0.910  10.405 -0.7218 -0.3411 -0.2254
  476TMC3    C1 7078   0.606   1.154  10.355  0.0263  0.2321  0.6735
  476TMC3    C2 7079   0.519   1.108  10.264 -0.1527 -0.0820 -0.4700
  476TMC3    C3 7080   0.489   1.188  10.155  0.6121  0.4034  0.2256
  476TMC3    C4 7081   0.655   1.281  10.358  0.3818  0.3895 -0.3105
  476TMC3    C5 7082   0.617   1.361  10.255  0.2302 -0.2827  0.4277
  476TMC3    C6 7083   0.534   1.319  10.154  0.8252 -0.4746  0.1037
  476TMC3     C 7084   0.614   1.089  10.480 -0.0228  0.0636 -0.7575
  476TMC3     O 7085   0.640   1.167  10.570  0.1655  0.0785  0.4890
  476TMC3     H 7086   0.475   1.009  10.261 -1.8711  0.6419  1.5646
  476TMC3    H1 7087   0.719   1.321  10.436 -0.6906  0.7973  0.3584
  476TMC3    H2 7088   0.495   1.386  10.079  0.6504  2.0993  2.5035
  476TMC3    C7 7089   0.669   1.492  10.247 -0.2868 -0.1149 -0.8735
  476TMC3    C8 7090   0.355   1.179  10.101  0.0744 -0.4174  0.1064
  476TMC3    O1 7091   0.704   1.534  10.138 -0.1363  0.2781  0.4461
  476TMC3    O2 7092   0.286   1.282  10.090  0.1885  1.0268 -0.4198
  477MPD2     C 7093   2.239   2.718  11.808  0.5065  0.1008 -0.0054
  477MPD2    C1 7094   2.284   2.835  11.872 -0.4112 -0.2103  0.6128
  477MPD2    C2 7095   2.356   2.836  11.986  0.6962  0.4485  0.2962
  477MPD2    C3 7096   2.376   2.716  12.058  0.3838 -0.1451 -0.2619
  477MPD2    C4 7097   2.325   2.599  11.999 -0.0057  0.2013  0.2042
  477MPD2    C5 7098   2.253   2.606  11.885  0.9471  0.3106 -0.0151
  477MPD2     H 7099   2.404   2.920  12.033  0.8925  0.1153  0.6903
  477MPD2    H1 7100   2.339   2.499  12.040  0.2825  0.2384  0.1943
  477MPD2    H2 7101   2.193   2.702  11.711 -0.3662 -1.2610  0.6356
  477MPD2    H3 7102   2.214   2.513  11.845  1.1016  0.9826 -1.7002
  477MPD2     N 7103   2.465   2.725  12.167 -0.5924  0.3759  0.8421
  477MPD2    H5 7104   2.475   2.819  12.202 -1.4935  0.2578  1.4179
  477MPD2    N1 7105   2.269   2.959  11.798 -0.2427  0.2531 -0.7583
  477MPD2    H7 7106   2.198   2.961  11.726 -0.7249 -0.4616 -0.3098
  478TMC3    C1 7107   2.293   3.176  11.720  1.2057 -0.0274 -0.3886
  478TMC3    C2 7108   2.270   3.302  11.765 -0.2956  0.0487  0.3532
  478TMC3    C3 7109   2.247   3.410  11.677 -0.6024 -0.0466 -0.1595
  478TMC3    C4 7110   2.305   3.154  11.581 -0.0412  0.2747  0.1707
  478TMC3    C5 7111   2.286   3.259  11.499  0.4883 -0.4956 -0.5488
  478TMC3    C6 7112   2.259   3.386  11.542  0.1478  0.0971  0.1445
  478TMC3     C 7113   2.341   3.074  11.811  0.3975 -0.3784  0.0931
  478TMC3     O 7114   2.408   3.116  11.903 -0.0445 -0.0749  0.0000
  478TMC3     H 7115   2.264   3.313  11.873  0.6660  0.2783  0.3876
  478TMC3    H1 7116   2.330   3.057  11.539 -0.8472 -0.1695  0.7161
  478TMC3    H2 7117   2.244   3.466  11.470 -0.0309 -0.6108 -0.6082
  478TMC3    C7 7118   2.312   3.234  11.360 -0.4165  0.5575  0.1261
  478TMC3    C8 7119   2.260   3.542  11.742  0.8699 -0.1616  0.3250
  478TMC3    O1 7120   2.403   3.152  11.332  0.1514 -0.2458 -0.6518
  478TMC3    O2 7121   2.308   3.547  11.854 -0.2043  0.8460  0.3223
  479MPD2     C 7122   1.615   0.314  15.342  0.0881 -0.0037 -0.1055
  479MPD2    C1 7123   1.523   0.301  15.444 -0.3466 -0.3750 -0.0361
  479MPD2    C2 7124   1.550   0.339  15.574  0.4274 -0.0577 -0.0697
  479MPD2    C3 7125   1.666   0.406  15.600 -0.8196  0.1202  0.4967
  479MPD2    C4 7126   1.760   0.417  15.496 -0.9124  0.7237  0.0200
  479MPD2    C5 7127   1.733   0.372  15.372 -0.1298  0.3513 -0.1977
  479MPD2     H 7128   1.482   0.306  15.652 -0.2059 -1.0946 -1.0683
  479MPD2    H1 7129   1.854   0.462  15.524  0.3093 -1.6618 -0.2621
  479MPD2    H2 7130   1.591   0.267  15.247 -3.6169  0.6178  0.5171
  479MPD2    H3 7131   1.798   0.398  15.290 -0.9134  2.9640  0.0167
  479MPD2     N 7132   1.699   0.477  15.717 -0.3077  0.1905  0.2913
  479MPD2    H5 7133   1.797   0.501  15.728 -0.5406  1.8463 -1.2573
  479MPD2    N1 7134   1.393   0.268  15.399 -0.4383 -0.0428 -0.2696
  479MPD2    H7 7135   1.372   0.253  15.301  1.3053 -1.4955 -0.4166
  480TMC3    C1 7136   1.301   0.369  15.898  0.5096  0.3351  0.1285
  480TMC3    C2 7137   1.233   0.445  15.806 -0.7472  0.4345 -0.3364
  480TMC3    C3 7138   1.289   0.545  15.738  0.2163 -0.2444  0.2997
  480TMC3    C4 7139   1.434   0.388  15.912  0.3773  0.3935  0.2074
  480TMC3    C5 7140   1.493   0.488  15.835 -0.1101 -0.2643 -0.5691
  480TMC3    C6 7141   1.429   0.569  15.744 -1.2425 -0.1833 -0.3823
  480TMC3     C 7142   1.250   0.242  15.934  0.5597  0.4839 -0.4875
  480TMC3     O 7143   1.330   0.150  15.939 -0.8273 -0.3043 -0.1272
  480TMC3     H 7144   1.136   0.410  15.772  0.0793 -2.5082  0.2748
  480TMC3    H1 7145   1.486   0.332  15.990 -2.4838 -1.8220  0.5613
  480TMC3    H2 7146   1.481   0.649  15.694 -4.1849  1.2674 -1.1292
  480TMC3    C7 7147   1.632   0.468  15.839  0.3187  0.0406 -0.5240
  480TMC3    C8 7148   1.221   0.582  15.620  0.9401 -0.0652  0.2083
  480TMC3    O1 7149   1.687   0.461  15.953 -0.5441  0.6244  0.1085
  480TMC3    O2 7150   1.101   0.577  15.626  0.9186  0.3040 -0.1513
  481MPD2     C 7151   3.048   4.120  14.557 -0.7523  0.4676  0.2315
  481MPD2    C1 7152   3.077   4.249  14.521 -0.7532 -0.0020  0.0443
  481MPD2    C2 7153   3.050   4.350  14.617  0.3986  0.4185  0.2717
  481MPD2    C3 7154   3.009   4.317  14.748  0.7019  0.6704  0.2481
  481MPD2    C4 7155   2.994   4.189  14.781  0.0414  0.5440 -0.5351
  481MPD2    C5 7156   3.010   4.093  14.686  0.0606 -0.1729  0.2641
  481MPD2     H 7157   3.064   4.455  14.593 -0.8603  0.5895  0.2377
  481MPD2    H1 7158   2.956   4.167  14.881  0.3980  3.6357  0.2855
  481MPD2    H2 7159   3.071   4.040  14.487 -1.4871  0.2244  0.2682
  481MPD2    H3 7160   3.002   3.989  14.716  0.4147 -0.1580  0.4174
  481MPD2     N 7161   2.973   4.415  14.843  0.2867  0.0296  0.2237
  481MPD2    H5 7162   2.935   4.392  14.934  2.0068 -0.4614  0.8322
  481MPD2    N1 7163   3.123   4.278  14.388  0.2015 -0.3138 -0.8057
  481MPD2    H7 7164   3.119   4.195  14.330 -0.5893 -1.0000  0.2211
  482TMC3    C1 7165   3.144   4.414  14.189 -0.2031  0.0111  0.2570
  482TMC3    C2 7166   3.189   4.310  14.114 -0.4110 -0.0926 -0.0763
  482TMC3    C3 7167   3.154   4.296  13.983 -0.1787  0.5202 -0.1629
  482TMC3    C4 7168   3.066   4.507  14.138 -0.0290  0.1326  0.0067
  482TMC3    C5 7169   3.015   4.482  14.015  0.8955 -0.1447  0.0555
  482TMC3    C6 7170   3.054   4.374  13.930  0.1849  0.1926 -0.0259
  482TMC3     C 7171   3.152   4.403  14.337 -0.2321  0.0521 -0.6680
  482TMC3     O 7172   3.147   4.512  14.389 -0.0819 -0.4876 -0.7657
  482TMC3     H 7173   3.248   4.229  14.156  0.2181 -1.2525 -3.1900
  482TMC3    H1 7174   3.034   4.583  14.208  0.3222  1.0186 -0.8058
  482TMC3    H2 7175   3.012   4.358  13.831  1.4455 -0.0238 -0.5301
  482TMC3    C7 7176   2.915   4.579  13.972  0.2858 -0.4769 -0.0048
  482TMC3    C8 7177   3.144   4.163  13.935 -0.0979 -0.2575 -0.0272
  482TMC3    O1 7178   2.903   4.673  14.045 -0.7188 -0.5106 -0.3377
  482TMC3    O2 7179   3.051   4.122  13.861 -0.1640  0.0695  0.0151
  483TMC3    C1 7180   0.237   3.904   0.705 -0.9066  0.5038 -0.0699
  483TMC3    C2 7181   0.245   3.964   0.580  0.6718 -0.4898 -0.1102
  483TMC3    C3 7182   0.362   4.028   0.552  0.8599 -0.1428 -0.4227
  483TMC3    C4 7183   0.342   3.913   0.792  0.0427  0.3719  0.1072
  483TMC3    C5 7184   0.464   3.955   0.752 -0.3663  0.5832 -0.1619
  483TMC3    C6 7185   0.469   4.030   0.638  0.0884 -0.3628  0.0793
  483TMC3     C 7186   0.190   3.767   0.685 -0.7579  0.0506 -0.0849
  483TMC3     O 7187   0.086   3.764   0.617  0.1114 -0.5848  0.5086
  483TMC3     H 7188   0.179   3.942   0.497 -2.3137  2.9822  1.3217
  483TMC3    H1 7189   0.324   3.865   0.888  3.1828  1.1771  1.0963
  483TMC3    H2 7190   0.560   4.082   0.609 -0.2447 -0.3780 -0.9935
  483TMC3    C7 7191   0.570   3.854   0.774  0.8153  0.5333 -0.0417
  483TMC3    C8 7192   0.391   4.058   0.413  1.2892  0.3197  0.6354
  483TMC3    O1 7193   0.534   3.765   0.851  0.1278  0.2043 -0.1448
  483TMC3    O2 7194   0.504   4.036   0.382 -0.1978  0.1628 -0.1797
  484MPD2     C 7195   3.697   1.558  12.120  0.5154  0.0128 -0.6870
  484MPD2    C1 7196   3.747   1.499  12.235 -0.0936 -0.4025 -0.0792
  484MPD2    C2 7197   3.884   1.472  12.234  0.0051  0.0245 -0.6861
  484MPD2    C3 7198   3.959   1.506  12.130  0.5144  0.4714 -0.5922
  484MPD2    C4 7199   3.908   1.568  12.015  0.0888  0.4468  0.6955
  484MPD2    C5 7200   3.778   1.595  12.016  0.1707  0.7025 -0.3422
  484MPD2     H 7201   3.933   1.431  12.322 -1.7613  0.8072  0.6645
  484MPD2    H1 7202   3.962   1.597  11.926 -2.8155  1.8872 -0.6111
  484MPD2    H2 7203   3.593   1.586  12.114  0.9584  1.5388 -1.5600
  484MPD2    H3 7204   3.738   1.638  11.925  0.2586 -1.0903 -1.2161
  484MPD2     N 7205   4.097   1.467  12.134  0.0145  0.3768 -0.6250
  484MPD2    H5 7206   4.114   1.394  12.203 -0.8439  1.0028  0.2480
  484MPD2    N1 7207   3.654   1.473  12.338 -0.1445  0.0380 -0.7327
  484MPD2    H7 7208   3.559   1.504  12.320 -0.4373 -1.5788 -1.9715
  485TMC3    C1 7209   4.313   1.522  12.146  0.4505 -0.4455 -0.6547
  485TMC3    C2 7210   4.351   1.389  12.169 -0.7640  0.0560  0.8567
  485TMC3    C3 7211   4.487   1.368  12.199  0.7771 -0.6375  0.0091
  485TMC3    C4 7212   4.411   1.622  12.147  0.1065 -0.1784 -0.2766
  485TMC3    C5 7213   4.531   1.601  12.184  0.2978  1.0476 -0.3133
  485TMC3    C6 7214   4.571   1.474  12.211 -0.0154  1.1351  0.1237
  485TMC3     C 7215   4.196   1.538  12.077 -0.5976  0.1715 -0.6306
  485TMC3     O 7216   4.181   1.638  12.006 -0.4929 -0.4416 -0.3687
  485TMC3     H 7217   4.291   1.301  12.149 -1.0283  0.4996 -0.3521
  485TMC3    H1 7218   4.389   1.727  12.130  1.1937  0.2568  1.0279
  485TMC3    H2 7219   4.678   1.460  12.224 -0.0313 -0.9590 -2.0305
  485TMC3    C7 7220   4.608   1.676  12.092  0.1275 -0.4466  0.7002
  485TMC3    C8 7221   4.559   1.275  12.127 -0.6108  0.4413  0.7591
  485TMC3    O1 7222   4.588   1.794  12.073  0.2850 -0.7109 -0.2998
  485TMC3    O2 7223   4.627   1.314  12.034 -0.1110 -0.1198 -0.0337
  486MPD2     C 7224   1.120   1.008  13.099 -0.3523 -0.4313  0.7909
  486MPD2    C1 7225   1.025   0.931  13.039 -0.2696 -0.5168 -0.6102
  486MPD2    C2 7226   0.922   0.993  12.972 -0.1857 -0.0168  0.3201
  486MPD2    C3 7227   0.909   1.131  12.972 -0.2394 -0.3367  0.1541
  486MPD2    C4 7228   1.012   1.207  13.032  0.1088 -0.6018  0.3627
  486MPD2    C5 7229   1.113   1.143  13.088 -1.0386  0.3834  0.0766
  486MPD2     H 7230   0.843   0.946  12.915 -1.0054  1.8473 -0.0628
  486MPD2    H1 7231   1.018   1.315  13.038  1.6640 -0.8750  3.8445
  486MPD2    H2 7232   1.208   0.966  13.147 -2.2164 -3.3391  1.6597
  486MPD2    H3 7233   1.189   1.207  13.131 -1.0450  1.3525 -1.3539
  486MPD2     N 7234   0.801   1.194  12.910  0.4019  0.3922 -0.2004
  486MPD2    H5 7235   0.739   1.130  12.861 -1.1503  1.5716  0.1946
  486MPD2    N1 7236   1.036   0.784  13.050  0.2415  0.1855  0.1553
  486MPD2    H7 7237   1.101   0.748  13.119 -2.3593 -0.2403  2.3763
  487TMC3    C1 7238   0.946   0.563  13.030  0.1681  0.5866  0.2267
  487TMC3    C2 7239   0.820   0.502  13.029 -0.3737  0.3372 -0.1289
  487TMC3    C3 7240   0.801   0.382  13.085  0.2819  0.0054 -0.4172
  487TMC3    C4 7241   1.043   0.505  13.106  0.0512  0.4466 -0.0182
  487TMC3    C5 7242   1.016   0.394  13.178  0.2043 -0.2177  0.2264
  487TMC3    C6 7243   0.897   0.324  13.161 -0.6957 -0.1596 -0.4055
  487TMC3     C 7244   0.951   0.699  12.981  0.2983  0.8618  0.7422
  487TMC3     O 7245   0.867   0.725  12.893  0.1239 -0.4172 -0.4922
  487TMC3     H 7246   0.742   0.561  12.981 -0.9282 -0.7330 -0.5423
  487TMC3    H1 7247   1.136   0.554  13.134 -0.1682  2.2232 -2.3876
  487TMC3    H2 7248   0.864   0.246  13.228 -0.0975 -0.4337 -0.4338
  487TMC3    C7 7249   1.125   0.333  13.253  0.7272 -1.0678  1.3126
  487TMC3    C8 7250   0.667   0.331  13.102  1.0897 -0.4364  0.1399
  487TMC3    O1 7251   1.205   0.412  13.309  0.1624 -0.0305 -0.3063
  487TMC3    O2 7252   0.660   0.227  13.168  0.5491 -0.1156 -0.1362
  488MPD2     C 7253   1.268   2.242  16.458 -0.3752  0.6470 -0.2512
  488MPD2    C1 7254   1.300   2.379  16.460  0.3242 -0.3382  0.5725
  488MPD2    C2 7255   1.271   2.453  16.573 -0.7248 -0.2795  0.3223
  488MPD2    C3 7256   1.207   2.398  16.677  0.2738  0.2172  0.2470
  488MPD2    C4 7257   1.159   2.268  16.674  0.4768 -0.3995 -0.1323
  488MPD2    C5 7258   1.199   2.189  16.565 -0.4324  0.1741  0.9222
  488MPD2     H 7259   1.297   2.558  16.581  1.4902 -0.7036 -1.2099
  488MPD2    H1 7260   1.091   2.231  16.750  0.4347 -0.9732 -0.4456
  488MPD2    H2 7261   1.294   2.164  16.388  0.5504  0.1977  0.5960
  488MPD2    H3 7262   1.182   2.082  16.560  2.5400 -0.1583 -1.8559
  488MPD2     N 7263   1.184   2.472  16.795 -0.2299 -0.2334  0.4934
  488MPD2    H5 7264   1.217   2.568  16.793 -1.5671  0.1020 -4.1471
  488MPD2    N1 7265   1.343   2.452  16.349 -0.1807  0.7311 -0.5663
  488MPD2    H7 7266   1.374   2.547  16.367 -0.2091  0.8952 -1.3661
  489TMC3    C1 7267   1.098   2.529  17.005 -0.1119 -0.0555  0.3035
  489TMC3    C2 7268   1.040   2.636  16.943 -0.6595  0.0913 -0.5654
  489TMC3    C3 7269   0.974   2.718  17.030  0.1299  0.1696  0.0879
  489TMC3    C4 7270   1.086   2.500  17.139  0.0757  0.8164 -0.2147
  489TMC3    C5 7271   1.035   2.602  17.215  0.6830 -0.8712  0.7177
  489TMC3    C6 7272   0.970   2.708  17.166 -0.2436 -0.0303  0.0669
  489TMC3     C 7273   1.133   2.422  16.919  0.4547  0.1634 -0.8447
  489TMC3     O 7274   1.117   2.310  16.963 -0.2746  0.1735 -0.2177
  489TMC3     H 7275   1.064   2.665  16.842 -2.2295 -1.9935 -1.5617
  489TMC3    H1 7276   1.154   2.426  17.180 -1.3626 -1.3387 -1.6902
  489TMC3    H2 7277   0.918   2.781  17.225 -1.0215  0.1924 -0.8841
  489TMC3    C7 7278   1.073   2.607  17.347 -0.2344  0.3491 -0.0233
  489TMC3    C8 7279   0.911   2.836  16.976 -0.8384 -0.0688 -0.6296
  489TMC3    O1 7280   1.043   2.707  17.411 -0.0405  0.8033 -0.2638
  489TMC3    O2 7281   0.907   2.941  17.036  0.4500 -0.7169 -0.1722
  490MPD2     C 7282   1.885   2.152  17.362 -0.6330  0.0750 -0.7847
  490MPD2    C1 7283   1.897   2.036  17.300  0.5984 -0.1488 -0.4240
  490MPD2    C2 7284   2.012   2.016  17.227 -0.0073  0.0019  0.6181
  490MPD2    C3 7285   2.114   2.114  17.220  0.3502  0.2771 -0.3358
  490MPD2    C4 7286   2.099   2.228  17.294 -0.2236 -0.0163  0.3858
  490MPD2    C5 7287   1.983   2.247  17.361 -0.1485 -0.9622 -0.3773
  490MPD2     H 7288   2.026   1.916  17.188 -0.9241  0.0766  0.1045
  490MPD2    H1 7289   2.181   2.299  17.297 -3.0029  3.1146  2.0529
  490MPD2    H2 7290   1.800   2.164  17.428  1.4167 -1.0114  2.0557
  490MPD2    H3 7291   1.966   2.343  17.407 -0.8705 -1.7480  0.9849
  490MPD2     N 7292   2.228   2.105  17.145 -0.4192  0.4357  0.2250
  490MPD2    H5 7293   2.291   2.184  17.146  0.2264 -0.0651 -0.9862
  490MPD2    N1 7294   1.804   1.926  17.296  0.1146  0.9666  0.0201
  490MPD2    H7 7295   1.819   1.848  17.234 -3.2937 -0.5043  1.0184
  491TMC3    C1 7296   1.657   1.774  17.393  0.1240 -0.0552  0.0220
  491TMC3    C2 7297   1.612   1.730  17.516 -0.3581  1.1817 -0.4666
  491TMC3    C3 7298   1.577   1.599  17.534 -0.3314 -0.1566 -0.2990
  491TMC3    C4 7299   1.658   1.683  17.288 -0.9318 -0.4373 -0.4141
  491TMC3    C5 7300   1.632   1.548  17.311 -0.0713 -0.3801  0.4815
  491TMC3    C6 7301   1.595   1.500  17.438 -0.7713 -0.2115 -0.1362
  491TMC3     C 7302   1.715   1.906  17.399  0.0670  0.1328 -0.4920
  491TMC3     O 7303   1.680   1.974  17.490 -0.7291  0.1496  0.2382
  491TMC3     H 7304   1.621   1.793  17.604  1.7124  0.2281 -0.0107
  491TMC3    H1 7305   1.656   1.728  17.189 -1.0014 -1.4110 -0.8607
  491TMC3    H2 7306   1.567   1.396  17.451 -1.4688 -0.1170 -0.8421
  491TMC3    C7 7307   1.645   1.460  17.198 -0.0060 -0.8069 -0.9076
  491TMC3    C8 7308   1.514   1.568  17.656  0.4386  0.4075  0.4205
  491TMC3    O1 7309   1.593   1.347  17.202 -0.5151 -0.2701 -0.8281
  491TMC3    O2 7310   1.467   1.663   0.029  0.0858  0.2117 -0.6964
  492MPD2     C 7311   2.203   1.959  11.300  0.0100 -0.8004  0.7452
  492MPD2    C1 7312   2.145   1.851  11.236 -0.7284  0.2486  0.5744
  492MPD2    C2 7313   2.105   1.742  11.314  0.0460  0.3831  0.2499
  492MPD2    C3 7314   2.143   1.734  11.451  0.3624  0.6623  0.4094
  492MPD2    C4 7315   2.216   1.836  11.506 -0.4105 -0.2460 -0.0892
  492MPD2    C5 7316   2.231   1.949  11.434 -0.2844 -0.6396  0.2478
  492MPD2     H 7317   2.051   1.657  11.274  0.3099 -0.4967  1.7819
  492MPD2    H1 7318   2.254   1.842  11.607  0.4444  0.9073 -0.4838
  492MPD2    H2 7319   2.231   2.046  11.241  0.0514 -0.0846  1.8134
  492MPD2    H3 7320   2.272   2.034  11.487  3.3645 -1.1772 -1.6995
  492MPD2     N 7321   2.129   1.616  11.534  0.1550 -0.0073 -0.4369
  492MPD2    H5 7322   2.171   1.614  11.626 -2.2844 -2.3594  0.6197
  492MPD2    N1 7323   2.141   1.861  11.094  0.2699 -0.4741  0.9211
  492MPD2    H7 7324   2.163   1.950  11.050 -0.7336 -0.1887  0.9973
  493TMC3    C1 7325   2.097   1.822  10.877 -0.2218  0.4082 -0.0221
  493TMC3    C2 7326   2.198   1.908  10.856  0.0426 -0.3432  0.4346
  493TMC3    C3 7327   2.207   1.973  10.738  0.1804  0.1443 -0.3002
  493TMC3    C4 7328   1.998   1.798  10.782  0.3065  0.1812 -0.4162
  493TMC3    C5 7329   1.997   1.882  10.672 -0.3694  0.0183  0.8288
  493TMC3    C6 7330   2.102   1.968  10.648 -0.7740  0.2844 -0.7908
  493TMC3     C 7331   2.084   1.766  11.008 -0.0313 -0.0352  0.3836
  493TMC3     O 7332   2.001   1.681  11.026 -0.4586 -0.1632  0.5079
  493TMC3     H 7333   2.291   1.904  10.913 -0.4239 -0.3429  1.1972
  493TMC3    H1 7334   1.911   1.743  10.816  1.5474 -0.6319  1.4535
  493TMC3    H2 7335   2.105   2.011  10.548 -0.7986  0.5562 -0.6753
  493TMC3    C7 7336   1.903   1.854  10.565  0.0430 -0.0774 -0.0586
  493TMC3    C8 7337   2.307   2.083  10.741 -0.7183 -0.9058  0.7937
  493TMC3    O1 7338   1.911   1.922  10.463 -0.3042  0.3193  0.5367
  493TMC3    O2 7339   2.346   2.109  10.855  0.1378  0.1753  0.2617
  494TMC3    C1 7340   2.460   2.932   0.571  0.5522 -0.1418 -0.1270
  494TMC3    C2 7341   2.512   2.808   0.543  0.4848  0.2965 -0.1232
  494TMC3    C3 7342   2.591   2.791   0.433  1.2844  0.0302  0.7773
  494TMC3    C4 7343   2.471   3.037   0.482  0.2648  0.1164  0.4915
  494TMC3    C5 7344   2.542   3.012   0.364  0.3601  0.1948 -0.6319
  494TMC3    C6 7345   2.607   2.891   0.344  1.2355 -0.8683 -0.0754
  494TMC3     C 7346   2.406   2.956   0.707 -0.2715  0.4039 -0.8657
  494TMC3     O 7347   2.341   3.060   0.722  0.3586  0.4674  0.2328
  494TMC3     H 7348   2.499   2.723   0.610 -4.0566  3.0365  2.4631
  494TMC3    H1 7349   2.434   3.132   0.517  0.5743 -0.0192  1.1833
  494TMC3    H2 7350   2.668   2.877   0.255  0.5676 -2.3928 -0.2987
  494TMC3    C7 7351   2.598   3.127   0.298 -0.2128 -0.5904  0.6396
  494TMC3    C8 7352   2.614   2.661   0.391 -0.3773 -0.1918 -0.3434
  494TMC3    O1 7353   2.716   3.106   0.278  0.2448  0.0397 -0.8371
  494TMC3    O2 7354   2.519   2.584   0.399 -0.0674 -0.0868 -0.5363
  495TMC3    C1 7355   1.671   0.242  14.876  0.2474 -0.9277 -0.1214
  495TMC3    C2 7356   1.581   0.204  14.785  0.1023  0.1502  0.1600
  495TMC3    C3 7357   1.479   0.293  14.770  0.3081 -0.3207 -0.4198
  495TMC3    C4 7358   1.666   0.363  14.945  0.5040 -0.2558  0.2550
  495TMC3    C5 7359   1.560   0.449  14.928 -0.5115  0.4943 -1.0410
  495TMC3    C6 7360   1.466   0.412  14.836 -0.1696 -0.4593  0.1415
  495TMC3     C 7361   1.803   0.181  14.871  1.4461  0.7305  0.2699
  495TMC3     O 7362   1.884   0.215  14.956  0.0221 -0.0971 -0.4101
  495TMC3     H 7363   1.569   0.100  14.760 -1.3354  1.1270 -3.1856
  495TMC3    H1 7364   1.740   0.393  15.017 -1.1513  0.2735  1.7225
  495TMC3    H2 7365   1.394   0.487  14.805 -0.2110 -0.0447  1.2431
  495TMC3    C7 7366   1.528   0.543  15.036  0.1376  0.0482 -0.3461
  495TMC3    C8 7367   1.356   0.247  14.709 -0.2476 -0.5732 -0.2460
  495TMC3    O1 7368   1.616   0.542  15.124  0.5220 -0.3402 -0.0413
  495TMC3    O2 7369   1.255   0.288  14.765 -0.3163  0.1970  0.3407
  496MPD2     C 7370   3.781   1.135  15.670 -0.2816  0.7538  0.4704
  496MPD2    C1 7371   3.717   1.024  15.621  0.1168  0.4983 -0.6933
  496MPD2    C2 7372   3.579   1.023  15.620 -0.0194  0.0456 -0.5572
  496MPD2    C3 7373   3.507   1.125  15.679 -0.0798 -0.1716 -0.2805
  496MPD2    C4 7374   3.574   1.229  15.740 -0.0445  1.0862 -0.5171
  496MPD2    C5 7375   3.711   1.240  15.725  0.2223  0.4483 -0.4069
  496MPD2     H 7376   3.522   0.939  15.581 -0.3372 -0.8385  1.8203
  496MPD2    H1 7377   3.528   1.309  15.797 -1.4776  0.8154 -1.2801
  496MPD2    H2 7378   3.888   1.148  15.662 -0.0990 -2.0143 -1.7544
  496MPD2    H3 7379   3.765   1.325  15.767  1.6221  0.0468 -1.4019
  496MPD2     N 7380   3.364   1.098  15.698  0.2564  0.0184  0.2291
  496MPD2    H5 7381   3.330   1.007  15.668 -1.3351  0.7078 -0.0188
  496MPD2    N1 7382   3.792   0.927  15.547 -0.5239  0.0190 -0.4308
  496MPD2    H7 7383   3.893   0.930  15.554 -0.6491  0.9288  0.9977
  497TMC3    C1 7384   3.182   1.063  15.818 -0.1571 -0.3669  0.2273
  497TMC3    C2 7385   3.070   1.028  15.754  0.5485  0.7662  0.1950
  497TMC3    C3 7386   2.989   0.928  15.816 -0.3669 -0.0916 -0.5427
  497TMC3    C4 7387   3.225   1.000  15.929  0.1841  0.7838  0.4116
  497TMC3    C5 7388   3.148   0.902  15.984  0.3848 -0.5316 -0.4380
  497TMC3    C6 7389   3.020   0.871  15.935  0.1379 -0.8964  0.0833
  497TMC3     C 7390   3.269   1.167  15.774 -0.0307 -0.3078 -0.1254
  497TMC3     O 7391   3.274   1.271  15.842  0.1223  0.0797  0.2518
  497TMC3     H 7392   3.029   1.065  15.661 -1.2515  0.8248  1.0150
  497TMC3    H1 7393   3.317   1.030  15.978  2.1038 -1.7413 -1.5792
  497TMC3    H2 7394   2.973   0.778  15.963  0.3803 -0.7731  0.9048
  497TMC3    C7 7395   3.172   0.850  16.118  0.6143 -0.3278  0.6473
  497TMC3    C8 7396   2.875   0.866  15.741 -0.1309  0.1318  0.0779
  497TMC3    O1 7397   3.079   0.858  16.193  0.3628  0.0893 -0.4143
  497TMC3    O2 7398   2.882   0.851  15.620  0.1511 -0.3055 -0.0969
  498MPD2     C 7399   4.524   0.578   9.569 -1.2370 -0.3769  0.2243
  498MPD2    C1 7400   4.506   0.693   9.647 -0.0074  0.8477  0.9275
  498MPD2    C2 7401   4.385   0.706   9.712 -0.8347 -0.2893 -0.3207
  498MPD2    C3 7402   4.285   0.611   9.706 -0.4596 -0.0391  0.7348
  498MPD2    C4 7403   4.306   0.495   9.624 -0.3001 -0.5254 -0.5363
  498MPD2    C5 7404   4.427   0.484   9.559  0.4394 -0.2855  0.1209
  498MPD2     H 7405   4.370   0.795   9.772  2.0381  1.7725 -2.6493
  498MPD2    H1 7406   4.232   0.418   9.606 -0.4993 -0.3891 -0.3044
  498MPD2    H2 7407   4.611   0.560   9.506 -1.4873 -0.5829 -0.0617
  498MPD2    H3 7408   4.452   0.402   9.493 -1.2693  0.1929 -1.1144
  498MPD2     N 7409   4.175   0.616   9.798  0.0431  0.3563 -0.1583
  498MPD2    H5 7410   4.176   0.692   9.865  0.5778  0.0070  0.2199
  498MPD2    N1 7411   4.608   0.792   9.671 -0.3529  0.0639  0.7287
  498MPD2    H7 7412   4.590   0.882   9.714  0.5125  0.6695 -0.1755
  499TMC3    C1 7413   0.103   0.879   9.682 -0.8112 -0.0985  0.3452
  499TMC3    C2 7414   0.233   0.852   9.726  0.3086 -0.1291  0.1896
  499TMC3    C3 7415   0.313   0.955   9.761 -0.3687 -1.1700 -0.4592
  499TMC3    C4 7416   0.057   1.010   9.679  0.3253  0.5611 -0.4931
  499TMC3    C5 7417   0.140   1.111   9.712  0.3823  0.1818  0.2213
  499TMC3    C6 7418   0.272   1.081   9.741 -0.3617  0.0754  0.1334
  499TMC3     C 7419   0.023   0.764   9.655  0.2327 -0.2263  0.0002
  499TMC3     O 7420   0.077   0.665   9.609  0.5684  0.1672  0.4665
  499TMC3     H 7421   0.272   0.752   9.714 -0.7628 -0.5523  0.2513
  499TMC3    H1 7422   4.673   1.028   9.657  0.0467  0.4738  0.7549
  499TMC3    H2 7423   0.346   1.160   9.749 -2.0246  1.6493 -0.1003
  499TMC3    C7 7424   0.105   1.248   9.711  0.1848 -0.4006  0.3287
  499TMC3    C8 7425   0.456   0.941   9.809 -0.2908 -0.3197  0.1977
  499TMC3    O1 7426   0.182   1.327   9.760  0.4746  0.0789  0.3520
  499TMC3    O2 7427   0.528   1.039   9.783  0.1008 -0.1184 -0.4249
  500MPD2     C 7428   1.341   2.854  10.460 -0.0655 -0.1879 -0.3035
  500MPD2    C1 7429   1.311   2.894  10.334  0.1902  0.7494 -0.0075
  500MPD2    C2 7430   1.187   2.946  10.313 -0.2216 -0.3186 -0.1879
  500MPD2    C3 7431   1.085   2.928  10.407  0.2444 -0.0687 -0.0485
  500MPD2    C4 7432   1.121   2.875  10.533  0.2782 -0.6323 -0.0174
  500MPD2    C5 7433   1.250   2.855  10.562  0.1333  0.5573  0.1941
  500MPD2     H 7434   1.160   2.973  10.211 -3.5576 -1.3919  0.4072
  500MPD2    H1 7435   1.048   2.869  10.613  1.3950 -0.3601  1.0212
  500MPD2    H2 7436   1.446   2.836  10.479 -0.1381 -0.1763  0.1244
  500MPD2    H3 7437   1.293   2.819  10.655  1.6358  0.0755 -0.6851
  500MPD2     N 7438   0.946   2.942  10.389 -0.2533 -0.4184  0.5169
  500MPD2    H5 7439   0.876   2.909  10.455 -3.2904 -1.4906 -3.2214
  500MPD2    N1 7440   1.403   2.902  10.228  0.0127 -0.1217  0.1459
  500MPD2    H7 7441   1.362   2.941  10.143 -2.7011 -2.7511  0.2674
  501TMC3    C1 7442   1.605   2.870  10.106 -0.2034 -1.2519  0.4935
  501TMC3    C2 7443   1.581   2.985  10.041 -0.8383  0.0321 -1.0482
  501TMC3    C3 7444   1.682   3.059   9.996 -0.7441 -0.3462  0.0176
  501TMC3    C4 7445   1.724   2.809  10.103  0.4414  0.2026 -0.3260
  501TMC3    C5 7446   1.828   2.879  10.055 -0.1502  0.5198 -0.1466
  501TMC3    C6 7447   1.809   3.009   9.996  0.3776 -0.1563 -0.1683
  501TMC3     C 7448   1.533   2.847  10.225 -1.1332 -0.2581  0.2880
  501TMC3     O 7449   1.588   2.784  10.311 -0.0407 -0.4104 -0.2576
  501TMC3     H 7450   1.485   3.034  10.044 -0.5000  0.6485 -0.3265
  501TMC3    H1 7451   1.740   2.710  10.145 -2.5454  1.1201  2.9450
  501TMC3    H2 7452   1.894   3.070   9.968 -0.0409  0.9582  0.9838
  501TMC3    C7 7453   1.925   2.878  10.160  0.0567 -0.1838 -0.3014
  501TMC3    C8 7454   1.684   3.194  10.048  0.3075  0.1949  0.7087
  501TMC3    O1 7455   1.950   2.776  10.225  0.0088  0.3265  0.6524
  501TMC3    O2 7456   1.619   3.210  10.150 -0.0406  0.5540 -0.3665
  502TMC3    C1 7457   1.201   1.398  14.635 -0.3444 -0.3279  0.4386
  502TMC3    C2 7458   1.201   1.519  14.573  0.3146 -0.7208 -0.3638
  502TMC3    C3 7459   1.097   1.605  14.603  0.2021  0.0676 -0.3792
  502TMC3    C4 7460   1.081   1.348  14.678  0.0486  0.3219 -0.3654
  502TMC3    C5 7461   0.971   1.429  14.692 -0.3370 -0.2207  0.3781
  502TMC3    C6 7462   0.988   1.567  14.675 -0.3592 -0.2404 -0.5914
  502TMC3     C 7463   1.306   1.402  14.738  0.0926 -0.4452  0.2343
  502TMC3     O 7464   1.397   1.482  14.720  0.6833 -0.5303 -0.4647
  502TMC3     H 7465   1.279   1.545  14.503 -1.1936  1.9288 -1.0335
  502TMC3    H1 7466   1.074   1.246  14.716  0.6632  0.9139  1.3257
  502TMC3    H2 7467   0.911   1.638  14.701  1.6086  2.6578 -2.5605
  502TMC3    C7 7468   0.904   1.398  14.811 -1.1576  0.6644  0.1629
  502TMC3    C8 7469   1.128   1.749  14.597  0.5634 -0.2092 -0.3756
  502TMC3    O1 7470   0.970   1.339  14.895  0.5323  0.3541  0.2975
  502TMC3    O2 7471   1.046   1.825  14.556  0.4705  0.1069 -0.4729
  503MPD2     C 7472   2.958   1.967  16.876  1.0081 -0.2159 -0.6239
  503MPD2    C1 7473   3.036   2.013  16.979  0.8233  0.5569  0.2376
  503MPD2    C2 7474   3.145   1.938  17.022 -0.1335  0.1170  0.2077
  503MPD2    C3 7475   3.167   1.811  16.976  0.3207  0.1770 -0.0958
  503MPD2    C4 7476   3.087   1.763  16.877 -0.1727 -0.2909  0.5371
  503MPD2    C5 7477   2.986   1.841  16.827 -0.4844  0.3079  0.5307
  503MPD2     H 7478   3.200   1.980  17.105 -0.8410  1.1732  0.1389
  503MPD2    H1 7479   3.094   1.667  16.826 -2.5041 -0.7344  1.0266
  503MPD2    H2 7480   2.869   2.013  16.835  1.9012  1.0394 -1.1482
  503MPD2    H3 7481   2.917   1.794  16.757 -0.0133  1.6146 -0.8046
  503MPD2     N 7482   3.282   1.739  17.021  0.5381  0.1181 -0.1900
  503MPD2    H5 7483   3.341   1.786  17.090  3.0599 -0.2721 -2.1037
  503MPD2    N1 7484   3.002   2.131  17.049  0.1249 -0.5769  0.2326
  503MPD2    H7 7485   3.058   2.166  17.126 -0.9233  3.9532 -1.0636
  504TMC3    C1 7486   3.401   1.542  17.077 -0.0859 -0.0367 -0.4576
  504TMC3    C2 7487   3.384   1.414  17.113  0.4291 -0.0680 -0.0483
  504TMC3    C3 7488   3.485   1.348  17.179 -0.2823 -0.0051  0.4751
  504TMC3    C4 7489   3.523   1.604  17.093  0.7593  0.7513  0.8518
  504TMC3    C5 7490   3.623   1.531  17.147  0.3223 -0.0751 -0.0733
  504TMC3    C6 7491   3.608   1.404  17.196  0.0764 -0.2934  0.4708
  504TMC3     C 7492   3.304   1.601  16.991  0.1936  0.6972 -0.1194
  504TMC3     O 7493   3.236   1.521  16.928  0.3486  0.2581 -0.6238
  504TMC3     H 7494   3.288   1.364  17.113  0.1603  0.4586 -0.9276
  504TMC3    H1 7495   3.546   1.697  17.042  3.1211  1.2034  2.7276
  504TMC3    H2 7496   3.698   1.353  17.229  0.8467  1.4568  1.0897
  504TMC3    C7 7497   3.755   1.554  17.087  0.2469  0.0384  0.2606
  504TMC3    C8 7498   3.453   1.230  17.266 -0.0241  0.2414  0.5925
  504TMC3    O1 7499   3.754   1.588  16.970  0.3487 -0.6177 -0.0181
  504TMC3    O2 7500   3.516   1.224  17.374 -0.4024 -0.6363 -0.2929
  505MPD2     C 7501   2.877   0.610  10.626 -0.3112 -0.6594 -0.0695
  505MPD2    C1 7502   2.839   0.585  10.497 -0.0396 -0.0106  0.1606
  505MPD2    C2 7503   2.865   0.461  10.436  0.2412  0.1806 -0.2927
  505MPD2    C3 7504   2.920   0.358  10.498  0.3206  0.1520 -0.0675
  505MPD2    C4 7505   2.955   0.378  10.628  0.6977  0.2588  0.2077
  505MPD2    C5 7506   2.931   0.499  10.687 -0.3570 -0.0816 -0.0588
  505MPD2     H 7507   2.840   0.459  10.330  0.2075  0.5147 -0.2935
  505MPD2    H1 7508   2.996   0.304  10.696 -1.0527  1.4267  2.5376
  505MPD2    H2 7509   2.860   0.704  10.677 -0.2182 -0.2829 -0.7446
  505MPD2    H3 7510   2.960   0.512  10.791  1.8260  1.5299 -0.8500
  505MPD2     N 7511   2.952   0.241  10.421 -0.0906 -0.1332  0.4797
  505MPD2    H5 7512   2.916   0.236  10.326  0.3344 -0.3619  0.3319
  505MPD2    N1 7513   2.805   0.706  10.427  0.8469  0.0257 -0.2644
  505MPD2    H7 7514   2.815   0.797  10.471 -1.0352 -0.0498  0.3155
  506TMC3    C1 7515   2.755   0.844  10.243 -0.2345  0.6648  0.3516
  506TMC3    C2 7516   2.872   0.903  10.265  0.0590  0.6741 -0.4932
  506TMC3    C3 7517   2.951   0.915  10.154  0.3505  0.0912 -0.7019
  506TMC3    C4 7518   2.708   0.826  10.113 -0.2586 -0.0268 -0.2386
  506TMC3    C5 7519   2.781   0.851  10.004  0.6588 -0.2905 -0.4092
  506TMC3    C6 7520   2.906   0.891  10.026  0.0301 -0.0902  0.3888
  506TMC3     C 7521   2.756   0.713  10.301  0.0811  0.4205 -0.4663
  506TMC3     O 7522   2.729   0.623  10.218  0.5287 -0.2820  0.0088
  506TMC3     H 7523   2.910   0.932  10.363  0.2006  0.1035 -0.3839
  506TMC3    H1 7524   2.615   0.770  10.108  0.1649 -1.0806  3.9172
  506TMC3    H2 7525   2.965   0.933   9.944 -4.1287  0.3368 -2.3802
  506TMC3    C7 7526   2.760   0.752   9.905  0.4288 -0.0001 -0.8905
  506TMC3    C8 7527   3.074   0.975  10.177 -0.5316  0.8969 -0.1624
  506TMC3    O1 7528   2.771   0.793   9.785 -0.4187 -0.1830  0.3305
  506TMC3    O2 7529   3.077   1.046  10.279 -0.1760  0.1620 -0.0802
  507TMC3    C1 7530   4.179   1.966  14.582 -0.0683  0.3805  0.1267
  507TMC3    C2 7531   4.168   1.855  14.500  0.4900 -0.4278 -0.6171
  507TMC3    C3 7532   4.259   1.839  14.400 -0.2995 -0.2507  0.3650
  507TMC3    C4 7533   4.281   2.060  14.568  0.4488 -0.2175 -0.8486
  507TMC3    C5 7534   4.373   2.037  14.470 -0.9051 -0.3188  0.1241
  507TMC3    C6 7535   4.366   1.922  14.389 -0.3239 -0.1310  0.3982
  507TMC3     C 7536   4.087   1.979  14.691 -0.0579 -0.6068 -0.4598
  507TMC3     O 7537   4.133   2.045  14.780 -0.1229 -0.4165  0.2119
  507TMC3     H 7538   4.082   1.789  14.496  1.7132 -2.1108  0.8391
  507TMC3    H1 7539   4.284   2.145  14.636 -0.0261 -0.6097 -0.3287
  507TMC3    H2 7540   4.443   1.908  14.315 -0.0763 -1.2058  0.8602
  507TMC3    C7 7541   4.392   2.143  14.379  0.3791 -0.1843  0.9869
  507TMC3    C8 7542   4.202   1.787  14.270  0.4004  0.2071 -0.3383
  507TMC3    O1 7543   4.385   2.110  14.262  0.6366 -0.4238 -0.1425
  507TMC3    O2 7544   4.125   1.697  14.281  0.3666  0.2599 -0.4868
  508MPD2     C 7545   4.438   4.157  16.101 -0.5686  0.4500  0.2349
  508MPD2    C1 7546   4.573   4.176  16.066  0.0453 -0.0290 -0.4841
  508MPD2    C2 7547   4.606   4.216  15.938  0.3444  0.4715 -0.0726
  508MPD2    C3 7548   4.508   4.252  15.853  0.4394 -0.1751  0.3096
  508MPD2    C4 7549   4.378   4.224  15.892  0.0980  0.7287 -0.4153
  508MPD2    C5 7550   4.338   4.188  16.012 -0.0196 -0.3508  0.4239
  508MPD2     H 7551   4.709   4.235  15.909  0.6781 -0.1683  0.6718
  508MPD2    H1 7552   4.294   4.236  15.824 -1.3612 -0.4065  1.2110
  508MPD2    H2 7553   4.398   4.128  16.197 -1.4349 -0.8007 -0.5011
  508MPD2    H3 7554   4.230   4.180  16.026  0.1916  1.0583  2.8649
  508MPD2     N 7555   4.542   4.302  15.727 -0.2763 -0.5239  0.2687
  508MPD2    H5 7556   4.640   4.318  15.708 -0.5656  0.9853  0.0383
  508MPD2    N1 7557   4.674   4.164  16.162 -0.1730  0.0889  0.0869
  508MPD2    H7 7558   4.647   4.136  16.255 -1.6588 -2.1705 -1.0097
  509TMC3    C1 7559   4.506   4.593  15.431  0.4671  0.3839 -0.6547
  509TMC3    C2 7560   4.643   4.621  15.445 -0.4626  0.5747  0.9729
  509TMC3    C3 7561   4.719   4.519  15.495 -0.7604 -0.2623  0.1404
  509TMC3    C4 7562   4.450   4.472  15.452 -0.0141 -0.4933 -0.0737
  509TMC3    C5 7563   4.534   4.378  15.500  0.1733  0.4189 -0.4532
  509TMC3    C6 7564   4.668   4.395  15.515 -0.0229 -0.4127  0.5517
  509TMC3     C 7565   4.418   4.694  15.381  0.2563  0.8811  0.0595
  509TMC3     O 7566   4.300   4.702  15.414 -0.2144 -0.3824  0.1117
  509TMC3     H 7567   4.668   0.004  15.457 -1.9897  0.9799  0.7101
  509TMC3    H1 7568   4.342   4.467  15.445 -0.2726  3.9261  0.5273
  509TMC3    H2 7569   0.018   4.320  15.547  0.2599 -1.3003 -2.1694
  509TMC3    C7 7570   4.464   4.308  15.612 -0.5852 -0.1299  0.1410
  509TMC3    C8 7571   0.101   4.550  15.598 -0.9569 -0.5313  0.5789
  509TMC3    O1 7572   4.344   4.284  15.612 -0.1506  0.2498 -0.4750
  509TMC3    O2 7573   0.093   4.473  15.696 -0.6351  0.4687 -0.1900
  510MPD2     C 7574   2.912   0.987  14.434  0.2435  0.3550 -0.0091
  510MPD2    C1 7575   2.995   1.013  14.540 -0.2383  0.2478  0.1059
  510MPD2    C2 7576   3.111   1.077  14.526 -0.9037  0.5526 -0.0927
  510MPD2    C3 7577   3.144   1.130  14.399 -0.2548 -1.0370  0.7952
  510MPD2    C4 7578   3.062   1.107  14.295 -0.3965 -0.1441 -0.0113
  510MPD2    C5 7579   2.946   1.037  14.308 -0.3324 -0.2061  0.0413
  510MPD2     H 7580   3.186   1.084  14.605 -0.0309 -0.0950 -0.8674
  510MPD2    H1 7581   3.082   1.137  14.192 -1.5481  0.4594 -0.0588
  510MPD2    H2 7582   2.816   0.936  14.445 -1.3916  3.0915 -1.4678
  510MPD2    H3 7583   2.875   1.029  14.226 -0.4783  0.5423  0.0926
  510MPD2     N 7584   3.275   1.192  14.377 -0.7379  0.3551  0.1239
  510MPD2    H5 7585   3.341   1.189  14.454 -1.9882  0.6746  1.1975
  510MPD2    N1 7586   2.950   0.967  14.666  0.0984  0.2381 -0.1083
  510MPD2    H7 7587   2.860   0.919  14.671  0.1190 -0.1942 -3.3617
  511TMC3    C1 7588   2.925   0.914  14.882  0.2249 -0.5576 -0.1970
  511TMC3    C2 7589   2.871   0.969  14.991  0.5967  0.3130 -0.2964
  511TMC3    C3 7590   2.776   0.897  15.055  0.7634 -0.1484 -0.3712
  511TMC3    C4 7591   2.892   0.789  14.839  0.4734  0.6207  0.4272
  511TMC3    C5 7592   2.808   0.715  14.907  0.6797 -1.4453 -0.4643
  511TMC3    C6 7593   2.744   0.767  15.020 -0.8320  0.0753  0.3742
  511TMC3     C 7594   3.008   0.989  14.785 -0.2663  0.3775 -0.1836
  511TMC3     O 7595   3.098   1.068  14.822 -0.3691  0.2513  0.1551
  511TMC3     H 7596   2.894   1.068  15.027 -0.1140  0.8484 -1.3320
  511TMC3    H1 7597   2.950   0.751  14.756 -1.7063 -0.7863 -0.4439
  511TMC3    H2 7598   2.666   0.709  15.068 -0.5247 -1.7840 -1.3785
  511TMC3    C7 7599   2.772   0.582  14.853  0.0275 -0.1676  0.7650
  511TMC3    C8 7600   2.717   0.959  15.170 -0.0289  0.6120 -0.1284
  511TMC3    O1 7601   2.836   0.540  14.756 -0.0829  0.5671 -0.2207
  511TMC3    O2 7602   2.749   1.077  15.200 -0.1619 -1.0577 -0.3173
  512TMC3    C1 7603   1.595   0.380  13.181  0.6868  0.2360  0.7693
  512TMC3    C2 7604   1.704   0.364  13.254  0.3300  0.1910 -0.0726
  512TMC3    C3 7605   1.752   0.233  13.275 -0.4558 -0.2427 -0.1013
  512TMC3    C4 7606   1.518   0.274  13.139  0.5737  0.1494  0.1543
  512TMC3    C5 7607   1.558   0.148  13.171 -0.2772 -0.3975  0.5393
  512TMC3    C6 7608   1.670   0.129  13.249 -0.3245  0.4345  0.1847
  512TMC3     C 7609   1.558   0.508  13.132  0.0775 -0.3384 -0.1016
  512TMC3     O 7610   1.449   0.512  13.074  0.0569 -0.0958 -0.3932
  512TMC3     H 7611   1.752   0.445  13.308 -0.9757  0.2255  1.0600
  512TMC3    H1 7612   1.436   0.290  13.070 -0.0263  0.0120  0.8468
  512TMC3    H2 7613   1.704   0.031  13.281 -0.0090 -0.5776 -3.3139
  512TMC3    C7 7614   1.476   0.034  13.125 -0.1079  0.5154  0.1958
  512TMC3    C8 7615   1.876   0.211  13.351 -0.1700  0.2665 -0.1026
  512TMC3    O1 7616   1.376   0.058  13.055  0.0172 -0.1111 -0.1592
  512TMC3    O2 7617   1.883   0.099  13.403  0.2335  0.2791 -0.1564
  513MPD2     C 7618   2.949   4.652  13.284  0.0699 -0.0554 -0.6720
  513MPD2    C1 7619   3.084   4.644  13.258 -0.2781 -0.0942  0.0584
  513MPD2    C2 7620   3.168   4.710  13.343  0.1119 -0.6756  0.3923
  513MPD2    C3 7621   3.116   0.064  13.453  0.5677 -0.2186 -0.3732
  513MPD2    C4 7622   2.980   0.065  13.480  0.5298  0.4430  0.1188
  513MPD2    C5 7623   2.890   0.002  13.391  0.0389 -0.3817  0.5833
  513MPD2     H 7624   3.276   4.716  13.330  0.1340 -0.0405  0.8651
  513MPD2    H1 7625   2.940   0.106  13.572  0.0068  1.7146 -0.6814
  513MPD2    H2 7626   2.883   4.599  13.216 -1.6302 -0.6527  1.4599
  513MPD2    H3 7627   2.783   4.720  13.409  0.1495 -1.8448  0.9736
  513MPD2     N 7628   3.210   0.135  13.529 -0.1860  0.3681  0.2652
  513MPD2    H5 7629   3.298   0.139  13.480 -0.7108  0.7369 -0.6405
  513MPD2    N1 7630   3.126   4.567  13.149 -0.4182  0.6288 -0.0769
  513MPD2    H7 7631   3.061   4.516  13.089 -0.7323  0.6206  0.2742
  514TMC3    C1 7632   3.274   4.464  12.991 -0.6053  0.3359  0.2993
  514TMC3    C2 7633   3.208   4.514  12.882 -0.3467  0.7501 -0.6737
  514TMC3    C3 7634   3.274   4.527  12.761 -0.2817 -0.6204  0.2083
  514TMC3    C4 7635   3.406   4.454  12.983 -0.4160  0.1756 -0.0919
  514TMC3    C5 7636   3.477   4.477  12.867 -0.3342  0.0472 -0.1501
  514TMC3    C6 7637   3.407   4.502  12.756  0.0771 -0.3814  0.5285
  514TMC3     C 7638   3.251   4.545  13.111  0.1221  0.1285 -0.1946
  514TMC3     O 7639   3.358   4.594  13.152  0.1851 -0.1912  0.5700
  514TMC3     H 7640   3.108   4.551  12.900 -1.1265 -1.6419 -0.1248
  514TMC3    H1 7641   3.465   4.427  13.070  0.1854  1.4974 -0.0955
  514TMC3    H2 7642   3.460   4.543  12.670 -1.6015  1.0674  0.1960
  514TMC3    C7 7643   3.592   4.560  12.889  0.2895  0.0285  0.1948
  514TMC3    C8 7644   3.204   4.616  12.661 -0.1755 -0.6842 -0.5463
  514TMC3    O1 7645   3.677   4.555  12.801 -0.3446 -0.2148 -0.1181
  514TMC3    O2 7646   3.104   4.668  12.702  0.5456 -0.7348 -0.4733
  515MPD2     C 7647   1.950   2.197  14.525  0.4813  0.5138 -0.3862
  515MPD2    C1 7648   1.976   2.074  14.584  0.0810 -0.4517  0.2981
  515MPD2    C2 7649   2.062   2.066  14.695 -0.3318 -0.1564 -0.1647
  515MPD2    C3 7650   2.131   2.181  14.740  0.0513  0.6563 -0.4851
  515MPD2    C4 7651   2.108   2.300  14.672 -1.1451 -0.9800  0.0243
  515MPD2    C5 7652   2.012   2.307  14.579  0.4265  0.6316  0.2695
  515MPD2     H 7653   2.085   1.969  14.736  0.3492  0.1682  0.2159
  515MPD2    H1 7654   2.158   2.389  14.710  1.0921 -2.5344  0.7134
  515MPD2    H2 7655   1.873   2.194  14.448 -0.7008  1.0539  0.7607
  515MPD2    H3 7656   1.984   2.401  14.532 -0.2641  0.2184 -0.1393
  515MPD2     N 7657   2.207   2.186  14.857  0.1009 -0.9253  0.3389
  515MPD2    H5 7658   2.219   2.278  14.898  1.2961 -1.4371  1.1348
  515MPD2    N1 7659   1.900   1.968  14.527  0.7596 -0.3976 -0.2657
  515MPD2    H7 7660   1.838   1.999  14.452 -0.7785  0.5902  1.4234
  516TMC3    C1 7661   1.808   1.750  14.487  0.2032 -0.7073 -0.6339
  516TMC3    C2 7662   1.702   1.809  14.424 -0.0344  0.0749 -0.1945
  516TMC3    C3 7663   1.588   1.733  14.403  0.1165  0.5769  0.4251
  516TMC3    C4 7664   1.796   1.616  14.526 -0.0075 -0.1630 -0.9189
  516TMC3    C5 7665   1.679   1.544  14.508 -1.0647  0.1481  0.6870
  516TMC3    C6 7666   1.568   1.603  14.442 -0.6145  0.0981  0.5679
  516TMC3     C 7667   1.901   1.835  14.564 -0.0260  0.0233  0.2358
  516TMC3     O 7668   1.974   1.786  14.646  0.3806 -0.4723 -0.2726
  516TMC3     H 7669   1.717   1.906  14.379 -1.1092  0.4110  0.1887
  516TMC3    H1 7670   1.875   1.573  14.586  0.3408  1.3696 -0.2657
  516TMC3    H2 7671   1.470   1.560  14.431 -0.4538 -0.3477  0.8906
  516TMC3    C7 7672   1.667   1.409  14.553  0.6669 -0.1151  0.1567
  516TMC3    C8 7673   1.471   1.782  14.332  0.1706  0.0188 -0.3185
  516TMC3    O1 7674   1.734   1.375  14.651  0.1261  0.7498  0.0472
  516TMC3    O2 7675   1.370   1.714  14.319 -0.2774 -0.1768  0.3101
  517MPD2     C 7676   0.738   3.625  17.130  0.3166 -0.1785 -0.1649
  517MPD2    C1 7677   0.857   3.642  17.205 -0.3527  0.2903 -0.2921
  517MPD2    C2 7678   0.883   3.762  17.270 -0.4172  0.0066 -0.5722
  517MPD2    C3 7679   0.794   3.862  17.261 -0.0051  0.1824  0.1590
  517MPD2    C4 7680   0.679   3.852  17.182 -0.0130 -0.2850  0.4290
  517MPD2    C5 7681   0.649   3.730  17.122 -0.0293 -0.2812 -0.0852
  517MPD2     H 7682   0.973   3.764  17.330 -0.2310  0.3256 -0.8618
  517MPD2    H1 7683   0.619   3.939  17.159  0.6073  0.5762  2.0776
  517MPD2    H2 7684   0.720   3.542  17.062 -0.0147 -1.5480  1.6053
  517MPD2    H3 7685   0.562   3.716  17.059 -0.1213 -1.2822  0.2608
  517MPD2     N 7686   0.808   3.985  17.337 -0.2091 -0.0868 -0.3004
  517MPD2    H5 7687   0.732   4.051  17.323 -1.5636 -1.4804  0.4207
  517MPD2    N1 7688   0.958   3.540  17.221  0.5943 -0.0499  0.0780
  517MPD2    H7 7689   1.044   3.570  17.266  0.1646  0.8645  0.2999
  518TMC3    C1 7690   1.095   3.358  17.165  0.4664 -0.5614 -0.0779
  518TMC3    C2 7691   1.110   3.226  17.156  0.1554 -0.2605  0.2631
  518TMC3    C3 7692   1.230   3.172  17.183 -0.1671  0.3105 -0.4236
  518TMC3    C4 7693   1.205   3.438  17.186  0.0855  0.0104  0.4121
  518TMC3    C5 7694   1.329   3.384  17.199 -0.7873 -0.5731 -0.6745
  518TMC3    C6 7695   1.337   3.240  17.211 -0.5691  0.1926 -0.1374
  518TMC3     C 7696   0.966   3.419  17.154 -0.0054 -0.4435 -0.5879
  518TMC3     O 7697   0.884   3.367  17.079  0.8065 -0.8290 -0.3445
  518TMC3     H 7698   1.023   3.164  17.138  0.6408  0.0026 -2.8821
  518TMC3    H1 7699   1.192   3.544  17.169  0.5278  0.1615  1.0064
  518TMC3    H2 7700   1.436   3.197  17.201 -0.4134  0.6639 -0.6266
  518TMC3    C7 7701   1.446   3.462  17.161 -0.0956 -0.3699  0.2514
  518TMC3    C8 7702   1.251   3.030  17.145 -0.8502  0.1365 -1.0751
  518TMC3    O1 7703   1.422   3.560  17.092 -0.2660 -0.5250  0.1975
  518TMC3    O2 7704   1.287   2.953  17.236 -0.2406  0.0685  0.2935
  519MPD2     C 7705   3.297   1.701  14.507 -0.8434 -0.5301 -0.3144
  519MPD2    C1 7706   3.178   1.685  14.437 -0.3140  0.2422 -0.0723
  519MPD2    C2 7707   3.188   1.653  14.303  0.7843  0.1821 -0.3173
  519MPD2    C3 7708   3.314   1.647  14.245  0.2935 -0.4663 -1.3222
  519MPD2    C4 7709   3.428   1.675  14.317 -0.0433  0.7685 -0.1383
  519MPD2    C5 7710   3.416   1.696  14.447 -0.9749 -0.1739  0.2284
  519MPD2     H 7711   3.098   1.662  14.243  1.1529  2.6595 -0.4681
  519MPD2    H1 7712   3.527   1.670  14.272 -0.1601 -0.1425 -0.2974
  519MPD2    H2 7713   3.300   1.715  14.615  0.8916  1.8249 -0.6735
  519MPD2    H3 7714   3.503   1.722  14.507 -1.4684 -0.4237  1.0414
  519MPD2     N 7715   3.336   1.614  14.111 -0.5979 -0.3296 -0.2270
  519MPD2    H5 7716   3.430   1.611  14.073 -1.2464 -0.9600 -1.7657
  519MPD2    N1 7717   3.054   1.712  14.498 -0.4454  0.3807  0.0546
  519MPD2    H7 7718   3.062   1.746  14.594 -1.4490 -1.5369  0.8126
  520TMC3    C1 7719   3.307   1.523  13.903  0.5813  0.0402  0.0782
  520TMC3    C2 7720   3.241   1.534  13.786 -0.0534  0.0945 -0.4396
  520TMC3    C3 7721   3.285   1.477  13.673  0.0392 -0.0544  0.7648
  520TMC3    C4 7722   3.430   1.451  13.911 -0.2823  0.2824  0.3329
  520TMC3    C5 7723   3.469   1.400  13.793  0.2489  0.1656  0.4025
  520TMC3    C6 7724   3.400   1.405  13.669 -0.4984  0.3884  0.0737
  520TMC3     C 7725   3.242   1.576  14.022 -0.6412  0.6645  0.1057
  520TMC3     O 7726   3.126   1.604  14.022 -0.0694 -0.1837 -0.0582
  520TMC3     H 7727   3.156   1.602  13.788  0.9507  1.2997  1.5146
  520TMC3    H1 7728   3.488   1.437  14.002 -1.5296 -1.7346  0.8147
  520TMC3    H2 7729   3.437   1.369  13.574 -0.7992 -1.6676  0.7228
  520TMC3    C7 7730   3.606   1.356  13.802 -0.3402  0.0488 -0.5351
  520TMC3    C8 7731   3.206   1.488  13.550 -0.3815  0.9335  0.4335
  520TMC3    O1 7732   3.642   1.287  13.897 -0.3949 -0.1353 -0.2326
  520TMC3    O2 7733   3.265   1.457  13.446 -0.0053 -0.8031  0.4118
  521MPD2     C 7734   3.846   4.613  17.635 -0.3808  0.0716 -0.3463
  521MPD2    C1 7735   3.763   4.633  17.524 -0.3988 -0.3206 -0.5891
  521MPD2    C2 7736   3.819   4.674  17.401 -0.1780 -0.1362  0.2521
  521MPD2    C3 7737   3.954   4.708  17.395  0.3010 -0.2104 -0.4259
  521MPD2    C4 7738   4.038   4.682  17.507 -0.1059 -0.4127  0.0484
  521MPD2    C5 7739   3.981   4.631  17.619  0.2921  0.1967  0.6863
  521MPD2     H 7740   3.757   4.679  17.312 -2.3709 -2.4497  1.6485
  521MPD2    H1 7741   4.147   4.684  17.510 -0.0519 -1.2957 -0.9357
  521MPD2    H2 7742   3.824   4.567   0.044  0.6487 -0.3172 -0.2981
  521MPD2    H3 7743   4.039   4.606   0.021 -0.4895 -0.7616  0.9334
  521MPD2     N 7744   4.003   0.015  17.269 -0.5233  0.8286 -0.3470
  521MPD2    H5 7745   3.944   4.718  17.188  1.0135 -0.7298 -1.1289
  521MPD2    N1 7746   3.628   4.592  17.533 -0.0754 -0.1577 -0.1899
  521MPD2    H7 7747   3.595   4.543  17.615  2.5673  0.3668  1.1701
  522TMC3    C1 7748   4.192   4.709  17.130  0.0661  0.4497 -0.4192
  522TMC3    C2 7749   4.324   4.704  17.131  0.6069  0.0840 -0.1062
  522TMC3    C3 7750   4.392   4.639  17.032  0.2723  0.0500  0.8334
  522TMC3    C4 7751   4.127   4.624  17.053 -0.4944 -0.5456 -0.7722
  522TMC3    C5 7752   4.198   4.534  16.980  0.1054 -0.2833  0.3451
  522TMC3    C6 7753   4.333   4.535  16.961  0.6394  0.9495  0.3878
  522TMC3     C 7754   4.137   0.045  17.248 -0.2496  0.0767  0.5314
  522TMC3     O 7755   4.215   0.103  17.326 -0.4812  0.2533  0.0205
  522TMC3     H 7756   4.380   0.058  17.185  1.5336 -0.7508  0.0918
  522TMC3    H1 7757   4.022   4.600  17.062  0.0292 -3.2685 -1.9981
  522TMC3    H2 7758   4.390   4.461  16.906 -0.0629  1.5996 -1.2074
  522TMC3    C7 7759   4.134   4.417  16.923  0.1435  0.2729 -0.2329
  522TMC3    C8 7760   4.533   4.635  17.043  0.2553 -1.2969 -0.1187
  522TMC3    O1 7761   4.205   4.315  16.944 -0.2676  0.1761 -0.1216
  522TMC3    O2 7762   4.583   4.686  17.140  0.3384  0.9949 -0.4724
  523MPD2     C 7763   2.019   4.185  10.395  0.4061 -0.5539 -0.1309
  523MPD2    C1 7764   2.038   4.177  10.257  0.5019  0.1154  0.2801
  523MPD2    C2 7765   1.972   4.261  10.166 -0.1362  0.0095  0.0289
  523MPD2    C3 7766   1.886   4.361  10.221 -0.2370 -0.4750 -0.7250
  523MPD2    C4 7767   1.866   4.363  10.359 -0.4145 -0.0628 -0.4103
  523MPD2    C5 7768   1.934   4.275  10.440 -0.5187 -0.2054  0.0093
  523MPD2     H 7769   1.979   4.252  10.058 -2.8305  2.3430 -0.3509
  523MPD2    H1 7770   1.800   4.435  10.407 -0.1359  0.7478 -1.2501
  523MPD2    H2 7771   2.054   4.106  10.461  1.8892  0.2673  0.0406
  523MPD2    H3 7772   1.917   4.267  10.546 -1.6072 -1.7894 -0.2687
  523MPD2     N 7773   1.815   4.456  10.142 -0.0324 -0.5743 -0.3342
  523MPD2    H5 7774   1.759   4.526  10.189 -0.2533 -0.2123 -1.1300
  523MPD2    N1 7775   2.115   4.069  10.212  0.1101 -0.1319  0.1120
  523MPD2    H7 7776   2.148   3.998  10.277 -0.7567  0.7737  1.5613
  524TMC3    C1 7777   1.734   4.581   9.958 -0.8821  0.4076 -0.7750
  524TMC3    C2 7778   1.799   4.677   9.891 -0.5678 -0.5295 -0.0000
  524TMC3    C3 7779   1.747   0.083   9.897  0.0385 -0.9676  0.1380
  524TMC3    C4 7780   1.621   4.606  10.028 -0.4553 -0.4679 -0.9765
  524TMC3    C5 7781   1.561   0.013  10.022 -0.6856 -1.0498  0.2419
  524TMC3    C6 7782   1.634   0.113   9.966 -0.1193  0.2172  0.4018
  524TMC3     C 7783   1.820   4.478  10.004 -0.4297 -0.4553  0.2583
  524TMC3     O 7784   1.891   4.425   9.921 -0.2003 -0.0204  0.4932
  524TMC3     H 7785   1.895   4.651   9.849 -0.0092  0.2517  0.7903
  524TMC3    H1 7786   1.566   4.517  10.055  1.1566 -0.6065  1.8022
  524TMC3    H2 7787   1.594   0.211   9.943 -2.5032 -1.2381 -1.6071
  524TMC3    C7 7788   1.418   0.024  10.045 -0.3579  0.2338  0.6024
  524TMC3    C8 7789   1.831   0.176   9.834  0.0974 -0.1425  0.1549
  524TMC3    O1 7790   1.360   4.641  10.078 -0.1913  0.7871 -0.4289
  524TMC3    O2 7791   1.874   0.159   9.727  0.0868  0.4299  0.0927
  525MPD2     C 7792   4.593   1.642  14.169  0.0934 -0.2390 -0.1864
  525MPD2    C1 7793   4.703   1.655  14.250  0.8595  0.3407  0.2784
  525MPD2    C2 7794   0.042   1.777  14.264  0.7387 -0.7140 -0.1622
  525MPD2    C3 7795   4.705   1.891  14.211  0.3946 -0.0329 -0.4552
  525MPD2    C4 7796   4.592   1.878  14.129 -0.3369 -0.0464 -0.3409
  525MPD2    C5 7797   4.544   1.753  14.104  0.2073 -0.1148  0.7108
  525MPD2     H 7798   0.135   1.789  14.318 -0.0392  2.6510  0.4166
  525MPD2    H1 7799   4.534   1.957  14.084  0.1914  0.4298 -0.1798
  525MPD2    H2 7800   4.547   1.545  14.153  1.7627 -1.2920  1.3349
  525MPD2    H3 7801   4.457   1.733  14.042  1.0156 -0.7972 -0.1931
  525MPD2     N 7802   0.032   2.024  14.237  0.6435 -0.4016 -0.7053
  525MPD2    H5 7803   4.709   2.101  14.188  1.8387 -0.8808 -2.5743
  525MPD2    N1 7804   0.036   1.544  14.324 -0.9061  1.2798 -0.1654
  525MPD2    H7 7805   0.129   1.556  14.362 -0.6210 -0.7643 -0.1996
  526TMC3    C1 7806   0.043   1.358  14.455 -0.0916  0.1465  0.0231
  526TMC3    C2 7807   4.702   1.300  14.562 -0.0705 -0.5010  0.5509
  526TMC3    C3 7808   0.057   1.239  14.664 -0.4174 -0.7370 -0.2290
  526TMC3    C4 7809   0.179   1.345  14.432  0.9634  0.1445 -0.1346
  526TMC3    C5 7810   0.249   1.272  14.524 -0.5866 -0.0134 -0.4900
  526TMC3    C6 7811   0.193   1.227  14.647  0.4101  0.2469  0.6453
  526TMC3     C 7812   4.684   1.429  14.359  0.1337 -0.3699 -0.6339
  526TMC3     O 7813   4.566   1.415  14.357  0.1085  0.0773  0.2247
  526TMC3     H 7814   4.594   1.306  14.575  0.1875  0.8520  2.0172
  526TMC3    H1 7815   0.225   1.373  14.338  2.1548 -0.3381  0.3069
  526TMC3    H2 7816   0.261   1.194  14.725  0.4783 -1.3182 -0.0718
  526TMC3    C7 7817   0.390   1.268  14.516 -0.0937 -0.4025  0.1355
  526TMC3    C8 7818   0.014   1.257  14.799  0.1715  0.1447  0.6503
  526TMC3    O1 7819   0.440   1.351  14.443 -0.7949  0.6338 -0.0010
  526TMC3    O2 7820   0.087   1.227  14.896  0.2985 -0.6869  0.2480
  527MPD2     C 7821   2.852   3.107   1.266 -0.1772 -0.1027  0.6192
  527MPD2    C1 7822   2.924   3.221   1.291 -0.4363  0.0816  0.4651
  527MPD2    C2 7823   3.065   3.222   1.284  0.3497  0.0035 -0.0463
  527MPD2    C3 7824   3.133   3.102   1.250  0.0072  0.2257 -0.1502
  527MPD2    C4 7825   3.059   2.984   1.254 -0.5694  0.3613 -0.0420
  527MPD2    C5 7826   2.921   2.993   1.244  0.5784 -0.4398  0.9399
  527MPD2     H 7827   3.118   3.316   1.286  1.1070 -0.4660  1.6312
  527MPD2    H1 7828   3.087   2.887   1.215 -1.3316  0.3446 -0.5509
  527MPD2    H2 7829   2.744   3.098   1.276  0.1975 -0.0319  4.7741
  527MPD2    H3 7830   2.856   2.908   1.224  0.2048  0.1832 -0.4462
  527MPD2     N 7831   3.268   3.118   1.211  0.3608  0.0731  0.3267
  527MPD2    H5 7832   3.295   3.214   1.193 -0.1641  0.0577 -0.5602
  527MPD2    N1 7833   2.858   3.342   1.322 -0.5732  0.6266  0.4836
  527MPD2    H7 7834   2.922   3.418   1.345 -1.0441  0.3900  2.6387
  528TMC3    C1 7835   2.692   3.504   1.341 -0.1692  0.2507 -0.5538
  528TMC3    C2 7836   2.761   3.586   1.428 -0.3415 -0.4344 -0.2314
  528TMC3    C3 7837   2.722   3.711   1.461  0.1734 -0.0936 -0.1833
  528TMC3    C4 7838   2.574   3.551   1.289  0.2317  0.0261  0.1246
  528TMC3    C5 7839   2.533   3.677   1.314 -0.3100 -0.0789 -0.1399
  528TMC3    C6 7840   2.607   3.758   1.406  0.2291  0.4152 -0.0303
  528TMC3     C 7841   2.722   3.367   1.315  0.6441  0.0845 -0.2714
  528TMC3     O 7842   2.629   3.289   1.285 -0.2060 -0.0924 -0.2315
  528TMC3     H 7843   2.848   3.547   1.479 -0.5011  0.6333  0.8557
  528TMC3    H1 7844   2.533   3.502   1.201  0.3560  1.1165 -0.5360
  528TMC3    H2 7845   2.572   3.856   1.436 -0.2452  0.2030  0.1007
  528TMC3    C7 7846   2.412   3.728   1.269  0.3151 -0.0044  0.4372
  528TMC3    C8 7847   2.752   3.763   1.591  0.1256 -0.1087  0.6188
  528TMC3    O1 7848   2.375   3.835   1.310  0.0276 -0.1698  0.0885
  528TMC3    O2 7849   2.871   3.766   1.628 -0.3868 -0.2719 -0.1048
  529MPD2     C 7850   0.383   2.714   0.788 -0.0293  0.3452  0.1084
  529MPD2    C1 7851   0.472   2.634   0.722  0.1034  0.0650  0.1853
  529MPD2    C2 7852   0.546   2.685   0.621 -0.2238  0.2244  0.2724
  529MPD2    C3 7853   0.531   2.816   0.573  0.0195 -0.4986 -0.6576
  529MPD2    C4 7854   0.439   2.888   0.635  0.6038 -0.3585  0.0127
  529MPD2    C5 7855   0.374   2.842   0.743 -0.2598 -0.1416  0.0033
  529MPD2     H 7856   0.613   2.614   0.573 -1.6925 -0.5628 -0.6062
  529MPD2    H1 7857   0.414   2.991   0.609 -2.2420 -1.2070 -0.5849
  529MPD2    H2 7858   0.319   2.680   0.868  2.0669  2.5180  2.6893
  529MPD2    H3 7859   0.301   2.905   0.793  2.1506  2.2057  0.5823
  529MPD2     N 7860   0.592   2.869   0.459  0.4863  0.4148 -0.2101
  529MPD2    H5 7861   0.566   2.960   0.422  3.0752  0.2083 -2.4970
  529MPD2    N1 7862   0.493   2.496   0.752  0.2190 -0.0405 -0.0163
  529MPD2    H7 7863   0.558   2.453   0.687  0.7652  0.6354  0.0800
  530TMC3    C1 7864   0.459   2.284   0.837 -0.2057  0.4230  0.4954
  530TMC3    C2 7865   0.447   2.216   0.956 -0.4428 -0.4671 -0.0703
  530TMC3    C3 7866   0.429   2.083   0.951  0.6527  0.8701 -0.2208
  530TMC3    C4 7867   0.475   2.223   0.718  0.9589  0.0551  0.8914
  530TMC3    C5 7868   0.441   2.091   0.717  0.5377 -0.2139  0.0581
  530TMC3    C6 7869   0.428   2.013   0.834  0.3641 -0.7512  0.1276
  530TMC3     C 7870   0.429   2.425   0.853 -0.1931 -0.1692  0.6845
  530TMC3     O 7871   0.359   2.469   0.944 -0.2026 -0.3918 -0.1132
  530TMC3     H 7872   0.421   2.266   1.049  0.1119  1.5721 -1.0219
  530TMC3    H1 7873   0.489   2.283   0.628 -2.8161  0.1828  0.4183
  530TMC3    H2 7874   0.385   1.913   0.833  0.1465 -0.6618  0.6050
  530TMC3    C7 7875   0.427   2.030   0.580 -0.3844  0.3793  0.1518
  530TMC3    C8 7876   0.452   2.023   1.079 -0.7394  0.2660  0.7196
  530TMC3    O1 7877   0.406   2.114   0.495 -0.1053 -0.8920  0.9283
  530TMC3    O2 7878   0.386   2.057   1.178 -0.1237 -0.6410 -0.2716
  531MPD2     C 7879   3.843   0.185  13.194  0.5070 -0.9722 -0.1780
  531MPD2    C1 7880   3.714   0.160  13.235 -0.0581 -0.5460 -0.0149
  531MPD2    C2 7881   3.640   0.063  13.173 -0.8140 -0.4841 -0.5714
  531MPD2    C3 7882   3.677   4.721  13.056 -0.0808  0.2343  0.6680
  531MPD2    C4 7883   3.798   0.036  12.998  0.2048 -0.0497 -0.5965
  531MPD2    C5 7884   3.878   0.128  13.070  0.5503  0.4181  0.2708
  531MPD2     H 7885   3.546   0.025  13.210 -0.1466  0.6479  2.2778
  531MPD2    H1 7886   3.835   4.715  12.905 -1.4591  0.1603 -1.3530
  531MPD2    H2 7887   3.912   0.251  13.245 -0.4194 -2.0332  2.4548
  531MPD2    H3 7888   3.972   0.159  13.027  0.2109  0.1746 -0.6494
  531MPD2     N 7889   3.585   4.624  13.008  0.6342  0.2146  0.5455
  531MPD2    H5 7890   3.502   4.620  13.066  0.8499  0.8989  0.8972
  531MPD2    N1 7891   3.656   0.236  13.348 -0.3451  0.6516  0.6166
  531MPD2    H7 7892   3.724   0.298  13.392 -0.4482  1.7572 -0.7850
  532TMC3    C1 7893   3.496   0.297  13.514 -0.0049  0.9770  0.4442
  532TMC3    C2 7894   3.366   0.324  13.521 -0.0019 -0.5809 -0.0602
  532TMC3    C3 7895   3.297   0.308  13.647 -0.3090 -0.0793 -0.0169
  532TMC3    C4 7896   3.570   0.276  13.627  0.3091  0.5553 -0.3134
  532TMC3    C5 7897   3.512   0.287  13.751 -0.4250  1.3400  0.7020
  532TMC3    C6 7898   3.374   0.278  13.759 -0.4775  0.0135  0.0493
  532TMC3     C 7899   3.529   0.226  13.397 -0.9573 -0.7760 -0.4811
  532TMC3     O 7900   3.435   0.163  13.356  0.2577 -0.6698 -0.3417
  532TMC3     H 7901   3.317   0.344  13.427 -1.2612  1.1261  0.9579
  532TMC3    H1 7902   3.667   0.229  13.618  0.0376 -0.0453 -0.1076
  532TMC3    H2 7903   3.325   0.258  13.854 -1.0720 -0.9138 -0.4483
  532TMC3    C7 7904   3.598   0.282  13.871 -0.1251 -0.0268 -0.3315
  532TMC3    C8 7905   3.180   0.225  13.627 -0.3741  0.7135  0.1988
  532TMC3    O1 7906   3.541   0.288  13.982 -0.3554 -0.7832  0.1002
  532TMC3    O2 7907   3.091   0.225  13.711  0.0901 -0.4908  0.2074
  533TMC3    C1 7908   0.163   2.205  14.339 -0.2560 -0.6003 -0.0863
  533TMC3    C2 7909   0.292   2.245  14.364  0.0617 -0.1752  0.2493
  533TMC3    C3 7910   0.304   2.348  14.453  0.4776 -0.3464  0.2572
  533TMC3    C4 7911   0.054   2.267  14.399  0.0143 -0.2645  0.6222
  533TMC3    C5 7912   0.069   2.362  14.493 -0.0512  0.3720 -0.5722
  533TMC3    C6 7913   0.200   2.405  14.517  1.2369  0.3199 -0.3297
  533TMC3     C 7914   0.152   2.060  14.299  0.1169  0.1856  0.4836
  533TMC3     O 7915   0.252   1.989  14.323  0.1881 -0.2424 -0.1706
  533TMC3     H 7916   0.378   2.193  14.324  1.3518  2.4508 -0.4137
  533TMC3    H1 7917   4.674   2.238  14.371  0.1410 -0.2092  0.0973
  533TMC3    H2 7918   0.220   2.495  14.573 -1.9754 -0.3844  1.9295
  533TMC3    C7 7919   4.713   2.323  14.611 -0.2342  0.3149  0.3854
  533TMC3    C8 7920   0.435   2.387  14.496  1.5426  0.4614  0.4645
  533TMC3    O1 7921   4.632   2.230  14.599  0.5280 -0.4074 -0.0388
  533TMC3    O2 7922   0.523   2.367  14.413 -0.5886  0.6575  0.0732
  534MPD2     C 7923   3.055   2.469   1.237 -0.8283 -0.0930 -0.7744
  534MPD2    C1 7924   2.961   2.509   1.326 -0.2146 -0.4157 -0.6643
  534MPD2    C2 7925   2.828   2.483   1.298 -0.6917 -0.3576  0.5701
  534MPD2    C3 7926   2.792   2.408   1.186  0.0537  0.2769 -0.1164
  534MPD2    C4 7927   2.897   2.361   1.099 -0.2849  0.0596  0.3784
  534MPD2    C5 7928   3.027   2.393   1.130  0.7833 -1.0080  0.8567
  534MPD2     H 7929   2.758   2.538   1.360 -1.1279 -0.1072 -0.1381
  534MPD2    H1 7930   2.872   2.278   1.035 -0.9346  0.1016  0.5687
  534MPD2    H2 7931   3.160   2.477   1.263 -1.2508 -1.5772  1.3549
  534MPD2    H3 7932   3.117   2.350   1.087  1.7075 -0.7687  2.5498
  534MPD2     N 7933   2.658   2.381   1.148 -0.9933  0.9834  0.4067
  534MPD2    H5 7934   2.637   2.329   1.063  2.4936 -1.0283  0.7858
  534MPD2    N1 7935   2.984   2.580   1.442 -0.1645 -0.5626 -0.4845
  534MPD2    H7 7936   2.912   2.598   1.512  0.0257 -0.6153 -0.2744
  535TMC3    C1 7937   2.420   2.402   1.142 -0.0314  0.2411 -0.1872
  535TMC3    C2 7938   2.307   2.417   1.220 -0.4217  0.2275 -0.1594
  535TMC3    C3 7939   2.186   2.435   1.159  0.3991 -0.0130 -0.2055
  535TMC3    C4 7940   2.424   2.437   1.009  0.2111 -0.2835 -0.3687
  535TMC3    C5 7941   2.305   2.474   0.955  0.2804  0.1089 -0.6137
  535TMC3    C6 7942   2.186   2.463   1.023  0.1254 -0.2042  0.2126
  535TMC3     C 7943   2.547   2.409   1.219 -0.0191 -1.0466  0.4938
  535TMC3     O 7944   2.540   2.450   1.335  0.1426  0.3298 -0.3846
  535TMC3     H 7945   2.305   2.385   1.324  1.3420  1.5768  0.2886
  535TMC3    H1 7946   2.515   2.454   0.953  0.1545 -0.0471 -0.3906
  535TMC3    H2 7947   2.092   2.478   0.969  0.8272 -0.4728 -1.0895
  535TMC3    C7 7948   2.324   2.533   0.819 -0.1170  0.9669 -0.0300
  535TMC3    C8 7949   2.074   2.391   1.236 -0.1007  0.2357  0.2390
  535TMC3    O1 7950   2.435   2.531   0.769 -0.1394  0.0481  0.6077
  535TMC3    O2 7951   2.001   2.319   1.168  0.6482 -0.6161  0.0069
  536MPD2     C 7952   1.638   1.208  16.106 -0.2924  0.3997 -0.3087
  536MPD2    C1 7953   1.508   1.183  16.141 -0.2038  0.3710  0.0150
  536MPD2    C2 7954   1.410   1.202  16.045 -0.1437  0.1349  0.1856
  536MPD2    C3 7955   1.429   1.253  15.916 -0.3013 -0.7067 -0.4611
  536MPD2    C4 7956   1.563   1.276  15.883 -0.0050 -0.0643  0.0165
  536MPD2    C5 7957   1.661   1.258  15.979  0.3677 -0.0612  0.2503
  536MPD2     H 7958   1.307   1.193  16.077  0.1647 -1.9048  0.6217
  536MPD2    H1 7959   1.595   1.327  15.793 -1.2023  1.3506  0.3949
  536MPD2    H2 7960   1.718   1.195  16.178 -0.0870 -1.7006 -0.9008
  536MPD2    H3 7961   1.760   1.280  15.941  0.4173  1.1371  1.0848
  536MPD2     N 7962   1.329   1.278  15.819 -0.0459  0.4763  0.8094
  536MPD2    H5 7963   1.362   1.311  15.729 -0.5071  1.8521  1.1429
  536MPD2    N1 7964   1.479   1.123  16.278  0.3059  0.4198  0.1751
  536MPD2    H7 7965   1.554   1.111  16.345  2.1485  1.9098 -1.6088
  537TMC3    C1 7966   1.370   1.026  16.461  0.0177  0.3475 -0.3141
  537TMC3    C2 7967   1.428   1.114  16.545  0.5804  0.4494 -0.3256
  537TMC3    C3 7968   1.392   1.110  16.674 -0.4891 -0.0494 -0.0897
  537TMC3    C4 7969   1.272   0.937  16.506  0.5268 -0.3333  0.4014
  537TMC3    C5 7970   1.249   0.926  16.641 -0.8076 -0.0327  0.0222
  537TMC3    C6 7971   1.313   1.010  16.732 -0.0956 -0.2147  0.5135
  537TMC3     C 7972   1.367   1.061  16.321 -0.2766 -0.3170 -0.2946
  537TMC3     O 7973   1.274   1.020  16.251 -0.6427 -0.3153  0.2216
  537TMC3     H 7974   1.479   1.201  16.507  0.9734 -0.5697 -2.1252
  537TMC3    H1 7975   1.228   0.865  16.437  0.1650 -0.0519  0.3376
  537TMC3    H2 7976   1.282   1.013  16.836  0.5493  2.3906  0.6465
  537TMC3    C7 7977   1.143   0.847  16.692 -0.0451  0.3957  0.2829
  537TMC3    C8 7978   1.473   1.168  16.779 -0.0589 -0.4763  0.1493
  537TMC3    O1 7979   1.041   0.829  16.624  0.4827  0.6948 -0.2386
  537TMC3    O2 7980   1.433   1.166  16.896  0.0300  0.4078 -0.2275
  538TMC3    C1 7981   2.377   4.205  10.916 -0.2696 -0.7447 -0.4748
  538TMC3    C2 7982   2.473   4.191  10.819 -0.1746 -0.8166 -0.5714
  538TMC3    C3 7983   2.471   4.269  10.705  0.5288  0.2322  0.2752
  538TMC3    C4 7984   2.279   4.300  10.898  0.2304 -0.2194 -0.1113
  538TMC3    C5 7985   2.265   4.359  10.780  0.0880  0.8035 -0.0595
  538TMC3    C6 7986   2.360   4.344  10.680  0.1950 -0.6286 -0.0332
  538TMC3     C 7987   2.418   4.167  11.051  0.2234  0.5494 -0.1328
  538TMC3     O 7988   2.349   4.208  11.142  0.3156  0.0845 -0.7717
  538TMC3     H 7989   2.557   4.123  10.827 -0.3274 -1.1842 -2.1459
  538TMC3    H1 7990   2.206   4.318  10.977  0.9744  1.2938  0.2175
  538TMC3    H2 7991   2.337   4.400  10.589 -0.9687  0.3551  0.8586
  538TMC3    C7 7992   2.143   4.426  10.767  0.0920  0.0940  0.4249
  538TMC3    C8 7993   2.567   4.250  10.604  0.5410 -0.2008 -0.3268
  538TMC3    O1 7994   2.061   4.402  10.858 -0.0446 -0.2023  0.9849
  538TMC3    O2 7995   2.639   4.148  10.613  0.3188  0.0111 -0.1544
  539MPD2     C 7996   2.259   3.827  11.844  0.3878  0.3884 -0.5131
  539MPD2    C1 7997   2.179   3.771  11.740 -0.4610  0.2226  0.2361
  539MPD2    C2 7998   2.083   3.859  11.681  0.1076  0.4117 -0.4013
  539MPD2    C3 7999   2.065   3.987  11.721  0.1530 -0.4568 -0.0748
  539MPD2    C4 8000   2.136   4.035  11.827  0.6119 -0.1187 -0.2750
  539MPD2    C5 8001   2.232   3.959  11.889 -0.5282  0.1407 -0.1472
  539MPD2     H 8002   2.018   3.824  11.602  1.5214 -0.9018 -0.9629
  539MPD2    H1 8003   2.133   4.138  11.860 -1.8355  0.0022 -0.8890
  539MPD2    H2 8004   2.330   3.768  11.901 -0.8359  0.6864  1.3163
  539MPD2    H3 8005   2.278   4.000  11.978  0.7122 -1.5139 -0.0315
  539MPD2     N 8006   1.975   4.077  11.664  0.2904 -0.1890 -0.5420
  539MPD2    H5 8007   1.976   4.171  11.703 -0.9933 -0.3337 -0.1615
  539MPD2    N1 8008   2.191   3.646  11.685  0.2489  0.5188 -0.2436
  539MPD2    H7 8009   2.136   3.624  11.603 -0.1181 -1.9930  0.6944
  540TMC3    C1 8010   1.825   4.167  11.499 -0.2369  0.0878  0.2253
  540TMC3    C2 8011   1.814   4.197  11.365 -0.1350 -0.6569 -0.4804
  540TMC3    C3 8012   1.762   4.317  11.338 -0.3579 -0.2263 -0.0202
  540TMC3    C4 8013   1.766   4.247  11.596 -0.4929  1.0119 -0.1317
  540TMC3    C5 8014   1.699   4.359  11.562  0.3994  0.3261 -0.0085
  540TMC3    C6 8015   1.704   4.402  11.432  0.0948  0.1306 -0.3561
  540TMC3     C 8016   1.918   4.060  11.538 -0.3338 -0.3401  0.1552
  540TMC3     O 8017   1.931   3.968  11.457  0.3017  0.3577  0.0859
  540TMC3     H 8018   1.862   4.127  11.298  2.2769 -1.4023  1.9951
  540TMC3    H1 8019   1.777   4.216  11.699  1.0993  3.7577  0.5058
  540TMC3    H2 8020   1.651   4.493  11.407 -0.3644 -0.2353 -0.7332
  540TMC3    C7 8021   1.649   4.448  11.671  0.0607  0.8997 -0.0820
  540TMC3    C8 8022   1.725   4.346  11.200 -0.4276  0.1103 -0.5487
  540TMC3    O1 8023   1.652   4.390  11.778 -0.4727  0.5528  0.4184
  540TMC3    O2 8024   1.663   4.449  11.176  0.1808  0.7413 -0.2608
  541MPD2     C 8025   0.795   0.066  13.543  0.0624 -0.0181  0.4691
  541MPD2    C1 8026   0.693   0.154  13.528 -0.2130  0.1256 -0.8385
  541MPD2    C2 8027   0.715   0.288  13.520 -0.3529  0.0153  0.0760
  541MPD2    C3 8028   0.842   0.342  13.535  0.1938  0.2306 -0.2978
  541MPD2    C4 8029   0.939   0.252  13.565 -0.1884  0.7570  0.4733
  541MPD2    C5 8030   0.916   0.116  13.569 -0.1192 -0.5002 -0.4807
  541MPD2     H 8031   0.639   0.351  13.476  0.7608  0.2079 -1.5586
  541MPD2    H1 8032   1.039   0.278  13.599 -1.8022  4.0562  2.8018
  541MPD2    H2 8033   0.776   4.681  13.540  1.0719 -0.1705 -1.0336
  541MPD2    H3 8034   0.994   0.044  13.593  0.1271 -0.0111  0.1733
  541MPD2     N 8035   0.854   0.484  13.518 -0.5785  0.2527 -0.3877
  541MPD2    H5 8036   0.775   0.547  13.506 -1.3658 -0.1867  2.4091
  541MPD2    N1 8037   0.558   0.109  13.512 -0.3692 -1.4939 -0.5174
  541MPD2    H7 8038   0.481   0.174  13.498  0.6719 -0.1295  0.1509
  542TMC3    C1 8039   0.939   0.686  13.484 -0.5093 -0.9909 -0.1465
  542TMC3    C2 8040   0.850   0.712  13.384  0.1820 -0.2503 -0.7652
  542TMC3    C3 8041   0.844   0.840  13.333  0.3129 -0.2966  0.4968
  542TMC3    C4 8042   1.013   0.789  13.533  0.0460 -0.1904 -0.4660
  542TMC3    C5 8043   1.000   0.912  13.479 -0.4607 -0.2311 -0.1155
  542TMC3    C6 8044   0.914   0.945  13.380 -0.6041  0.3062  0.2322
  542TMC3     C 8045   0.972   0.555  13.520  0.5640 -0.2894 -0.5826
  542TMC3     O 8046   1.078   0.520  13.565 -0.3538  0.7842  0.1560
  542TMC3     H 8047   0.781   0.637  13.349 -0.0254 -0.4227  0.0222
  542TMC3    H1 8048   1.105   0.768  13.585 -0.3345 -0.5280  0.0778
  542TMC3    H2 8049   0.933   1.032  13.318 -0.3780 -1.6434 -2.4196
  542TMC3    C7 8050   1.114   1.007  13.495 -0.1444 -0.6975 -0.1897
  542TMC3    C8 8051   0.730   0.866  13.243  0.1984 -0.0475  0.4565
  542TMC3    O1 8052   1.208   0.958  13.549  0.8931 -0.7676  0.3888
  542TMC3    O2 8053   0.695   0.771  13.176 -0.5009  0.2026 -0.0966
  543TMC3    C1 8054   0.155   1.871  17.130 -0.0066 -0.5189  0.0283
  543TMC3    C2 8055   0.174   1.736  17.141  0.4487 -0.5519  0.3435
  543TMC3    C3 8056   0.236   1.687  17.252  0.3877  0.7753  0.1152
  543TMC3    C4 8057   0.200   1.956  17.226 -0.6018  0.1304  0.0462
  543TMC3    C5 8058   0.250   1.906  17.343 -0.5294 -0.2776  1.3630
  543TMC3    C6 8059   0.263   1.773  17.358 -0.4436 -0.2197  0.2082
  543TMC3     C 8060   0.088   1.922  17.012  0.8941 -0.1929  0.5393
  543TMC3     O 8061   0.051   2.039  17.019  0.0592  0.1109  0.0149
  543TMC3     H 8062   0.124   1.664  17.077 -0.2617 -0.7947  1.1610
  543TMC3    H1 8063   0.176   2.060  17.205 -0.1832 -0.1212 -1.6943
  543TMC3    H2 8064   0.311   1.743  17.451  2.1147  0.1235 -0.9962
  543TMC3    C7 8065   0.290   1.987  17.455 -0.5297 -0.2202 -0.9688
  543TMC3    C8 8066   0.268   1.538  17.263 -0.6581  0.3558 -0.2818
  543TMC3    O1 8067   0.294   1.940  17.569  0.9513  0.2497 -0.7956
  543TMC3    O2 8068   0.255   1.477  17.156 -0.2755  0.1559 -0.0291
  544MPD2     C 8069   0.357   1.101  17.512  0.4310  0.7121  0.0618
  544MPD2    C1 8070   0.334   1.123  17.380  0.3676 -0.2560 -1.0640
  544MPD2    C2 8071   0.315   1.249  17.332  0.5518 -0.7033  0.2512
  544MPD2    C3 8072   0.299   1.351  17.421  0.5666  0.0445 -0.2695
  544MPD2    C4 8073   0.292   1.322  17.556 -0.1435  0.0558 -0.0696
  544MPD2    C5 8074   0.330   1.197  17.602  1.0425 -0.1478 -0.1892
  544MPD2     H 8075   0.311   1.275  17.227 -0.0892  0.5432  0.5833
  544MPD2    H1 8076   0.275   1.405  17.624 -1.9312 -0.2487 -0.1308
  544MPD2    H2 8077   0.396   1.004  17.541 -0.1800  0.5457  0.3162
  544MPD2    H3 8078   0.342   1.166   0.019 -0.0409 -0.6143 -0.1969
  544MPD2     N 8079   0.287   1.487  17.386 -0.1233  0.0764 -0.1700
  544MPD2    H5 8080   0.263   1.549  17.463 -0.8720 -1.6098  0.9577
  544MPD2    N1 8081   0.337   1.005  17.303 -0.3170  0.4400  0.6487
  544MPD2    H7 8082   0.347   0.914  17.346  0.8077 -0.4143 -1.4212
  545TMC3    C1 8083   0.295   0.869  17.112  0.1899 -0.3148  0.1268
  545TMC3    C2 8084   0.319   0.844  16.978  0.7745 -0.4460 -0.0599
  545TMC3    C3 8085   0.278   0.725  16.929 -0.5530  0.0721 -0.4010
  545TMC3    C4 8086   0.234   0.779  17.195 -0.1044 -0.3174  0.4757
  545TMC3    C5 8087   0.195   0.653  17.129  0.5898 -0.1574 -0.7307
  545TMC3    C6 8088   0.213   0.630  17.001 -0.0089 -0.7390 -1.1608
  545TMC3     C 8089   0.326   1.001  17.165 -0.3865  0.2412  0.3429
  545TMC3     O 8090   0.338   1.091  17.081  0.3075  0.0571  0.4174
  545TMC3     H 8091   0.364   0.925  16.921  0.6019  1.0226  1.8601
  545TMC3    H1 8092   0.203   0.796  17.298  0.6660  0.5536  0.5635
  545TMC3    H2 8093   0.190   0.532  16.961 -0.2435 -1.6460  1.2205
  545TMC3    C7 8094   0.119   0.553  17.203  0.1587  0.2690 -0.4522
  545TMC3    C8 8095   0.349   0.684  16.816  0.3934  0.7973  0.0786
  545TMC3    O1 8096   0.053   0.471  17.146 -0.0615  0.5139  0.5849
  545TMC3    O2 8097   0.443   0.751  16.784 -0.5720  0.6747  0.5981
  546MPD2     C 8098   1.246   1.732  17.290  0.0083 -0.4570 -0.3818
  546MPD2    C1 8099   1.297   1.743  17.164 -0.1558 -0.2002  0.4039
  546MPD2    C2 8100   1.381   1.845  17.138 -0.4645  0.5626 -0.1018
  546MPD2    C3 8101   1.404   1.948  17.236 -0.4324 -0.0217 -0.1771
  546MPD2    C4 8102   1.343   1.938  17.364 -0.6826  0.4686 -0.7048
  546MPD2    C5 8103   1.269   1.830  17.390  0.1372  0.1844 -0.9702
  546MPD2     H 8104   1.412   1.862  17.035 -0.6776 -0.9095 -0.3999
  546MPD2    H1 8105   1.339   2.014  17.441 -1.1824  0.1492 -0.4207
  546MPD2    H2 8106   1.176   1.657  17.326 -1.4465 -0.0319 -2.3792
  546MPD2    H3 8107   1.232   1.828  17.491  1.4398  0.1014 -0.5021
  546MPD2     N 8108   1.475   2.063  17.210  0.1929  0.1793 -0.0051
  546MPD2    H5 8109   1.468   2.135  17.281 -0.0284  1.3099 -1.1755
  546MPD2    N1 8110   1.261   1.643  17.075 -0.8333  0.1113 -0.1475
  546MPD2    H7 8111   1.181   1.586  17.100  0.3145 -1.3598  0.1257
  547TMC3    C1 8112   1.251   1.519  16.865 -0.6274 -0.2952 -0.6120
  547TMC3    C2 8113   1.291   1.496  16.739  0.3668  0.3215 -0.8576
  547TMC3    C3 8114   1.233   1.395  16.669 -0.4761 -0.6215 -0.3091
  547TMC3    C4 8115   1.175   1.437  16.937  0.0998  0.2336 -0.4649
  547TMC3    C5 8116   1.118   1.336  16.868 -0.6004 -0.1779 -0.3883
  547TMC3    C6 8117   1.149   1.310  16.733 -0.5300  0.3197 -0.2615
  547TMC3     C 8118   1.309   1.629  16.944  0.0391 -0.4099  0.6512
  547TMC3     O 8119   1.416   1.662  16.894  0.5633 -0.3173 -0.4923
  547TMC3     H 8120   1.346   1.575  16.688 -1.6180  2.1306 -0.2073
  547TMC3    H1 8121   1.164   1.444  17.045  1.0058  0.5148 -0.3921
  547TMC3    H2 8122   1.108   1.222  16.685  0.7261 -0.5232  0.2206
  547TMC3    C7 8123   1.058   1.236  16.941  0.0800 -0.4286  0.1615
  547TMC3    C8 8124   1.211   1.430  16.528  0.9642 -0.0961  0.4052
  547TMC3    O1 8125   1.072   1.252  17.062  0.1087 -0.5599 -0.4400
  547TMC3    O2 8126   1.311   1.467  16.471  0.0203  0.2715  0.1108
  548MPD2     C 8127   1.262   2.711  12.349  0.1768  0.2492 -0.1951
  548MPD2    C1 8128   1.214   2.591  12.391 -0.1131 -0.2971 -0.5625
  548MPD2    C2 8129   1.296   2.477  12.396 -0.7587 -0.4155  0.3654
  548MPD2    C3 8130   1.422   2.487  12.335 -0.6147 -0.1731  0.5476
  548MPD2    C4 8131   1.472   2.606  12.292 -0.1035  0.3195 -0.1111
  548MPD2    C5 8132   1.388   2.721  12.301  0.0415 -0.0274  0.0353
  548MPD2     H 8133   1.258   2.384  12.436 -1.5948 -0.3884 -0.3696
  548MPD2    H1 8134   1.575   2.618  12.261  0.2546  0.3572  1.1282
  548MPD2    H2 8135   1.210   2.806  12.359 -0.6470 -0.1655 -0.5388
  548MPD2    H3 8136   1.428   2.818  12.275  3.6365 -1.2107  1.0093
  548MPD2     N 8137   1.494   2.363  12.323  0.5364 -0.1940  1.1255
  548MPD2    H5 8138   1.469   2.283  12.380  0.1810  0.3233  1.7003
  548MPD2    N1 8139   1.082   2.593  12.435  0.4875 -0.2271  0.3115
  548MPD2    H7 8140   1.032   2.681  12.442 -0.3388 -0.6974  0.2680
  549TMC3    C1 8141   0.871   2.497  12.506  0.1988 -0.7218 -0.5083
  549TMC3    C2 8142   0.834   2.629  12.542  0.9032 -0.5289 -0.1835
  549TMC3    C3 8143   0.698   2.642  12.555 -0.6272 -0.3369 -0.2090
  549TMC3    C4 8144   0.780   2.390  12.492 -0.4929  0.8380  0.5949
  549TMC3    C5 8145   0.647   2.416  12.512  0.1993 -0.7800  0.4443
  549TMC3    C6 8146   0.610   2.543  12.545 -0.0411 -0.1152 -0.1001
  549TMC3     C 8147   1.011   2.479  12.470  0.7385 -0.2327  0.7117
  549TMC3     O 8148   1.044   2.360  12.461  0.0665  0.2315  0.6323
  549TMC3     H 8149   0.898   2.716  12.545 -0.0961  0.1661  0.9614
  549TMC3    H1 8150   0.818   2.293  12.462  2.7605  2.3582 -0.1799
  549TMC3    H2 8151   0.508   2.554  12.581  0.2191 -1.0536  0.9206
  549TMC3    C7 8152   0.539   2.318  12.502  0.1955 -0.1864  0.0252
  549TMC3    C8 8153   0.635   2.767  12.596  1.1496 -0.2935 -0.4235
  549TMC3    O1 8154   0.429   2.363  12.480  0.1269  0.3894  0.4843
  549TMC3    O2 8155   0.524   2.776  12.542 -0.2370  0.6261  0.0571
  550TMC3    C1 8156   4.242   0.121  11.616  1.0900  0.1547 -0.9901
  550TMC3    C2 8157   4.269   0.187  11.733  0.1936  0.2227  0.3400
  550TMC3    C3 8158   4.201   0.141  11.846 -0.1340  0.0752 -0.0648
  550TMC3    C4 8159   4.173   4.720  11.613  0.0197 -0.2174 -0.5517
  550TMC3    C5 8160   4.116   4.671  11.730 -0.9357 -0.2627  0.1043
  550TMC3    C6 8161   4.130   0.019  11.848 -0.2413 -0.1073  0.4387
  550TMC3     C 8162   4.299   0.176  11.499 -0.3279 -0.3724  0.3797
  550TMC3     O 8163   4.394   0.255  11.503  0.5422 -0.8100  0.1020
  550TMC3     H 8164   4.324   0.281  11.734  0.1738  0.2439 -0.5600
  550TMC3    H1 8165   4.178   4.663  11.522 -0.6419 -1.8080  0.4075
  550TMC3    H2 8166   4.077   4.710  11.938  0.8258 -0.8428  0.8275
  550TMC3    C7 8167   4.004   4.585  11.718  0.3149 -0.1676  0.2897
  550TMC3    C8 8168   4.170   0.246  11.944  0.8119  0.0907  0.1362
  550TMC3    O1 8169   3.916   4.596  11.803 -0.2340  0.2697 -0.3591
  550TMC3    O2 8170   4.190   0.364  11.916  0.4563 -0.0261 -0.3167
  551TMC3    C1 8171   1.960   2.912  13.563 -0.2212  1.0647 -0.3067
  551TMC3    C2 8172   2.059   2.956  13.483 -0.6213 -0.1916 -0.6948
  551TMC3    C3 8173   2.128   3.067  13.524  0.3016 -0.6445  0.5030
  551TMC3    C4 8174   1.938   2.972  13.688 -0.6358  0.3116 -0.5512
  551TMC3    C5 8175   2.014   3.080  13.729  0.8599  0.4179 -0.3012
  551TMC3    C6 8176   2.106   3.132  13.646  0.0806  0.4967 -0.0753
  551TMC3     C 8177   1.859   2.831  13.500  0.4106 -0.3932 -0.3611
  551TMC3     O 8178   1.870   2.811  13.381  0.0652  0.4878 -0.0237
  551TMC3     H 8179   2.077   2.926  13.380 -0.4431 -0.2003 -0.6615
  551TMC3    H1 8180   1.856   2.944  13.753  0.9622  0.0553  1.3073
  551TMC3    H2 8181   2.183   3.204  13.670 -0.3863  1.0468 -0.2140
  551TMC3    C7 8182   2.059   3.089  13.866  0.5909  0.5436  0.2936
  551TMC3    C8 8183   2.246   3.093  13.439  0.0808  0.4199  0.2251
  551TMC3    O1 8184   2.070   2.984  13.929  0.5499  0.1945  0.0063
  551TMC3    O2 8185   2.305   2.994  13.390  0.4631 -0.4151  0.2224
  552MPD2     C 8186   3.565   0.109  14.491 -0.3128 -0.1479  0.0127
  552MPD2    C1 8187   3.681   0.070  14.424  0.6090  0.7670  0.9156
  552MPD2    C2 8188   3.807   0.091  14.480  0.4109  0.7855  0.4243
  552MPD2    C3 8189   3.811   0.136  14.613  0.4570 -0.5663  0.3922
  552MPD2    C4 8190   3.695   0.176  14.673 -0.3307  0.4731 -0.5372
  552MPD2    C5 8191   3.571   0.160  14.621  0.5137 -0.7413  0.4590
  552MPD2     H 8192   3.891   0.049  14.426 -1.1169 -2.3919  0.5314
  552MPD2    H1 8193   3.695   0.205  14.778 -0.1746  0.6205 -0.5788
  552MPD2    H2 8194   3.465   0.106  14.449 -1.0604 -3.0607  2.0024
  552MPD2    H3 8195   3.483   0.181  14.681  0.4749 -1.7355  0.7540
  552MPD2     N 8196   3.923   0.140  14.695  0.4255 -0.3948  0.1558
  552MPD2    H5 8197   3.909   0.177  14.789 -2.1708  0.1951 -0.4675
  552MPD2    N1 8198   3.674   0.012  14.300 -0.1276 -0.4699 -0.7420
  552MPD2    H7 8199   3.764   4.716  14.257  0.0001 -1.2521 -0.1762
  553TMC3    C1 8200   3.573   4.603  14.128  0.2708  0.4953  0.0211
  553TMC3    C2 8201   3.629   4.664  14.021  0.3630  0.1399  0.4060
  553TMC3    C3 8202   3.627   4.594  13.898  0.3423 -0.1229  0.7947
  553TMC3    C4 8203   3.501   4.488  14.118 -0.0045  0.2012  0.2220
  553TMC3    C5 8204   3.499   4.423  13.995  0.4222  0.5038 -0.0029
  553TMC3    C6 8205   3.563   4.475  13.887 -0.6252  0.2051  0.2045
  553TMC3     C 8206   3.558   4.673  14.250 -0.8807  0.8309  0.0681
  553TMC3     O 8207   3.453   4.653  14.307  0.2708 -0.0451  0.6013
  553TMC3     H 8208   3.687   0.032  14.043 -1.2308  1.1506  0.5243
  553TMC3    H1 8209   3.453   4.452  14.209  1.9753  0.9211  1.5464
  553TMC3    H2 8210   3.576   4.409  13.803 -2.1586  0.6489 -0.3831
  553TMC3    C7 8211   3.556   4.295  14.027 -0.3505 -0.1984 -0.2609
  553TMC3    C8 8212   3.725   4.639  13.800  0.0782 -0.1419 -0.2747
  553TMC3    O1 8213   3.480   4.213  14.075 -0.2374  0.0429  0.1194
  553TMC3    O2 8214   3.821   4.700  13.848  0.0306  0.6106 -0.5647
  554TMC3    C1 8215   1.243   3.810  11.552  0.4148  0.0610 -0.0510
  554TMC3    C2 8216   1.181   3.780  11.433 -0.0448  0.7322  0.1069
  554TMC3    C3 8217   1.240   3.828  11.315 -0.2001 -0.1259 -0.0295
  554TMC3    C4 8218   1.346   3.902  11.555 -0.4223 -0.5061  0.2418
  554TMC3    C5 8219   1.391   3.954  11.443 -0.1364  0.8157  0.9659
  554TMC3    C6 8220   1.350   3.904  11.325 -0.2066 -0.4669 -0.8189
  554TMC3     C 8221   1.184   3.752  11.675 -0.1786  0.2186  0.6306
  554TMC3     O 8222   1.072   3.704  11.672 -0.0119  0.1528 -0.0646
  554TMC3     H 8223   1.109   3.698  11.426 -1.1266  1.8951 -2.2240
  554TMC3    H1 8224   1.394   3.928  11.648 -0.0954  1.7384 -0.5458
  554TMC3    H2 8225   1.390   3.950  11.235  1.6588  1.4568  1.0145
  554TMC3    C7 8226   1.444   4.089  11.440  0.6007 -0.2631  0.3145
  554TMC3    C8 8227   1.183   3.794  11.179 -0.6397  0.2201 -0.1929
  554TMC3    O1 8228   1.517   4.117  11.348 -0.0576  0.6730  0.6023
  554TMC3    O2 8229   1.061   3.811  11.164 -0.2555  0.0955  0.5669
  555TMC3    C1 8230   4.581   3.781  15.590 -0.6870  0.1216 -0.1505
  555TMC3    C2 8231   4.555   3.811  15.723 -0.1895  0.3772  0.2952
  555TMC3    C3 8232   4.588   3.723  15.817 -0.4808 -0.1175 -0.1772
  555TMC3    C4 8233   4.643   3.660  15.562 -0.2705  0.7423  0.0426
  555TMC3    C5 8234   4.679   3.569  15.661 -1.0662 -0.0612 -0.6905
  555TMC3    C6 8235   4.652   3.599  15.789 -0.2176  0.1434 -1.1193
  555TMC3     C 8236   4.612   3.903  15.512  0.1868  0.1317  0.3339
  555TMC3     O 8237   4.644   4.003  15.575  0.5600  0.3932  0.2223
  555TMC3     H 8238   4.508   3.906  15.746  1.7760  1.0549  1.4812
  555TMC3    H1 8239   4.665   3.637  15.458 -2.8768  0.4048 -0.4362
  555TMC3    H2 8240   4.654   3.524  15.868 -1.5261  0.2715 -0.9553
  555TMC3    C7 8241   0.022   3.439  15.628 -0.6107  0.0631  0.7171
  555TMC3    C8 8242   4.584   3.767  15.949  0.0218  0.4923  0.3909
  555TMC3    O1 8243   0.013   3.342  15.709  0.5955 -0.3453 -0.3086
  555TMC3    O2 8244   4.487   3.831  15.990 -0.1857 -0.3156  0.2190
  556MPD2     C 8245   2.315   0.784  10.022 -0.3403  0.1267 -0.2023
  556MPD2    C1 8246   2.319   0.690  10.120  0.3519  0.2549 -1.1244
  556MPD2    C2 8247   2.364   0.562  10.082  0.7174  0.4448  0.4973
  556MPD2    C3 8248   2.405   0.533   9.960  0.0140 -0.6638  0.1165
  556MPD2    C4 8249   2.392   0.626   9.858  0.2132  0.5817 -0.4095
  556MPD2    C5 8250   2.350   0.755   9.892 -0.5694 -0.5231 -0.1857
  556MPD2     H 8251   2.375   0.483  10.156 -0.6399 -0.2491 -0.0418
  556MPD2    H1 8252   2.415   0.607   9.754  0.3039 -1.9623  0.0853
  556MPD2    H2 8253   2.275   0.885  10.029 -1.1316 -0.2475  0.6660
  556MPD2    H3 8254   2.339   0.821   9.807 -1.2366 -0.4867 -0.0665
  556MPD2     N 8255   2.451   0.405   9.938 -0.3724  0.6168  0.0526
  556MPD2    H5 8256   2.486   0.356  10.019 -0.8638  0.2461  0.0435
  556MPD2    N1 8257   2.294   0.708  10.259 -0.1971  0.0401 -0.0903
  556MPD2    H7 8258   2.320   0.635  10.324 -2.9196 -1.9419 -1.2367
  557TMC3    C1 8259   2.525   0.201   9.845 -0.1318  0.6150  0.0436
  557TMC3    C2 8260   2.564   0.141   9.727 -0.0695 -0.0938 -0.1137
  557TMC3    C3 8261   2.611   0.015   9.739  0.7224  0.2659 -0.6138
  557TMC3    C4 8262   2.534   0.146   9.972 -0.7349  0.6528  0.3897
  557TMC3    C5 8263   2.590   0.018   9.972 -0.4251 -0.6075  0.3067
  557TMC3    C6 8264   2.629   4.671   9.857  0.3209  0.8037  0.0418
  557TMC3     C 8265   2.463   0.333   9.821  0.7416  0.4306  0.0445
  557TMC3     O 8266   2.433   0.378   9.712  0.1339 -0.5707 -0.4417
  557TMC3     H 8267   2.537   0.174   9.628  0.0378  1.9595  0.5321
  557TMC3    H1 8268   2.517   0.191  10.069  0.5433 -0.1483  0.9947
  557TMC3    H2 8269   2.665   4.569   9.860 -0.2480  0.6029  0.1349
  557TMC3    C7 8270   2.610   4.686  10.107 -0.1179  0.3251 -0.0259
  557TMC3    C8 8271   2.615   4.664   9.615  0.1354  0.2240  0.0939
  557TMC3    O1 8272   2.563   0.017  10.210  0.3612  0.1315  0.2315
  557TMC3    O2 8273   2.558   4.719   9.519  0.3985  0.1092  0.1623
  558TMC3    C1 8274   0.748   2.991  10.272 -0.0748 -0.1697  0.4439
  558TMC3    C2 8275   0.680   2.934  10.380 -0.7700 -0.1855  0.2190
  558TMC3    C3 8276   0.566   2.855  10.363  0.5022 -0.1061  0.7969
  558TMC3    C4 8277   0.698   2.967  10.142 -0.2978 -0.0117 -0.3331
  558TMC3    C5 8278   0.594   2.876  10.129 -1.0853  0.0898  0.1032
  558TMC3    C6 8279   0.536   2.818  10.234 -0.2434  0.3088  0.3063
  558TMC3     C 8280   0.894   3.000  10.275  0.5556 -0.1508 -0.7436
  558TMC3     O 8281   0.946   3.031  10.170  0.3306 -0.1876 -0.3982
  558TMC3     H 8282   0.703   2.964  10.481 -1.5395  3.6912 -0.7652
  558TMC3    H1 8283   0.748   3.009  10.055 -1.6621  1.6780 -0.2996
  558TMC3    H2 8284   0.456   2.746  10.222 -1.0244  1.4370 -1.3011
  558TMC3    C7 8285   0.567   2.843   9.993  0.0014 -0.8079  0.2322
  558TMC3    C8 8286   0.529   2.771  10.474 -0.5221  0.9116 -0.0212
  558TMC3    O1 8287   0.573   2.935   9.916 -0.3398  0.6165  0.0231
  558TMC3    O2 8288   0.626   2.750  10.549 -0.7449 -0.1594 -0.0378
  559MPD2     C 8289   0.859   3.448  10.672 -0.3950 -0.1896 -0.0166
  559MPD2    C1 8290   0.824   3.349  10.759 -0.0156  0.0538 -0.1759
  559MPD2    C2 8291   0.923   3.270  10.811 -0.3454  0.5530  0.4566
  559MPD2    C3 8292   1.054   3.284  10.771 -0.0699  0.1921 -0.6183
  559MPD2    C4 8293   1.089   3.384  10.682 -0.7206  0.4911 -0.0808
  559MPD2    C5 8294   0.992   3.469  10.637  0.6086  1.0345  0.2928
  559MPD2     H 8295   0.900   3.193  10.884  1.8710 -1.6227 -1.1149
  559MPD2    H1 8296   1.191   3.406  10.655 -1.8936  1.9133 -3.2902
  559MPD2    H2 8297   0.780   3.514  10.638 -0.0072 -0.1623 -0.8488
  559MPD2    H3 8298   1.023   3.543  10.564 -1.1114  0.8578 -0.6118
  559MPD2     N 8299   1.146   3.196  10.829  0.5011  0.2482 -0.3021
  559MPD2    H5 8300   1.105   3.128  10.891 -1.0181 -1.2129 -2.9003
  559MPD2    N1 8301   0.692   3.340  10.805 -0.1926  0.0062 -0.2042
  559MPD2    H7 8302   0.639   3.427  10.796 -0.1008  0.2100  1.3607
  560TMC3    C1 8303   1.332   3.097  10.902 -0.1115 -0.5891 -0.5399
  560TMC3    C2 8304   1.263   2.979  10.913 -0.4186 -0.3384 -0.4216
  560TMC3    C3 8305   1.299   2.894  11.012 -0.6029 -0.2581  0.5825
  560TMC3    C4 8306   1.436   3.127  10.984 -0.4375  0.1874  0.2212
  560TMC3    C5 8307   1.462   3.044  11.089  0.1880  0.1384  0.2740
  560TMC3    C6 8308   1.394   2.923  11.105  0.1399 -0.4531  0.4480
  560TMC3     C 8309   1.283   3.199  10.812 -0.0455  0.5770  1.1375
  560TMC3     O 8310   1.357   3.289  10.772  0.1851 -0.2367  0.4060
  560TMC3     H 8311   1.175   2.947  10.859  0.0256 -0.0606 -1.2938
  560TMC3    H1 8312   1.490   3.219  10.962  0.9731  0.1716  3.5574
  560TMC3    H2 8313   1.439   2.859  11.180  1.2111 -0.4936 -0.2226
  560TMC3    C7 8314   1.568   3.071  11.189 -0.6655  0.3141  0.1546
  560TMC3    C8 8315   1.215   2.776  11.019 -0.5366  0.8375 -0.2891
  560TMC3    O1 8316   1.617   2.979  11.250  0.2713  0.7109  0.4933
  560TMC3    O2 8317   1.129   2.758  10.934  0.0861 -0.4692 -0.2079
  561TMC3    C1 8318   3.465   2.133  11.606  0.4078  0.3658  0.1371
  561TMC3    C2 8319   3.434   2.085  11.728  0.4137  0.3142  0.2537
  561TMC3    C3 8320   3.413   2.176  11.827  0.2635 -0.3169  0.3405
  561TMC3    C4 8321   3.466   2.269  11.579 -0.1724  0.0216 -0.3709
  561TMC3    C5 8322   3.444   2.355  11.682 -0.5126 -0.3301  0.2181
  561TMC3    C6 8323   3.416   2.314  11.810  0.7538  0.6758  0.0126
  561TMC3     C 8324   3.419   2.058  11.495  0.5639  0.0841 -0.2782
  561TMC3     O 8325   3.304   2.010  11.499 -0.0831  0.1660 -0.0179
  561TMC3     H 8326   3.432   1.980  11.755 -1.0088 -0.3605 -2.5093
  561TMC3    H1 8327   3.483   2.301  11.477  0.2070  0.9647 -0.0142
  561TMC3    H2 8328   3.405   2.385  11.890  0.4190  1.6370 -0.8866
  561TMC3    C7 8329   3.418   2.498  11.661 -0.4506 -0.8185 -0.1701
  561TMC3    C8 8330   3.365   2.127  11.960  0.1635 -0.0623  0.1816
  561TMC3    O1 8331   3.345   2.554  11.742 -0.0690 -0.1178  0.0718
  561TMC3    O2 8332   3.370   2.008  11.968 -0.3108 -0.1802 -0.0502
  562TMC3    C1 8333   4.483   4.058  16.786  0.6457 -0.4269 -0.3808
  562TMC3    C2 8334   4.451   4.186  16.746  0.3653 -0.2135  0.0608
  562TMC3    C3 8335   4.338   4.198  16.672  0.0492  0.3324  0.0049
  562TMC3    C4 8336   4.407   3.953  16.753 -0.2917  0.0631  0.0346
  562TMC3    C5 8337   4.285   3.978  16.693  0.4286  0.4390  0.4250
  562TMC3    C6 8338   4.250   4.096  16.649 -0.0314  0.6259  0.3532
  562TMC3     C 8339   4.623   4.035  16.782 -0.1440 -0.0703  0.1575
  562TMC3     O 8340   4.660   3.943  16.705  0.1361  0.0635  0.3324
  562TMC3     H 8341   4.523   4.266  16.749 -0.8631  0.8956 -0.0154
  562TMC3    H1 8342   4.437   3.855  16.789  2.2701  0.8923  0.0871
  562TMC3    H2 8343   4.147   4.102  16.615 -0.2810 -0.6357  0.9014
  562TMC3    C7 8344   4.190   3.866  16.674  0.2757 -0.4630  0.4138
  562TMC3    C8 8345   4.333   4.319  16.593 -0.5136 -0.3220 -0.3599
  562TMC3    O1 8346   4.088   3.902  16.617 -0.0043  0.2903 -0.1267
  562TMC3    O2 8347   4.398   4.415  16.632 -0.6563 -0.0051 -0.5168
  563MPD2     C 8348   1.890   0.177  15.748 -0.5136 -0.1599 -0.1191
  563MPD2    C1 8349   1.943   0.173  15.871 -0.2763 -1.1164  0.4871
  563MPD2    C2 8350   2.074   0.191  15.888  0.7856 -0.0367 -0.5249
  563MPD2    C3 8351   2.162   0.234  15.785 -0.2497  0.0872  0.1745
  563MPD2    C4 8352   2.113   0.243  15.660 -0.7450  0.0270 -0.3016
  563MPD2    C5 8353   1.975   0.217  15.648  0.7778 -0.1020 -0.3018
  563MPD2     H 8354   2.122   0.175  15.984 -2.0360 -1.6344  0.6020
  563MPD2    H1 8355   2.159   0.303  15.582  1.4954  1.4568  2.0917
  563MPD2    H2 8356   1.785   0.156  15.729 -0.3688 -0.2214 -0.8734
  563MPD2    H3 8357   1.924   0.216  15.552  0.9179 -1.1870 -0.3656
  563MPD2     N 8358   2.287   0.279  15.823  0.0699  0.2971 -0.4133
  563MPD2    H5 8359   2.304   0.250  15.919 -0.9492  1.0629 -0.0108
  563MPD2    N1 8360   1.849   0.151  15.973 -0.2263 -0.0476  0.2215
  563MPD2    H7 8361   1.755   0.125  15.944 -0.4370  0.1740  0.7175
  564TMC3    C1 8362   1.792   0.097  16.195 -0.1383 -0.1495  0.1880
  564TMC3    C2 8363   1.660   0.061  16.165  0.3364 -0.3094 -0.2929
  564TMC3    C3 8364   1.601   4.715  16.267 -0.1440  0.0303  0.8903
  564TMC3    C4 8365   1.860   0.068  16.305  0.5128 -0.5441  0.0284
  564TMC3    C5 8366   1.799   4.716  16.404  0.1848  0.3426 -0.3072
  564TMC3    C6 8367   1.668   4.689  16.388  0.5153  0.2943 -0.2194
  564TMC3     C 8368   1.875   0.174  16.109 -0.0846 -0.3577 -0.4068
  564TMC3     O 8369   1.959   0.247  16.154  0.2709 -0.3611  0.1443
  564TMC3     H 8370   1.619   0.078  16.066  0.3624 -0.5220 -0.3406
  564TMC3    H1 8371   1.967   0.083  16.297  0.4630  0.3871  1.0833
  564TMC3    H2 8372   1.622   4.625  16.463  1.4627  1.5418  1.4333
  564TMC3    C7 8373   1.873   4.596  16.433  0.5572 -0.4805  0.5620
  564TMC3    C8 8374   1.515   4.603  16.234  0.2935 -0.0671  0.2115
  564TMC3    O1 8375   1.977   4.621  16.490  0.1440  0.1463 -0.0228
  564TMC3    O2 8376   1.482   4.537  16.328  0.7470  0.0948 -0.2050
  565TMC3    C1 8377   2.459   1.479  10.133  0.5655  0.0091 -0.1312
  565TMC3    C2 8378   2.405   1.440  10.260  0.2103 -1.1128 -0.5712
  565TMC3    C3 8379   2.295   1.354  10.259 -0.0123 -0.6367 -0.5596
  565TMC3    C4 8380   2.390   1.444  10.022 -0.5255  0.2140 -0.6470
  565TMC3    C5 8381   2.288   1.355  10.024  0.0002  0.4211 -0.1897
  565TMC3    C6 8382   2.239   1.315  10.144 -0.2092  0.3979 -1.1583
  565TMC3     C 8383   2.584   1.543  10.119  0.2265  0.3629  0.3687
  565TMC3     O 8384   2.607   1.584  10.004  0.7129 -0.2779  0.0990
  565TMC3     H 8385   2.451   1.470  10.353 -1.0734 -2.2418  0.4275
  565TMC3    H1 8386   2.443   1.469   9.931  2.2830 -0.3374  0.8212
  565TMC3    H2 8387   2.191   1.218  10.141 -1.1854  0.8573 -0.4130
  565TMC3    C7 8388   2.197   1.344   9.909 -0.0447  0.1522 -0.0201
  565TMC3    C8 8389   2.272   1.294  10.388 -0.2362 -0.0314  0.1247
  565TMC3    O1 8390   2.111   1.254   9.927 -0.0419 -0.3816 -0.2360
  565TMC3    O2 8391   2.368   1.300  10.470 -0.2807  0.4230  0.9460
  566MPD2     C 8392   4.717   2.920  14.324  0.0453 -0.7040 -0.8496
  566MPD2    C1 8393   4.655   2.961  14.205  0.1688 -0.2630  0.2779
  566MPD2    C2 8394   4.666   2.879  14.093 -0.7629 -1.2510  0.1737
  566MPD2    C3 8395   0.025   2.767  14.095 -0.3794 -0.5312 -0.2293
  566MPD2    C4 8396   0.084   2.727  14.216  0.1950  0.6523 -0.8848
  566MPD2    C5 8397   0.057   2.797  14.329  0.7387  0.2654 -0.0682
  566MPD2     H 8398   4.625   2.916  14.000  1.4092  2.1779  0.5817
  566MPD2    H1 8399   0.151   2.643  14.225 -0.2878  0.1584 -1.9897
  566MPD2    H2 8400   4.718   2.977  14.417  1.0974 -1.8254 -0.1716
  566MPD2    H3 8401   0.100   2.757  14.421 -1.5629  3.1188  2.2517
  566MPD2     N 8402   0.039   2.681  13.982  0.0460 -0.0174  0.0486
  566MPD2    H5 8403   0.103   2.602  13.991 -0.3299 -0.5416 -1.9740
  566MPD2    N1 8404   4.579   3.079  14.201 -0.2933 -0.1163 -0.1262
  566MPD2    H7 8405   4.502   3.097  14.138 -0.0481 -2.5517 -1.1232
  567TMC3    C1 8406   4.517   3.287  14.236  0.1438 -0.3916  0.2190
  567TMC3    C2 8407   4.412   3.263  14.144 -0.1415 -0.7273 -0.1198
  567TMC3    C3 8408   4.391   3.368  14.058 -0.1657  0.0608 -0.0647
  567TMC3    C4 8409   4.597   3.398  14.231  0.7057 -0.2668 -0.6706
  567TMC3    C5 8410   4.560   3.495  14.145 -0.0451  0.2847 -0.1880
  567TMC3    C6 8411   4.464   3.479  14.051  0.1318 -0.1411  0.6901
  567TMC3     C 8412   4.581   3.182  14.296  1.0917  0.4593  0.6453
  567TMC3     O 8413   4.673   3.203  14.374  0.2123 -0.4233 -0.1818
  567TMC3     H 8414   4.345   3.180  14.163  0.0524 -0.8347  0.1053
  567TMC3    H1 8415   4.671   3.412  14.309 -0.2459 -1.3536  0.4305
  567TMC3    H2 8416   4.422   3.553  13.984  1.3167  0.7367  0.9256
  567TMC3    C7 8417   4.593   3.636  14.185 -0.2720  0.4539  0.4120
  567TMC3    C8 8418   4.292   3.345  13.957  0.2834  0.3308  0.2005
  567TMC3    O1 8419   4.561   3.725  14.112  0.3729  0.0846  0.4015
  567TMC3    O2 8420   4.205   3.271  14.006 -0.1000  0.2890  0.2072
  568MPD2     C 8421   2.418   3.666  16.492 -0.4967 -0.4673 -0.0795
  568MPD2    C1 8422   2.322   3.672  16.592 -0.4635 -0.0723 -0.0564
  568MPD2    C2 8423   2.198   3.726  16.560  0.0735 -0.1515  0.9378
  568MPD2    C3 8424   2.170   3.765  16.430  0.6424 -0.0491 -0.0127
  568MPD2    C4 8425   2.266   3.755  16.336 -0.0176 -0.0016  0.5631
  568MPD2    C5 8426   2.392   3.707  16.360 -0.3332  0.5926 -0.2696
  568MPD2     H 8427   2.114   3.716  16.628 -2.7033  0.9010 -2.3752
  568MPD2    H1 8428   2.239   3.778  16.233  1.0115 -2.4700 -0.2605
  568MPD2    H2 8429   2.516   3.621  16.506 -0.6621 -0.5779  0.7428
  568MPD2    H3 8430   2.463   3.697  16.279 -0.7029 -1.4853 -0.3296
  568MPD2     N 8431   2.032   3.801  16.406  0.4570 -0.1598  0.2460
  568MPD2    H5 8432   1.972   3.813  16.486  0.9326 -0.6596  0.6775
  568MPD2    N1 8433   2.349   3.602  16.717 -0.2449  0.1351 -0.8751
  568MPD2    H7 8434   2.438   3.554  16.729 -1.1729 -0.4583  3.7380
  569TMC3    C1 8435   1.839   3.874  16.290 -0.2139  0.1139  0.5662
  569TMC3    C2 8436   1.790   3.928  16.404  0.1861 -0.3109 -0.0417
  569TMC3    C3 8437   1.657   3.960  16.401 -0.5779 -0.8471 -0.1989
  569TMC3    C4 8438   1.767   3.861  16.172 -1.0665  0.4340 -0.7140
  569TMC3    C5 8439   1.635   3.895  16.172  0.9242 -0.2145  0.4335
  569TMC3    C6 8440   1.580   3.941  16.289  0.2788 -0.1082 -0.7998
  569TMC3     C 8441   1.977   3.822  16.286  0.1340 -0.7193 -0.2032
  569TMC3     O 8442   2.026   3.811  16.178  0.2626 -0.4842  0.1176
  569TMC3     H 8443   1.866   3.960  16.474  0.1042 -0.6561  0.2112
  569TMC3    H1 8444   1.821   3.832  16.083 -2.7572  0.2379 -1.6840
  569TMC3    H2 8445   1.472   3.951  16.300  0.4175  2.1470 -1.3605
  569TMC3    C7 8446   1.608   3.985  16.070  0.3145 -0.1557  0.1991
  569TMC3    C8 8447   1.619   4.083  16.463 -0.3165 -0.5533 -0.5027
  569TMC3    O1 8448   1.647   3.949  15.958 -0.0920  0.1808 -0.6674
  569TMC3    O2 8449   1.520   4.138  16.408  0.1277  0.4097 -0.3990
  570TMC3    C1 8450   1.409   2.497  16.124 -0.8293  0.1320 -0.2223
  570TMC3    C2 8451   1.491   2.476  16.019 -0.6087 -0.0720  0.3698
  570TMC3    C3 8452   1.516   2.578  15.933  0.4440  0.3676 -0.2058
  570TMC3    C4 8453   1.356   2.626  16.144 -0.0339 -0.0370 -0.2656
  570TMC3    C5 8454   1.377   2.722  16.056  0.4039  0.4325 -0.2088
  570TMC3    C6 8455   1.453   2.699  15.947 -0.0812  0.4271 -0.0775
  570TMC3     C 8456   1.373   2.396  16.226 -0.3795 -0.7794  0.5757
  570TMC3     O 8457   1.360   2.283  16.177  0.2501 -0.5802 -0.7732
  570TMC3     H 8458   1.535   2.376  16.021  0.8017  0.5381 -0.1285
  570TMC3    H1 8459   1.300   2.647  16.235 -0.3300  0.5692 -0.5886
  570TMC3    H2 8460   1.468   2.778  15.874 -1.4430 -0.6887 -1.5387
  570TMC3    C7 8461   1.379   2.855  16.113  0.5885  0.5035 -0.9336
  570TMC3    C8 8462   1.646   2.588  15.882 -0.4977 -0.1253 -0.8079
  570TMC3    O1 8463   1.363   2.868  16.233  0.8997  0.7281  0.3875
  570TMC3    O2 8464   1.682   2.699  15.855  0.2187  0.3686 -0.7399
  571MPD2     C 8465   0.485   3.839  17.652  0.2980  0.3678 -0.2007
  571MPD2    C1 8466   0.398   3.835   0.070  0.4099  0.2582  0.2609
  571MPD2    C2 8467   0.271   3.890   0.065 -0.5232  0.6337  0.4099
  571MPD2    C3 8468   0.242   3.960  17.636  0.6855 -0.6281  0.7451
  571MPD2    C4 8469   0.334   3.968  17.529  0.0484 -0.1893 -0.0172
  571MPD2    C5 8470   0.451   3.913  17.539  0.1751 -0.4006  0.4976
  571MPD2     H 8471   0.205   3.887   0.151  1.5768 -1.2502  1.9688
  571MPD2    H1 8472   0.316   4.031  17.443  1.9649 -0.2846 -0.4806
  571MPD2    H2 8473   0.573   3.776  17.658 -1.2986 -1.9253 -0.5037
  571MPD2    H3 8474   0.518   3.935  17.457  0.9155 -1.8514  0.7104
  571MPD2     N 8475   0.110   4.012  17.621  0.2999 -0.0890  0.0293
  571MPD2    H5 8476   0.042   3.990   0.007  0.2260  0.3166  0.0850
  571MPD2    N1 8477   0.448   3.755   0.173  0.1364  0.0363  0.6189
  571MPD2    H7 8478   0.543   3.723   0.155  0.5559  0.9406  1.1982
  572TMC3    C1 8479   4.648   4.136  17.540  0.3063 -0.2688  0.9971
  572TMC3    C2 8480   4.558   4.033  17.527 -0.3336 -0.0682  0.4991
  572TMC3    C3 8481   4.435   4.069  17.474  0.2319 -0.0983 -0.0519
  572TMC3    C4 8482   4.623   4.268  17.519  0.0873  0.0194 -0.2619
  572TMC3    C5 8483   4.498   4.294  17.469  0.0793  0.8730  0.2098
  572TMC3    C6 8484   4.402   4.202  17.441  0.7036 -0.5576 -0.6020
  572TMC3     C 8485   0.072   4.103  17.532 -0.3537  0.6348 -0.4442
  572TMC3     O 8486   0.129   4.162  17.444  0.0702  0.1884 -0.7578
  572TMC3     H 8487   4.600   3.934  17.540  1.9251  1.0556  1.6788
  572TMC3    H1 8488   4.703   4.341  17.519  0.3734 -0.2944 -0.2286
  572TMC3    H2 8489   4.306   4.228  17.398  1.5212  3.0081 -0.2527
  572TMC3    C7 8490   4.444   4.426  17.488  0.4787 -0.5774  0.4498
  572TMC3    C8 8491   4.329   3.966  17.475 -0.7309 -0.1355  0.4193
  572TMC3    O1 8492   4.341   4.458  17.427 -0.9323  0.2343 -0.1897
  572TMC3    O2 8493   4.342   3.847  17.509  0.0581  0.1876  0.7606
  573MPD2     C 8494   4.585   0.030   0.991 -0.1234 -0.4653  0.3684
  573MPD2    C1 8495   0.007   0.033   1.003 -0.0226  0.0055 -0.2914
  573MPD2    C2 8496   0.082   0.036   0.892 -0.1876  0.6281  0.0728
  573MPD2    C3 8497   0.023   0.019   0.767  0.3958  0.8517  0.1534
  573MPD2    C4 8498   4.610   0.004   0.758  0.5522  0.3074 -0.4655
  573MPD2    C5 8499   4.531   0.020   0.866 -0.5933  0.1833 -0.1325
  573MPD2     H 8500   0.189   0.051   0.907 -0.2095 -0.5986  1.4535
  573MPD2    H1 8501   4.564   4.705   0.662  2.3074 -1.8260 -0.8869
  573MPD2    H2 8502   4.519   0.019   1.076  0.0721 -1.6398  0.3703
  573MPD2    H3 8503   4.423   0.032   0.858 -0.8689 -1.0798  1.6002
  573MPD2     N 8504   0.083   0.042   0.641 -0.0726  0.7258 -0.2350
  573MPD2    H5 8505   0.028   0.049   0.557 -0.2078  1.6359 -0.0712
  573MPD2    N1 8506   0.053   0.054   1.130 -0.3457 -0.3827 -0.9421
  573MPD2    H7 8507   4.700   0.065   1.199  1.2522  0.8844  0.5529
  574TMC3    C1 8508   0.250   0.110   0.491  0.2760  0.1674  0.5013
  574TMC3    C2 8509   0.163   0.192   0.418 -0.2010 -0.1825  0.2032
  574TMC3    C3 8510   0.210   0.266   0.307 -0.1191  0.1258  0.1408
  574TMC3    C4 8511   0.386   0.121   0.462 -0.4819 -0.2522 -0.9850
  574TMC3    C5 8512   0.433   0.200   0.353 -0.6078 -0.4459  0.7528
  574TMC3    C6 8513   0.348   0.278   0.278  0.1200 -0.3493 -0.5112
  574TMC3     C 8514   0.219   0.062   0.625  0.2425  0.4542  0.6768
  574TMC3     O 8515   0.302   0.063   0.712  0.7391 -0.8239 -0.2633
  574TMC3     H 8516   0.056   0.191   0.439 -0.0979  0.4765  0.7369
  574TMC3    H1 8517   0.450   0.067   0.530  1.4078  1.4531 -1.4361
  574TMC3    H2 8518   0.387   0.347   0.204 -2.2058  0.9557 -0.5279
  574TMC3    C7 8519   0.575   0.211   0.323 -0.9351  0.0103 -0.2131
  574TMC3    C8 8520   0.112   0.298   0.196  0.2096  0.1422  0.7275
  574TMC3    O1 8521   0.608   0.273   0.224  0.0050  0.3681 -0.0911
  574TMC3    O2 8522   4.717   0.265   0.223  0.5786  0.4472 -0.4368
  575TMC3    C1 8523   2.536   1.004  11.149 -0.0762 -0.6724 -0.1343
  575TMC3    C2 8524   2.510   0.875  11.172 -0.3640  0.3038  0.2129
  575TMC3    C3 8525   2.406   0.811  11.109 -0.3430 -0.0261  0.2045
  575TMC3    C4 8526   2.457   1.078  11.059 -0.7036 -0.2873 -0.5226
  575TMC3    C5 8527   2.354   1.008  11.008 -0.1473  0.8695 -0.0016
  575TMC3    C6 8528   2.319   0.879  11.037  0.2223  0.2578  0.5380
  575TMC3     C 8529   2.617   1.070  11.247  0.8515 -0.5095 -0.0239
  575TMC3     O 8530   2.683   1.001  11.324 -0.0467  0.1108 -0.2509
  575TMC3     H 8531   2.567   0.831  11.253 -1.2897  0.7215  1.0964
  575TMC3    H1 8532   2.465   1.182  11.031  0.3062 -0.2875 -0.2231
  575TMC3    H2 8533   2.222   0.836  11.014  0.1784  0.2631  0.7114
  575TMC3    C7 8534   2.300   1.059  10.882  0.4752  0.1064  0.3240
  575TMC3    C8 8535   2.374   0.671  11.129 -0.7624  0.8136  0.3236
  575TMC3    O1 8536   2.344   1.162  10.837 -0.2752  0.6299 -0.6965
  575TMC3    O2 8537   2.287   0.628  11.056 -0.0483 -0.0118  0.1323
  576MPD2     C 8538   2.464   2.744  12.957  0.0034 -0.0985 -0.0058
  576MPD2    C1 8539   2.430   2.806  12.838  0.1878 -0.2918 -0.0423
  576MPD2    C2 8540   2.316   2.885  12.833  0.7501  0.1018  0.6701
  576MPD2    C3 8541   2.247   2.915  12.953 -0.2017  0.2005  0.8891
  576MPD2    C4 8542   2.276   2.840  13.067  0.0248 -0.3922 -0.6187
  576MPD2    C5 8543   2.385   2.757  13.068 -0.3204  0.3347  0.0883
  576MPD2     H 8544   2.282   2.929  12.740  2.5877 -1.5719 -0.8026
  576MPD2    H1 8545   2.235   2.852  13.166  0.0844  4.1133 -1.1624
  576MPD2    H2 8546   2.547   2.678  12.979 -0.3519 -0.4931  0.1427
  576MPD2    H3 8547   2.423   2.709  13.157 -2.1812 -0.9721  0.1951
  576MPD2     N 8548   2.150   3.016  12.950 -0.5299  0.1354  0.2060
  576MPD2    H5 8549   2.175   3.083  12.878 -0.3576 -0.8204 -0.6317
  576MPD2    N1 8550   2.499   2.780  12.721  0.3377 -0.3096 -0.9504
  576MPD2    H7 8551   2.488   2.839  12.640  0.0811  1.0212  0.0536
  577TMC3    C1 8552   2.644   2.670  12.569 -0.2868  0.5620  0.2237
  577TMC3    C2 8553   2.748   2.584  12.559 -0.5151 -0.4023 -0.1089
  577TMC3    C3 8554   2.790   2.533  12.442  0.3389 -0.2489  0.3234
  577TMC3    C4 8555   2.563   2.695  12.456 -0.1885  0.5044 -0.6036
  577TMC3    C5 8556   2.606   2.638  12.342  0.8757 -0.0751  0.1533
  577TMC3    C6 8557   2.728   2.563  12.329 -0.0650  0.7761  0.1485
  577TMC3     C 8558   2.586   2.672  12.702  0.4140 -0.6187 -0.0919
  577TMC3     O 8559   2.623   2.591  12.784 -0.3056  0.2493 -0.3371
  577TMC3     H 8560   2.798   2.544  12.646 -0.6276 -0.7528 -0.2066
  577TMC3    H1 8561   2.465   2.738  12.466 -0.5571 -0.4331 -0.1897
  577TMC3    H2 8562   2.757   2.516  12.236 -1.8701 -1.9628  0.9752
  577TMC3    C7 8563   2.520   2.607  12.221  0.2552  0.7382 -1.0806
  577TMC3    C8 8564   2.861   2.411  12.438  1.0312 -0.4705  0.4873
  577TMC3    O1 8565   2.545   2.497  12.175  0.0659 -0.8952  0.0718
  577TMC3    O2 8566   2.843   2.334  12.533  0.4841 -0.3095  0.4485
  578MPD2     C 8567   0.632   2.624   1.268  0.3744  0.6504  0.1720
  578MPD2    C1 8568   0.729   2.640   1.174  0.1379  0.8971  0.4781
  578MPD2    C2 8569   0.848   2.570   1.184  0.4362 -0.4983  0.5082
  578MPD2    C3 8570   0.875   2.496   1.292 -0.2987  0.6305 -0.2346
  578MPD2    C4 8571   0.774   2.470   1.380 -0.2898 -0.1581  0.2563
  578MPD2    C5 8572   0.650   2.526   1.364  0.0125 -0.3085 -0.5591
  578MPD2     H 8573   0.915   2.564   1.099  0.8552  0.8920  0.7497
  578MPD2    H1 8574   0.792   2.408   1.467  1.0150 -0.9173 -0.5575
  578MPD2    H2 8575   0.534   2.669   1.264  0.1238  0.1606  0.6991
  578MPD2    H3 8576   0.571   2.510   1.437  2.2544 -2.8313  1.3348
  578MPD2     N 8577   0.995   2.429   1.309  0.1551 -0.2775 -0.2667
  578MPD2    H5 8578   1.061   2.424   1.232 -0.0977  3.1060 -0.7167
  578MPD2    N1 8579   0.711   2.738   1.074 -0.7259 -0.2319 -0.3212
  578MPD2    H7 8580   0.614   2.768   1.075 -0.9740 -1.0679  0.0677
  579TMC3    C1 8581   1.178   2.308   1.408  0.0711 -0.1985 -0.0983
  579TMC3    C2 8582   1.276   2.357   1.481  0.7702  1.4198 -0.1984
  579TMC3    C3 8583   1.397   2.298   1.465 -0.7626  0.0231 -0.1181
  579TMC3    C4 8584   1.182   2.211   1.318 -0.6417 -0.1092 -0.8416
  579TMC3    C5 8585   1.306   2.159   1.292 -0.0458  0.6116 -0.5042
  579TMC3    C6 8586   1.415   2.202   1.371 -0.0953 -0.2236  0.1987
  579TMC3     C 8587   1.054   2.381   1.431  0.2728 -0.4640 -0.0425
  579TMC3     O 8588   1.008   2.391   1.545 -0.2331  0.3904  0.0659
  579TMC3     H 8589   1.252   2.432   1.556 -0.1345  0.2559  0.6793
  579TMC3    H1 8590   1.091   2.178   1.269 -0.8108  0.2756 -0.7850
  579TMC3    H2 8591   1.517   2.166   1.358 -0.6539 -1.4203 -0.8929
  579TMC3    C7 8592   1.325   2.048   1.193 -0.2992 -0.3631 -0.0028
  579TMC3    C8 8593   1.510   2.362   1.535  0.5273 -0.3995  0.4932
  579TMC3    O1 8594   1.437   2.001   1.194 -0.6115 -0.3091 -0.4845
  579TMC3    O2 8595   1.488   2.461   1.605  0.3172 -0.1488 -0.1226
  580TMC3    C1 8596   0.405   1.781  11.761  0.9235  0.0268 -0.2328
  580TMC3    C2 8597   0.423   1.706  11.644  0.8762  0.2732  0.0819
  580TMC3    C3 8598   0.395   1.573  11.645 -0.0846 -0.4124 -0.3240
  580TMC3    C4 8599   0.356   1.721  11.880  0.1662 -0.1810  0.4394
  580TMC3    C5 8600   0.325   1.584  11.869 -0.0080 -0.7904  0.1509
  580TMC3    C6 8601   0.345   1.508  11.755  0.8343  0.0835  0.0194
  580TMC3     C 8602   0.504   1.889  11.778 -0.2411 -0.6363 -0.3597
  580TMC3     O 8603   0.605   1.899  11.706 -0.3647 -0.2716  0.0586
  580TMC3     H 8604   0.464   1.760  11.559 -0.2484 -0.7811 -1.1311
  580TMC3    H1 8605   0.342   1.776  11.972 -1.3690 -1.5361  1.0123
  580TMC3    H2 8606   0.344   1.400  11.760 -0.3764  0.0647 -0.7486
  580TMC3    C7 8607   0.313   1.517  12.000 -0.2441 -0.5009 -0.3791
  580TMC3    C8 8608   0.506   1.502  11.565 -0.0664  0.7692  0.9740
  580TMC3    O1 8609   0.338   1.580  12.098 -0.4387 -0.2620 -0.2741
  580TMC3    O2 8610   0.489   1.380  11.553  0.0278 -0.4338  0.4854
  581MPD2     C 8611   3.363   1.388  14.813 -0.0593 -0.7700  0.0974
  581MPD2    C1 8612   3.346   1.443  14.939  0.3989  0.6133 -0.3037
  581MPD2    C2 8613   3.225   1.499  14.974  0.0736  0.2471 -0.4442
  581MPD2    C3 8614   3.119   1.501  14.890  0.3874  0.2715  0.3616
  581MPD2    C4 8615   3.146   1.448  14.764  0.1368  0.0587  0.1812
  581MPD2    C5 8616   3.256   1.382  14.735 -0.3795 -0.4498 -0.0488
  581MPD2     H 8617   3.207   1.543  15.071 -1.9720  0.7473 -1.0548
  581MPD2    H1 8618   3.079   1.443  14.679  0.2807  0.8626  0.0223
  581MPD2    H2 8619   3.458   1.344  14.784 -1.2423 -1.8262 -2.1387
  581MPD2    H3 8620   3.269   1.332  14.640  1.5575  1.9938 -1.0894
  581MPD2     N 8621   2.995   1.565  14.926 -0.2831  0.1860  0.1333
  581MPD2    H5 8622   2.976   1.608  15.016  0.3920 -0.8484  0.7566
  581MPD2    N1 8623   3.453   1.425  15.039  0.2336 -0.3991  0.6401
  581MPD2    H7 8624   3.540   1.386  15.003  0.7301 -0.0518  1.4527
  582TMC3    C1 8625   3.577   1.442  15.244 -0.7708  0.1272  0.0889
  582TMC3    C2 8626   3.605   1.508  15.361  0.7993 -0.1510  0.0391
  582TMC3    C3 8627   3.729   1.483  15.430 -0.7044  0.0086 -0.2723
  582TMC3    C4 8628   3.658   1.335  15.201 -0.0042 -0.2460  0.6965
  582TMC3    C5 8629   3.765   1.303  15.277 -0.5678  0.2445 -0.4228
  582TMC3    C6 8630   3.803   1.373  15.385  0.2818  0.3704 -0.3874
  582TMC3     C 8631   3.455   1.477  15.167 -0.2814 -0.0542 -0.5247
  582TMC3     O 8632   3.371   1.541  15.233  0.6973  0.3571 -0.5393
  582TMC3     H 8633   3.545   1.593  15.391 -1.2962 -1.4924 -0.3588
  582TMC3    H1 8634   3.637   1.282  15.108 -1.6808 -1.3360  1.6962
  582TMC3    H2 8635   3.892   1.331  15.432 -0.4842 -2.1146 -1.1496
  582TMC3    C7 8636   3.851   1.194  15.233  0.3134  0.0165 -0.1569
  582TMC3    C8 8637   3.770   1.560  15.542 -0.0257  0.8001  0.2243
  582TMC3    O1 8638   3.970   1.214  15.261 -0.4154  0.8565  0.5646
  582TMC3    O2 8639   3.684   1.627  15.592  0.2204  0.3133 -0.0446
  583MPD2     C 8640   3.407   2.903  16.974  0.0232  0.0053  0.8124
  583MPD2    C1 8641   3.343   3.002  16.896  0.1883  0.4911 -1.1155
  583MPD2    C2 8642   3.273   3.102  16.961  0.2816 -0.3570  0.3209
  583MPD2    C3 8643   3.251   3.099  17.097 -0.1265  0.1864 -0.0071
  583MPD2    C4 8644   3.318   2.999  17.170 -0.4198  0.1904 -0.4427
  583MPD2    C5 8645   3.387   2.903  17.110  0.2497  0.2984  0.2951
  583MPD2     H 8646   3.230   3.188  16.910  1.9577 -0.5280 -1.3644
  583MPD2    H1 8647   3.315   2.991  17.278 -4.0813  1.4139 -0.4473
  583MPD2    H2 8648   3.453   2.818  16.925 -0.6167  0.8083 -1.1868
  583MPD2    H3 8649   3.425   2.825  17.176 -1.8121  0.6349  1.8883
  583MPD2     N 8650   3.169   3.200  17.151 -0.3479 -0.1696 -0.5082
  583MPD2    H5 8651   3.117   3.257  17.085 -0.8777  2.6614  2.3507
  583MPD2    N1 8652   3.371   3.018  16.756 -0.4814  0.2185  0.8586
  583MPD2    H7 8653   3.329   3.095  16.704  0.1168 -0.9052 -1.2746
  584TMC3    C1 8654   3.076   3.329  17.331 -0.2043  0.1607 -0.0277
  584TMC3    C2 8655   3.058   3.430  17.244 -0.4493  0.4510  0.3451
  584TMC3    C3 8656   3.011   3.541  17.302 -0.1390  0.0134 -0.4169
  584TMC3    C4 8657   3.016   3.320  17.454 -0.0784 -0.6893 -0.4704
  584TMC3    C5 8658   2.944   3.430  17.498  0.4169  0.1933  0.5680
  584TMC3    C6 8659   2.939   3.542  17.422 -0.9234  0.8298 -0.0694
  584TMC3     C 8660   3.145   3.209  17.286  0.1137  0.2554 -0.1660
  584TMC3     O 8661   3.167   3.129  17.376 -0.1154  0.0714 -0.1315
  584TMC3     H 8662   3.124   3.432  17.158 -1.1640 -2.3944 -0.2668
  584TMC3    H1 8663   3.029   3.233  17.517  0.8820 -0.8966 -0.9597
  584TMC3    H2 8664   2.896   3.632  17.466  0.5160  0.3018  2.4129
  584TMC3    C7 8665   2.879   3.421  17.629 -0.1888  0.1662  0.2094
  584TMC3    C8 8666   2.981   3.643  17.213  0.6286 -0.0511 -0.7236
  584TMC3    O1 8667   2.921   3.332   0.012 -0.6687  0.1612  0.3460
  584TMC3    O2 8668   2.973   3.619  17.092  0.1044 -0.1152 -0.1948
  585MPD2     C 8669   2.485   2.163   0.055  0.5161 -0.2970 -0.1784
  585MPD2    C1 8670   2.523   2.250  17.637 -0.8023 -0.0832 -1.1733
  585MPD2    C2 8671   2.571   2.200  17.515 -0.1718 -0.4563 -0.1002
  585MPD2    C3 8672   2.565   2.061  17.493  0.1233  0.1593  0.0374
  585MPD2    C4 8673   2.540   1.975  17.597  0.4435 -0.4226  0.5993
  585MPD2    C5 8674   2.505   2.031   0.034 -0.1257  0.1441 -0.1252
  585MPD2     H 8675   2.590   2.275  17.439 -0.3613 -0.6298 -0.3179
  585MPD2    H1 8676   2.551   1.868  17.578  1.3588  0.0115 -1.3004
  585MPD2    H2 8677   2.453   2.202   0.151  1.7124 -0.0362  0.1152
  585MPD2    H3 8678   2.476   1.968   0.117  0.7914  0.0870  0.1407
  585MPD2     N 8679   2.604   1.999  17.370  0.0340  0.0448 -0.0807
  585MPD2    H5 8680   2.581   1.901  17.355  1.9385 -0.2255 -1.2338
  585MPD2    N1 8681   2.492   2.388  17.661 -0.5696  0.4442  0.2657
  585MPD2    H7 8682   2.466   2.409   0.071 -1.4190 -0.1273  0.1584
  586TMC3    C1 8683   2.615   2.016  17.130 -0.2543  0.2609 -0.1619
  586TMC3    C2 8684   2.662   1.921  17.045 -0.1149  0.2194 -0.4422
  586TMC3    C3 8685   2.580   1.874  16.948 -0.0071 -0.1950 -0.1551
  586TMC3    C4 8686   2.492   2.066  17.120 -0.6161  0.1395  0.7459
  586TMC3    C5 8687   2.404   2.012  17.022  0.0088 -0.3883  0.5126
  586TMC3    C6 8688   2.447   1.919  16.932 -0.6016  0.5463  0.0292
  586TMC3     C 8689   2.677   2.055  17.262  0.3036 -0.1885  0.1094
  586TMC3     O 8690   2.728   2.165  17.260 -0.2783 -0.4318 -0.2145
  586TMC3     H 8691   2.760   1.881  17.065  0.2633  0.9401 -0.8405
  586TMC3    H1 8692   2.466   2.140  17.195  0.9397 -1.3445  2.7454
  586TMC3    H2 8693   2.373   1.855  16.887  0.0790 -0.6713  0.6265
  586TMC3    C7 8694   2.263   1.995  17.074 -0.3238  0.5846  0.8335
  586TMC3    C8 8695   2.619   1.746  16.898  0.2855  0.1899  0.6537
  586TMC3    O1 8696   2.214   1.887  17.043  0.1430  0.1670 -0.5512
  586TMC3    O2 8697   2.707   1.699  16.969  0.3667  0.1323  0.1851
  587TMC3    C1 8698   0.018   1.186  15.679 -0.6047  0.6103 -0.0920
  587TMC3    C2 8699   0.073   1.235  15.795  0.5115  0.0034  0.1703
  587TMC3    C3 8700   0.193   1.182  15.833 -0.2255  0.0664 -0.2870
  587TMC3    C4 8701   0.086   1.089  15.614 -0.5680 -0.3653 -0.7628
  587TMC3    C5 8702   0.200   1.038  15.661 -0.1455  0.0924  0.0244
  587TMC3    C6 8703   0.263   1.087  15.768 -0.2211  0.2786 -0.8493
  587TMC3     C 8704   4.596   1.183  15.660 -0.0722  0.0407  0.6793
  587TMC3     O 8705   4.560   1.191  15.545  0.3844 -0.6674  0.4846
  587TMC3     H 8706   0.017   1.317  15.839  2.9839  2.0595 -0.5023
  587TMC3    H1 8707   0.039   1.048  15.525 -0.4958 -2.0278 -0.0274
  587TMC3    H2 8708   0.362   1.056  15.802 -1.1830 -1.6489  0.1777
  587TMC3    C7 8709   0.187   0.894  15.651 -0.5576 -0.3090  0.0197
  587TMC3    C8 8710   0.249   1.210  15.967  0.4063  0.4871 -0.5787
  587TMC3    O1 8711   0.102   0.846  15.577  0.7332 -0.0128 -0.1947
  587TMC3    O2 8712   0.355   1.152  16.000  1.0524 -0.0151 -0.1148
  588TMC3    C1 8713   2.748   3.570   9.667 -0.5854  0.3028 -0.3523
  588TMC3    C2 8714   2.678   3.456   9.630 -0.5152 -0.4051 -0.0119
  588TMC3    C3 8715   2.661   3.360   9.724 -0.1019  0.1338 -0.6213
  588TMC3    C4 8716   2.780   3.589   9.796  0.6974  1.1180 -0.0456
  588TMC3    C5 8717   2.761   3.490   9.890 -0.6356  0.0800 -0.9239
  588TMC3    C6 8718   2.698   3.373   9.855  1.0098 -0.1993 -1.0957
  588TMC3     C 8719   2.727   3.683   9.581  0.4254 -0.8414 -0.1616
  588TMC3     O 8720   2.703   3.667   9.462 -0.1375 -0.2201  0.4644
  588TMC3     H 8721   2.629   3.431   9.537  0.0165 -1.1320 -0.0953
  588TMC3    H1 8722   2.837   3.676   9.829  1.7215  0.9225 -1.2947
  588TMC3    H2 8723   2.662   3.298   9.924  2.8038 -1.5760 -1.6879
  588TMC3    C7 8724   2.737   3.518  10.030  0.1591 -0.6055  0.0563
  588TMC3    C8 8725   2.554   3.268   9.696 -0.1606  0.5693  1.1789
  588TMC3    O1 8726   2.686   3.428  10.093  0.5155  0.1702 -0.0037
  588TMC3    O2 8727   2.477   3.308   9.613  0.5643  0.4301  0.3279
  589TMC3    C1 8728   1.293   0.687   1.046  0.5066 -0.9852 -0.4644
  589TMC3    C2 8729   1.362   0.791   1.094  0.1418 -0.2312 -0.4661
  589TMC3    C3 8730   1.500   0.773   1.107  0.0014  0.4908  0.0832
  589TMC3    C4 8731   1.347   0.571   1.010  0.8388 -0.0535  0.1105
  589TMC3    C5 8732   1.489   0.560   1.010  0.0188 -0.2332  0.0500
  589TMC3    C6 8733   1.570   0.659   1.067  1.2610  0.4494 -0.3920
  589TMC3     C 8734   1.151   0.685   1.014  0.4828 -0.2161  0.3148
  589TMC3     O 8735   1.105   0.591   0.952  0.3390  0.7357  1.1620
  589TMC3     H 8736   1.317   0.886   1.120  2.4063  0.2294  1.8169
  589TMC3    H1 8737   1.288   0.486   0.980  2.4092 -1.3009  0.5586
  589TMC3    H2 8738   1.670   0.632   1.101  2.1942  0.8008 -2.8421
  589TMC3    C7 8739   1.543   0.427   0.987 -0.2027  0.0368 -0.1847
  589TMC3    C8 8740   1.570   0.882   1.169  0.3609  0.6135 -0.1940
  589TMC3    O1 8741   1.458   0.338   0.979  0.0452 -0.0768 -0.5855
  589TMC3    O2 8742   1.508   0.956   1.243 -0.3514  0.1260 -0.1670
  590MPD2     C 8743   0.737   3.877  16.545 -0.0638  0.2689  0.6786
  590MPD2    C1 8744   0.692   3.971  16.455 -0.3604  0.6552  0.1051
  590MPD2    C2 8745   0.777   4.018  16.359  0.3044  0.0755 -0.5194
  590MPD2    C3 8746   0.906   3.971  16.348 -0.3462  0.1528  0.2572
  590MPD2    C4 8747   0.946   3.880  16.439 -0.4337  0.7513  0.0784
  590MPD2    C5 8748   0.858   3.824  16.532  0.0936 -0.3772 -0.0143
  590MPD2     H 8749   0.748   4.101  16.296 -2.7246 -1.2289 -0.8817
  590MPD2    H1 8750   1.051   3.860  16.455  0.0268  3.0367  0.0307
  590MPD2    H2 8751   0.672   3.843  16.625 -2.3793 -1.8134 -2.0683
  590MPD2    H3 8752   0.890   3.755  16.609  0.2472  0.0880  0.3415
  590MPD2     N 8753   0.994   4.041  16.269  0.5126  0.5795  0.4063
  590MPD2    H5 8754   0.956   4.122  16.222  0.0282 -0.4167 -0.9199
  590MPD2    N1 8755   0.553   4.015  16.468  0.8150 -0.1912  0.0618
  590MPD2    H7 8756   0.501   3.984  16.550 -1.4528 -2.5343 -2.2528
  591TMC3    C1 8757   1.168   4.107  16.139  0.0413  0.1989  0.1463
  591TMC3    C2 8758   1.238   4.045  16.039 -0.5325 -0.7095  0.0912
  591TMC3    C3 8759   1.274   4.119  15.928 -0.3081  0.3973  0.4681
  591TMC3    C4 8760   1.121   4.234  16.125 -0.3719  0.2201  0.3427
  591TMC3    C5 8761   1.152   4.301  16.010 -0.2559 -0.5898 -0.1816
  591TMC3    C6 8762   1.223   4.245  15.908 -0.3406  0.3189 -0.4061
  591TMC3     C 8763   1.128   4.018  16.248 -0.1787 -0.0348  0.3700
  591TMC3     O 8764   1.198   3.926  16.281 -0.0212 -0.6008  0.4199
  591TMC3     H 8765   1.289   3.952  16.062 -0.5028 -1.0217 -1.1920
  591TMC3    H1 8766   1.071   4.272  16.213 -0.3728  1.6771 -0.2887
  591TMC3    H2 8767   1.257   4.314  15.832  1.4938 -0.2758 -0.1169
  591TMC3    C7 8768   1.154   4.444  16.016  0.1804  0.8007 -0.0997
  591TMC3    C8 8769   1.312   4.037  15.812  0.7612 -0.5929  0.3449
  591TMC3    O1 8770   1.257   4.499  15.979 -0.2120 -0.2908 -0.1623
  591TMC3    O2 8771   1.336   3.920  15.828  0.5833  0.1543  0.1895
  592MPD2     C 8772   1.662   1.616  11.396  0.2930  0.8200 -0.4055
  592MPD2    C1 8773   1.709   1.660  11.520 -0.2276  0.6569  0.2349
  592MPD2    C2 8774   1.695   1.578  11.633 -0.1276  0.0438  0.1822
  592MPD2    C3 8775   1.606   1.472  11.627  0.2386  0.7210  0.7280
  592MPD2    C4 8776   1.539   1.446  11.507  0.3202 -0.0443  0.7209
  592MPD2    C5 8777   1.569   1.514  11.394 -0.8246  0.3655  0.3390
  592MPD2     H 8778   1.741   1.602  11.728 -0.7048 -0.2871  0.5491
  592MPD2    H1 8779   1.471   1.364  11.489 -0.6303  1.2869 -1.8361
  592MPD2    H2 8780   1.677   1.664  11.300 -0.9554 -0.1897 -1.1018
  592MPD2    H3 8781   1.510   1.490  11.306 -0.9278  1.6427  0.0646
  592MPD2     N 8782   1.583   1.402  11.752  0.2998  0.1147  0.0445
  592MPD2    H5 8783   1.656   1.424  11.819  2.2348 -0.4255 -1.8849
  592MPD2    N1 8784   1.786   1.777  11.524  0.5039 -0.5418  0.6093
  592MPD2    H7 8785   1.811   1.816  11.434 -0.4725 -0.6655  0.2843
  593TMC3    C1 8786   1.886   1.977  11.621 -0.1026 -0.3818  0.2673
  593TMC3    C2 8787   1.916   2.046  11.733  0.7542  0.2384  0.5514
  593TMC3    C3 8788   1.947   2.181  11.715  0.1050  0.1797 -0.0312
  593TMC3    C4 8789   1.907   2.028  11.495  0.3693  0.0623  0.4624
  593TMC3    C5 8790   1.945   2.161  11.483 -0.0328  0.6506 -0.2320
  593TMC3    C6 8791   1.963   2.240  11.596  0.0019 -0.6565 -0.4013
  593TMC3     C 8792   1.836   1.847  11.636 -0.4431  0.0090  0.2790
  593TMC3     O 8793   1.864   1.797  11.746  0.0211  0.5360 -0.0977
  593TMC3     H 8794   1.882   2.015  11.831  0.1908 -0.5118  0.1215
  593TMC3    H1 8795   1.919   1.962  11.411 -1.6189 -3.0892  2.6486
  593TMC3    H2 8796   2.000   2.340  11.579 -0.3667 -0.8895 -2.5842
  593TMC3    C7 8797   1.997   2.215  11.358  0.2398 -0.0945 -0.0064
  593TMC3    C8 8798   1.971   2.263  11.831  0.8297 -0.1937  0.7060
  593TMC3    O1 8799   2.065   2.314  11.363 -0.4159 -0.2418 -0.1660
  593TMC3    O2 8800   1.935   2.378  11.822 -0.4729 -0.3717  0.0867
  594MPD2     C 8801   0.068   0.120  15.011  0.1948  0.1533 -0.0107
  594MPD2    C1 8802   0.010   0.163  14.898 -0.1409  0.6015  0.0504
  594MPD2    C2 8803   0.090   0.224  14.799 -0.8181 -0.0881 -0.0466
  594MPD2    C3 8804   0.224   0.216  14.811 -0.5590 -0.8938  0.6229
  594MPD2    C4 8805   0.282   0.149  14.912  0.8203 -0.5745 -0.4649
  594MPD2    C5 8806   0.204   0.103  15.016 -0.1484  0.5632 -0.7743
  594MPD2     H 8807   0.051   0.268  14.708  0.1273  0.2352 -0.3003
  594MPD2    H1 8808   0.390   0.150  14.928  0.4500 -0.7468  2.0899
  594MPD2    H2 8809   0.013   0.071  15.091  1.5436  0.6981  1.2508
  594MPD2    H3 8810   0.243   0.074  15.112  0.8892 -0.1022 -1.3948
  594MPD2     N 8811   0.306   0.282  14.708  0.6202  0.2463 -0.4929
  594MPD2    H5 8812   0.271   0.350  14.642 -0.4609 -0.4417 -0.6241
  594MPD2    N1 8813   4.589   0.143  14.904  0.0500 -0.2301  0.1904
  594MPD2    H7 8814   4.548   0.092  14.982  1.1793 -4.1357 -1.7968
  595TMC3    C1 8815   0.727   0.345  14.504  0.3645  0.1551  0.0235
  595TMC3    C2 8816   0.633   0.269  14.563  0.0897 -0.1802 -0.1045
  595TMC3    C3 8817   0.520   0.330  14.601  0.0652  0.2465  0.4566
  595TMC3    C4 8818   0.712   0.475  14.470  0.5167  0.5747  0.0136
  595TMC3    C5 8819   0.593   0.533  14.517  0.3100 -0.9817 -0.0467
  595TMC3    C6 8820   0.495   0.462  14.588 -0.7124  0.3450 -0.7833
  595TMC3     C 8821   0.861   0.311  14.529 -0.1060 -0.7583 -0.1875
  595TMC3     O 8822   0.918   0.366  14.625 -0.1090 -0.0111 -0.0973
  595TMC3     H 8823   0.654   0.165  14.586  3.6448  0.2139 -1.5372
  595TMC3    H1 8824   0.780   0.521  14.401 -0.4746  1.4068 -0.4076
  595TMC3    H2 8825   0.401   0.504  14.622 -0.2341  1.5913 -0.9919
  595TMC3    C7 8826   0.581   0.672  14.540 -1.3709 -0.3608  0.3207
  595TMC3    C8 8827   0.442   0.253  14.698  0.0583 -0.0465  0.1330
  595TMC3    O1 8828   0.480   0.702  14.608  0.2710 -0.8619  0.7754
  595TMC3    O2 8829   0.491   0.143  14.724  0.1030 -0.5278 -0.5662
  596MPD2     C 8830   4.291   3.153  16.808 -0.4805 -0.4383  0.4034
  596MPD2    C1 8831   4.180   3.224  16.763 -0.8832 -0.2368  0.2813
  596MPD2    C2 8832   4.111   3.178  16.654  0.0121  0.6742 -0.1123
  596MPD2    C3 8833   4.149   3.057  16.595  0.4625  1.6728  0.8330
  596MPD2    C4 8834   4.257   2.988  16.642  0.1727 -0.4704  0.0501
  596MPD2    C5 8835   4.332   3.038  16.742 -0.6828 -0.6618 -0.1458
  596MPD2     H 8836   4.029   3.240  16.617 -0.2317  0.6469  0.3867
  596MPD2    H1 8837   4.292   2.898  16.593  0.0432 -0.3936 -0.1842
  596MPD2    H2 8838   4.347   3.187  16.894 -1.4342  0.9637  0.4876
  596MPD2    H3 8839   4.414   2.978  16.782  0.4556  0.9629 -0.0329
  596MPD2     N 8840   4.094   3.011  16.474  0.3786 -0.1261  0.1302
  596MPD2    H5 8841   4.134   2.931  16.427 -0.9204  0.4152 -1.9126
  596MPD2    N1 8842   4.151   3.349  16.829 -0.5211  0.5568 -0.3874
  596MPD2    H7 8843   4.215   3.394  16.893 -0.3353 -0.1955 -0.0508
  597TMC3    C1 8844   4.013   3.524  16.920 -0.6019 -0.0629 -0.3330
  597TMC3    C2 8845   4.114   3.608  16.966  0.1778 -0.4614  0.2073
  597TMC3    C3 8846   4.086   3.701  17.062 -0.0165  0.2333  0.4420
  597TMC3    C4 8847   3.894   3.519  16.990  0.9486 -0.2376  1.0305
  597TMC3    C5 8848   3.869   3.617  17.077  0.9737  0.4732  0.0625
  597TMC3    C6 8849   3.961   3.708  17.120 -0.4793 -0.0103 -1.0891
  597TMC3     C 8850   4.029   3.417  16.824 -0.2293 -0.1867  0.4355
  597TMC3     O 8851   3.925   3.377  16.777  0.5916 -0.1586 -0.0494
  597TMC3     H 8852   4.212   3.617  16.920  1.4798 -1.2929  2.8346
  597TMC3    H1 8853   3.809   3.458  16.964 -0.1409  3.0167 -3.0181
  597TMC3    H2 8854   3.940   3.794  17.183  0.6896  0.9425 -1.9858
  597TMC3    C7 8855   3.751   3.592  17.165 -0.2735 -0.3776  0.7575
  597TMC3    C8 8856   4.166   3.818  17.064 -0.4027 -0.2144 -0.8137
  597TMC3    O1 8857   3.737   3.477  17.206  0.8313  0.3202 -1.2415
  597TMC3    O2 8858   4.119   3.927  17.035  0.2212  0.3891  0.6763
  598TMC3    C1 8859   2.332   4.649  15.447 -1.3875 -0.3908 -0.2087
  598TMC3    C2 8860   2.225   4.567  15.438  0.0173 -0.6914 -0.0850
  598TMC3    C3 8861   2.176   4.536  15.311 -0.2873 -0.1076  0.0819
  598TMC3    C4 8862   2.376   0.004  15.338 -0.7670 -0.1915 -0.2095
  598TMC3    C5 8863   2.301   4.714  15.219 -0.4282 -0.3017  0.3125
  598TMC3    C6 8864   2.223   4.605  15.202 -0.2084 -0.0489 -0.1481
  598TMC3     C 8865   2.381   4.705  15.575 -0.4033 -0.8172 -0.3910
  598TMC3     O 8866   2.499   0.030  15.576  0.3233  0.2879 -0.8580
  598TMC3     H 8867   2.191   4.512  15.525  1.3832  1.5955  1.8889
  598TMC3    H1 8868   2.446   0.083  15.361  1.1514 -2.8057  2.8168
  598TMC3    H2 8869   2.169   4.595  15.109  0.0251 -0.4413 -0.2444
  598TMC3    C7 8870   2.371   0.026  15.095 -0.3281  0.4391 -0.1371
  598TMC3    C8 8871   2.075   4.445  15.289 -0.8599  0.4769  0.1868
  598TMC3    O1 8872   2.356   4.667  15.002  0.2551 -0.1523 -0.2901
  598TMC3    O2 8873   2.067   4.402  15.176  0.1437 -0.3704 -0.4646
  599MPD2     C 8874   2.477   2.686  15.976 -0.8583  0.2377  0.0988
  599MPD2    C1 8875   2.423   2.564  15.944 -0.1721  0.6717  0.3525
  599MPD2    C2 8876   2.297   2.520  15.984 -0.1283 -0.5907  0.6806
  599MPD2    C3 8877   2.223   2.611  16.059 -0.3713  0.4442  0.0997
  599MPD2    C4 8878   2.277   2.739  16.088  0.2581 -0.2531  0.1987
  599MPD2    C5 8879   2.401   2.772  16.048  0.4219 -0.6986  0.2922
  599MPD2     H 8880   2.265   2.418  15.966 -1.2215 -0.2633  0.8030
  599MPD2    H1 8881   2.210   2.811  16.133  0.0480 -0.6387  0.5006
  599MPD2    H2 8882   2.570   2.717  15.932 -0.5685 -0.0838  0.4835
  599MPD2    H3 8883   2.445   2.867  16.076  0.8580 -0.8993  0.2892
  599MPD2     N 8884   2.097   2.585  16.114  0.0388  0.1508  0.3754
  599MPD2    H5 8885   2.051   2.656  16.169 -1.5479  0.2283 -1.0671
  599MPD2    N1 8886   2.506   2.471  15.876 -0.0504 -0.0240  0.6849
  599MPD2    H7 8887   2.600   2.499  15.902  0.5545  1.2484 -2.9573
  600TMC3    C1 8888   1.899   2.479  16.177  0.7580 -0.1043  0.4965
  600TMC3    C2 8889   1.846   2.357  16.223  0.0262 -0.5857  0.4231
  600TMC3    C3 8890   1.759   2.366  16.330 -0.4300 -1.0798 -0.4426
  600TMC3    C4 8891   1.867   2.597  16.236  0.5775  0.1985  0.0726
  600TMC3    C5 8892   1.781   2.594  16.346 -0.1845 -1.0803  0.1152
  600TMC3    C6 8893   1.723   2.479  16.391  0.1845 -0.2367  0.3301
  600TMC3     C 8894   2.035   2.465  16.117  0.6387 -0.5988 -0.3125
  600TMC3     O 8895   2.083   2.361  16.089  0.3659  0.0424  0.4342
  600TMC3     H 8896   1.878   2.258  16.193  2.2775  0.6981 -1.3552
  600TMC3    H1 8897   1.902   2.691  16.195  0.0127 -0.3766 -1.7556
  600TMC3    H2 8898   1.645   2.475  16.466 -0.7682 -1.9779 -0.7659
  600TMC3    C7 8899   1.777   2.708  16.433 -0.2246 -0.2229 -0.2755
  600TMC3    C8 8900   1.713   2.253  16.395 -0.5620  0.1231  0.9646
  600TMC3    O1 8901   1.809   2.811  16.380 -0.2593 -0.3595 -0.2248
  600TMC3    O2 8902   1.694   2.257  16.512 -0.5406 -0.0349  0.3238
  601MPD2     C 8903   4.421   0.117   0.110 -0.2508 -0.5606 -0.5228
  601MPD2    C1 8904   4.366   0.093  17.669  0.0002  0.3387 -0.1212
  601MPD2    C2 8905   4.388   4.691  17.613  0.0619 -0.3938  0.1947
  601MPD2    C3 8906   4.469   4.598  17.671  0.1095  0.1381 -0.2904
  601MPD2    C4 8907   4.518   4.615   0.112  0.3792 -0.6386 -0.2454
  601MPD2    C5 8908   4.496   0.016   0.171  0.0862 -0.0070 -1.0549
  601MPD2     H 8909   4.347   4.672  17.515 -2.5951  1.5744  0.9331
  601MPD2    H1 8910   4.589   4.545   0.152  0.5213 -0.0600  0.5145
  601MPD2    H2 8911   4.414   0.212   0.163 -2.6488 -0.7331 -0.5197
  601MPD2    H3 8912   4.530   0.032   0.273 -1.0576  0.0748 -0.6781
  601MPD2     N 8913   4.509   4.483  17.602  0.7535  0.7669 -0.0694
  601MPD2    H5 8914   4.576   4.425  17.652  0.4415  1.8485  1.6293
  601MPD2    N1 8915   4.297   0.196  17.597 -0.5085  0.0858  0.0387
  601MPD2    H7 8916   4.246   0.165  17.515 -0.2246  0.3872 -0.2495
  602TMC3    C1 8917   4.231   0.404  17.519 -0.6937  0.9279  0.8016
  602TMC3    C2 8918   4.310   0.500  17.460 -0.1790  0.0445  0.0613
  602TMC3    C3 8919   4.267   0.556  17.348 -0.3646 -0.7267  0.0972
  602TMC3    C4 8920   4.111   0.367  17.473 -0.1789 -0.1784 -0.1084
  602TMC3    C5 8921   4.073   0.433  17.359 -0.6200  0.2399 -0.0583
  602TMC3    C6 8922   4.147   0.529  17.293  0.2988 -0.6295 -0.0926
  602TMC3     C 8923   4.300   0.330  17.620  0.4638  0.6059  0.6604
  602TMC3     O 8924   4.375   0.389   0.009  0.2219  1.1752 -0.3820
  602TMC3     H 8925   4.410   0.500  17.501 -0.9221  1.9773  1.8908
  602TMC3    H1 8926   4.044   0.298  17.523  0.3334  0.6257  1.6816
  602TMC3    H2 8927   4.127   0.570  17.194 -0.5903  1.9187  1.1720
  602TMC3    C7 8928   3.936   0.421  17.318 -0.2111  0.2478  0.1865
  602TMC3    C8 8929   4.340   0.669  17.301  0.3733  0.1369  0.7744
  602TMC3    O1 8930   3.874   0.326  17.350 -0.1916 -0.3199  0.1397
  602TMC3    O2 8931   4.457   0.676  17.303 -0.4006  0.2366 -1.1866
  603TMC3    C1 8932   1.738   1.193  10.790  0.5903  0.1656 -0.2039
  603TMC3    C2 8933   1.778   1.121  10.897 -0.2354  0.5529  0.4173
  603TMC3    C3 8934   1.890   1.163  10.967  0.3397  0.6991  0.2286
  603TMC3    C4 8935   1.808   1.301  10.744  0.2915 -0.2344 -0.3530
  603TMC3    C5 8936   1.923   1.332  10.806  0.2465  0.3136 -0.4199
  603TMC3    C6 8937   1.969   1.268  10.923  0.2209  0.0084 -0.0011
  603TMC3     C 8938   1.644   1.137  10.698  0.5714 -0.2755 -0.0346
  603TMC3     O 8939   1.661   1.171  10.583 -0.1060  0.1208  0.0981
  603TMC3     H 8940   1.741   1.020  10.906  0.5383  0.1909 -0.5000
  603TMC3    H1 8941   1.764   1.364  10.667  1.5009 -1.2301 -1.8501
  603TMC3    H2 8942   2.071   1.281  10.956 -0.2463 -2.6163  2.4658
  603TMC3    C7 8943   2.024   1.415  10.751  0.3899 -0.1194  0.6110
  603TMC3    C8 8944   1.935   1.076  11.083 -0.8680 -0.4088  0.7455
  603TMC3    O1 8945   2.118   1.453  10.823  0.3890 -0.0772  0.7637
  603TMC3    O2 8946   1.879   0.970  11.101  0.3367  0.4915 -0.0814
  604MPD2     C 8947   2.999   4.148  16.593 -0.6284  0.1019 -0.7179
  604MPD2    C1 8948   2.887   4.116  16.514 -0.7593 -0.6881  0.1344
  604MPD2    C2 8949   2.903   4.119  16.377 -0.2214 -0.0802  0.0196
  604MPD2    C3 8950   3.025   4.155  16.314  0.3772  0.1877 -0.1996
  604MPD2    C4 8951   3.134   4.175  16.399  0.3317  0.0490 -0.0775
  604MPD2    C5 8952   3.119   4.173  16.536 -0.1634  0.4761 -0.6571
  604MPD2     H 8953   2.812   4.105  16.320  0.8619 -1.3632 -1.4130
  604MPD2    H1 8954   3.235   4.187  16.360  0.0236  2.0429 -0.2228
  604MPD2    H2 8955   2.990   4.150  16.701  1.6334 -0.3724 -0.5246
  604MPD2    H3 8956   3.205   4.194  16.598 -0.5024  1.5272 -0.5398
  604MPD2     N 8957   3.032   4.158  16.173  0.2668 -0.8056  0.4591
  604MPD2    H5 8958   2.944   4.149  16.122  1.0891 -0.4346 -1.0450
  604MPD2    N1 8959   2.764   4.084  16.585 -0.1558  0.3766 -0.1431
  604MPD2    H7 8960   2.761   4.112  16.683  1.8122 -1.1561  0.3642
  605TMC3    C1 8961   2.542   4.006  16.626  0.1424  0.3019  0.8421
  605TMC3    C2 8962   2.573   4.021  16.758  0.4664  0.2955  1.0014
  605TMC3    C3 8963   2.501   4.107  16.840 -0.3202 -0.1953  0.6537
  605TMC3    C4 8964   2.420   4.056  16.587  0.5003  0.4939 -0.2841
  605TMC3    C5 8965   2.340   4.126  16.670 -0.0242  0.6923 -0.1999
  605TMC3    C6 8966   2.380   4.157  16.800 -0.1501  0.1481  0.0803
  605TMC3     C 8967   2.655   4.015  16.534  0.4361 -0.0251  0.4028
  605TMC3     O 8968   2.635   3.987  16.416 -0.0697 -0.1544 -0.0419
  605TMC3     H 8969   2.674   3.988  16.779  0.4621 -1.0160 -1.0037
  605TMC3    H1 8970   2.395   4.038  16.483  0.0482  0.9179 -0.2480
  605TMC3    H2 8971   2.317   4.201  16.877  1.2078  1.1947  0.6032
  605TMC3    C7 8972   2.227   4.203  16.624 -0.1278  0.1540  0.0679
  605TMC3    C8 8973   2.589   4.216  16.857 -0.6656 -0.0278 -0.1936
  605TMC3    O1 8974   2.181   4.293  16.694 -0.4052 -0.0032  0.5035
  605TMC3    O2 8975   2.706   4.182  16.873 -0.7639  0.4492  0.4969
  606TMC3    C1 8976   4.581   3.513  17.640  0.8854  0.4421  0.0933
  606TMC3    C2 8977   4.717   3.544  17.632 -1.1084  0.1449 -0.0965
  606TMC3    C3 8978   0.072   3.557   0.062 -1.4055  0.1630 -0.4987
  606TMC3    C4 8979   4.519   3.509   0.073 -0.0721 -0.0091 -0.4902
  606TMC3    C5 8980   4.596   3.521   0.185  0.4238  0.4155  0.3623
  606TMC3    C6 8981   0.006   3.559   0.182 -0.1993 -0.1268  0.2981
  606TMC3     C 8982   4.515   3.488  17.514  0.1184  0.1987  0.6198
  606TMC3     O 8983   4.591   3.447  17.421  0.2111  0.1582 -0.1283
  606TMC3     H 8984   0.041   3.554  17.534 -0.3452  3.9593  0.6419
  606TMC3    H1 8985   4.415   3.480   0.076 -0.4583  1.4958  0.2027
  606TMC3    H2 8986   0.058   3.568   0.277  0.0735  1.5099 -0.0007
  606TMC3    C7 8987   4.557   3.444   0.304 -0.7393 -0.1068 -0.5317
  606TMC3    C8 8988   0.200   3.498   0.054  0.3165  0.2292  0.3714
  606TMC3    O1 8989   4.602   3.481   0.407  0.3921 -0.4116  0.2164
  606TMC3    O2 8990   0.230   3.438   0.156  0.1702  0.7104  0.1725
  607MPD2     C 8991   1.728   0.881  11.842 -0.5865 -0.0243 -0.1279
  607MPD2    C1 8992   1.811   0.973  11.907 -0.5500  0.7402 -0.4396
  607MPD2    C2 8993   1.841   0.944  12.037 -1.4611  0.4280  0.2476
  607MPD2    C3 8994   1.791   0.843  12.111  0.2153  0.1273  0.0347
  607MPD2    C4 8995   1.705   0.758  12.045  0.2153 -0.2443 -0.5687
  607MPD2    C5 8996   1.676   0.772  11.909  0.4937 -0.0967  0.0537
  607MPD2     H 8997   1.913   1.012  12.083  1.3944 -2.9577  0.8196
  607MPD2    H1 8998   1.652   0.675  12.090  1.2730 -0.5320  0.1437
  607MPD2    H2 8999   1.705   0.884  11.736 -1.6379  2.0875  0.1498
  607MPD2    H3 9000   1.609   0.707  11.855  1.0257  0.5207 -1.3589
  607MPD2     N 9001   1.841   0.824  12.245 -0.7458 -0.2199  0.3174
  607MPD2    H5 9002   1.910   0.887  12.284  0.0895 -0.0699 -1.4170
  607MPD2    N1 9003   1.867   1.092  11.847  0.2905  0.2027  0.0796
  607MPD2    H7 9004   1.917   1.148  11.915  0.9618 -1.6762  1.1245
  608TMC3    C1 9005   1.990   1.214  11.688  1.2145  0.0832 -0.5157
  608TMC3    C2 9006   2.099   1.186  11.764  0.2452 -0.2125  0.2003
  608TMC3    C3 9007   2.205   1.269  11.750 -0.3208  0.0960  0.4989
  608TMC3    C4 9008   1.982   1.312  11.599 -0.4175  0.1396  0.2210
  608TMC3    C5 9009   2.084   1.399  11.591  0.4506  0.3023  0.0770
  608TMC3    C6 9010   2.200   1.375  11.659  0.2985  0.6242  0.0228
  608TMC3     C 9011   1.860   1.145  11.722  0.5779 -0.1396  0.2605
  608TMC3     O 9012   1.781   1.114  11.628 -0.5925  0.6105 -0.3262
  608TMC3     H 9013   2.103   1.085  11.804  1.2638  0.0358  0.7107
  608TMC3    H1 9014   1.887   1.345  11.557 -0.1741  1.9792  1.0861
  608TMC3    H2 9015   2.283   1.445  11.651 -0.3172  1.4617  0.9312
  608TMC3    C7 9016   2.068   1.500  11.493  0.1409 -0.7233 -0.0340
  608TMC3    C8 9017   2.307   1.275  11.857 -0.3263 -0.5703 -0.0671
  608TMC3    O1 9018   2.009   1.474  11.388  0.6983 -0.2278 -0.3651
  608TMC3    O2 9019   2.414   1.330  11.828  0.6909  0.4232 -0.3702
  609TMC3    C1 9020   0.095   4.229   9.052  0.1326  0.0817 -0.6111
  609TMC3    C2 9021   0.095   4.364   9.020  0.5955  0.1694 -0.2044
  609TMC3    C3 9022   0.211   4.439   9.013  0.5044  0.0844  0.0471
  609TMC3    C4 9023   0.213   4.170   9.093  0.1323  0.2603 -0.2194
  609TMC3    C5 9024   0.321   4.252   9.094 -0.7280 -0.3426  0.2323
  609TMC3    C6 9025   0.326   4.380   9.043 -0.1356 -0.1600 -1.2143
  609TMC3     C 9026   4.688   4.161   9.073 -0.5965 -0.2182  0.3222
  609TMC3     O 9027   4.590   4.230   9.101  0.7302  0.3719  0.3735
  609TMC3     H 9028   0.013   4.420   8.975  2.4105  1.6502 -1.6737
  609TMC3    H1 9029   0.201   4.074   9.141 -1.2566  0.5461  0.0102
  609TMC3    H2 9030   0.426   4.423   9.037  0.3095 -0.8353  1.3102
  609TMC3    C7 9031   0.457   4.194   9.108  0.2572 -0.0907 -0.3921
  609TMC3    C8 9032   0.191   4.562   9.080 -0.8055 -0.0364  0.4460
  609TMC3    O1 9033   0.542   4.263   9.153  0.4366  0.5893  0.0835
  609TMC3    O2 9034   0.082   4.574   9.127  0.2671  0.1908  0.3960
  610TMC3    C1 9035   1.600   0.683  12.794  0.5046  0.3413  0.5092
  610TMC3    C2 9036   1.711   0.757  12.815 -0.8919  0.3872  0.3436
  610TMC3    C3 9037   1.830   0.693  12.836 -0.2159  0.2132  0.4008
  610TMC3    C4 9038   1.601   0.548  12.774 -0.0280 -0.3902  0.7351
  610TMC3    C5 9039   1.726   0.490  12.793  0.5266  0.0058  0.1174
  610TMC3    C6 9040   1.844   0.556  12.826  0.1623 -0.1483 -0.6472
  610TMC3     C 9041   1.467   0.746  12.790  0.2773  0.0970 -0.5705
  610TMC3     O 9042   1.372   0.666  12.796  0.2829 -0.2218 -0.2033
  610TMC3     H 9043   1.707   0.862  12.842  0.9700  1.0954 -2.0313
  610TMC3    H1 9044   1.514   0.486  12.753 -0.4384  0.2412  0.5634
  610TMC3    H2 9045   1.934   0.499  12.845  0.5131  0.0519 -1.7164
  610TMC3    C7 9046   1.715   0.346  12.809 -0.2237  0.3436  0.3295
  610TMC3    C8 9047   1.955   0.767  12.850  0.1299 -0.1789 -0.1923
  610TMC3    O1 9048   1.623   0.289  12.754 -0.5447  0.2541 -0.3137
  610TMC3    O2 9049   2.048   0.712  12.903  0.6113  0.1281  0.6056
  611MPD2     C 9050   1.260   1.234   9.945  0.2674 -0.2304 -0.2932
  611MPD2    C1 9051   1.348   1.247  10.049 -0.7245 -0.4636  0.2206
  611MPD2    C2 9052   1.458   1.329  10.044 -0.1129  0.0485 -1.1661
  611MPD2    C3 9053   1.479   1.391   9.913 -0.6996  0.0100 -0.7944
  611MPD2    C4 9054   1.389   1.378   9.809  0.1444 -0.9195 -0.1185
  611MPD2    C5 9055   1.281   1.297   9.823  0.1199 -0.6167 -0.4769
  611MPD2     H 9056   1.526   1.341  10.127 -1.4939  1.0715 -0.1764
  611MPD2    H1 9057   1.405   1.440   9.722 -1.5852  0.6201  0.6472
  611MPD2    H2 9058   1.177   1.165   9.950 -0.7516  0.9854 -0.5265
  611MPD2    H3 9059   1.203   1.287   9.748 -0.4800  0.6052 -0.0153
  611MPD2     N 9060   1.595   1.456   9.884 -0.8814 -0.8699  0.3108
  611MPD2    H5 9061   1.610   1.495   9.792  0.4566 -1.9324  0.0866
  611MPD2    N1 9062   1.304   1.190  10.169  0.0700  0.7050 -0.0481
  611MPD2    H7 9063   1.209   1.155  10.169 -0.2840  1.6676  0.7989
  612TMC3    C1 9064   1.803   1.548   9.908  0.2412  0.1980 -0.5393
  612TMC3    C2 9065   1.927   1.536   9.969 -0.0883  0.4213  0.5335
  612TMC3    C3 9066   2.017   1.635   9.952 -0.0406  0.1776 -0.0496
  612TMC3    C4 9067   1.754   1.670   9.871 -0.9392 -0.5008 -0.4236
  612TMC3    C5 9068   1.833   1.778   9.886  0.6454  0.3424  0.2326
  612TMC3    C6 9069   1.968   1.755   9.918 -0.0691 -0.4601 -0.3954
  612TMC3     C 9070   1.708   1.455   9.957  0.0028  0.2061  0.2255
  612TMC3     O 9071   1.735   1.395  10.061  0.0784 -0.2477  0.1701
  612TMC3     H 9072   1.958   1.434   9.989  2.8793  0.8677 -1.7119
  612TMC3    H1 9073   1.660   1.682   9.818 -0.1919  1.6104 -1.3041
  612TMC3    H2 9074   2.040   1.836   9.917  2.6956 -2.9342 -1.7666
  612TMC3    C7 9075   1.776   1.911   9.844  0.8434  0.0795  0.1566
  612TMC3    C8 9076   2.114   1.646  10.062 -0.8676  1.0283  0.4699
  612TMC3    O1 9077   1.673   1.918   9.779  0.0394  0.2167  0.4588
  612TMC3    O2 9078   2.201   1.730  10.048  0.2786  0.2391 -0.3610
  613MPD2     C 9079   0.538   3.015  16.727 -0.2155 -0.7518  0.1430
  613MPD2    C1 9080   0.457   3.123  16.708  0.0447  0.6321  0.2086
  613MPD2    C2 9081   0.321   3.107  16.678  0.1482  0.8054 -0.0863
  613MPD2    C3 9082   0.282   2.976  16.657 -0.1534 -0.7637  0.3323
  613MPD2    C4 9083   0.357   2.869  16.673 -0.1869  0.0009 -0.3605
  613MPD2    C5 9084   0.484   2.886  16.719 -0.3061  1.0852 -0.1171
  613MPD2     H 9085   0.256   3.187  16.645 -0.3409 -0.5004 -2.2468
  613MPD2    H1 9086   0.328   2.768  16.647 -1.4444 -0.1641  1.7197
  613MPD2    H2 9087   0.637   3.030  16.770 -0.4594 -0.6852  0.6777
  613MPD2    H3 9088   0.548   2.799  16.724 -1.5515  0.1176 -0.9430
  613MPD2     N 9089   0.153   2.948  16.614 -0.2731  0.5749 -0.6739
  613MPD2    H5 9090   0.138   2.851  16.587  1.4386  0.8043 -2.4279
  613MPD2    N1 9091   0.517   3.249  16.724 -0.6557  0.6077 -0.6480
  613MPD2    H7 9092   0.617   3.253  16.739 -0.8822 -3.1637  1.8856
  614TMC3    C1 9093   0.569   3.447  16.618 -0.1953  0.0924  0.7798
  614TMC3    C2 9094   0.603   3.381  16.500 -0.0764 -0.0882 -0.0061
  614TMC3    C3 9095   0.583   3.439  16.380  0.4110 -0.4592 -0.2783
  614TMC3    C4 9096   0.532   3.578  16.608 -0.7764  0.5442 -0.3060
  614TMC3    C5 9097   0.511   3.633  16.485  0.2208  0.5882 -0.7631
  614TMC3    C6 9098   0.538   3.564  16.365  0.0467  0.7924  0.6777
  614TMC3     C 9099   0.466   3.370  16.687  0.2936 -0.1827  0.1928
  614TMC3     O 9100   0.355   3.416  16.675 -0.4611 -0.2416  0.1998
  614TMC3     H 9101   0.622   3.274  16.498 -0.9659 -0.2652  0.8225
  614TMC3    H1 9102   0.503   3.643  16.690 -1.9465  0.0311 -0.3121
  614TMC3    H2 9103   0.512   3.597  16.265 -0.1865 -0.8562  0.1913
  614TMC3    C7 9104   0.394   3.722  16.477 -0.4735  1.0576 -0.4405
  614TMC3    C8 9105   0.509   3.357  16.295  0.4558  0.2048 -0.1081
  614TMC3    O1 9106   0.380   3.813  16.557  0.2864 -0.5551  0.0127
  614TMC3    O2 9107   0.398   3.400  16.262  0.8253 -0.0123  0.6495
  615MPD2     C 9108   0.306   4.539  16.268  0.4973  0.3453  0.3466
  615MPD2    C1 9109   0.196   4.606  16.296  0.1666 -0.1748  0.7384
  615MPD2    C2 9110   0.092   4.601  16.206  0.3765  0.1556 -0.3244
  615MPD2    C3 9111   0.108   4.539  16.086  0.2857  0.4885 -0.0662
  615MPD2    C4 9112   0.224   4.460  16.057  0.6467 -0.0199 -0.9969
  615MPD2    C5 9113   0.324   4.464  16.152 -0.0686 -0.0466 -0.4969
  615MPD2     H 9114   4.718   4.645  16.233 -0.0567 -0.0154 -1.5669
  615MPD2    H1 9115   0.231   4.395  15.971  1.7976  0.0615 -0.9665
  615MPD2    H2 9116   0.381   4.525  16.344 -1.9857 -1.9035  2.3858
  615MPD2    H3 9117   0.416   4.408  16.139 -0.0148 -0.3460  1.1930
  615MPD2     N 9118   0.010   4.543  15.981 -0.7477 -0.1923 -0.0676
  615MPD2    H5 9119   0.034   4.492  15.897  0.6381 -1.0339  0.8425
  615MPD2    N1 9120   0.187   4.684  16.418 -0.0643 -0.4850  0.3609
  615MPD2    H7 9121   0.094   4.701  16.455 -0.0250  0.1605  0.1690
  616TMC3    C1 9122   0.238   0.075  16.616 -0.6378  0.4244  0.3601
  616TMC3    C2 9123   0.328   0.137  16.693 -0.0079  0.6244  0.1593
  616TMC3    C3 9124   0.291   0.207  16.799 -0.3003 -0.4227  0.4955
  616TMC3    C4 9125   0.105   0.081  16.656  0.1608 -0.3720  0.0622
  616TMC3    C5 9126   0.073   0.164  16.758 -0.1420 -0.1094 -0.4638
  616TMC3    C6 9127   0.163   0.228  16.835 -0.7420  0.1568 -0.1536
  616TMC3     C 9128   0.289   0.000  16.501 -0.7345  0.1524 -0.1426
  616TMC3     O 9129   0.408   0.001  16.471 -0.0141  0.2542  0.0237
  616TMC3     H 9130   0.430   0.137  16.656 -0.1186  2.2550 -0.1433
  616TMC3    H1 9131   0.022   0.043  16.598 -0.3875  0.4009  0.3311
  616TMC3    H2 9132   0.134   0.297  16.913  0.3688 -0.7593  1.0729
  616TMC3    C7 9133   4.655   0.183  16.802  0.2117  1.1265 -0.1604
  616TMC3    C8 9134   0.392   0.258  16.891  0.1179 -0.4755 -0.1165
  616TMC3    O1 9135   4.636   0.273  16.884  0.0134 -0.2594 -0.2847
  616TMC3    O2 9136   0.354   0.307  16.995 -0.8898 -0.3545  0.6946
  617MPD2     C 9137   2.432   3.029  13.738 -0.7660 -0.7113 -0.0732
  617MPD2    C1 9138   2.413   2.891  13.734 -0.0623 -0.4108  0.6503
  617MPD2    C2 9139   2.408   2.820  13.853  0.6476  0.3960 -0.3093
  617MPD2    C3 9140   2.391   2.889  13.972  0.5336  0.0833 -0.3134
  617MPD2    C4 9141   2.386   3.023  13.969 -0.1212  0.1131 -0.5460
  617MPD2    C5 9142   2.416   3.093  13.852  0.3669  0.2759 -0.5615
  617MPD2     H 9143   2.390   2.713  13.854  2.8593  0.0194 -0.2298
  617MPD2    H1 9144   2.376   3.073  14.065  0.7059 -0.1588 -0.3190
  617MPD2    H2 9145   2.474   3.075  13.649 -0.0461 -1.8970 -0.3464
  617MPD2    H3 9146   2.415   3.202  13.851 -2.1283  0.2392 -1.1296
  617MPD2     N 9147   2.358   2.831  14.093 -0.4046 -0.2136  0.0094
  617MPD2    H5 9148   2.311   2.891  14.159  0.8202 -1.7771  2.3155
  617MPD2    N1 9149   2.429   2.825  13.613 -0.2479  0.0782 -0.2605
  617MPD2    H7 9150   2.429   2.882  13.529 -3.9448  1.7731  0.8784
  618TMC3    C1 9151   2.456   2.656  13.460 -0.5019 -0.0802 -0.3137
  618TMC3    C2 9152   2.551   2.732  13.399  0.0310  0.5096  0.7316
  618TMC3    C3 9153   2.644   2.655  13.329 -0.5692 -0.8671  0.2171
  618TMC3    C4 9154   2.454   2.521  13.445  0.0457 -0.2938 -0.3122
  618TMC3    C5 9155   2.548   2.458  13.365  0.3536  0.0422  0.1157
  618TMC3    C6 9156   2.651   2.521  13.311 -0.6647  0.9596 -0.7097
  618TMC3     C 9157   2.441   2.694  13.600  0.5153  1.1904  0.1551
  618TMC3     O 9158   2.446   2.601  13.678 -0.4777 -0.4897 -0.4494
  618TMC3     H 9159   2.553   2.841  13.398  0.8126  0.4955  0.8334
  618TMC3    H1 9160   2.368   2.475  13.491  1.3065 -2.9920 -0.6203
  618TMC3    H2 9161   2.717   2.461  13.249 -0.5574  0.6772 -0.3207
  618TMC3    C7 9162   2.585   2.321  13.404 -0.2997 -0.9080 -0.1057
  618TMC3    C8 9163   2.754   2.738  13.275 -0.2239  0.1337 -0.0774
  618TMC3    O1 9164   2.671   2.264  13.333  0.1076  0.5713  0.7886
  618TMC3    O2 9165   2.740   2.860  13.279 -0.6111 -0.3412 -0.2305
  619MPD2     C 9166   4.289   4.213  13.943  0.8238  0.0733 -0.3791
  619MPD2    C1 9167   4.214   4.294  13.854 -0.4188  0.1327  0.0069
  619MPD2    C2 9168   4.108   4.236  13.794  0.6051 -0.2399  0.3079
  619MPD2    C3 9169   4.070   4.102  13.820 -0.1662  1.2042 -1.0201
  619MPD2    C4 9170   4.139   4.031  13.916 -0.1362  0.0198 -0.0877
  619MPD2    C5 9171   4.243   4.089  13.976  0.7254  0.4248 -0.6028
  619MPD2     H 9172   4.055   4.295  13.720  1.4938 -1.7005 -1.5272
  619MPD2    H1 9173   4.112   3.930  13.947 -2.5879  0.3702 -1.0806
  619MPD2    H2 9174   4.379   4.243  13.995 -0.2520  1.1019  0.8969
  619MPD2    H3 9175   4.283   4.034  14.061  0.2527 -0.8487 -1.2044
  619MPD2     N 9176   3.958   4.041  13.769  0.0643 -0.8136 -0.1884
  619MPD2    H5 9177   3.934   3.956  13.819 -0.1853 -1.2059 -0.9913
  619MPD2    N1 9178   4.265   4.425  13.823 -0.4917  0.0795 -0.0932
  619MPD2    H7 9179   4.220   4.484  13.753 -1.0426  1.1332  1.1430
  620TMC3    C1 9180   4.409   4.613  13.818  0.5869 -0.0861  0.7226
  620TMC3    C2 9181   4.365   4.639  13.696  0.2327  0.1949 -0.6632
  620TMC3    C3 9182   4.331   0.050  13.665  0.0650  0.4187 -0.4252
  620TMC3    C4 9183   4.423   4.709  13.915  0.3752  0.3023 -0.3846
  620TMC3    C5 9184   4.394   0.119  13.881  1.2545 -0.1653  0.2822
  620TMC3    C6 9185   4.354   0.150  13.757  1.0914  0.3335  0.6940
  620TMC3     C 9186   4.377   4.488  13.876  0.7775 -0.1999 -0.1988
  620TMC3     O 9187   4.437   4.450  13.972  0.4472  0.2681 -0.0553
  620TMC3     H 9188   4.349   4.560  13.623  0.5682 -0.8731  0.4171
  620TMC3    H1 9189   4.439   4.681  14.018  0.8379  0.7797 -0.3242
  620TMC3    H2 9190   4.335   0.252  13.724  0.6004 -0.0130 -0.0990
  620TMC3    C7 9191   4.308   0.185  13.985  0.0292  0.2997 -0.0445
  620TMC3    C8 9192   4.204   0.077  13.588  0.1806 -0.1076  0.1279
  620TMC3    O1 9193   4.311   0.146  14.102  0.2423  0.4743 -0.0178
  620TMC3    O2 9194   4.136   0.175  13.606 -0.1104 -0.0175  0.1172
  621MPD2     C 9195   4.183   3.295  10.716  0.3492  0.4470 -0.4498
  621MPD2    C1 9196   4.124   3.280  10.594  0.5422  0.0318  0.2347
  621MPD2    C2 9197   4.141   3.373  10.499  0.6079 -0.0612  0.3509
  621MPD2    C3 9198   4.205   3.494  10.520  0.1141  0.2032 -0.6139
  621MPD2    C4 9199   4.252   3.516  10.652 -0.3362 -0.4804 -0.8646
  621MPD2    C5 9200   4.241   3.412  10.744 -0.1037  0.0279  0.4458
  621MPD2     H 9201   4.095   3.359  10.402  1.5593  0.0377 -0.1107
  621MPD2    H1 9202   4.307   3.603  10.685 -0.0654 -0.4456 -1.4207
  621MPD2    H2 9203   4.165   3.212  10.783  1.6061  0.8308  0.3360
  621MPD2    H3 9204   4.275   3.424  10.846 -0.2300  2.0731  0.2513
  621MPD2     N 9205   4.233   3.577  10.411 -0.1553  0.2520  0.0013
  621MPD2    H5 9206   4.213   3.534  10.321 -2.9282 -0.1822  0.8417
  621MPD2    N1 9207   4.050   3.165  10.569  0.6846  0.3488 -0.3347
  621MPD2    H7 9208   3.974   3.170  10.502 -1.5768 -3.5586  1.8822
  622TMC3    C1 9209   3.964   2.950  10.550 -0.7649 -0.0263  0.4308
  622TMC3    C2 9210   3.836   3.003  10.554 -0.4339  0.8369  0.4146
  622TMC3    C3 9211   3.741   2.926  10.484  0.5852 -0.2202 -0.2882
  622TMC3    C4 9212   4.011   2.857  10.458  0.5975  0.1780  0.1349
  622TMC3    C5 9213   3.912   2.800  10.382 -0.1092 -0.5362  0.1432
  622TMC3    C6 9214   3.776   2.829  10.397 -0.5626 -0.4693  0.3673
  622TMC3     C 9215   4.069   3.036  10.610 -0.3831 -0.4589 -0.1952
  622TMC3     O 9216   4.176   2.989  10.652 -0.3840  0.4184 -0.1203
  622TMC3     H 9217   3.796   3.071  10.628  2.1314  0.4972  2.1312
  622TMC3    H1 9218   4.114   2.823  10.465  0.3450 -0.7267 -0.6535
  622TMC3    H2 9219   3.711   2.792  10.319 -2.1449  0.5961  1.1765
  622TMC3    C7 9220   3.959   2.742  10.259 -0.4796  0.0329  0.2531
  622TMC3    C8 9221   3.608   2.973  10.463  0.0318  0.6458  0.2918
  622TMC3    O1 9222   3.886   2.662  10.200  0.1359  0.2281 -0.3964
  622TMC3    O2 9223   3.530   2.896  10.412 -0.2180 -0.1538  0.6919
  623MPD2     C 9224   3.066   4.671  15.877 -0.4777  0.1042 -0.1261
  623MPD2    C1 9225   2.992   0.001  15.982  0.3025  0.6258  0.2891
  623MPD2    C2 9226   3.024   4.696  16.110  0.2675  0.2883 -0.3765
  623MPD2    C3 9227   3.139   4.621  16.132 -0.1136  0.3848  0.2209
  623MPD2    C4 9228   3.219   4.571  16.024 -0.1440 -0.4990 -0.0763
  623MPD2    C5 9229   3.177   4.594  15.897  1.5375  1.0058  0.1824
  623MPD2     H 9230   2.965   0.012  16.193 -0.1790  0.6259 -0.8484
  623MPD2    H1 9231   3.304   4.508  16.048  1.3906  1.4752 -0.2922
  623MPD2    H2 9232   3.041   4.678  15.772  0.6922 -2.0794 -0.5404
  623MPD2    H3 9233   3.226   4.557  15.808  0.3255 -1.1053  0.3969
  623MPD2     N 9234   3.169   4.592  16.268 -0.0748 -0.0445 -0.3398
  623MPD2    H5 9235   3.098   4.629  16.330  0.1907  0.1640 -0.1621
  623MPD2    N1 9236   2.886   0.095  15.961  0.1780  0.0117 -0.8109
  623MPD2    H7 9237   2.863   0.144  16.047 -2.9966 -0.5831 -1.2901
  624TMC3    C1 9238   3.371   4.416  16.653  1.0872 -0.1558  1.2783
  624TMC3    C2 9239   3.267   4.464  16.734  0.4194 -0.2887 -0.3601
  624TMC3    C3 9240   3.165   4.513  16.666  0.0024 -0.5104 -0.0212
  624TMC3    C4 9241   3.377   4.432  16.518  0.4028 -0.0792  0.4552
  624TMC3    C5 9242   3.268   4.486  16.460  0.0690 -0.3915  0.3864
  624TMC3    C6 9243   3.159   4.516  16.530  0.3437  0.7457  0.3313
  624TMC3     C 9244   3.500   4.405  16.732 -0.4858 -0.1202 -0.0898
  624TMC3     O 9245   3.521   4.501  16.808 -0.0205 -0.0642 -0.0521
  624TMC3     H 9246   3.271   4.470  16.843 -3.9200  1.2338 -0.2954
  624TMC3    H1 9247   3.475   4.420  16.473 -1.0486  0.8513 -2.9504
  624TMC3    H2 9248   3.064   4.540  16.484 -0.4738 -2.6528  0.2198
  624TMC3    C7 9249   3.271   4.514  16.314  0.2876 -0.4771 -0.0348
  624TMC3    C8 9250   3.040   4.486  16.730 -0.7612  0.3882  0.0085
  624TMC3    O1 9251   3.373   4.478  16.257 -0.0507 -0.4623  0.1010
  624TMC3    O2 9252   3.029   4.386  16.799 -0.1077  0.2309  0.2133
  625MPD2     C 9253   3.722   0.424   0.439 -0.3183  0.0455  0.1059
  625MPD2    C1 9254   3.739   0.560   0.465 -0.1829 -0.1418 -0.0843
  625MPD2    C2 9255   3.845   0.596   0.541  0.5121 -0.0418  0.3110
  625MPD2    C3 9256   3.937   0.506   0.596 -0.6196  0.0788 -0.4864
  625MPD2    C4 9257   3.918   0.369   0.576  0.3632 -0.0110 -0.0616
  625MPD2    C5 9258   3.820   0.338   0.487  0.1422 -0.0884 -0.0348
  625MPD2     H 9259   3.856   0.699   0.573 -3.0732  0.0532  1.2702
  625MPD2    H1 9260   3.971   0.280   0.606 -1.9948 -1.0505  1.0053
  625MPD2    H2 9261   3.644   0.384   0.375  1.4048 -0.2089 -1.8478
  625MPD2    H3 9262   3.816   0.230   0.472 -0.5720 -0.4066  2.4617
  625MPD2     N 9263   4.031   0.558   0.686 -0.3719  0.1809  0.1436
  625MPD2    H5 9264   4.031   0.658   0.703  0.2392  0.2624 -0.3383
  625MPD2    N1 9265   3.647   0.657   0.423 -0.3994  0.1410  0.0996
  625MPD2    H7 9266   3.665   0.747   0.466 -0.6403  0.3723 -0.2899
  626TMC3    C1 9267   3.469   0.758   0.316 -0.0656 -0.5853 -0.1395
  626TMC3    C2 9268   3.438   0.797   0.186 -0.3078  0.2530 -0.3607
  626TMC3    C3 9269   3.349   0.898   0.165 -0.3099 -0.2401  0.3187
  626TMC3    C4 9270   3.406   0.807   0.423  0.1348  0.0307  0.4296
  626TMC3    C5 9271   3.313   0.909   0.398 -0.2090  0.2911  0.3066
  626TMC3    C6 9272   3.286   0.953   0.271 -0.3424 -0.3723 -0.4994
  626TMC3     C 9273   3.548   0.637   0.330  0.4815  0.0997  0.2597
  626TMC3     O 9274   3.520   0.548   0.248  0.9785  0.2663 -0.6483
  626TMC3     H 9275   3.496   0.765   0.100  0.0542  0.5727 -0.2356
  626TMC3    H1 9276   3.439   0.775   0.521  0.6120  0.0532  0.2725
  626TMC3    H2 9277   3.225   1.039   0.249 -0.0920  0.2243  1.0991
  626TMC3    C7 9278   3.230   0.962   0.510  0.0762  0.2351  0.2577
  626TMC3    C8 9279   3.334   0.949   0.030 -0.6912  0.2213 -0.3171
  626TMC3    O1 9280   3.266   0.916   0.618  0.4974 -0.3818 -0.0217
  626TMC3    O2 9281   3.296   1.067   0.005  0.1791 -0.5107  0.3117
  627MPD2     C 9282   2.209   1.444  14.625  0.1875  0.1836  0.1066
  627MPD2    C1 9283   2.294   1.397  14.720 -0.2663  0.2116  0.2309
  627MPD2    C2 9284   2.257   1.279  14.779  0.4979  0.8939  0.3896
  627MPD2    C3 9285   2.144   1.210  14.735  0.5541  0.4851 -0.2793
  627MPD2    C4 9286   2.057   1.265  14.643 -0.3578 -0.2762 -0.3217
  627MPD2    C5 9287   2.094   1.381  14.586  0.4939  0.0286 -0.3417
  627MPD2     H 9288   2.323   1.226  14.847 -3.1801  0.0533  3.3372
  627MPD2    H1 9289   1.963   1.225  14.608 -1.7253  0.9956  1.9839
  627MPD2    H2 9290   2.239   1.531  14.567  0.5772 -0.5931 -0.8591
  627MPD2    H3 9291   2.028   1.423  14.511  1.3290  1.7144 -0.1490
  627MPD2     N 9292   2.109   1.086  14.799 -0.9888 -0.8544  0.3302
  627MPD2    H5 9293   2.152   1.077  14.891 -1.6413  1.1631  0.8280
  627MPD2    N1 9294   2.414   1.464  14.760 -0.1313  0.6293 -0.3477
  627MPD2    H7 9295   2.475   1.418  14.827  3.2635  0.0232 -3.7748
  628TMC3    C1 9296   2.550   1.650  14.819  0.3499  0.5064  0.8758
  628TMC3    C2 9297   2.656   1.571  14.846 -0.9764 -0.6037  0.4892
  628TMC3    C3 9298   2.770   1.638  14.887 -0.6061  0.0225  1.1589
  628TMC3    C4 9299   2.546   1.786  14.836 -0.0198  0.8891  0.1663
  628TMC3    C5 9300   2.662   1.845  14.883 -0.7754  1.4879  0.1087
  628TMC3    C6 9301   2.773   1.774  14.918 -0.7107 -0.1291 -0.2808
  628TMC3     C 9302   2.440   1.598  14.739 -0.0124 -0.0338  0.3741
  628TMC3     O 9303   2.366   1.680  14.689 -0.6972 -0.4840  0.6221
  628TMC3     H 9304   2.669   1.465  14.828 -4.0563 -0.9986  0.5189
  628TMC3    H1 9305   2.452   1.839  14.834 -0.8553 -0.6760 -1.3344
  628TMC3    H2 9306   2.868   1.825  14.908 -1.8148  1.7470 -1.3612
  628TMC3    C7 9307   2.674   1.989  14.899  0.4338  0.0603 -0.1104
  628TMC3    C8 9308   2.891   1.571  14.838 -0.5440  0.2341  0.3780
  628TMC3    O1 9309   2.765   2.035  14.967 -0.0886  0.4897  0.0365
  628TMC3    O2 9310   2.880   1.521  14.726 -0.2813 -0.2673 -0.1493
  629MPD2     C 9311   0.877   0.221  17.043  0.0602 -0.4704 -0.8850
  629MPD2    C1 9312   0.873   0.242  16.906 -0.4658 -0.2768 -0.0958
  629MPD2    C2 9313   0.752   0.247  16.839  0.0625  0.5918 -0.0211
  629MPD2    C3 9314   0.635   0.240  16.918  0.6822  0.1581  0.3031
  629MPD2    C4 9315   0.636   0.221  17.059 -0.0040  0.0266  0.7151
  629MPD2    C5 9316   0.763   0.206  17.108 -0.0472  0.4275  0.3776
  629MPD2     H 9317   0.747   0.266  16.732  0.3530 -0.3824 -0.2110
  629MPD2    H1 9318   0.542   0.214  17.112  0.4724  3.5143  2.0078
  629MPD2    H2 9319   0.972   0.209  17.095  0.1614  0.2210 -0.9153
  629MPD2    H3 9320   0.766   0.195  17.216 -0.2103 -1.6258  0.1784
  629MPD2     N 9321   0.519   0.238  16.841  0.5885 -0.4904 -0.3110
  629MPD2    H5 9322   0.531   0.218  16.742 -0.0534  3.6953 -1.2332
  629MPD2    N1 9323   1.002   0.256  16.847  0.2413  0.8840 -0.1378
  629MPD2    H7 9324   1.078   0.254  16.915 -0.8179 -2.0949  0.9514
  630TMC3    C1 9325   1.160   0.328  16.700 -0.1342 -0.2212 -0.3883
  630TMC3    C2 9326   1.170   0.434  16.620 -0.7092  0.2127 -0.0174
  630TMC3    C3 9327   1.273   0.527  16.640 -0.5277 -0.1930 -0.5715
  630TMC3    C4 9328   1.233   0.303  16.816 -0.1319  0.0843 -0.3749
  630TMC3    C5 9329   1.325   0.412  16.838  0.3706 -0.2653  0.3382
  630TMC3    C6 9330   1.342   0.522  16.752  0.0545 -0.5027  0.0452
  630TMC3     C 9331   1.022   0.275  16.713  0.1744 -0.6353  0.0463
  630TMC3     O 9332   0.946   0.279  16.618  0.1681  0.0569  0.4278
  630TMC3     H 9333   1.092   0.436  16.545 -0.9048 -0.2006  0.1785
  630TMC3    H1 9334   1.236   0.206  16.864 -1.2598  0.3790  0.2921
  630TMC3    H2 9335   1.402   0.606  16.784  2.1815 -2.7399  1.8846
  630TMC3    C7 9336   1.392   0.407  16.966 -0.5412  0.2028 -0.1302
  630TMC3    C8 9337   1.346   0.589  16.528  0.1976  0.2960 -1.0920
  630TMC3    O1 9338   1.333   0.339  17.047  0.0103 -0.2042 -0.0648
  630TMC3    O2 9339   1.443   0.656  16.562 -0.2579  0.4754  0.2603
  631MPD2     C 9340   3.776   0.207  15.658  0.5563 -0.0717  0.0831
  631MPD2    C1 9341   3.857   0.238  15.552  0.0582 -0.5718  0.1528
  631MPD2    C2 9342   3.982   0.178  15.541  0.4349 -0.1054 -0.1337
  631MPD2    C3 9343   4.031   0.091  15.642  0.1022  0.2579  0.7623
  631MPD2    C4 9344   3.948   0.066  15.748  0.3860 -0.3249 -0.7595
  631MPD2    C5 9345   3.823   0.127  15.755 -0.6235 -0.0304 -0.5985
  631MPD2     H 9346   4.055   0.194  15.463 -1.4427  1.5660 -1.5494
  631MPD2    H1 9347   3.975   0.008  15.836 -0.5596 -0.4046 -0.5166
  631MPD2    H2 9348   3.677   0.249  15.670  1.2992  1.7966 -0.3143
  631MPD2    H3 9349   3.752   0.114  15.836  0.9578 -0.3015  0.7457
  631MPD2     N 9350   4.156   0.039  15.641  0.0477  0.1796 -0.1036
  631MPD2    H5 9351   4.211   0.067  15.560  0.5462 -0.8395 -0.1168
  631MPD2    N1 9352   3.816   0.337  15.463  0.4714 -0.0976  0.1669
  631MPD2    H7 9353   3.732   0.391  15.482  0.6235 -0.7562  2.7265
  632TMC3    C1 9354   3.863   0.518  15.336 -0.4071 -0.5825  0.2526
  632TMC3    C2 9355   3.838   0.599  15.446  0.1126 -0.8622 -0.8577
  632TMC3    C3 9356   3.852   0.736  15.440  0.3432  0.1297  0.3078
  632TMC3    C4 9357   3.925   0.571  15.222  0.5108 -0.1346  0.4544
  632TMC3    C5 9358   3.926   0.712  15.219 -0.5665 -0.1866 -1.0680
  632TMC3    C6 9359   3.897   0.793  15.325 -0.1991 -0.3391 -0.4380
  632TMC3     C 9360   3.881   0.373  15.353  0.0260 -0.2339  1.1279
  632TMC3     O 9361   3.961   0.309  15.291  0.1592 -0.1067 -0.0433
  632TMC3     H 9362   3.803   0.562  15.542 -0.2283 -2.2653 -1.5353
  632TMC3    H1 9363   3.936   0.504  15.137 -0.3123 -0.5497  0.6806
  632TMC3    H2 9364   3.888   0.899  15.304  0.0883 -0.5649 -1.6962
  632TMC3    C7 9365   3.983   0.765  15.100 -0.7535  0.7089 -0.6733
  632TMC3    C8 9366   3.743   0.813  15.488  0.4010  0.3734  0.1154
  632TMC3    O1 9367   3.961   0.699  14.996 -0.0646 -0.1824 -0.6323
  632TMC3    O2 9368   3.636   0.748  15.499  0.3888 -0.3906  0.5022
  633MPD2     C 9369   3.656   3.237  17.642  0.1234  0.2515 -0.4420
  633MPD2    C1 9370   3.677   3.127  17.563 -0.2907  0.0564  0.5185
  633MPD2    C2 9371   3.740   3.026  17.630 -0.7771  0.3239 -0.1100
  633MPD2    C3 9372   3.776   3.042   0.076  0.1395 -0.2402  0.1504
  633MPD2    C4 9373   3.743   3.153   0.153 -0.5581  0.5641  0.5226
  633MPD2    C5 9374   3.683   3.248   0.089 -0.5780 -0.8066 -0.0011
  633MPD2     H 9375   3.767   2.941  17.569  2.5677  0.5803  1.0678
  633MPD2    H1 9376   3.767   3.154   0.259  0.6951  0.0352  0.2444
  633MPD2    H2 9377   3.622   3.331  17.600 -0.9832  1.2103  2.5522
  633MPD2    H3 9378   3.661   3.342   0.138 -0.4496 -0.4426 -0.6395
  633MPD2     N 9379   3.837   2.942   0.146  0.0031  0.3747 -0.2685
  633MPD2    H5 9380   3.861   2.956   0.244 -0.5990 -1.9743  0.1972
  633MPD2    N1 9381   3.646   3.118  17.422  0.1762  0.6416 -0.1423
  633MPD2    H7 9382   3.688   3.036  17.379 -1.7103 -0.5899  0.3199
  634TMC3    C1 9383   3.590   3.197  17.208  0.1292  0.5287  0.6023
  634TMC3    C2 9384   3.709   3.132  17.166 -0.0456 -0.5528  0.7138
  634TMC3    C3 9385   3.731   3.120  17.029 -0.0096  0.2580 -0.0989
  634TMC3    C4 9386   3.514   3.272  17.125  0.5727  0.1656  0.2487
  634TMC3    C5 9387   3.552   3.274  16.988  0.2550  0.3524 -0.1887
  634TMC3    C6 9388   3.656   3.197  16.947 -0.1547  0.0654 -0.1429
  634TMC3     C 9389   3.569   3.209  17.350 -0.6476  0.8476  0.3219
  634TMC3     O 9390   3.498   3.299  17.389  0.4667  0.2277 -0.2333
  634TMC3     H 9391   3.781   3.094  17.236 -0.8701 -0.5385  1.5695
  634TMC3    H1 9392   3.430   3.331  17.161 -0.3069  0.0707 -1.6216
  634TMC3    H2 9393   3.666   3.189  16.840 -0.8545  1.0770 -0.2857
  634TMC3    C7 9394   3.501   3.377  16.900 -0.1047  0.0190 -0.7836
  634TMC3    C8 9395   3.806   3.004  16.981  1.1400 -0.5757 -0.3002
  634TMC3    O1 9396   3.532   3.370  16.786 -0.2819 -0.5074  0.0119
  634TMC3    O2 9397   3.838   2.922  17.061  0.1757  0.0125 -0.0988
  635TMC3    C1 9398   0.454   3.629   0.377  0.1295  0.5813  0.5686
  635TMC3    C2 9399   0.388   3.512   0.399  0.8336 -0.4912  0.1387
  635TMC3    C3 9400   0.470   3.408   0.433  0.4323 -0.1896  0.4843
  635TMC3    C4 9401   0.585   3.648   0.377  0.9224 -0.6985  0.4585
  635TMC3    C5 9402   0.661   3.539   0.399 -0.6108  0.2758 -0.0797
  635TMC3    C6 9403   0.601   3.416   0.429  0.5925 -0.4858 -0.3427
  635TMC3     C 9404   0.378   3.711   0.282 -0.3366 -0.0117 -0.0229
  635TMC3     O 9405   0.266   3.742   0.319  0.1782 -0.4797  0.3867
  635TMC3     H 9406   0.281   3.508   0.382  1.0129 -0.3119 -1.0621
  635TMC3    H1 9407   0.630   3.745   0.359 -2.5692  1.0066  0.8562
  635TMC3    H2 9408   0.661   3.327   0.447  0.2792 -0.4054  1.1400
  635TMC3    C7 9409   0.805   3.562   0.398  0.3537  0.4046  0.1164
  635TMC3    C8 9410   0.411   3.275   0.440 -0.0105 -0.0553  0.0125
  635TMC3    O1 9411   0.846   3.675   0.371 -0.3195 -0.2564  0.2482
  635TMC3    O2 9412   0.482   3.190   0.499 -0.4395 -0.3455  0.4791
  636MPD2     C 9413   4.090   3.615  16.534 -1.1797 -0.3391 -0.2247
  636MPD2    C1 9414   4.211   3.630  16.604  0.3026  0.1713  0.1918
  636MPD2    C2 9415   4.307   3.531  16.600  1.0621 -0.4028 -0.7045
  636MPD2    C3 9416   4.296   3.422  16.517 -0.0449  0.8594  0.1239
  636MPD2    C4 9417   4.177   3.415  16.450 -0.1334  0.7548  0.4878
  636MPD2    C5 9418   4.076   3.507  16.462  0.1059 -0.2858 -0.1764
  636MPD2     H 9419   4.404   3.545  16.647  0.1172  2.8696  0.2238
  636MPD2    H1 9420   4.153   3.325  16.393  1.1531  0.9767 -0.3953
  636MPD2    H2 9421   4.010   3.687  16.538 -0.2759  0.5613  1.4475
  636MPD2    H3 9422   3.985   3.482  16.408  1.2220 -1.1146 -1.6841
  636MPD2     N 9423   4.404   3.335  16.501 -0.2274 -0.6800 -0.6130
  636MPD2    H5 9424   4.476   3.329  16.572 -1.0273  2.2585  0.4593
  636MPD2    N1 9425   4.256   3.750  16.668  0.7080 -0.1807  0.4872
  636MPD2    H7 9426   4.347   3.743  16.712  0.8986  0.5787  0.2165
  637TMC3    C1 9427   4.532   3.159  16.407  0.3159 -0.4142  0.0574
  637TMC3    C2 9428   4.566   3.101  16.522 -0.2012  0.0364 -0.2153
  637TMC3    C3 9429   4.666   3.004  16.522  0.1900  0.1706 -0.1929
  637TMC3    C4 9430   4.576   3.108  16.289  0.1489 -0.1345  0.3384
  637TMC3    C5 9431   4.674   3.018  16.285  0.0765  0.3512  0.6222
  637TMC3    C6 9432   4.716   2.956  16.401  0.9020  0.3497  0.0456
  637TMC3     C 9433   4.412   3.242  16.400  0.0833 -0.6158 -0.6345
  637TMC3     O 9434   4.336   3.224  16.303  0.0710  0.0997 -0.3319
  637TMC3     H 9435   4.530   3.133  16.619  1.4366 -0.9088  0.7127
  637TMC3    H1 9436   4.542   3.151  16.195  1.0640 -0.2541 -0.0570
  637TMC3    H2 9437   0.070   2.877  16.398  2.0168  1.4697 -1.5753
  637TMC3    C7 9438   0.067   3.058  16.194  0.9108 -0.1917 -0.4106
  637TMC3    C8 9439   0.048   3.039  16.611  0.0015 -0.2704  0.0129
  637TMC3    O1 9440   0.065   3.171  16.145  0.3443  0.0708  0.5519
  637TMC3    O2 9441   0.034   3.145  16.674  0.3895 -0.3885  0.3845
  638MPD2     C 9442   0.120   2.398  14.952 -0.1361  0.0570  0.6984
  638MPD2    C1 9443   0.067   2.320  14.851 -0.1261  0.0243 -0.2870
  638MPD2    C2 9444   0.021   2.192  14.880 -0.2509 -0.5187  0.1894
  638MPD2    C3 9445   0.042   2.136  15.004  0.4763  1.0585  0.0890
  638MPD2    C4 9446   0.109   2.211  15.102  0.4136 -0.0420 -0.1820
  638MPD2    C5 9447   0.136   2.345  15.076  0.4815  0.6500  0.3908
  638MPD2     H 9448   4.699   2.127  14.804 -1.5775 -0.5324  0.9408
  638MPD2    H1 9449   0.133   2.161  15.195  1.5468 -0.3463 -0.6389
  638MPD2    H2 9450   0.148   2.501  14.936 -0.8153 -0.0904 -1.3393
  638MPD2    H3 9451   0.178   2.409  15.153 -0.7020  3.1042 -1.0459
  638MPD2     N 9452   0.008   1.998  15.014 -0.2162 -0.3630 -0.7778
  638MPD2    H5 9453   4.711   1.957  14.923  0.8270 -0.7101 -0.8272
  638MPD2    N1 9454   0.049   2.380  14.722  0.8295  0.2252 -0.0536
  638MPD2    H7 9455   0.069   2.479  14.718 -0.0984  0.3687 -1.1974
  639TMC3    C1 9456   4.695   1.791  15.095 -0.3113 -0.1533 -0.3189
  639TMC3    C2 9457   4.633   1.783  14.971  0.0279  0.2732  0.2935
  639TMC3    C3 9458   4.675   1.692  14.885  0.1099  0.2809  0.0854
  639TMC3    C4 9459   0.079   1.707  15.128 -0.0942 -0.2009 -0.3021
  639TMC3    C5 9460   0.138   1.636  15.029 -0.3358  0.3496 -0.4550
  639TMC3    C6 9461   0.069   1.625  14.908 -0.2283  0.4656  0.0247
  639TMC3     C 9462   0.009   1.928  15.135 -0.3703 -0.4803  0.0790
  639TMC3     O 9463   0.035   1.946  15.256  0.0611 -0.5300 -0.1781
  639TMC3     H 9464   4.548   1.844  14.944 -0.9015 -0.8812  0.6208
  639TMC3    H1 9465   0.140   1.724  15.217 -0.9225 -0.2121  0.2663
  639TMC3    H2 9466   0.105   1.552  14.837 -0.9143  1.1636 -1.0390
  639TMC3    C7 9467   0.246   1.544  15.069 -0.7028  0.3664  0.5320
  639TMC3    C8 9468   4.599   1.652  14.764  0.2661 -0.4027  0.3125
  639TMC3    O1 9469   0.236   1.492  15.182  0.2889  0.1715 -0.3827
  639TMC3    O2 9470   4.663   1.597  14.675 -0.5580 -0.1044  0.4378
  640MPD2     C 9471   0.297   4.650   9.442 -0.1656  0.0415  0.4841
  640MPD2    C1 9472   0.339   0.055   9.475  0.9505  0.2928 -0.0167
  640MPD2    C2 9473   0.270   0.127   9.571  0.4095 -0.5134 -0.1979
  640MPD2    C3 9474   0.143   0.093   9.611 -0.2312  0.2405 -0.0136
  640MPD2    C4 9475   0.097   4.691   9.562  0.2165  0.7232  0.4348
  640MPD2    C5 9476   0.172   4.612   9.481 -0.0532 -0.3033 -0.2213
  640MPD2     H 9477   0.308   0.221   9.609 -0.7135 -0.2226  0.1904
  640MPD2    H1 9478   4.716   4.656   9.577  0.3347 -0.0349 -0.4739
  640MPD2    H2 9479   0.348   4.591   9.367 -0.4703  2.1530 -1.3756
  640MPD2    H3 9480   0.132   4.524   9.432  0.4655 -0.2840 -0.6709
  640MPD2     N 9481   0.052   0.176   9.682 -0.1087 -0.0688 -0.1082
  640MPD2    H5 9482   4.677   0.145   9.682 -0.3730  0.7381  0.7575
  640MPD2    N1 9483   0.467   0.109   9.443 -0.4822  0.6288 -0.2159
  640MPD2    H7 9484   0.494   0.199   9.481  0.6576  0.4694 -0.6683
  641TMC3    C1 9485   0.663   0.138   9.312 -0.4261 -0.3277  0.8315
  641TMC3    C2 9486   0.775   0.068   9.272  0.3720  0.4958 -0.2005
  641TMC3    C3 9487   0.878   0.145   9.247 -0.1415 -0.2262 -0.5577
  641TMC3    C4 9488   0.660   0.275   9.329 -0.3989  0.1606  0.1637
  641TMC3    C5 9489   0.772   0.346   9.303 -0.5128 -0.8436  0.1356
  641TMC3    C6 9490   0.889   0.282   9.268  0.5959  0.4218 -0.0125
  641TMC3     C 9491   0.555   0.048   9.358 -0.3535 -0.0848  0.3036
  641TMC3     O 9492   0.550   4.655   9.314 -0.2932  0.5451 -0.6766
  641TMC3     H 9493   0.789   4.682   9.281 -0.1182  0.4531  0.0890
  641TMC3    H1 9494   0.571   0.335   9.345 -1.3660 -0.5643 -2.5504
  641TMC3    H2 9495   0.966   0.342   9.220  2.0425 -0.7140  0.9070
  641TMC3    C7 9496   0.765   0.487   9.289  0.3800  0.1071 -0.0169
  641TMC3    C8 9497   0.991   0.074   9.202 -0.0645  0.1466 -0.4003
  641TMC3    O1 9498   0.651   0.534   9.260  0.1588  0.1159  0.2444
  641TMC3    O2 9499   0.965   4.694   9.138 -0.1862  0.3526  0.5997
  642TMC3    C1 9500   1.690   2.237  12.323 -0.9995  0.5746  0.5664
  642TMC3    C2 9501   1.825   2.261  12.348 -0.2190 -0.3842 -0.8636
  642TMC3    C3 9502   1.895   2.162  12.411 -0.5362  0.3310  0.7952
  642TMC3    C4 9503   1.634   2.116  12.358 -0.0579 -0.8079 -0.2813
  642TMC3    C5 9504   1.711   2.015  12.410  0.9307 -0.1594 -0.0340
  642TMC3    C6 9505   1.844   2.041  12.440 -0.5074  0.2575  0.2535
  642TMC3     C 9506   1.627   2.357  12.284 -0.2314  0.2754 -0.2854
  642TMC3     O 9507   1.681   2.436  12.208  0.1267 -0.7267 -0.2162
  642TMC3     H 9508   1.872   2.354  12.320 -1.3255 -0.1572 -1.9979
  642TMC3    H1 9509   1.530   2.096  12.338 -0.8861  0.0708  3.1336
  642TMC3    H2 9510   1.906   1.970  12.493  0.4466 -1.7690 -3.5867
  642TMC3    C7 9511   1.676   1.879  12.378 -0.4930 -0.0628  0.5852
  642TMC3    C8 9512   2.017   2.196  12.485 -0.2257  1.0293 -0.0259
  642TMC3    O1 9513   1.570   1.858  12.314 -0.2388 -0.0229 -0.4592
  642TMC3    O2 9514   2.122   2.130  12.477 -0.3954  0.2308  0.6028
  643TMC3    C1 9515   0.865   1.143  17.607  0.5695  1.3142 -0.0749
  643TMC3    C2 9516   0.767   1.222  17.559  0.4900  0.4086 -0.2168
  643TMC3    C3 9517   0.695   1.165  17.458  0.4912 -0.1155  0.1865
  643TMC3    C4 9518   0.898   1.022  17.549 -0.0872  0.1550 -0.5449
  643TMC3    C5 9519   0.817   0.963  17.451  0.4422  0.3412  0.4088
  643TMC3    C6 9520   0.706   1.038  17.415 -0.0054  0.2028 -0.4140
  643TMC3     C 9521   0.907   1.173   0.061  0.4320  0.1285  0.6202
  643TMC3     O 9522   0.867   1.281   0.100 -0.3778 -0.1265  0.4324
  643TMC3     H 9523   0.740   1.323  17.587 -0.2772  0.4369 -1.0601
  643TMC3    H1 9524   0.979   0.957  17.580 -1.0348 -0.9587 -0.3899
  643TMC3    H2 9525   0.622   0.999  17.358  0.3404  0.5917 -1.1872
  643TMC3    C7 9526   0.894   0.930  17.335 -0.2000 -0.4634  0.3854
  643TMC3    C8 9527   0.654   1.262  17.356 -0.1285  0.5557 -0.0815
  643TMC3    O1 9528   1.009   0.974  17.325  0.2823 -0.2035  0.3551
  643TMC3    O2 9529   0.658   1.377  17.395  0.4819  0.4170  0.4268
  644MPD2     C 9530   0.577   1.104   9.476  0.6695  0.5891  0.2164
  644MPD2    C1 9531   0.558   0.972   9.463  0.3516 -0.1096  0.0273
  644MPD2    C2 9532   0.440   0.917   9.416 -0.0845  0.1184  0.0804
  644MPD2    C3 9533   0.342   1.008   9.380 -0.3087  0.2628  0.4749
  644MPD2    C4 9534   0.356   1.143   9.406 -0.3587 -0.5575 -0.0671
  644MPD2    C5 9535   0.474   1.194   9.452  1.0805  0.4224 -0.5557
  644MPD2     H 9536   0.429   0.809   9.405 -0.5457  0.1116  0.5738
  644MPD2    H1 9537   0.270   1.207   9.390 -1.2094 -1.6505  0.1027
  644MPD2    H2 9538   0.674   1.139   9.510  0.2374  0.7737  1.2724
  644MPD2    H3 9539   0.494   1.297   9.479  0.5483  0.1978  0.6857
  644MPD2     N 9540   0.208   0.968   9.336 -0.2988  0.2919  0.4586
  644MPD2    H5 9541   0.142   1.041   9.312 -0.4013  0.6082  1.6802
  644MPD2    N1 9542   0.663   0.896   9.515 -0.6841 -0.2967  0.1349
  644MPD2    H7 9543   0.741   0.946   9.558 -0.6853 -3.0368  3.3356
  645TMC3    C1 9544   0.037   0.816   9.280 -0.0574  0.1797  0.2550
  645TMC3    C2 9545   0.004   0.702   9.216  0.1883  0.1923 -0.0770
  645TMC3    C3 9546   4.601   0.662   9.229 -0.1902 -0.3381 -0.8136
  645TMC3    C4 9547   4.672   0.906   9.329 -0.1200  0.1931  0.5710
  645TMC3    C5 9548   4.541   0.870   9.332 -0.4899 -0.1990  0.0373
  645TMC3    C6 9549   4.503   0.748   9.276 -0.1073 -0.0000  0.0032
  645TMC3     C 9550   0.180   0.845   9.283 -0.1691 -0.3512 -0.0764
  645TMC3     O 9551   0.251   0.744   9.279 -0.0794  0.2187  0.8855
  645TMC3     H 9552   0.088   0.639   9.189 -1.1564 -1.7894  0.3568
  645TMC3    H1 9553   4.697   0.990   9.392 -2.2814  1.5624 -0.3906
  645TMC3    H2 9554   4.404   0.705   9.276  1.0537 -2.6752  1.1729
  645TMC3    C7 9555   4.446   0.946   9.412  0.0365 -0.3541  0.0464
  645TMC3    C8 9556   4.563   0.527   9.186  0.3137  0.1395  0.3820
  645TMC3    O1 9557   4.495   1.042   9.468 -0.2125 -0.2503 -0.2154
  645TMC3    O2 9558   4.454   0.478   9.217 -0.3437  0.4730  0.1337
  646MPD2     C 9559   0.258   0.855  14.410  0.3002 -1.0532  0.1272
  646MPD2    C1 9560   0.162   0.861  14.508 -0.1269 -0.0083 -0.0565
  646MPD2    C2 9561   0.049   0.945  14.481  0.0935  0.2547  1.1387
  646MPD2    C3 9562   0.027   1.010  14.359 -0.4215 -0.3874  0.1863
  646MPD2    C4 9563   0.125   0.996  14.262 -0.1004  0.2708 -0.5301
  646MPD2    C5 9564   0.238   0.919  14.290 -0.2398 -0.0708  0.2480
  646MPD2     H 9565   4.694   0.956  14.559 -2.0491  0.4146 -0.9638
  646MPD2    H1 9566   0.119   1.033  14.161  1.5469 -1.7815 -1.3866
  646MPD2    H2 9567   0.341   0.786  14.420  3.0660  2.2255 -0.2076
  646MPD2    H3 9568   0.303   0.903  14.206 -1.3862 -1.9177 -0.2743
  646MPD2     N 9569   4.621   1.074  14.341 -0.2562  0.6378  0.1360
  646MPD2    H5 9570   4.552   1.073  14.415  1.7069 -1.1542  1.9233
  646MPD2    N1 9571   0.189   0.779  14.621  0.0658 -0.3952 -0.1392
  646MPD2    H7 9572   0.266   0.713  14.622  2.4551  2.4535  2.9937
  647TMC3    C1 9573   0.144   0.672  14.826  0.6389 -0.4684  0.5268
  647TMC3    C2 9574   0.048   0.604  14.889  0.1587  0.2132 -0.6260
  647TMC3    C3 9575   0.093   0.513  14.981 -0.0465 -0.1739  0.4234
  647TMC3    C4 9576   0.279   0.669  14.846 -0.0620  0.0484 -0.2438
  647TMC3    C5 9577   0.319   0.568  14.936  0.3153 -0.2454  0.8249
  647TMC3    C6 9578   0.227   0.484  14.996  1.0370  0.0189  0.1305
  647TMC3     C 9579   0.100   0.767  14.725 -0.2375  0.0631  0.5320
  647TMC3     O 9580   4.711   0.815  14.742  0.1014  0.0500  0.0071
  647TMC3     H 9581   4.664   0.616  14.865 -0.4008  0.7047  2.1371
  647TMC3    H1 9582   0.347   0.743  14.805 -0.8243  0.2621 -1.1172
  647TMC3    H2 9583   0.249   0.398  15.058 -1.2885 -0.3323  0.4854
  647TMC3    C7 9584   0.449   0.533  14.960  0.1749 -0.5628  0.2111
  647TMC3    C8 9585   0.009   0.461  15.085 -0.7756  0.3861 -0.2019
  647TMC3    O1 9586   0.468   0.443  15.039 -0.1475 -0.4586  0.5330
  647TMC3    O2 9587   0.068   0.416  15.181 -0.1798  0.4681 -0.4258
  648TMC3    C1 9588   3.986   3.013  16.270  0.1819  0.7004 -0.1425
  648TMC3    C2 9589   4.012   2.879  16.252  0.5936  0.9470  0.0310
  648TMC3    C3 9590   4.001   2.836  16.122 -0.4709 -0.9357 -0.0699
  648TMC3    C4 9591   3.929   3.098  16.174 -0.0613  0.1330  0.6096
  648TMC3    C5 9592   3.941   3.051  16.051 -0.5840 -0.3820  0.4252
  648TMC3    C6 9593   3.980   2.919  16.018 -0.6447  0.1877  0.2721
  648TMC3     C 9594   4.004   3.074  16.397 -0.4194 -0.2603  0.1768
  648TMC3     O 9595   3.940   3.177  16.420  0.3114 -0.0207 -0.6007
  648TMC3     H 9596   4.057   2.815  16.326 -0.7064 -0.2712 -0.2368
  648TMC3    H1 9597   3.914   3.203  16.194 -0.7889 -0.1196  1.3794
  648TMC3    H2 9598   3.962   2.873  15.921 -0.9670  0.3323  0.2654
  648TMC3    C7 9599   3.917   3.132  15.931  0.2545 -0.1032  0.2136
  648TMC3    C8 9600   4.053   2.714  16.093 -0.1820  0.8326 -0.3616
  648TMC3    O1 9601   3.989   3.114  15.835 -0.5862 -0.2451 -0.3746
  648TMC3    O2 9602   3.998   2.631  16.160 -0.2241  0.0540  0.5802
  649TMC3    C1 9603   3.100   4.156  12.814  0.7363 -0.6783  0.1396
  649TMC3    C2 9604   3.237   4.170  12.828  0.1303 -0.0744 -0.5401
  649TMC3    C3 9605   3.297   4.110  12.937 -0.2342 -0.2853  0.0343
  649TMC3    C4 9606   3.027   4.084  12.910 -0.2568  0.0056 -0.1910
  649TMC3    C5 9607   3.091   4.035  13.024 -0.0814 -0.2630  0.5244
  649TMC3    C6 9608   3.227   4.039  13.033  0.2857  0.0930  0.4323
  649TMC3     C 9609   3.025   4.213  12.701  0.2119 -0.0770 -0.6790
  649TMC3     O 9610   2.903   4.214  12.711 -0.0241 -0.0171 -0.0975
  649TMC3     H 9611   3.293   4.226  12.754  0.8937 -0.5838 -0.3476
  649TMC3    H1 9612   2.921   4.071  12.893 -0.2958 -0.3793  0.3696
  649TMC3    H2 9613   3.270   4.006  13.126  1.6150 -0.5211 -0.4027
  649TMC3    C7 9614   3.023   3.953  13.123 -0.4908 -1.0888 -0.2305
  649TMC3    C8 9615   3.441   4.109  12.954 -0.4130  0.0938 -0.7091
  649TMC3    O1 9616   3.076   3.919  13.229 -0.2150 -0.3221  0.1495
  649TMC3    O2 9617   3.478   4.066  13.060  0.3408 -0.7630 -0.0185
  650TMC3    C1 9618   0.650   1.366  12.842  0.5104  0.3892  0.1282
  650TMC3    C2 9619   0.639   1.501  12.835  0.0601 -0.4303  0.1883
  650TMC3    C3 9620   0.554   1.548  12.739  0.3617  0.5791  0.0745
  650TMC3    C4 9621   0.591   1.286  12.749 -0.1192  0.0706  0.0838
  650TMC3    C5 9622   0.510   1.343  12.652  0.3890  0.1298 -0.1331
  650TMC3    C6 9623   0.488   1.472  12.644 -0.5071 -0.0160  0.0355
  650TMC3     C 9624   0.773   1.330  12.913 -0.2502  0.6967 -0.3015
  650TMC3     O 9625   0.833   1.421  12.968  0.6185 -0.4223 -0.0147
  650TMC3     H 9626   0.679   1.571  12.907 -1.6592  1.9649 -1.1629
  650TMC3    H1 9627   0.616   1.181  12.739  0.1388 -0.0418  1.9303
  650TMC3    H2 9628   0.416   1.514  12.575 -1.2130 -0.0810  0.7331
  650TMC3    C7 9629   0.428   1.260  12.572  0.0813  0.1764 -0.1293
  650TMC3    C8 9630   0.557   1.692  12.713 -0.2706  0.0818 -0.2858
  650TMC3    O1 9631   0.378   1.155  12.615 -0.4595  0.3899  0.1166
  650TMC3    O2 9632   0.648   1.756  12.773 -0.2485 -0.0115 -0.0851
  651MPD2     C 9633   4.479   2.858  10.878  0.0578  0.0040  1.0526
  651MPD2    C1 9634   4.483   2.927  10.997 -0.1580 -0.3746 -0.7664
  651MPD2    C2 9635   4.602   2.984  11.034 -0.1372 -0.7581 -0.1685
  651MPD2    C3 9636   4.712   2.972  10.955 -0.0872 -0.5397  0.1206
  651MPD2    C4 9637   4.705   2.908  10.838  0.1495 -0.3295  0.4954
  651MPD2    C5 9638   4.588   2.841  10.803 -0.1274  0.5565 -0.1495
  651MPD2     H 9639   4.602   3.059  11.112 -0.5927 -2.0995  1.1008
  651MPD2    H1 9640   0.069   2.914  10.771  0.1337 -2.1767  0.3025
  651MPD2    H2 9641   4.388   2.810  10.845  0.2768 -0.2640  0.8483
  651MPD2    H3 9642   4.583   2.804  10.701  0.5868 -2.3966  0.8918
  651MPD2     N 9643   0.106   3.047  10.995 -0.8787 -0.6377  0.1448
  651MPD2    H5 9644   0.105   3.093  11.086 -3.2247  0.9403 -0.6657
  651MPD2    N1 9645   4.366   2.943  11.070  0.3861 -0.0556 -0.7802
  651MPD2    H7 9646   4.375   3.001  11.153  0.3806 -2.2304  0.7372
  652TMC3    C1 9647   0.514   3.256  10.927 -0.1502 -0.0608  0.7509
  652TMC3    C2 9648   0.444   3.151  10.962  0.5579 -0.1875 -0.1688
  652TMC3    C3 9649   0.311   3.161  11.004 -0.1804 -0.2018  0.4040
  652TMC3    C4 9650   0.460   3.383  10.948  0.5496 -0.7520  0.3741
  652TMC3    C5 9651   0.324   3.395  10.982  0.7171  0.7084 -0.8496
  652TMC3    C6 9652   0.255   3.286  11.016 -0.1587  0.0851 -0.1688
  652TMC3     C 9653   0.649   3.233  10.878 -0.0520  0.1682 -0.2393
  652TMC3     O 9654   0.697   3.122  10.894  0.3883 -0.0081  0.5015
  652TMC3     H 9655   0.493   3.056  10.944  0.7965 -0.3152  1.2232
  652TMC3    H1 9656   0.517   3.473  10.928 -2.9830  1.1499 -1.1354
  652TMC3    H2 9657   0.151   3.308  11.035 -0.0273 -0.3279  1.0468
  652TMC3    C7 9658   0.291   3.529  11.019  0.2931  0.9240 -0.1242
  652TMC3    C8 9659   0.227   3.067  10.926  0.0417 -0.0584  0.0195
  652TMC3    O1 9660   0.211   3.539  11.113  0.2193 -0.3908  0.0588
  652TMC3    O2 9661   0.280   3.014  10.826 -0.2633 -0.1373  0.2987
  653MPD2     C 9662   3.462   2.799  17.611  0.2496 -0.4993  0.1411
  653MPD2    C1 9663   3.354   2.878  17.574  0.2855 -0.2164 -0.5096
  653MPD2    C2 9664   3.276   2.816  17.479  0.3503  0.1028  0.4138
  653MPD2    C3 9665   3.292   2.687  17.430  0.0451  1.0676 -0.1249
  653MPD2    C4 9666   3.407   2.617  17.458  0.2650 -0.5004  0.2978
  653MPD2    C5 9667   3.486   2.674  17.555  0.2553  0.6103 -0.4371
  653MPD2     H 9668   3.190   2.876  17.451  1.1662  1.6504  1.1865
  653MPD2    H1 9669   3.440   2.526  17.410  1.7302  0.2287 -0.0694
  653MPD2    H2 9670   3.533   2.833  17.686 -0.7025  1.7917 -0.0060
  653MPD2    H3 9671   3.573   2.615  17.582  0.3315 -0.6649 -3.5133
  653MPD2     N 9672   3.187   2.630  17.363  0.6802  0.1733 -0.1555
  653MPD2    H5 9673   3.104   2.686  17.351  0.2050 -0.3738  0.5783
  653MPD2    N1 9674   3.342   3.010  17.604 -0.1479  0.9804  0.0448
  653MPD2    H7 9675   3.270   3.068  17.562 -0.0897  1.0532  0.0454
  654TMC3    C1 9676   3.046   2.472  17.251  0.3156 -0.4618  0.1846
  654TMC3    C2 9677   2.948   2.568  17.244 -0.0489  0.5690 -0.0059
  654TMC3    C3 9678   2.844   2.549  17.166 -0.1874 -0.0076  0.1183
  654TMC3    C4 9679   3.042   2.363  17.160  0.3936 -0.9144 -0.0431
  654TMC3    C5 9680   2.924   2.341  17.090  0.9811 -0.2237 -0.4930
  654TMC3    C6 9681   2.826   2.440  17.088 -0.6110 -0.3062 -0.1535
  654TMC3     C 9682   3.178   2.510  17.306 -0.4855  0.2301 -0.0678
  654TMC3     O 9683   3.270   2.430  17.295 -0.3167 -0.6416 -0.2201
  654TMC3     H 9684   2.952   2.649  17.316 -2.6215 -0.2589  1.0478
  654TMC3    H1 9685   3.133   2.313  17.132  0.9128 -0.1363  0.2476
  654TMC3    H2 9686   2.735   2.416  17.035 -0.5500 -0.4996 -0.1701
  654TMC3    C7 9687   2.905   2.221  17.012  0.3782 -0.6767  0.0876
  654TMC3    C8 9688   2.749   2.657  17.147  0.0445 -0.9521 -0.0491
  654TMC3    O1 9689   2.822   2.213  16.919  0.1761 -0.6200 -0.2805
  654TMC3    O2 9690   2.745   2.737  17.242 -0.6663  0.1130  0.1823
  655MPD2     C 9691   4.332   3.366  15.698 -0.0307 -0.4439  0.5258
  655MPD2    C1 9692   4.330   3.493  15.648  0.2983  0.4083 -0.6766
  655MPD2    C2 9693   4.367   3.522  15.518  1.3362 -0.1070  0.4827
  655MPD2    C3 9694   4.418   3.422  15.439  0.0280 -0.0386 -0.3420
  655MPD2    C4 9695   4.430   3.301  15.492  0.9257 -0.2423 -0.4863
  655MPD2    C5 9696   4.389   3.270  15.616  0.4056  0.1719 -0.4278
  655MPD2     H 9697   4.359   3.624  15.482  0.2686 -0.1829  0.5098
  655MPD2    H1 9698   4.469   3.224  15.427 -1.2630  0.2913 -2.4269
  655MPD2    H2 9699   4.303   3.337  15.798  1.4056 -1.4007  0.6704
  655MPD2    H3 9700   4.406   3.169  15.652 -2.1145  0.0803  0.4690
  655MPD2     N 9701   4.449   3.428  15.301  0.2672  0.4215  0.1167
  655MPD2    H5 9702   4.483   3.342  15.258  2.7896  0.9566  1.0317
  655MPD2    N1 9703   4.274   3.600  15.725  0.0799 -0.5291 -0.1491
  655MPD2    H7 9704   4.260   3.690  15.681 -2.3536 -0.1798  1.2821
  656TMC3    C1 9705   4.179   3.709  15.920  0.3308 -1.2537 -0.5366
  656TMC3    C2 9706   4.132   3.681  16.045 -0.7439 -0.8881 -0.4347
  656TMC3    C3 9707   4.027   3.748  16.099 -0.0940 -0.2889 -0.1571
  656TMC3    C4 9708   4.138   3.810  15.846 -0.5127  0.2495 -0.4816
  656TMC3    C5 9709   4.040   3.887  15.895  0.2532 -0.0222  0.1048
  656TMC3    C6 9710   3.983   3.853  16.017  0.1106 -0.1093  0.2964
  656TMC3     C 9711   4.253   3.590  15.862 -0.6379  0.0634  1.0782
  656TMC3     O 9712   4.281   3.504  15.941  0.3345  0.1637  0.7895
  656TMC3     H 9713   4.179   3.610  16.113 -1.7562  0.8091  2.0727
  656TMC3    H1 9714   4.189   3.831  15.753  0.4841 -1.9094 -0.4255
  656TMC3    H2 9715   3.900   3.909  16.058  0.1177 -0.4594  0.7917
  656TMC3    C7 9716   3.976   3.971  15.793 -0.6018  0.2702 -0.0534
  656TMC3    C8 9717   3.941   3.671  16.185 -0.9220 -0.7086  0.4523
  656TMC3    O1 9718   4.048   4.017  15.705 -0.2125  0.4114 -0.4494
  656TMC3    O2 9719   3.955   3.553  16.187 -0.3718 -0.0437  0.3484
  657TMC3    C1 9720   4.127   2.837  14.307  0.2270 -0.3307 -0.0064
  657TMC3    C2 9721   4.075   2.715  14.343  0.0421  0.5020  0.0960
  657TMC3    C3 9722   3.945   2.698  14.314  0.5862  0.2920  0.5162
  657TMC3    C4 9723   4.059   2.926  14.236 -0.9833  0.3109  0.4547
  657TMC3    C5 9724   3.929   2.907  14.212  0.6398  0.6971  0.6093
  657TMC3    C6 9725   3.868   2.794  14.259 -0.0701  0.0912 -0.0723
  657TMC3     C 9726   4.247   2.895  14.374  0.4387 -0.6068 -0.8741
  657TMC3     O 9727   4.299   2.995  14.328  0.1042  0.5669 -0.1003
  657TMC3     H 9728   4.128   2.627  14.375  0.4214 -0.0401 -2.0117
  657TMC3    H1 9729   4.102   3.021  14.210 -1.1344  0.4459  0.6972
  657TMC3    H2 9730   3.764   2.772  14.240  0.7629 -2.7126 -1.4812
  657TMC3    C7 9731   3.853   3.030  14.179  0.8062  0.0616  0.2090
  657TMC3    C8 9732   3.880   2.582  14.368 -0.3710  0.9414 -0.1008
  657TMC3    O1 9733   3.899   3.113  14.100 -0.4457  0.3099 -0.4026
  657TMC3    O2 9734   3.930   2.474  14.347 -0.5434 -0.2505 -0.2318
  658MPD2     C 9735   4.586   3.934  14.606 -0.4091 -0.1860  0.1754
  658MPD2    C1 9736   4.633   3.811  14.637 -0.0525 -0.0277 -0.6197
  658MPD2    C2 9737   4.658   3.718  14.534  0.5675  0.7644  0.0965
  658MPD2    C3 9738   4.638   3.755  14.405 -0.2215  0.4407 -0.1686
  658MPD2    C4 9739   4.586   3.879  14.373  0.0631 -0.9167  0.4887
  658MPD2    C5 9740   4.557   3.963  14.476  0.1880  0.7733 -0.9923
  658MPD2     H 9741   4.684   3.615  14.553 -0.2831  0.6355  0.5744
  658MPD2    H1 9742   4.561   3.893  14.269 -0.3841 -0.4838  0.6600
  658MPD2    H2 9743   4.549   3.995  14.688 -1.9879 -1.2969  0.3023
  658MPD2    H3 9744   4.513   4.061  14.463 -3.1813 -0.9741 -2.6622
  658MPD2     N 9745   4.651   3.645  14.315 -0.1937  0.2689 -0.4326
  658MPD2    H5 9746   4.682   3.557  14.355  3.4404  0.6078 -2.5175
  658MPD2    N1 9747   4.628   3.763  14.766 -0.3042  0.2013  0.5846
  658MPD2    H7 9748   4.565   3.817  14.824 -0.7869 -0.0410  0.2903
  659TMC3    C1 9749   4.560   3.570  14.878  0.3815 -0.5846  0.7611
  659TMC3    C2 9750   4.547   3.600  15.015 -0.3034  0.2738  0.7021
  659TMC3    C3 9751   4.474   3.508  15.090  0.3599  0.1034  0.0531
  659TMC3    C4 9752   4.514   3.453  14.823 -0.0291 -0.6695  0.5630
  659TMC3    C5 9753   4.442   3.368  14.903 -0.2594 -0.3404  0.1671
  659TMC3    C6 9754   4.416   3.397  15.034 -0.4344  0.0216  0.1348
  659TMC3     C 9755   4.668   3.641  14.811  0.2982  0.5049  0.4051
  659TMC3     O 9756   0.029   3.563  14.766 -0.0999  0.2839  0.2160
  659TMC3     H 9757   4.584   3.689  15.066 -2.6198  1.9330 -0.5115
  659TMC3    H1 9758   4.541   3.423  14.723  0.2255  0.4015  0.3111
  659TMC3    H2 9759   4.337   3.346  15.088  0.3353  1.6237  2.7582
  659TMC3    C7 9760   4.349   3.280  14.843 -0.1683  0.5180  0.5080
  659TMC3    C8 9761   4.447   3.539  15.228  0.3457  0.0877  0.1500
  659TMC3    O1 9762   4.318   3.193  14.920  0.2074 -0.4211  0.4032
  659TMC3    O2 9763   4.471   3.652  15.268 -0.2397  0.5404  0.1642
  660MPD2     C 9764   2.869   1.578  12.684  0.4881 -0.2016  0.1917
  660MPD2    C1 9765   2.764   1.676  12.683 -0.3181  0.2934 -0.1412
  660MPD2    C2 9766   2.667   1.669  12.782 -0.0499 -0.3872 -0.2875
  660MPD2    C3 9767   2.674   1.569  12.882 -0.8893  0.2560  0.3331
  660MPD2    C4 9768   2.784   1.480  12.878  0.6079 -0.3275  0.4932
  660MPD2    C5 9769   2.880   1.488  12.784 -0.0255 -0.5337  0.7891
  660MPD2     H 9770   2.583   1.737  12.785 -0.6077 -1.1196  0.9389
  660MPD2    H1 9771   2.786   1.397  12.948  4.9907 -2.0679 -1.6955
  660MPD2    H2 9772   2.945   1.582  12.606 -1.0303 -0.9308 -1.3318
  660MPD2    H3 9773   2.967   1.423  12.784 -0.1409 -0.6891  0.7810
  660MPD2     N 9774   2.592   1.559  12.994  1.3368 -0.2896  0.2080
  660MPD2    H5 9775   2.606   1.478  13.054  0.6721  0.3074  1.1707
  660MPD2    N1 9776   2.762   1.766  12.573  0.1796 -0.1343  0.4448
  660MPD2    H7 9777   2.828   1.758  12.497 -0.6266  1.0112 -0.3671
  661TMC3    C1 9778   2.687   1.963  12.447 -0.7141  0.7451 -0.2464
  661TMC3    C2 9779   2.772   1.941  12.346  0.6022  0.1156 -0.7833
  661TMC3    C3 9780   2.763   2.021  12.235 -0.9175  0.4012 -0.6633
  661TMC3    C4 9781   2.604   2.072  12.455 -0.6662  0.1050  0.0058
  661TMC3    C5 9782   2.595   2.149  12.341  0.3635  0.0724  0.3546
  661TMC3    C6 9783   2.674   2.125  12.227  0.0080 -1.0365 -0.2368
  661TMC3     C 9784   2.683   1.872  12.563 -0.4216  0.6015 -0.7607
  661TMC3     O 9785   2.587   1.902  12.634  0.1044 -0.2180 -0.0251
  661TMC3     H 9786   2.846   1.862  12.341  0.4228 -0.0461 -0.8813
  661TMC3    H1 9787   2.524   2.086  12.526  0.3919  2.1917  0.7898
  661TMC3    H2 9788   2.659   2.179  12.135 -1.8083  1.8160  1.7362
  661TMC3    C7 9789   2.493   2.243  12.329  0.4628 -0.0358 -0.6891
  661TMC3    C8 9790   2.842   1.991  12.122  0.1334  0.2817  0.1079
  661TMC3    O1 9791   2.473   2.322  12.421 -0.2948  0.5055 -0.2192
  661TMC3    O2 9792   2.870   1.871  12.094 -0.1431  0.0231 -0.4202
  662MPD2     C 9793   2.583   1.359  16.579 -0.5281  0.6852  0.0457
  662MPD2    C1 9794   2.659   1.363  16.696  0.5981 -0.0959  1.3286
  662MPD2    C2 9795   2.639   1.482  16.768  0.3072 -0.6734  0.5912
  662MPD2    C3 9796   2.556   1.584  16.726  0.0148 -0.1852 -0.4322
  662MPD2    C4 9797   2.480   1.573  16.617  0.1263 -0.3989 -0.5477
  662MPD2    C5 9798   2.493   1.459  16.544  0.3723 -0.3940  0.1374
  662MPD2     H 9799   2.705   1.487  16.854 -0.0692 -2.3507  0.9871
  662MPD2    H1 9800   2.400   1.638  16.584  1.3215  2.3173  1.9340
  662MPD2    H2 9801   2.586   1.277  16.509  2.0227 -0.3253  1.3320
  662MPD2    H3 9802   2.436   1.444  16.453  0.5852  1.5571 -0.3276
  662MPD2     N 9803   2.538   1.699  16.801 -0.2716  0.0329 -0.1652
  662MPD2    H5 9804   2.464   1.755  16.759  0.4537  0.7831 -0.4457
  662MPD2    N1 9805   2.757   1.267  16.728  1.2364 -0.2162 -0.0741
  662MPD2    H7 9806   2.810   1.296  16.809  0.8674  0.5394 -0.1090
  663TMC3    C1 9807   2.891   1.067  16.705  0.0269  0.0283  0.2021
  663TMC3    C2 9808   2.927   1.076  16.840 -0.1231 -0.0807  0.1401
  663TMC3    C3 9809   3.025   0.991  16.887 -0.0186 -0.3147 -0.3106
  663TMC3    C4 9810   2.949   0.974  16.621  0.1216  0.1320  0.3311
  663TMC3    C5 9811   3.032   0.887  16.679 -0.6821 -0.4322 -0.2370
  663TMC3    C6 9812   3.083   0.902  16.802 -0.2913  0.3659  0.4467
  663TMC3     C 9813   2.808   1.173  16.644 -0.7903 -0.6459  0.6795
  663TMC3     O 9814   2.786   1.167  16.522  0.4354  0.4117 -0.2608
  663TMC3     H 9815   2.856   1.132  16.899  1.4392  2.9506 -0.8508
  663TMC3    H1 9816   2.907   0.949  16.525 -0.7779 -1.1169  1.0483
  663TMC3    H2 9817   3.132   0.809  16.828  0.4560 -0.0408 -2.3888
  663TMC3    C7 9818   2.992   0.757  16.646 -0.2053  0.3417  0.1661
  663TMC3    C8 9819   2.989   0.925  17.011  0.4174  0.0108  0.5576
  663TMC3    O1 9820   2.982   0.730  16.527 -0.8551  0.1516  0.3440
  663TMC3    O2 9821   3.011   0.804  17.018 -0.1659 -0.3304  0.7490
  664MPD2     C 9822   0.784   0.235  17.470 -0.2282 -0.0254 -0.4361
  664MPD2    C1 9823   0.894   0.183  17.543  0.6925  0.4958  0.1923
  664MPD2    C2 9824   0.864   0.097  17.642 -0.7639  0.1714 -0.3192
  664MPD2    C3 9825   0.734   0.054  17.665 -0.1840 -0.4915 -0.1165
  664MPD2    C4 9826   0.633   0.099  17.577  0.5247  0.1019 -0.3026
  664MPD2    C5 9827   0.657   0.195  17.483  0.0559  0.3303 -0.1850
  664MPD2     H 9828   0.937   0.068   0.031 -1.6214 -0.5716  0.2391
  664MPD2    H1 9829   0.529   0.066  17.587  0.4738  0.5254  0.6065
  664MPD2    H2 9830   0.799   0.313  17.396 -1.9404 -1.2246 -2.0627
  664MPD2    H3 9831   0.586   0.221  17.405 -0.0772  0.7092  0.0636
  664MPD2     N 9832   0.714   4.669   0.073 -0.2236  0.0326 -0.0533
  664MPD2    H5 9833   0.801   4.637   0.115  0.6597  0.7368 -1.3291
  664MPD2    N1 9834   1.022   0.240  17.540 -1.1958  0.2967 -0.1716
  664MPD2    H7 9835   1.101   0.207  17.594 -1.9986  0.2877  0.9828
  665TMC3    C1 9836   0.604   4.555   0.248 -0.0621  0.4591 -0.7048
  665TMC3    C2 9837   0.488   4.510   0.303  0.0908 -0.3269 -0.0215
  665TMC3    C3 9838   0.482   4.478   0.435  0.5887 -0.0357  0.0103
  665TMC3    C4 9839   0.721   4.545   0.323  0.4877 -0.1613  0.2788
  665TMC3    C5 9840   0.713   4.507   0.453 -0.6874  0.2250 -0.1836
  665TMC3    C6 9841   0.595   4.482   0.515 -0.7775  0.2249  0.4352
  665TMC3     C 9842   0.597   4.628   0.124  0.1299  0.2110  0.6711
  665TMC3     O 9843   0.482   4.670   0.098  0.2715  0.1017 -0.3101
  665TMC3     H 9844   0.397   4.499   0.246 -0.5694  1.9646  0.6138
  665TMC3    H1 9845   0.816   4.571   0.277  2.2195 -2.5073  2.5162
  665TMC3    H2 9846   0.586   4.441   0.615 -1.3675  1.8709  1.0572
  665TMC3    C7 9847   0.838   4.518   0.523  0.1902 -0.1090  0.1487
  665TMC3    C8 9848   0.358   4.449   0.514  0.2828  0.6808 -0.2390
  665TMC3    O1 9849   0.941   4.490   0.459  0.1200  0.3385  0.6271
  665TMC3    O2 9850   0.374   4.401   0.626 -0.8558  0.2957 -0.3444
  666TMC3    C1 9851   4.340   3.748  10.295 -0.8605  0.4092 -0.1056
  666TMC3    C2 9852   4.371   3.662  10.197  0.6505  0.0221  0.0617
  666TMC3    C3 9853   4.383   3.701  10.070  0.4139  0.8320 -0.5120
  666TMC3    C4 9854   4.328   3.884  10.266  0.9578  0.1797  0.4155
  666TMC3    C5 9855   4.347   3.920  10.130 -0.3476  0.3066  0.3823
  666TMC3    C6 9856   4.361   3.827  10.027 -0.0467 -0.6622  0.0042
  666TMC3     C 9857   4.298   3.698  10.422 -0.5469 -0.7455 -0.1231
  666TMC3     O 9858   4.330   3.756  10.523  0.1338  0.3136  0.0976
  666TMC3     H 9859   4.396   3.559  10.219  0.7187 -0.0910 -0.5629
  666TMC3    H1 9860   4.313   3.954  10.347  0.1456  3.2568 -2.3878
  666TMC3    H2 9861   4.376   3.853   9.923 -1.4461 -0.7452 -0.2257
  666TMC3    C7 9862   4.400   4.051  10.116  0.5683 -0.2691  0.0510
  666TMC3    C8 9863   4.446   3.601   9.984 -0.6497  0.2458 -0.7491
  666TMC3    O1 9864   4.432   4.110  10.218  0.3641  0.6287 -0.0375
  666TMC3    O2 9865   4.387   3.494  10.001  0.5411  0.1332 -0.0946
  667MPD2     C 9866   1.576   4.506  14.750  1.1900  0.6578  0.1778
  667MPD2    C1 9867   1.529   4.559  14.865  0.6092 -0.1841  0.7881
  667MPD2    C2 9868   1.397   4.606  14.865 -0.2207  0.6661  0.3763
  667MPD2    C3 9869   1.318   4.592  14.747 -0.2484  0.1908 -0.6826
  667MPD2    C4 9870   1.372   4.524  14.638  0.8097 -0.3606  0.0856
  667MPD2    C5 9871   1.496   4.484  14.640 -0.0151 -0.4769 -0.0331
  667MPD2     H 9872   1.356   4.645  14.957  0.1180  2.3679 -0.1807
  667MPD2    H1 9873   1.325   4.510  14.541  0.2766 -0.3223  0.3373
  667MPD2    H2 9874   1.673   4.457  14.750  1.0896  0.4593 -0.0447
  667MPD2    H3 9875   1.538   4.427  14.558  2.4198  0.5121  0.5226
  667MPD2     N 9876   1.185   4.633  14.725  0.5306 -0.2983 -0.3822
  667MPD2    H5 9877   1.144   4.608  14.636 -0.6926 -0.0111  0.1024
  667MPD2    N1 9878   1.599   4.568  14.985  0.4808  0.1876  0.7471
  667MPD2    H7 9879   1.545   4.604  15.064  1.5206  0.9659  1.0947
  668TMC3    C1 9880   1.769   4.587  15.139  0.4156  0.3050  1.3062
  668TMC3    C2 9881   1.879   4.670  15.143 -0.4228  0.0687 -0.2830
  668TMC3    C3 9882   1.895   0.015  15.261  0.0722 -0.5483 -0.0864
  668TMC3    C4 9883   1.696   4.542  15.238  0.4378 -0.5895  0.5586
  668TMC3    C5 9884   1.722   4.604  15.355  0.4390 -0.1459 -0.6651
  668TMC3    C6 9885   1.815   4.708  15.363 -0.2126 -0.0591 -0.1700
  668TMC3     C 9886   1.731   4.539  15.011  0.1129 -0.6146  0.4062
  668TMC3     O 9887   1.812   4.494  14.936 -0.0083 -0.0612 -0.0917
  668TMC3     H 9888   1.907   4.707  15.046  0.5554  1.4135  0.5075
  668TMC3    H1 9889   1.617   4.468  15.224 -0.3771  0.4584 -0.3915
  668TMC3    H2 9890   1.831   0.042  15.455 -0.6059 -0.7717  0.3235
  668TMC3    C7 9891   1.636   4.598  15.466  0.0730  0.2531 -0.4758
  668TMC3    C8 9892   1.999   0.110  15.288  0.0563  0.0334  0.0244
  668TMC3    O1 9893   1.676   4.635  15.578 -0.0495  0.1562 -0.1270
  668TMC3    O2 9894   2.046   0.090  15.400 -0.5578  0.0260  0.2887
  669TMC3    C1 9895   4.200   0.047  14.966 -0.1248  0.7722  0.5228
  669TMC3    C2 9896   4.103   0.077  14.877  0.3096  0.1537  0.3193
  669TMC3    C3 9897   4.142   0.131  14.766 -0.7534  0.1202  0.0038
  669TMC3    C4 9898   4.329   0.075  14.946 -0.2456  0.4180  0.3586
  669TMC3    C5 9899   4.366   0.139  14.832  0.2312 -0.0755  0.2320
  669TMC3    C6 9900   4.274   0.160  14.737  0.2222 -0.3705 -0.6835
  669TMC3     C 9901   4.152   4.700  15.085  0.1833 -1.2552  0.1730
  669TMC3     O 9902   4.055   0.021  15.144 -0.2313 -0.6596  0.0438
  669TMC3     H 9903   3.999   0.053  14.895  0.1936 -0.3023 -0.9581
  669TMC3    H1 9904   4.388   0.067  15.036  0.6473 -0.9237 -0.3429
  669TMC3    H2 9905   4.303   0.214  14.647 -1.2863  0.5097 -0.6465
  669TMC3    C7 9906   4.504   0.176  14.801  0.1976 -0.1886  0.5134
  669TMC3    C8 9907   4.052   0.129  14.657  0.2842 -0.2103 -0.8173
  669TMC3    O1 9908   4.532   0.227  14.693  0.1017 -0.5896 -0.2806
  669TMC3    O2 9909   4.101   0.122  14.546 -0.1337 -0.1963 -0.1179
  670MPD2     C 9910   3.200   2.190  14.079 -0.5033 -1.0090  0.0606
  670MPD2    C1 9911   3.183   2.052  14.096 -0.2233 -0.4176 -0.7598
  670MPD2    C2 9912   3.110   2.005  14.207 -0.2325  0.6138 -0.3967
  670MPD2    C3 9913   3.048   2.101  14.291 -0.6284 -1.0991 -0.5386
  670MPD2    C4 9914   3.067   2.235  14.275 -0.6676  0.7770 -0.2419
  670MPD2    C5 9915   3.140   2.279  14.163  0.1072 -0.1018 -0.6620
  670MPD2     H 9916   3.090   1.901  14.229  0.2497  0.1956 -1.9492
  670MPD2    H1 9917   3.007   2.306  14.330  1.0250  1.1163  1.1633
  670MPD2    H2 9918   3.248   2.233  13.992  0.3946 -0.4715  0.8189
  670MPD2    H3 9919   3.137   2.383  14.134 -0.4334 -0.0599 -0.4575
  670MPD2     N 9920   2.982   2.049  14.401 -0.0802 -0.0132  0.8554
  670MPD2    H5 9921   2.985   1.949  14.415 -0.8085 -0.0674  0.6250
  670MPD2    N1 9922   3.222   1.953  14.000  0.4207  0.0131  0.5004
  670MPD2    H7 9923   3.165   1.869  14.009  1.7391 -1.0266 -0.7870
  671TMC3    C1 9924   2.799   2.002  14.522  0.5638  0.6009  0.7807
  671TMC3    C2 9925   2.870   1.891  14.562 -0.3932  0.7175 -0.2111
  671TMC3    C3 9926   2.832   1.770  14.513  0.1950 -0.1612  0.4143
  671TMC3    C4 9927   2.676   1.994  14.461  0.2838 -0.6313 -0.1564
  671TMC3    C5 9928   2.631   1.866  14.429 -0.2743  0.4686 -0.0282
  671TMC3    C6 9929   2.707   1.757  14.456 -0.1302 -0.9253 -0.6429
  671TMC3     C 9930   2.877   2.110  14.468 -0.0907 -0.6130  0.2174
  671TMC3     O 9931   2.824   2.215  14.435  0.2317  0.2053  0.2854
  671TMC3     H 9932   2.969   1.908  14.602  0.9648 -0.3867 -3.0647
  671TMC3    H1 9933   2.626   2.085  14.430 -0.1702 -0.2237  1.7428
  671TMC3    H2 9934   2.666   1.661  14.426 -1.6567  0.1006 -1.8479
  671TMC3    C7 9935   2.526   1.841  14.331 -0.7921  0.1457  0.2906
  671TMC3    C8 9936   2.929   1.686  14.442 -0.0402 -0.6941  0.1648
  671TMC3    O1 9937   2.539   1.745  14.253 -0.4921 -0.5316  0.5356
  671TMC3    O2 9938   2.908   1.641  14.332 -0.5926 -0.6857  0.5653
  672MPD2     C 9939   3.553   2.547   0.895 -1.0354  0.4286  0.6955
  672MPD2    C1 9940   3.574   2.412   0.883 -0.2702  0.0326 -0.3398
  672MPD2    C2 9941   3.626   2.334   0.991  0.0625 -0.0551  0.9415
  672MPD2    C3 9942   3.650   2.400   1.113  0.0733  0.4914  0.1289
  672MPD2    C4 9943   3.614   2.531   1.130 -0.1188 -0.3533 -0.1021
  672MPD2    C5 9944   3.581   2.604   1.021  0.2074  0.5194  0.4364
  672MPD2     H 9945   3.623   2.226   0.985 -0.9804  0.0804 -0.9585
  672MPD2    H1 9946   3.636   2.578   1.225 -3.1857 -5.1145  2.9321
  672MPD2    H2 9947   3.517   2.608   0.813 -1.3244  0.5262  0.8937
  672MPD2    H3 9948   3.551   2.708   1.027 -0.7365  0.1358  2.1917
  672MPD2     N 9949   3.703   2.332   1.221  1.2664  0.3162  0.2158
  672MPD2    H5 9950   3.697   2.385   1.307 -1.2174  1.0546 -0.4382
  672MPD2    N1 9951   3.550   2.340   0.770  0.6113 -0.2069  0.1026
  672MPD2    H7 9952   3.569   2.241   0.781  1.8319  0.1997  1.6254
  673TMC3    C1 9953   3.471   2.288   0.561 -0.2863  0.4271  0.3887
  673TMC3    C2 9954   3.557   2.197   0.522  0.2008  0.0166 -0.4131
  673TMC3    C3 9955   3.515   2.104   0.431 -0.2564 -0.0926 -0.0349
  673TMC3    C4 9956   3.344   2.287   0.518 -0.1556  0.3148  0.4407
  673TMC3    C5 9957   3.301   2.203   0.423  0.0382 -0.7782 -0.6683
  673TMC3    C6 9958   3.389   2.104   0.375 -0.4515 -0.3481 -0.3987
  673TMC3     C 9959   3.493   2.390   0.655  0.2258  0.2299  0.6233
  673TMC3     O 9960   3.441   2.499   0.636  0.5757  0.1005  0.1728
  673TMC3     H 9961   3.662   2.201   0.549  0.2793  1.7446 -1.0044
  673TMC3    H1 9962   3.276   2.357   0.568  0.7261  0.4331  1.4774
  673TMC3    H2 9963   3.359   2.026   0.306  0.7067  1.3946 -2.8734
  673TMC3    C7 9964   3.167   2.194   0.363  0.3780 -0.1211  0.2025
  673TMC3    C8 9965   3.622   2.051   0.349  0.1208 -0.1515  0.4579
  673TMC3    O1 9966   3.123   2.083   0.342  0.0926  0.6621 -0.4029
  673TMC3    O2 9967   3.581   2.010   0.239  0.1550  0.1825  0.2461
  674MPD2     C 9968   3.067   2.879   0.101  0.6539 -0.9875  0.0977
  674MPD2    C1 9969   3.030   2.761   0.047 -0.8090  0.3056  0.0664
  674MPD2    C2 9970   2.898   2.753  17.685 -0.6473 -0.3719  0.2361
  674MPD2    C3 9971   2.821   2.867  17.672 -0.7060 -0.6031 -0.0321
  674MPD2    C4 9972   2.865   2.987   0.040 -0.5228 -0.2108 -0.1062
  674MPD2    C5 9973   2.987   2.988   0.097 -0.7701 -0.5362  0.1389
  674MPD2     H 9974   2.860   2.657  17.650  0.5122 -1.6762  2.5205
  674MPD2    H1 9975   2.803   3.075   0.024 -0.1987 -0.0859 -0.6668
  674MPD2    H2 9976   3.161   2.885   0.155  1.4094 -3.1380 -0.9890
  674MPD2    H3 9977   3.017   3.083   0.140 -2.5461 -0.4539  1.2101
  674MPD2     N 9978   2.693   2.842  17.618  0.4901  0.1588  0.5028
  674MPD2    H5 9979   2.670   2.756  17.569  0.7302 -0.7039  1.9131
  674MPD2    N1 9980   3.118   2.650   0.063 -0.0464 -0.5104  0.3702
  674MPD2    H7 9981   3.210   2.664   0.104  0.9178  0.3926 -2.1144
  675TMC3    C1 9982   3.192   2.427   0.042  0.1741  0.0404 -0.3141
  675TMC3    C2 9983   3.175   2.301  17.675 -0.3470  0.5652 -0.0589
  675TMC3    C3 9984   3.273   2.203  17.677  0.2203 -0.4096  0.3899
  675TMC3    C4 9985   3.320   2.464   0.072  0.5862  0.5863 -0.0020
  675TMC3    C5 9986   3.419   2.366   0.076 -0.2642  0.4201 -0.4196
  675TMC3    C6 9987   3.393   2.233   0.056 -0.2343  0.3138  0.5335
  675TMC3     C 9988   3.090   2.527   0.011 -0.4620  0.0988 -0.0779
  675TMC3     O 9989   2.993   2.488  17.631  0.1279  0.1285 -0.2621
  675TMC3     H 9990   3.079   2.265  17.639  0.3551 -1.9919  0.5755
  675TMC3    H1 9991   3.346   2.568   0.084 -0.4700  0.7333  1.1037
  675TMC3    H2 9992   3.469   2.156   0.069  0.1449  0.9866  2.4331
  675TMC3    C7 9993   3.537   2.395   0.165  0.8347 -0.1375  1.0165
  675TMC3    C8 9994   3.239   2.063  17.656 -0.8454  0.7960 -0.9084
  675TMC3    O1 9995   3.620   2.306   0.165 -0.1670 -0.4426  0.5307
  675TMC3    O2 9996   3.315   2.007  17.573 -0.1266 -0.3998 -1.1280
  676MPD2     C 9997   1.027   0.847  11.469 -0.3058  0.0949  0.0168
  676MPD2    C1 9998   0.928   0.781  11.538  0.6140 -0.2282 -0.3676
  676MPD2    C2 9999   0.851   0.687  11.469 -0.1018 -0.4193  0.6338
  676MPD2    C310000   0.875   0.663  11.333 -0.1656 -0.1186 -1.3617
  676MPD2    C410001   0.975   0.731  11.271 -0.4252 -0.1212 -0.3737
  676MPD2    C510002   1.047   0.828  11.338  0.6668  0.0912 -0.1131
  676MPD2     H10003   0.777   0.625  11.520 -0.5794 -0.1151  0.3136
  676MPD2    H110004   1.006   0.708  11.170  1.1838 -1.1955  0.3623
  676MPD2    H210005   1.094   0.919  11.513  0.3907 -0.1520 -0.6250
  676MPD2    H310006   1.129   0.877  11.286  0.3337 -0.8132 -1.4908
  676MPD2     N10007   0.804   0.575  11.249  0.3411 -0.3754  0.5584
  676MPD2    H510008   0.809   0.583  11.148 -2.6540  1.1930  0.5260
  676MPD2    N110009   0.902   0.803  11.669  0.2098 -0.3652  0.1156
  676MPD2    H710010   0.824   0.761  11.718 -1.3195  1.3997 -0.7950
  677TMC3    C110011   0.934   0.914  11.886 -0.4745 -0.1469  0.3099
  677TMC3    C210012   0.883   0.813  11.964 -0.1111 -0.1037  0.0429
  677TMC3    C310013   0.903   0.824  12.095 -0.3553 -0.1417  0.1272
  677TMC3    C410014   0.978   1.030  11.949  0.9084 -0.0295  0.3225
  677TMC3    C510015   0.984   1.039  12.085 -0.0857 -0.2547 -0.1929
  677TMC3    C610016   0.944   0.932  12.159 -0.0375  0.3558  0.3388
  677TMC3     C10017   0.978   0.892  11.749 -0.8210 -0.0364 -0.4459
  677TMC3     O10018   1.063   0.971  11.712 -0.1138  0.5737 -0.0312
  677TMC3     H10019   0.872   0.713  11.924 -0.0911  0.3486 -1.0835
  677TMC3    H110020   1.028   1.110  11.895  1.8533  0.0361  1.3073
  677TMC3    H210021   0.957   0.933  12.266  0.7357  0.8877  0.2349
  677TMC3    C710022   1.060   1.149  12.152  0.0858 -0.4329  0.2527
  677TMC3    C810023   0.880   0.701  12.165  0.5871 -0.6661  0.1415
  677TMC3    O110024   1.099   1.133  12.268  0.7088  0.0989  0.3078
  677TMC3    O210025   0.773   0.650  12.139  0.4030  0.2331  0.1420
  678MPD2     C10026   2.000   1.130   1.266 -0.6574 -0.6929 -0.4210
  678MPD2    C110027   2.027   1.045   1.161 -0.2628  0.6705 -0.4357
  678MPD2    C210028   1.929   0.958   1.123 -0.4325 -0.0247 -0.6530
  678MPD2    C310029   1.800   0.960   1.180  0.3568 -0.1831  1.3225
  678MPD2    C410030   1.786   1.041   1.285 -0.3643 -0.5721  0.1251
  678MPD2    C510031   1.887   1.115   1.339  0.7492  0.0819 -0.0577
  678MPD2     H10032   1.932   0.890   1.038  0.0383 -1.9477  0.8973
  678MPD2    H110033   1.700   1.036   1.351  0.0156 -0.8994  0.5960
  678MPD2    H210034   2.085   1.188   1.299 -0.8267 -1.4414  1.3485
  678MPD2    H310035   1.870   1.177   1.426 -0.8226  1.3488 -1.2616
  678MPD2     N10036   1.699   0.876   1.132  0.2626  0.5686 -0.1830
  678MPD2    H510037   1.730   0.816   1.057 -1.0124  0.1871 -0.4089
  678MPD2    N110038   2.146   1.056   1.083  0.6943  0.0225  0.3090
  678MPD2    H710039   2.150   0.999   0.999  0.9239 -0.2183  0.4824
  679TMC3    C110040   2.575   1.002   0.977  0.2250  0.2532 -0.4652
  679TMC3    C210041   2.485   1.061   1.062  0.4627  0.0499 -0.3741
  679TMC3    C310042   2.360   1.097   1.014  0.9707 -0.6324 -0.4759
  679TMC3    C410043   2.544   0.982   0.848  0.1868  0.2440 -0.0114
  679TMC3    C510044   2.419   1.020   0.802 -0.1682  0.5195  0.1607
  679TMC3    C610045   2.324   1.078   0.884 -0.2981 -0.2040 -0.5064
  679TMC3     C10046   2.666   0.905   1.025  0.6195  1.2352 -0.4134
  679TMC3     O10047   2.693   0.814   0.949  0.3158  0.1520  0.3078
  679TMC3     H10048   2.502   1.043   1.167 -0.5751 -3.3952 -0.7811
  679TMC3    H110049   2.606   0.938   0.771  0.3471  2.6418 -1.2477
  679TMC3    H210050   2.237   1.136   0.855  0.0841  0.8128  0.3761
  679TMC3    C710051   2.382   1.012   0.658  0.3359  0.8639  0.5539
  679TMC3    C810052   2.266   1.113   1.119 -1.1738 -1.1065 -0.6335
  679TMC3    O110053   2.462   1.003   0.569 -0.2750  0.2640  0.3535
  679TMC3    O210054   2.303   1.142   1.232  0.1975  0.2986  0.1233
  680MPD2     C10055   3.340   3.692  13.917  0.0523 -0.1948  0.0512
  680MPD2    C110056   3.215   3.739  13.886 -0.1692  0.0821 -0.3111
  680MPD2    C210057   3.186   3.873  13.906 -0.3442 -0.0023 -0.2129
  680MPD2    C310058   3.291   3.962  13.942  0.6352  0.1882 -0.3304
  680MPD2    C410059   3.412   3.910  13.970 -0.2076 -0.1976  0.2802
  680MPD2    C510060   3.431   3.774  13.966  0.8972 -0.8247  0.0202
  680MPD2     H10061   3.084   3.901  13.880 -0.9815  0.3873  2.7421
  680MPD2    H110062   3.488   3.978  14.006  0.5366 -2.1459  2.3822
  680MPD2    H210063   3.370   3.588  13.922 -0.5982 -0.2827  1.9410
  680MPD2    H310064   3.535   3.748  13.978  1.3976  0.4969 -1.4180
  680MPD2     N10065   3.265   4.098  13.954 -0.2199 -0.6664  0.3466
  680MPD2    H510066   3.341   4.158  13.982 -0.3853  0.3200 -1.3546
  680MPD2    N110067   3.100   3.666  13.851  0.6755  0.2088  0.8062
  680MPD2    H710068   3.009   3.703  13.828  1.2224  1.6628  0.9767
  681TMC3    C110069   2.979   3.472  13.793 -0.2590 -0.7861 -0.0182
  681TMC3    C210070   2.942   3.351  13.831  0.8656 -0.3387 -0.4471
  681TMC3    C310071   2.811   3.320  13.803  0.2246  0.5077  1.1547
  681TMC3    C410072   2.914   3.539  13.696  0.1493 -0.2829 -0.0473
  681TMC3    C510073   2.790   3.500  13.666 -0.4854  1.0453 -0.5485
  681TMC3    C610074   2.729   3.392  13.725  0.3913 -0.9467 -1.0541
  681TMC3     C10075   3.096   3.529  13.850  0.0021 -0.3197 -0.2832
  681TMC3     O10076   3.183   3.447  13.880 -0.1987  0.2412 -0.4056
  681TMC3     H10077   2.994   3.290  13.904 -1.3189  1.2856  2.4671
  681TMC3    H110078   2.952   3.633  13.656  0.7992 -1.0648 -1.2656
  681TMC3    H210079   2.625   3.364  13.721  0.4824 -1.7187  1.5076
  681TMC3    C710080   2.716   3.555  13.559 -1.1475  0.0524  0.3970
  681TMC3    C810081   2.755   3.237  13.910 -0.2248  0.7019 -0.0084
  681TMC3    O110082   2.602   3.518  13.548  0.3097 -0.1275  0.3289
  681TMC3    O210083   2.814   3.135  13.932  0.2789  0.0982 -0.1314
  682MPD2     C10084   4.684   0.654  10.336 -0.4289 -0.0698  0.5859
  682MPD2    C110085   4.549   0.620  10.342  0.1254 -0.4695  0.3738
  682MPD2    C210086   4.448   0.708  10.360 -0.4731 -1.2273 -0.6164
  682MPD2    C310087   4.478   0.844  10.367 -0.4451 -0.0424  0.6262
  682MPD2    C410088   4.612   0.879  10.369  0.4156 -0.0016  0.1232
  682MPD2    C510089   4.713   0.793  10.350  0.8920 -0.7925 -0.3035
  682MPD2     H10090   4.348   0.670  10.376 -0.4902 -2.3271 -3.2557
  682MPD2    H110091   4.626   0.986  10.380  1.0883  0.1338 -2.0471
  682MPD2    H210092   0.046   0.588  10.316 -0.4015  0.6585 -1.7933
  682MPD2    H310093   0.096   0.823  10.354  0.3495  0.6594  3.2535
  682MPD2     N10094   4.384   0.948  10.354  0.1276 -0.7077  0.4861
  682MPD2    H510095   4.424   1.041  10.362  2.2348 -1.5350 -0.3854
  682MPD2    N110096   4.512   0.482  10.331  0.0702 -0.1468 -0.3403
  682MPD2    H710097   4.415   0.458  10.348 -0.2030  2.2784  1.4126
  683TMC3    C110098   4.107   1.127  10.601 -0.1296 -0.1441  0.0806
  683TMC3    C210099   3.970   1.110  10.575  0.1356  0.3494  0.4005
  683TMC3    C310100   3.941   1.069  10.442  0.6407  0.2928  0.1980
  683TMC3    C410101   4.206   1.081  10.517 -0.4216 -0.0947 -0.4538
  683TMC3    C510102   4.160   1.029  10.392 -0.1189  0.3309 -0.7516
  683TMC3    C610103   4.035   1.020  10.351  0.1445  1.0027 -0.3815
  683TMC3     C10104   4.153   1.151  10.740  0.1730  0.7233  0.4156
  683TMC3     O10105   4.276   1.171  10.750  0.2237  0.1722 -0.1477
  683TMC3     H10106   3.892   1.152  10.637 -0.5820  0.9018 -0.8698
  683TMC3    H110107   4.311   1.079  10.542 -0.0973  1.8926 -1.7203
  683TMC3    H210108   4.000   0.990  10.253  0.3608 -2.0907  0.4952
  683TMC3    C710109   4.250   0.934  10.325  0.4193  0.4770  0.3103
  683TMC3    C810110   3.818   0.994  10.438  0.2347 -0.1548  0.3318
  683TMC3    O110111   4.199   0.851  10.254 -0.2273  0.2946 -0.0747
  683TMC3    O210112   3.712   1.053  10.467  0.0331 -0.1705 -0.7543
  684MPD2     C10113   2.595   0.613  16.373 -0.6943 -0.3075  0.4970
  684MPD2    C110114   2.652   0.646  16.248 -0.0749 -0.0308 -0.3773
  684MPD2    C210115   2.696   0.773  16.221 -0.4782  0.2478  0.2185
  684MPD2    C310116   2.702   0.876  16.314 -0.5261  0.4687 -0.3720
  684MPD2    C410117   2.640   0.843  16.433  0.2034  0.1212  0.7733
  684MPD2    C510118   2.595   0.715  16.459  0.6991  0.0135  0.3995
  684MPD2     H10119   2.762   0.785  16.136 -1.6400 -0.3503 -0.7716
  684MPD2    H110120   2.624   0.915  16.512 -2.3367 -1.6271  1.8449
  684MPD2    H210121   2.552   0.516  16.394 -0.1739 -0.1871  2.0798
  684MPD2    H310122   2.545   0.698  16.553 -0.6066  0.3402 -0.2321
  684MPD2     N10123   2.769   0.999  16.292 -0.3946 -0.0584  0.1524
  684MPD2    H510124   2.777   1.061  16.372 -1.1532  0.3342 -0.0856
  684MPD2    N110125   2.650   0.542  16.150 -0.4427 -0.6117  0.0280
  684MPD2    H710126   2.691   0.563  16.060  0.1912 -0.2053  0.4133
  685TMC3    C110127   2.603   0.349  16.041 -0.0690  0.2094  0.5100
  685TMC3    C210128   2.491   0.353  15.966 -0.1336  0.1186 -0.6337
  685TMC3    C310129   2.506   0.306  15.839  0.1501 -0.7373 -0.1687
  685TMC3    C410130   2.720   0.288  16.005  0.0889 -0.3439 -0.1427
  685TMC3    C510131   2.733   0.244  15.872  0.1445  0.3334 -0.3508
  685TMC3    C610132   2.622   0.251  15.790  0.0361 -0.0703 -0.2103
  685TMC3     C10133   2.594   0.416  16.164 -0.9782 -0.9811 -0.5679
  685TMC3     O10134   2.546   0.354  16.259  0.1470 -0.6154  0.1037
  685TMC3     H10135   2.407   0.413  15.999 -1.3815 -1.4198 -0.9812
  685TMC3    H110136   2.792   0.280  16.086  1.3969 -1.3711 -1.3998
  685TMC3    H210137   2.640   0.217  15.689 -0.9342 -0.1653 -0.3465
  685TMC3    C710138   2.825   0.134  15.843  0.6123 -0.0956  0.1788
  685TMC3    C810139   2.397   0.304  15.747 -0.0527 -0.3816 -0.1664
  685TMC3    O110140   2.832   0.084  15.735  0.2567  0.5908  0.3946
  685TMC3    O210141   2.417   0.301  15.626 -0.0786  0.5923 -0.1722
  686MPD2     C10142   4.163   0.457  15.628  0.0230  0.1329 -0.2454
  686MPD2    C110143   4.221   0.388  15.731 -0.0224 -0.2489  0.4582
  686MPD2    C210144   4.353   0.353  15.717 -0.4689  0.4419  0.2595
  686MPD2    C310145   4.422   0.373  15.599  0.2390  0.1966  0.0782
  686MPD2    C410146   4.364   0.449  15.500  0.4931  0.3308 -0.3611
  686MPD2    C510147   4.235   0.487  15.516 -0.9389  0.4371  0.9315
  686MPD2     H10148   4.402   0.303  15.800  1.1617  1.6361  0.0112
  686MPD2    H110149   4.414   0.474  15.407 -0.1356  1.6174 -0.3573
  686MPD2    H210150   4.057   0.479  15.638  0.6132  2.4927  0.7890
  686MPD2    H310151   4.176   0.537  15.440 -0.6894  0.1182  0.5288
  686MPD2     N10152   4.551   0.320  15.581 -0.6938 -0.2747  0.7510
  686MPD2    H510153   4.605   0.361  15.505 -1.8322 -1.0660 -0.4895
  686MPD2    N110154   4.135   0.358  15.840  0.3121 -0.1130 -0.3380
  686MPD2    H710155   4.037   0.375  15.822 -0.1087 -1.2916  0.8875
  687TMC3    C110156   4.542   0.114  15.711  0.6223  0.0273  0.1398
  687TMC3    C210157   4.417   0.078  15.678  0.2596 -0.1545 -0.3630
  687TMC3    C310158   4.367   4.678  15.727 -0.3501  0.3561  0.0758
  687TMC3    C410159   4.625   0.022  15.783  0.5041  0.0484  0.9198
  687TMC3    C510160   4.565   4.634  15.841 -0.6072 -0.4546  1.1069
  687TMC3    C610161   4.437   4.603  15.819  0.1669 -0.6890 -0.3225
  687TMC3     C10162   4.616   0.223  15.648 -0.1256  0.1989  0.1622
  687TMC3     O10163   0.005   0.184  15.626 -0.6026 -0.3630  0.4902
  687TMC3     H10164   4.371   0.133  15.597  1.6742  2.4659  0.6059
  687TMC3    H110165   0.006   0.047  15.808  0.9541 -1.0432  0.1870
  687TMC3    H210166   4.390   4.521  15.873  0.4240 -0.0865  0.8099
  687TMC3    C710167   4.614   4.617  15.983  0.4308  0.0252  0.0575
  687TMC3    C810168   4.221   4.676  15.731  0.6042 -0.1239 -0.0248
  687TMC3    O110169   4.569   4.699  16.062  0.3165 -0.6629 -0.0463
  687TMC3    O210170   4.177   4.602  15.816 -0.0154  0.0899  0.4550
  688MPD2     C10171   3.364   3.762  17.449 -0.6570 -0.1961 -0.5555
  688MPD2    C110172   3.420   3.634  17.441  0.0889 -1.1038 -0.2103
  688MPD2    C210173   3.532   3.614  17.357 -0.1413 -1.5345  0.2785
  688MPD2    C310174   3.577   3.720  17.284  0.3672 -0.0012  0.5745
  688MPD2    C410175   3.525   3.850  17.301  0.0347 -0.7411  0.2850
  688MPD2    C510176   3.423   3.870  17.387  0.9092  0.0977 -0.1144
  688MPD2     H10177   3.585   3.520  17.360  0.2598 -1.3392 -0.5276
  688MPD2    H110178   3.564   3.938  17.251 -3.3011  0.3472 -0.3669
  688MPD2    H210179   3.290   3.783  17.526 -0.5385 -3.2599  0.4233
  688MPD2    H310180   3.389   3.969  17.413  1.0856 -0.0499  0.6682
  688MPD2     N10181   3.685   3.707  17.199 -0.1523  0.0827 -0.0943
  688MPD2    H510182   3.732   3.789  17.162  1.4224  0.2808  2.3617
  688MPD2    N110183   3.379   3.519  17.520 -0.7896 -0.5452  0.3448
  688MPD2    H710184   3.432   3.435  17.498 -0.9953 -0.0492 -1.9844
  689TMC3    C110185   3.307   3.416   0.029  0.2035  0.0644 -0.3011
  689TMC3    C210186   3.293   3.446   0.167 -0.8575 -0.7164 -0.7156
  689TMC3    C310187   3.277   3.335   0.253 -0.2003 -0.6293 -0.5209
  689TMC3    C410188   3.326   3.287  17.667 -0.4637 -0.3732 -0.3198
  689TMC3    C510189   3.329   3.187   0.078  0.4997 -0.4993  0.2424
  689TMC3    C610190   3.298   3.209   0.210 -0.8433 -0.3715  0.2417
  689TMC3     C10191   3.296   3.523  17.627 -0.4494  0.2411 -0.8638
  689TMC3     O10192   3.228   3.619  17.668 -0.0288  0.0355 -0.8070
  689TMC3     H10193   3.269   3.546   0.201  0.3654 -0.4861 -0.5351
  689TMC3    H110194   3.334   3.260  17.563  0.6578 -1.8136  0.1332
  689TMC3    H210195   3.283   3.124   0.276 -2.0474  1.4550  2.3197
  689TMC3    C710196   3.377   3.055   0.042 -0.1568 -0.1225 -0.0359
  689TMC3    C810197   3.298   3.352   0.393  0.7335  0.8998 -0.3935
  689TMC3    O110198   3.426   2.993   0.140  0.1155  0.5070  0.0117
  689TMC3    O210199   3.260   3.268   0.474 -0.5248  0.3632  0.7621
  690MPD2     C10200   1.098   0.913  15.774  0.6697  0.6865 -0.0724
  690MPD2    C110201   1.037   0.889  15.657  0.6231  0.5581  0.8156
  690MPD2    C210202   1.097   0.918  15.537  0.1693 -0.6192  0.3093
  690MPD2    C310203   1.227   0.966  15.534 -0.4131 -0.2292  0.2492
  690MPD2    C410204   1.292   0.975  15.655  0.0170 -0.0048 -0.2379
  690MPD2    C510205   1.224   0.951  15.769  0.5070  0.7455 -0.0268
  690MPD2     H10206   1.041   0.905  15.446  0.6906  0.2520 -0.1310
  690MPD2    H110207   1.394   1.009  15.667 -0.4086  1.3629 -0.5067
  690MPD2    H210208   1.056   0.899  15.873  1.9704  1.5437  0.6022
  690MPD2    H310209   1.289   0.960  15.856 -0.0847  5.1074 -0.0469
  690MPD2     N10210   1.281   0.986  15.405  0.4345  0.5107 -0.1626
  690MPD2    H510211   1.227   0.969  15.320  0.7058  0.5486 -0.3423
  690MPD2    N110212   0.908   0.830  15.658 -0.8772  0.9714 -0.2416
  690MPD2    H710213   0.852   0.821  15.574  2.0538  1.1486 -2.2070
  691TMC3    C110214   0.727   0.688  15.718 -0.2268  0.1799 -0.1723
  691TMC3    C210215   0.654   0.731  15.612  0.3621  1.0049 -0.2407
  691TMC3    C310216   0.549   0.662  15.566 -0.0650 -0.0110  0.0378
  691TMC3    C410217   0.696   0.570  15.779 -0.1538 -0.0237 -0.1869
  691TMC3    C510218   0.589   0.501  15.731 -0.4153  0.0424  0.0401
  691TMC3    C610219   0.524   0.543  15.622 -0.5296  0.2806  0.3334
  691TMC3     C10220   0.841   0.766  15.767 -0.3319 -0.2720  0.1658
  691TMC3     O10221   0.869   0.752  15.886  0.0037  0.0296 -0.2070
  691TMC3     H10222   0.678   0.820  15.555 -0.0710  0.3553 -1.4500
  691TMC3    H110223   0.778   0.532  15.839  1.2333 -0.7226 -2.5100
  691TMC3    H210224   0.430   0.499  15.589 -0.7237 -0.9721  2.5593
  691TMC3    C710225   0.574   0.361  15.763 -0.1012 -0.2432 -0.5844
  691TMC3    C810226   0.465   0.718  15.468  0.0085 -0.2726 -0.6822
  691TMC3    O110227   0.647   0.313  15.851 -0.8408  0.3892 -0.3522
  691TMC3    O210228   0.386   0.644  15.417 -0.0738  0.0932 -0.6051
  692TMC3    C110229   2.593   2.269  15.772  0.5271  0.5813  0.0234
  692TMC3    C210230   2.721   2.319  15.791 -0.6807  0.6428  0.0579
  692TMC3    C310231   2.826   2.240  15.753 -0.6099 -0.2254 -0.0058
  692TMC3    C410232   2.574   2.142  15.739  0.3958  0.0967 -1.3845
  692TMC3    C510233   2.686   2.063  15.723 -0.1174  0.0848  0.1750
  692TMC3    C610234   2.811   2.107  15.729  0.5432  0.1640 -0.4819
  692TMC3     C10235   2.475   2.349  15.813 -0.7354 -0.8738  0.8197
  692TMC3     O10236   2.370   2.296  15.784  0.0403 -0.2891  0.2271
  692TMC3     H10237   2.742   2.425  15.796 -1.9350  0.8360  1.2320
  692TMC3    H110238   2.476   2.100  15.716  0.9876 -1.6425 -0.7212
  692TMC3    H210239   2.885   2.053  15.671 -0.1343 -1.1281 -0.1347
  692TMC3    C710240   2.673   1.933  15.666 -0.3178 -0.2350 -0.0257
  692TMC3    C810241   2.946   2.267  15.819  0.3381 -0.0495 -0.6622
  692TMC3    O110242   2.571   1.915  15.602  0.4850  0.3014 -0.1516
  692TMC3    O210243   3.043   2.206  15.780 -0.0275 -0.1032 -0.0270
  693MPD2     C10244   1.826   0.042  10.537 -0.5995 -0.0955 -0.0489
  693MPD2    C110245   1.823   4.707  10.661 -0.0720 -0.4064  0.1412
  693MPD2    C210246   1.925   4.615  10.702 -0.2384 -0.5820  0.1440
  693MPD2    C310247   2.019   4.584  10.613  0.5074 -0.4191  0.4673
  693MPD2    C410248   2.029   4.649  10.492  0.6347 -0.3366 -0.0629
  693MPD2    C510249   1.927   0.010  10.449 -0.0852 -0.0779 -0.6992
  693MPD2     H10250   1.921   4.570  10.801  1.3258  0.5845  0.7407
  693MPD2    H110251   2.114   4.628  10.428 -1.6495 -3.3594 -2.0923
  693MPD2    H210252   1.742   0.100  10.502  1.0677  2.0175 -0.5105
  693MPD2    H310253   1.936   0.048  10.348  1.3985  1.4601  0.0247
  693MPD2     N10254   2.131   4.502  10.652 -0.1043 -0.0321 -0.1036
  693MPD2    H510255   2.199   4.499  10.576  1.0605 -1.6219  0.9912
  693MPD2    N110256   1.706   0.015  10.739 -0.0500  0.2888 -0.1276
  693MPD2    H710257   1.640   0.073  10.689  0.1988  1.7347  1.2113
  694TMC3    C110258   1.536   0.002  10.900  0.6113  0.2570  0.2432
  694TMC3    C210259   1.445   0.057  10.812 -0.2647 -0.1528 -0.1950
  694TMC3    C310260   1.315   0.063  10.849  0.3270 -1.1262 -0.0937
  694TMC3    C410261   1.494   4.679  11.024  0.4076  0.1303 -0.5836
  694TMC3    C510262   1.370   4.710  11.060  0.1970 -0.2225 -0.2487
  694TMC3    C610263   1.270   0.027  10.972  0.2309 -0.4592  0.3751
  694TMC3     C10264   1.679   4.707  10.872 -0.6259  0.2264  0.0943
  694TMC3     O10265   1.752   4.669  10.964  0.3410 -0.5740 -0.5264
  694TMC3     H10266   1.466   0.095  10.713 -0.1187  0.0722 -0.0765
  694TMC3    H110267   1.569   4.663  11.101  0.2794 -0.0117 -0.4891
  694TMC3    H210268   1.170   0.041  11.011  0.1951 -1.6623  0.7198
  694TMC3    C710269   1.329   4.679  11.196 -0.1299 -0.2470  0.1018
  694TMC3    C810270   1.210   0.088  10.749 -0.2760 -0.2745 -0.2701
  694TMC3    O110271   1.237   0.033  11.229  0.0034  0.4210  0.1595
  694TMC3    O210272   1.239   0.170  10.664  0.2005 -0.1882 -0.3145
  695MPD2     C10273   3.010   1.583  13.338 -0.1920  0.0803  0.0507
  695MPD2    C110274   2.981   1.568  13.471  0.2208 -0.2648  0.7975
  695MPD2    C210275   2.854   1.620  13.513  0.1898  0.4357 -0.1695
  695MPD2    C310276   2.764   1.678  13.426 -0.2367 -0.6989 -0.3074
  695MPD2    C410277   2.798   1.693  13.291 -0.6987  0.0960 -0.1052
  695MPD2    C510278   2.917   1.644  13.254 -0.0954  0.2295  0.3297
  695MPD2     H10279   2.828   1.611  13.618  1.1027 -0.7820 -0.0429
  695MPD2    H110280   2.734   1.736  13.215 -0.1703  0.6846 -0.2207
  695MPD2    H210281   3.103   1.551  13.291 -0.4974  0.0543 -0.5412
  695MPD2    H310282   2.946   1.667  13.152 -0.1500 -1.3484 -0.0431
  695MPD2     N10283   2.655   1.740  13.482  0.2587 -0.1291  0.0532
  695MPD2    H510284   2.653   1.722  13.581  1.6016 -1.5778 -0.1812
  695MPD2    N110285   3.075   1.527  13.568  0.0824  0.0464 -0.0915
  695MPD2    H710286   3.040   1.497  13.659  0.4379 -0.7007 -0.2026
  696TMC3    C110287   2.450   1.868  13.503 -1.0374 -0.1095 -0.0192
  696TMC3    C210288   2.411   1.795  13.616  0.0359 -0.1147  0.1178
  696TMC3    C310289   2.301   1.839  13.687  0.6666 -0.7311  0.2963
  696TMC3    C410290   2.377   1.977  13.465 -0.1729 -0.0452  0.4492
  696TMC3    C510291   2.261   2.015  13.529 -0.2477 -0.0150 -0.3792
  696TMC3    C610292   2.227   1.943  13.643  0.7849  0.3384 -0.0007
  696TMC3     C10293   2.562   1.817  13.418  0.3544 -0.5371  0.5950
  696TMC3     O10294   2.563   1.846  13.299 -0.3480  0.0887 -0.5957
  696TMC3     H10295   2.473   1.713  13.649  0.8862  0.8393  0.9064
  696TMC3    H110296   2.410   2.036  13.380 -0.9390  0.2088  0.3335
  696TMC3    H210297   2.122   1.948  13.670  0.5485 -3.2092 -0.2485
  696TMC3    C710298   2.216   2.152  13.520 -0.9896 -0.1191  0.2531
  696TMC3    C810299   2.296   1.812  13.832  0.4231 -0.0952  0.3333
  696TMC3    O110300   2.234   2.218  13.417 -0.0886  0.0875  0.6104
  696TMC3    O210301   2.403   1.771  13.880  0.1537 -0.3746 -0.0473
  697MPD2     C10302   2.343   3.376  15.959  0.4748 -0.3537  0.0121
  697MPD2    C110303   2.353   3.364  15.823  0.3690  0.1605 -0.3481
  697MPD2    C210304   2.307   3.459  15.739 -0.7787 -0.2342  0.8709
  697MPD2    C310305   2.261   3.576  15.794 -0.0510  0.2458  0.0991
  697MPD2    C410306   2.252   3.590  15.925 -0.5978 -0.2608  0.1811
  697MPD2    C510307   2.295   3.491  16.014 -0.3430  0.2522 -0.6986
  697MPD2     H10308   2.313   3.449  15.631 -1.5842 -0.3748  0.8357
  697MPD2    H110309   2.199   3.669  15.977  0.9829 -0.9182  2.8375
  697MPD2    H210310   2.373   3.299  16.029 -0.5559  0.7102  1.6492
  697MPD2    H310311   2.286   3.502  16.122  0.7917  1.5851 -0.7537
  697MPD2     N10312   2.209   3.678  15.707  0.2234 -0.2206 -0.6456
  697MPD2    H510313   2.211   3.655  15.609  1.1502  0.2951 -0.7506
  697MPD2    N110314   2.409   3.251  15.764  0.1856  0.7520  0.4379
  697MPD2    H710315   2.426   3.258  15.664  1.3963  0.9134  0.6518
  698TMC3    C110316   2.152   3.899  15.641  0.4095 -0.0284  0.1326
  698TMC3    C210317   2.174   4.033  15.670 -0.8926 -0.0715  0.1561
  698TMC3    C310318   2.172   4.127  15.569  0.1754 -0.6985  0.0602
  698TMC3    C410319   2.136   3.859  15.513 -0.5967 -0.2345 -0.9033
  698TMC3    C510320   2.144   3.957  15.414 -0.1940  0.2742  0.1782
  698TMC3    C610321   2.170   4.090  15.435  0.0813  0.0339  0.1897
  698TMC3     C10322   2.171   3.799  15.748  0.2715  0.2692  0.1620
  698TMC3     O10323   2.157   3.850  15.856  0.0844  0.3338 -0.1372
  698TMC3     H10324   2.175   4.071  15.772 -0.1922 -0.6883  0.3800
  698TMC3    H110325   2.114   3.755  15.489 -0.3013 -0.6038  0.4251
  698TMC3    H210326   2.177   4.161  15.353  0.5681 -1.0845 -0.7459
  698TMC3    C710327   2.130   3.917  15.276 -0.4153 -0.5669  0.1293
  698TMC3    C810328   2.259   4.234  15.608  0.7233  0.1841  0.1557
  698TMC3    O110329   2.135   4.003  15.193 -0.4554  0.0075  0.2938
  698TMC3    O210330   2.250   4.282  15.722  0.6948  0.2607 -0.2622
  699TMC3    C110331   2.407   1.611  13.130  0.1762  0.3534  0.2418
  699TMC3    C210332   2.460   1.523  13.225  0.7056  0.1915  0.2915
  699TMC3    C310333   2.391   1.500  13.344  0.4611 -0.2399  0.3816
  699TMC3    C410334   2.296   1.685  13.161 -0.1541  0.5792 -0.8259
  699TMC3    C510335   2.225   1.645  13.273  0.2819  0.5848  0.0733
  699TMC3    C610336   2.283   1.571  13.375 -0.4280 -0.2377  0.0209
  699TMC3     C10337   2.473   1.631  13.009 -0.2563  0.2268  0.2926
  699TMC3     O10338   2.436   1.734  12.944 -0.7875  0.1795  0.3838
  699TMC3     H10339   2.557   1.476  13.208  1.6682  2.7730 -1.4514
  699TMC3    H110340   2.248   1.746  13.084  1.2354  2.8170  0.0726
  699TMC3    H210341   2.230   1.559  13.469 -0.0086 -3.0545 -0.1040
  699TMC3    C710342   2.101   1.713  13.317 -0.1106  0.5191  0.5920
  699TMC3    C810343   2.438   1.402  13.441  0.2661  0.4484 -0.6741
  699TMC3    O110344   2.088   1.718  13.441 -0.3533 -0.1455 -0.6055
  699TMC3    O210345   2.352   1.363  13.521  0.0056 -0.4141 -0.2347
  700TMC3    C110346   1.597   4.112  17.608 -0.0092 -0.1936 -0.4691
  700TMC3    C210347   1.660   3.991  17.602  0.3183 -0.4256  0.1664
  700TMC3    C310348   1.793   3.985  17.627  0.1493  0.4382  1.5403
  700TMC3    C410349   1.671   4.231  17.622 -0.7351  0.2516  0.4497
  700TMC3    C510350   1.812   4.222  17.648  0.6514 -0.7009  0.4326
  700TMC3    C610351   1.867   4.098  17.655 -0.6663 -0.4098 -0.4852
  700TMC3     C10352   1.485   4.128  17.523 -0.2086 -0.7804 -0.1122
  700TMC3     O10353   1.384   4.062  17.537  0.2085  0.2808  0.3992
  700TMC3     H10354   1.612   3.900  17.565 -0.0611 -0.7966  1.5783
  700TMC3    H110355   1.617   4.323  17.635  0.2077  0.8659  0.0209
  700TMC3    H210356   1.972   4.088  17.682 -0.8435 -2.0053 -0.3390
  700TMC3    C710357   1.886   4.349  17.672  0.6966 -0.0037  0.0524
  700TMC3    C810358   1.872   3.878  17.571  0.5290 -0.2232 -0.7013
  700TMC3    O110359   1.823   4.449  17.637 -0.3693 -0.0990 -0.1426
  700TMC3    O210360   1.971   3.901  17.502  0.1365  0.1598 -0.0944
  701TMC3    C110361   1.670   2.665  15.501 -0.2769 -0.1141  0.1738
  701TMC3    C210362   1.687   2.594  15.388 -0.7426  0.5178 -0.0658
  701TMC3    C310363   1.810   2.595  15.329 -0.1146  0.6971 -0.8026
  701TMC3    C410364   1.766   2.754  15.552  1.0389  0.1480  0.5273
  701TMC3    C510365   1.890   2.754  15.492 -0.3435  0.7911 -0.3689
  701TMC3    C610366   1.907   2.676  15.386 -0.6528 -0.4426 -0.3437
  701TMC3     C10367   1.539   2.669  15.550 -0.1515 -0.2685  0.0744
  701TMC3     O10368   1.511   2.751  15.633 -0.2377 -0.6009 -0.5343
  701TMC3     H10369   1.602   2.552  15.337 -1.3749  2.6313 -0.7775
  701TMC3    H110370   1.742   2.826  15.629  1.2562  1.0041 -0.2024
  701TMC3    H210371   2.002   2.686  15.336  0.9201 -0.3037  2.7376
  701TMC3    C710372   1.959   2.880  15.488  0.2338  0.3971  0.2223
  701TMC3    C810373   1.838   2.549  15.195 -0.1409 -0.3380  0.1170
  701TMC3    O110374   2.020   2.911  15.384 -0.2455 -0.2543 -0.5658
  701TMC3    O210375   1.953   2.519  15.176 -0.4862  0.5743  0.1019
  702MPD2     C10376   0.637   0.603  10.549  0.5482 -0.4606 -0.8541
  702MPD2    C110377   0.699   0.640  10.671 -0.3307  0.9176 -0.1554
  702MPD2    C210378   0.805   0.731  10.671 -0.0584 -0.3678  0.4236
  702MPD2    C310379   0.828   0.796  10.553  0.6031  0.1925 -0.7674
  702MPD2    C410380   0.763   0.771  10.437 -0.0480  0.2683  0.3662
  702MPD2    C510381   0.677   0.659  10.429  0.2215 -0.6311 -0.2777
  702MPD2     H10382   0.860   0.762  10.759 -0.4958  2.2805 -0.2438
  702MPD2    H110383   0.767   0.839  10.353 -1.7966 -2.3036 -1.7866
  702MPD2    H210384   0.543   0.550  10.531 -0.6073  0.2205  3.2599
  702MPD2    H310385   0.622   0.626  10.341  2.2836 -3.1736 -0.6020
  702MPD2     N10386   0.922   0.906  10.568 -0.3571  0.7453 -0.9210
  702MPD2    H510387   0.943   0.944  10.660 -0.7858 -1.8334  0.2546
  702MPD2    N110388   0.654   0.579  10.792 -0.2835 -0.2677 -0.4053
  702MPD2    H710389   0.712   0.600  10.872  0.0405 -0.6319 -0.5461
  703TMC3    C110390   1.104   1.035  10.487  0.1182  0.2034 -0.1463
  703TMC3    C210391   1.118   1.094  10.614  0.9200 -0.0177  1.0779
  703TMC3    C310392   1.220   1.187  10.626 -0.1485 -0.3887 -0.1056
  703TMC3    C410393   1.187   1.063  10.378 -0.0628  0.2198  0.8814
  703TMC3    C510394   1.278   1.160  10.400  0.7297 -0.0889  0.7789
  703TMC3    C610395   1.298   1.230  10.517 -0.8174 -0.1538 -0.3823
  703TMC3     C10396   0.978   0.960  10.457  0.1224 -0.2480  0.0439
  703TMC3     O10397   0.964   0.932  10.337  0.5459 -0.0676  0.0393
  703TMC3     H10398   1.044   1.069  10.689 -0.8289  0.9038 -0.3211
  703TMC3    H110399   1.181   1.011  10.284  1.1419 -0.0975  0.9858
  703TMC3    H210400   1.358   1.319  10.524  0.8350 -1.4685  2.1210
  703TMC3    C710401   1.364   1.198  10.293 -0.5260  0.4780  0.7466
  703TMC3    C810402   1.247   1.261  10.747  0.3430  0.8735  0.8535
  703TMC3    O110403   1.469   1.247  10.331  0.2605 -0.0464 -0.0189
  703TMC3    O210404   1.334   1.344  10.745  0.2095  0.4574 -0.1886
  704TMC3    C110405   3.255   3.117  12.579 -0.2385  0.8695 -0.1231
  704TMC3    C210406   3.376   3.176  12.552 -0.1386 -0.1651 -0.1220
  704TMC3    C310407   3.484   3.118  12.606  0.0327 -0.0005  0.3258
  704TMC3    C410408   3.237   3.015  12.666  0.1646 -0.2237 -0.0136
  704TMC3    C510409   3.351   2.966  12.723 -0.5545  0.6275  0.0520
  704TMC3    C610410   3.475   3.014  12.693 -0.8026  0.8697  0.2160
  704TMC3     C10411   3.153   3.124  12.475  0.0341  0.3186 -0.5229
  704TMC3     O10412   3.041   3.084  12.490  0.7380  0.0621  0.1326
  704TMC3     H10413   3.391   3.262  12.487  0.3975 -0.2314 -0.0813
  704TMC3    H110414   3.139   2.970  12.675 -0.3277  0.5558 -1.4495
  704TMC3    H210415   3.566   2.966  12.727 -1.8503 -1.1167  0.1657
  704TMC3    C710416   3.357   2.829  12.763  0.0466 -0.1888  0.1111
  704TMC3    C810417   3.595   3.122  12.504 -0.3626 -0.2100  0.3385
  704TMC3    O110418   3.463   2.769  12.743  0.3626 -0.6082 -0.0172
  704TMC3    O210419   3.573   3.150  12.387 -0.1738  0.3268  0.7531
  705MPD2     C10420   3.156   1.469  16.514 -0.2423  0.2261 -0.3449
  705MPD2    C110421   3.165   1.603  16.476  0.1205  0.1429 -0.5415
  705MPD2    C210422   3.045   1.684  16.469  0.4077  0.1587 -0.1633
  705MPD2    C310423   2.923   1.614  16.476 -0.2823  0.5900 -0.4827
  705MPD2    C410424   2.919   1.473  16.497  0.0707  0.1074  0.1634
  705MPD2    C510425   3.035   1.415  16.538  0.3358 -0.4910  0.0894
  705MPD2     H10426   3.050   1.787  16.436 -0.5466 -0.4752 -2.2841
  705MPD2    H110427   2.830   1.412  16.494  0.4330 -0.4541  1.0258
  705MPD2    H210428   3.244   1.410  16.536  0.2336  1.4488  1.0024
  705MPD2    H310429   3.041   1.312  16.572 -0.5862 -0.5466  0.0689
  705MPD2     N10430   2.803   1.682  16.454 -0.3696  0.4926 -0.2655
  705MPD2    H510431   2.716   1.631  16.440 -0.1744  0.1814 -0.3538
  705MPD2    N110432   3.286   1.673  16.451  0.0931  0.8213 -0.0306
  705MPD2    H710433   3.282   1.769  16.418 -0.0577  0.1316 -2.0254
  706TMC3    C110434   3.705   1.686  16.264 -0.3392 -0.1686  1.3747
  706TMC3    C210435   3.702   1.820  16.260  0.0182  0.5839 -0.1028
  706TMC3    C310436   3.605   1.890  16.322 -0.3708 -0.0746  0.4864
  706TMC3    C410437   3.607   1.621  16.332  0.2228 -0.0564  0.7606
  706TMC3    C510438   3.519   1.692  16.406 -0.2034  0.2433 -0.4946
  706TMC3    C610439   3.508   1.828  16.403  0.1370 -0.0563  0.5316
  706TMC3     C10440   3.811   1.625  16.199 -0.1576  0.1216 -0.0187
  706TMC3     O10441   3.889   1.548  16.259 -0.0825 -0.5769  0.0319
  706TMC3     H10442   3.773   1.873  16.198 -1.0420  2.9202  0.6883
  706TMC3    H110443   3.615   1.513  16.335  0.2179 -0.1725 -3.9922
  706TMC3    H210444   3.435   1.879  16.466  1.3553 -0.2882  2.1396
  706TMC3    C710445   3.405   1.607  16.450  0.1765  0.3395  0.1851
  706TMC3    C810446   3.602   2.030  16.280  0.4105 -0.0716 -0.1049
  706TMC3    O110447   3.437   1.492  16.478 -0.1826  0.0988  0.1796
  706TMC3    O210448   3.632   2.045  16.162  0.4377 -0.5391  0.0224
  707TMC3    C110449   4.149   0.586   1.231  0.1451 -0.3386 -0.6835
  707TMC3    C210450   4.072   0.474   1.220  0.1689 -0.0146  0.1563
  707TMC3    C310451   3.966   0.468   1.136 -0.3835 -0.2150 -0.3732
  707TMC3    C410452   4.111   0.701   1.160  0.2407 -0.0396 -0.6827
  707TMC3    C510453   4.001   0.692   1.083 -0.0958  0.0255 -0.1109
  707TMC3    C610454   3.926   0.577   1.073  0.1631  0.1931  0.4299
  707TMC3     C10455   4.275   0.567   1.290  0.2364 -0.0533 -0.6343
  707TMC3     O10456   4.310   0.449   1.303 -0.7477 -0.2889  0.4820
  707TMC3     H10457   4.093   0.390   1.285 -0.8077 -1.8291 -1.8476
  707TMC3    H110458   4.182   0.781   1.143 -0.7573  0.8763 -0.5682
  707TMC3    H210459   3.845   0.568   1.001  0.9728  1.2945 -0.6304
  707TMC3    C710460   3.943   0.809   1.030  0.7963 -0.1608 -0.3687
  707TMC3    C810461   3.946   0.351   1.059  0.3720 -0.0128  0.5185
  707TMC3    O110462   3.854   0.794   0.947  0.3523  0.2657 -0.3543
  707TMC3    O210463   3.864   0.356   0.969  0.5708 -0.3781  0.4221
  708MPD2     C10464   2.168   0.034  13.897  0.4864 -0.9196 -0.1860
  708MPD2    C110465   2.036   4.721  13.919  0.3816 -0.1458 -0.1125
  708MPD2    C210466   2.014   4.597  13.978  0.4911  0.5275 -0.0204
  708MPD2    C310467   2.118   4.508  14.008 -0.2812  0.5136  0.2541
  708MPD2    C410468   2.246   4.545  13.974  0.0054  1.0383  0.0992
  708MPD2    C510469   2.266   4.664  13.920 -0.2965  0.2677 -0.0686
  708MPD2     H10470   1.912   4.573  14.007  0.0288  1.4699 -0.8621
  708MPD2    H110471   2.337   4.488  13.991 -2.2709 -2.7094 -0.1632
  708MPD2    H210472   2.193   0.125  13.843 -2.4919 -0.3222 -0.5730
  708MPD2    H310473   2.367   4.697  13.898 -0.6006  0.8634 -0.5827
  708MPD2     N10474   2.105   4.385  14.074 -0.3670  0.0413 -0.7919
  708MPD2    H510475   2.182   4.334  14.116 -0.4409 -0.5298 -1.3409
  708MPD2    N110476   1.926   0.087  13.908  0.1044  0.5465 -0.0202
  708MPD2    H710477   1.838   0.067  13.956 -0.1888  2.7031  0.3919
  709TMC3    C110478   1.776   0.249  13.851  0.0027  0.4027 -0.1757
  709TMC3    C210479   1.702   0.247  13.733 -0.5695  0.1057 -0.5260
  709TMC3    C310480   1.579   0.185  13.718 -0.6688 -0.1868 -0.4627
  709TMC3    C410481   1.721   0.193  13.960 -0.0387 -0.0712 -0.1873
  709TMC3    C510482   1.597   0.137  13.944  0.3637  0.3053 -1.3330
  709TMC3    C610483   1.525   0.135  13.831 -0.5196  0.4658 -0.3743
  709TMC3     C10484   1.913   0.206  13.837 -0.5593  0.1247 -0.6909
  709TMC3     O10485   1.995   0.246  13.755 -0.0192 -0.3786  0.6197
  709TMC3     H10486   1.748   0.289  13.644  2.9019  1.5271  1.9678
  709TMC3    H110487   1.755   0.210  14.062 -0.3578 -0.8107  0.0386
  709TMC3    H210488   1.435   0.075  13.820 -1.4068  1.4279  1.7924
  709TMC3    C710489   1.587   0.013  14.022 -0.1995 -0.2086 -0.2272
  709TMC3    C810490   1.517   0.168  13.589 -0.1630 -0.2581 -0.4024
  709TMC3    O110491   1.695   4.701  14.077  0.0386 -0.0149 -0.6325
  709TMC3    O210492   1.531   0.262  13.515 -0.3927  0.1522  0.2810
  710TMC3    C110493   2.317   1.432  17.600 -0.2738  0.2565  0.7377
  710TMC3    C210494   2.392   1.376  17.504 -1.0056 -0.3498 -0.0899
  710TMC3    C310495   2.417   1.239  17.503 -0.3325  0.0275  0.5499
  710TMC3    C410496   2.272   1.355   0.023  0.5175  0.1684 -0.3625
  710TMC3    C510497   2.292   1.216   0.017  0.7481 -0.3657  0.2994
  710TMC3    C610498   2.372   1.160  17.605 -0.4683 -0.1013 -1.0114
  710TMC3     C10499   2.304   1.577  17.614  0.4522  0.8879 -0.1863
  710TMC3     O10500   2.322   1.653  17.518  0.0485  0.3945  0.5188
  710TMC3     H10501   2.446   1.431  17.428  0.3991 -1.5579  0.0425
  710TMC3    H110502   2.212   1.387   0.107  0.6100  0.0043 -0.2342
  710TMC3    H210503   2.391   1.053  17.605  0.6944  0.1056 -1.6121
  710TMC3    C710504   2.287   1.145   0.138  0.5477 -0.1191 -0.7527
  710TMC3    C810505   2.531   1.197  17.427 -0.0389  0.6451 -0.2236
  710TMC3    O110506   2.377   1.058   0.151  0.3395 -0.5091 -0.0051
  710TMC3    O210507   2.593   1.276  17.353 -0.4484  0.0802 -0.3921
  711TMC3    C110508   2.325   2.093  15.045 -0.2855  0.4083 -0.4192
  711TMC3    C210509   2.399   2.209  15.064  0.1916  0.1636 -0.0038
  711TMC3    C310510   2.507   2.204  15.153 -0.1514 -0.0993  0.3118
  711TMC3    C410511   2.356   1.975  15.103  0.7891  0.2643 -0.8885
  711TMC3    C510512   2.464   1.966  15.187 -0.1341 -0.4672  0.3527
  711TMC3    C610513   2.532   2.082  15.219 -0.0495 -0.5850  0.3879
  711TMC3     C10514   2.247   2.070  14.924  0.4290 -0.8161  0.3599
  711TMC3     O10515   2.264   1.958  14.881 -0.9920  0.1908 -0.1502
  711TMC3     H10516   2.377   2.305  15.021 -0.4818 -0.1296 -0.3142
  711TMC3    H110517   2.289   1.891  15.089 -0.0482  0.5671  1.3386
  711TMC3    H210518   2.618   2.072  15.283 -0.9142 -0.2977  1.5995
  711TMC3    C710519   2.522   1.834  15.214  0.5883 -0.1555  0.0148
  711TMC3    C810520   2.515   2.317  15.238  0.4739  0.3782 -0.2151
  711TMC3    O110521   2.636   1.819  15.265 -0.1348 -0.4853 -0.2279
  711TMC3    O210522   2.410   2.379  15.263  0.2972 -0.4166 -0.3771
  712MPD2     C10523   3.651   3.215  13.812  0.5373  0.0838  0.7442
  712MPD2    C110524   3.535   3.273  13.771 -0.2890 -0.0597  0.4903
  712MPD2    C210525   3.538   3.406  13.730  0.3261  0.4703  0.2231
  712MPD2    C310526   3.649   3.485  13.753 -0.7391  0.2777  0.3207
  712MPD2    C410527   3.756   3.427  13.816 -0.2104 -0.5811 -0.6804
  712MPD2    C510528   3.762   3.293  13.833  0.3539  0.0848 -0.0063
  712MPD2     H10529   3.447   3.444  13.685  1.7508  1.4782 -1.7889
  712MPD2    H110530   3.835   3.496  13.844 -1.8935  2.0612 -2.3881
  712MPD2    H210531   3.660   3.110  13.837 -0.8724 -0.7417 -2.1976
  712MPD2    H310532   3.851   3.251  13.880  0.6425  1.6656  0.8244
  712MPD2     N10533   3.659   3.625  13.714  0.0524 -0.1505 -0.0807
  712MPD2    H510534   3.737   3.672  13.759  0.1396  0.1927 -0.5910
  712MPD2    N110535   3.416   3.202  13.755  0.0525  0.0153 -0.2068
  712MPD2    H710536   3.337   3.260  13.728  0.0486  1.1456  2.2978
  713TMC3    C110537   3.596   3.847  13.652  0.2986 -0.2061  0.1429
  713TMC3    C210538   3.727   3.886  13.685 -0.6321  0.2303  0.2084
  713TMC3    C310539   3.741   4.026  13.679  0.2496  0.8511 -0.5608
  713TMC3    C410540   3.488   3.930  13.652  0.1260  0.1814 -0.7631
  713TMC3    C510541   3.512   4.062  13.672 -1.2462 -0.0929 -0.2092
  713TMC3    C610542   3.639   4.117  13.681  0.0589  0.6310 -0.7844
  713TMC3     C10543   3.571   3.702  13.649 -0.4628 -0.0508 -0.1852
  713TMC3     O10544   3.474   3.662  13.585 -0.0451  0.4823 -0.5518
  713TMC3     H10545   3.810   3.816  13.679 -2.2087 -1.6459  0.3497
  713TMC3    H110546   3.386   3.893  13.651  0.8058 -1.7173  1.3122
  713TMC3    H210547   3.663   4.222  13.679 -0.4729  0.7523 -0.9156
  713TMC3    C710548   3.402   4.158  13.652 -0.9335  0.2450  0.4606
  713TMC3    C810549   3.877   4.086  13.674  0.0328 -0.3237  0.3862
  713TMC3    O110550   3.442   4.276  13.666  0.0361  0.0704  0.0115
  713TMC3    O210551   3.888   4.194  13.617  0.9114  0.3643  0.2714
  714MPD2     C10552   0.664   1.635   1.354 -0.1649  0.3950 -1.1722
  714MPD2    C110553   0.741   1.669   1.245 -0.5574 -0.8452 -0.1017
  714MPD2    C210554   0.695   1.762   1.155  0.6947  0.2778 -0.0660
  714MPD2    C310555   0.571   1.826   1.177  0.5200 -0.0949 -0.5251
  714MPD2    C410556   0.491   1.801   1.288 -0.3068 -0.0824  0.0098
  714MPD2    C510557   0.536   1.696   1.366  0.6125 -0.6204  0.1129
  714MPD2     H10558   0.752   1.789   1.068 -2.2175  1.6069 -1.5575
  714MPD2    H110559   0.400   1.855   1.314 -0.4244  0.1814 -0.9439
  714MPD2    H210560   0.704   1.582   1.440  0.2659  1.3245 -0.8035
  714MPD2    H310561   0.474   1.682   1.453 -1.9285 -0.2261 -1.6322
  714MPD2     N10562   0.543   1.919   1.080 -0.4070 -0.1721 -0.0711
  714MPD2    H510563   0.608   1.924   1.002 -0.6959 -1.3270 -0.3867
  714MPD2    N110564   0.868   1.612   1.235  0.4409 -0.4546  0.5040
  714MPD2    H710565   0.896   1.542   1.302  0.9216 -0.7441  0.0018
  715TMC3    C110566   1.088   1.579   1.161  0.4731 -0.3256 -0.2829
  715TMC3    C210567   1.169   1.514   1.077  0.2458  0.0342 -0.2506
  715TMC3    C310568   1.298   1.482   1.114  0.0337 -0.3057  0.3754
  715TMC3    C410569   1.134   1.621   1.285  0.5737 -0.8233 -0.9066
  715TMC3    C510570   1.270   1.613   1.307  0.0294  0.5808  0.0461
  715TMC3    C610571   1.358   1.539   1.227 -0.1799 -0.5948 -0.4534
  715TMC3     C10572   0.951   1.621   1.126 -0.5695 -0.3288  0.0310
  715TMC3     O10573   0.917   1.630   1.012 -0.3513 -0.0717  0.6981
  715TMC3     H10574   1.128   1.496   0.979  0.2599  1.9008 -0.6006
  715TMC3    H110575   1.064   1.675   1.348  0.7057 -1.1809 -0.4494
  715TMC3    H210576   1.463   1.537   1.255 -0.6983 -0.0736  1.5338
  715TMC3    C710577   1.325   1.690   1.416  0.1980  0.0699 -0.2055
  715TMC3    C810578   1.375   1.394   1.026 -0.5147 -0.3865 -0.5383
  715TMC3    O110579   1.429   1.648   1.465  0.7728  0.5294 -0.6252
  715TMC3    O210580   1.322   1.332   0.936 -0.0485 -0.4913 -0.1653
  716MPD2     C10581   1.338   0.082   9.342 -0.0975 -0.6126 -0.5516
  716MPD2    C110582   1.222   0.030   9.285  0.4430 -0.1064  0.9443
  716MPD2    C210583   1.213   4.610   9.275  0.4779  0.1803 -0.1021
  716MPD2    C310584   1.324   4.527   9.312  0.1892  0.1614  0.0049
  716MPD2    C410585   1.434   4.581   9.371  0.0479 -0.7886  0.4081
  716MPD2    C510586   1.442   4.716   9.379  0.1775  0.1845 -0.3626
  716MPD2     H10587   1.121   4.564   9.241  0.5385  0.2295 -0.3326
  716MPD2    H110588   1.520   4.518   9.393  0.1073 -1.1028 -0.7100
  716MPD2    H210589   1.348   0.189   9.353 -1.0377 -0.8128  2.2814
  716MPD2    H310590   1.539   0.031   9.412 -1.7356  3.7608  1.4426
  716MPD2     N10591   1.306   4.387   9.292  0.0390 -0.2397  0.0469
  716MPD2    H510592   1.229   4.360   9.231  0.6507  0.4836 -1.0474
  716MPD2    N110593   1.111   0.117   9.257 -0.2559 -0.5201  0.0661
  716MPD2    H710594   1.103   0.212   9.291 -3.0785 -1.8218  3.0377
  717TMC3    C110595   1.307   4.155   9.345  0.0425 -0.6092 -0.0583
  717TMC3    C210596   1.203   4.145   9.263  0.1504 -0.2549  0.3781
  717TMC3    C310597   1.116   4.037   9.288  0.6266 -0.3754 -0.3681
  717TMC3    C410598   1.341   4.050   9.434  0.0949 -0.0683 -0.1202
  717TMC3    C510599   1.259   3.942   9.436 -0.1576  0.2581  0.2137
  717TMC3    C610600   1.143   3.932   9.367  0.2793 -0.2397 -0.1074
  717TMC3     C10601   1.370   4.286   9.363  0.1893  0.5130 -0.3356
  717TMC3     O10602   1.456   4.290   9.451 -0.3173  0.2901  0.2050
  717TMC3     H10603   1.171   4.223   9.195  0.1974  0.7009  1.4443
  717TMC3    H110604   1.421   4.056   9.506 -0.1668 -1.2829  0.2670
  717TMC3    H210605   1.075   3.848   9.380 -0.4974  0.1699 -1.5997
  717TMC3    C710606   1.284   3.844   9.543  0.6572  0.3640 -0.2968
  717TMC3    C810607   0.982   4.041   9.232 -0.6549 -0.3217 -0.6866
  717TMC3    O110608   1.402   3.814   9.551  0.2219 -0.2500  0.7137
  717TMC3    O210609   0.953   4.148   9.172 -0.0123  0.1600 -0.0244
  718MPD2     C10610   0.311   3.932  13.057  0.5157  0.7150  0.5209
  718MPD2    C110611   0.226   3.967  12.951  0.3022  0.1690 -0.7327
  718MPD2    C210612   0.092   3.941  12.957  0.2184 -0.1842  1.2567
  718MPD2    C310613   0.038   3.881  13.066 -0.4963 -0.3190 -0.5180
  718MPD2    C410614   0.114   3.832  13.165 -1.0436 -0.2147 -0.0405
  718MPD2    C510615   0.252   3.858  13.163 -0.6220 -0.2281  0.3460
  718MPD2     H10616   0.027   3.962  12.873 -0.1977 -0.3909  1.5284
  718MPD2    H110617   0.081   3.774  13.251  0.1498  1.5811  1.6289
  718MPD2    H210618   0.419   3.935  13.047  0.3359  1.9384 -1.0413
  718MPD2    H310619   0.316   3.827  13.245 -1.3426  2.3502  1.8791
  718MPD2     N10620   4.614   3.885  13.075  0.4700 -0.2084  0.7140
  718MPD2    H510621   4.572   3.944  13.004  2.9963 -1.3063 -1.6964
  718MPD2    N110622   0.279   4.033  12.831  0.2082  0.1715 -0.9168
  718MPD2    H710623   0.379   4.049  12.835  0.4414 -1.2850 -0.8553
  719TMC3    C110624   0.276   4.171  12.636  0.5070 -0.0725  0.8914
  719TMC3    C210625   0.202   4.215  12.526 -0.4118 -0.1881  0.5564
  719TMC3    C310626   0.191   4.347  12.507  0.0763  0.3160  0.0876
  719TMC3    C410627   0.367   4.246  12.690 -0.1163 -0.0387 -0.4351
  719TMC3    C510628   0.363   4.379  12.657 -0.3211 -0.2200 -0.0067
  719TMC3    C610629   0.281   4.436  12.567  0.6403  0.1621  0.8059
  719TMC3     C10630   0.202   4.084  12.726  0.5313  0.1012  1.2351
  719TMC3     O10631   0.086   4.073  12.694  0.4659 -1.1480 -0.0612
  719TMC3     H10632   0.135   4.149  12.473  0.2024 -1.6173  1.5706
  719TMC3    H110633   0.448   4.203  12.748 -1.0881  1.5789  2.1093
  719TMC3    H210634   0.271   4.542  12.546  0.6179 -0.0433 -0.2242
  719TMC3    C710635   0.498   4.434  12.656  0.0554 -0.0982  0.2263
  719TMC3    C810636   0.046   4.381  12.484  0.1709  0.6159  0.3675
  719TMC3    O110637   0.596   4.356  12.641  0.1340  0.2592  0.6922
  719TMC3    O210638   0.016   4.480  12.420 -0.0495 -0.2307  0.6500
  720MPD2     C10639   3.381   0.899  14.180 -0.1749 -0.1349  0.0141
  720MPD2    C110640   3.461   0.877  14.071  0.3476 -1.1020  0.0530
  720MPD2    C210641   3.590   0.838  14.093  0.0223  0.2871 -0.3584
  720MPD2    C310642   3.640   0.829  14.225 -0.2064  0.2895 -0.5576
  720MPD2    C410643   3.557   0.845  14.334  0.2544  0.2713 -0.8745
  720MPD2    C510644   3.429   0.879  14.308  0.2882 -0.3758  0.6444
  720MPD2     H10645   3.661   0.829  14.012 -0.6352 -0.5510 -0.8425
  720MPD2    H110646   3.576   0.825  14.439  0.9700  1.1091 -0.8463
  720MPD2    H210647   3.278   0.934  14.183  0.4428  1.4416  2.8691
  720MPD2    H310648   3.355   0.882  14.388  1.7899  2.0575  1.9568
  720MPD2     N10649   3.775   0.798  14.242 -0.2298  0.1042 -0.0504
  720MPD2    H510650   3.823   0.788  14.153  1.8402  2.4331  0.8131
  720MPD2    N110651   3.417   0.897  13.940 -0.1442 -0.0435  0.0462
  720MPD2    H710652   3.482   0.876  13.864 -0.2625  0.6002 -0.2301
  721TMC3    C110653   3.994   0.817  14.337  0.3999 -0.4149 -0.2357
  721TMC3    C210654   4.058   0.900  14.426 -0.2082  0.5957  0.0114
  721TMC3    C310655   4.196   0.904  14.414  0.6133 -0.6983 -0.7728
  721TMC3    C410656   4.056   0.740  14.237 -0.1076 -0.2657  0.2646
  721TMC3    C510657   4.195   0.749  14.237  0.5169  1.2561  0.1583
  721TMC3    C610658   4.263   0.835  14.318  0.0070  1.2593  0.0676
  721TMC3     C10659   3.847   0.805  14.357 -0.6940 -0.2021 -0.4016
  721TMC3     O10660   3.803   0.841  14.469 -0.2456 -0.4023  0.5225
  721TMC3     H10661   3.999   0.958  14.496  0.6488  0.5523  0.7668
  721TMC3    H110662   3.999   0.670  14.176  0.9344  0.5091 -1.5932
  721TMC3    H210663   4.370   0.821  14.322 -0.1299  0.2055  0.0613
  721TMC3    C710664   4.280   0.646  14.181  0.2695  0.8184 -0.4331
  721TMC3    C810665   4.281   0.941  14.528 -0.7914 -0.2001 -0.4171
  721TMC3    O110666   4.390   0.674  14.136 -0.7345 -0.0171  0.4852
  721TMC3    O210667   4.392   0.991  14.516 -0.5803  0.8248 -0.1204
  722MPD2     C10668   2.225   3.952  13.709 -0.3486 -0.1427  0.3792
  722MPD2    C110669   2.180   4.010  13.598  0.2121 -0.2653  0.0388
  722MPD2    C210670   2.048   4.047  13.585  0.3979  0.1542 -1.0105
  722MPD2    C310671   1.959   4.017  13.675  0.7754 -0.2275  0.1473
  722MPD2    C410672   2.003   3.946  13.783  0.1549 -0.0407  0.3086
  722MPD2    C510673   2.130   3.916  13.803  0.7166 -0.5991 -0.2355
  722MPD2     H10674   2.020   4.107  13.500  0.7116  0.2479 -1.0508
  722MPD2    H110675   1.934   3.914  13.860  0.5309  1.5175  1.2988
  722MPD2    H210676   2.329   3.942  13.735  0.2667 -2.2207 -2.8397
  722MPD2    H310677   2.154   3.860  13.892 -1.4065 -1.2390 -0.0778
  722MPD2     N10678   1.820   4.028  13.647 -0.1619 -1.2622  0.4345
  722MPD2    H510679   1.796   4.093  13.572  0.9015 -0.3678  0.8786
  722MPD2    N110680   2.265   4.036  13.490 -0.2374 -0.3068  0.3841
  722MPD2    H710681   2.223   4.099  13.423 -1.0121  0.0716  1.2228
  723TMC3    C110682   1.594   3.954  13.647 -0.2705  0.0665  0.1641
  723TMC3    C210683   1.521   3.839  13.669 -0.4070  0.3830  0.5627
  723TMC3    C310684   1.449   3.790  13.568  0.1448 -0.8624 -0.1366
  723TMC3    C410685   1.588   4.025  13.525  0.4234  0.3098 -0.4646
  723TMC3    C510686   1.505   3.971  13.429  0.3490  0.0855 -0.9909
  723TMC3    C610687   1.438   3.851  13.447 -0.8705 -0.4542 -0.1514
  723TMC3     C10688   1.723   3.946  13.711  0.3143  0.3033  0.0447
  723TMC3     O10689   1.730   3.858  13.795  0.0549 -0.4875  0.2223
  723TMC3     H10690   1.533   3.779  13.758 -0.3493 -0.5503 -0.0634
  723TMC3    H110691   1.641   4.119  13.513  0.3293  0.5257  0.8011
  723TMC3    H210692   1.370   3.808  13.374 -1.3164  1.1683 -0.6713
  723TMC3    C710693   1.446   4.045  13.317  0.3748  0.7330 -0.3964
  723TMC3    C810694   1.378   3.670  13.571  0.5505 -0.2556  0.4928
  723TMC3    O110695   1.377   3.979  13.238 -0.1050  0.6347  0.0672
  723TMC3    O210696   1.299   3.656  13.665 -0.0947 -0.1926  0.4325
  724TMC3    C110697   2.658   1.966  10.683  0.0939  0.3783 -0.6996
  724TMC3    C210698   2.620   1.945  10.554  0.6448 -0.8435  0.1452
  724TMC3    C310699   2.686   2.014  10.455  0.3109  0.1465 -0.5949
  724TMC3    C410700   2.775   2.036  10.715  0.3310 -0.5329  0.6712
  724TMC3    C510701   2.842   2.095  10.608 -0.6631 -0.7397 -0.6138
  724TMC3    C610702   2.792   2.097  10.481  0.2334  0.2428 -0.0951
  724TMC3     C10703   2.584   1.895  10.782  0.6083 -0.3986  0.3316
  724TMC3     O10704   2.521   1.797  10.743 -0.0071 -0.0788  0.1219
  724TMC3     H10705   2.535   1.881  10.533  0.1103 -0.1720  0.2846
  724TMC3    H110706   2.811   2.044  10.817  0.4523  0.0265  0.5845
  724TMC3    H210707   2.851   2.151  10.407 -0.8135  0.3346 -0.8619
  724TMC3    C710708   2.964   2.164  10.631  0.1778  1.0422 -0.3256
  724TMC3    C810709   2.629   1.997  10.323 -0.2120 -0.6264 -0.2585
  724TMC3    O110710   3.036   2.180  10.532 -0.1255  0.1110 -0.5011
  724TMC3    O210711   2.519   1.943  10.308 -0.4647  0.3929 -0.4405
  725TMC3    C110712   3.993   1.025  12.227 -0.0960  0.0463 -0.1131
  725TMC3    C210713   3.914   1.099  12.145 -0.2104 -0.2377  0.1130
  725TMC3    C310714   3.849   1.035  12.042  0.7809 -0.3970  0.5084
  725TMC3    C410715   4.001   0.890  12.220 -0.0108 -0.3417 -0.0771
  725TMC3    C510716   3.924   0.823  12.123 -0.0167 -0.0870 -0.1274
  725TMC3    C610717   3.859   0.898  12.020 -0.2238 -1.4629 -0.4992
  725TMC3     C10718   4.102   1.092  12.281  0.7524  0.6060  0.2579
  725TMC3     O10719   4.093   1.213  12.270  0.6624  0.0201  0.0533
  725TMC3     H10720   3.895   1.204  12.162  0.5869  0.0790 -0.9970
  725TMC3    H110721   4.045   0.843  12.307  0.0398  1.6038  0.9579
  725TMC3    H210722   3.809   0.841  11.942  0.4344 -0.5065 -1.6253
  725TMC3    C710723   3.934   0.678  12.102  0.1338 -0.6300 -0.3389
  725TMC3    C810724   3.825   1.106  11.916  0.1918 -0.2214 -0.0977
  725TMC3    O110725   3.902   0.635  11.995  0.4134 -0.1144  0.2386
  725TMC3    O210726   3.759   1.062  11.826  0.3217 -0.1472  0.7083
  726MPD2     C10727   2.098   2.326  10.290  0.2227 -0.6320 -0.1339
  726MPD2    C110728   2.115   2.435  10.366  0.0342 -0.7676  0.2482
  726MPD2    C210729   2.035   2.449  10.479 -0.0509  0.2921  0.2410
  726MPD2    C310730   1.941   2.354  10.509  0.3267 -0.9894 -0.4745
  726MPD2    C410731   1.931   2.245  10.425  0.6300 -0.4404 -0.3061
  726MPD2    C510732   2.008   2.229  10.315  0.1842  0.2307 -0.4634
  726MPD2     H10733   2.057   2.529  10.549  0.6194  1.5446 -1.4088
  726MPD2    H110734   1.855   2.168  10.435  1.9517 -1.4699  1.6392
  726MPD2    H210735   2.142   2.314  10.192 -0.0630 -1.5521 -0.1479
  726MPD2    H310736   2.008   2.136  10.260 -0.9278  0.5017 -0.9188
  726MPD2     N10737   1.845   2.384  10.605 -0.5430  0.9689  0.1657
  726MPD2    H510738   1.768   2.319  10.612  0.2357  0.1565  1.2445
  726MPD2    N110739   2.194   2.544  10.323  0.1898 -0.3334  0.1253
  726MPD2    H710740   2.192   2.627  10.381 -1.1465 -0.2040 -0.0934
  727TMC3    C110741   2.297   2.694  10.169  0.2097  0.2283  0.0181
  727TMC3    C210742   2.388   2.745  10.254 -0.6255  0.1956  0.2390
  727TMC3    C310743   2.432   2.868  10.236  0.2096  0.8661  0.3975
  727TMC3    C410744   2.255   2.764  10.065 -0.6192  0.0973 -0.0230
  727TMC3    C510745   2.280   2.897  10.054 -0.1184  0.2122  0.5424
  727TMC3    C610746   2.383   2.946  10.133  0.2536 -0.4892  0.5258
  727TMC3     C10747   2.245   2.555  10.191  0.4205  0.3779 -0.5582
  727TMC3     O10748   2.219   2.498  10.087  0.1585 -0.2658  0.2930
  727TMC3     H10749   2.417   2.688  10.342  0.8056  0.5425 -0.0101
  727TMC3    H110750   2.174   2.717  10.011 -1.8805  0.5622  1.4419
  727TMC3    H210751   2.426   3.045  10.121 -0.8519  0.0007  0.6003
  727TMC3    C710752   2.205   2.966   9.949 -0.5334 -0.0503  0.1135
  727TMC3    C810753   2.538   2.923  10.328  0.2512  0.2812 -0.6756
  727TMC3    O110754   2.114   2.904   9.888 -0.8277  0.3351  0.2709
  727TMC3    O210755   2.554   2.858  10.431 -0.0460  0.2949 -0.6120
  728TMC3    C110756   1.463   0.994  15.251 -0.0887 -0.1881 -0.0154
  728TMC3    C210757   1.598   1.007  15.253  0.1158  0.2193 -0.5331
  728TMC3    C310758   1.666   0.972  15.139  0.5592 -0.6106  0.6287
  728TMC3    C410759   1.388   0.953  15.149 -0.3091 -0.4392  0.2349
  728TMC3    C510760   1.464   0.913  15.044 -0.4271 -0.1094 -0.0508
  728TMC3    C610761   1.599   0.917  15.041  0.0626 -0.4775 -0.2744
  728TMC3     C10762   1.408   1.029  15.383  0.2857  0.4956 -0.6280
  728TMC3     O10763   1.478   1.087  15.465  0.6743  0.4103 -0.5779
  728TMC3     H10764   1.656   1.033  15.341 -0.5855  1.5659 -0.4690
  728TMC3    H110765   1.281   0.934  15.145 -0.2509 -0.8290  0.5286
  728TMC3    H210766   1.647   0.893  14.947  2.0856  1.8103  0.1707
  728TMC3    C710767   1.401   0.936  14.917 -0.3989 -0.4551  0.2645
  728TMC3    C810768   1.750   1.080  15.088  0.0062 -0.1213 -0.3109
  728TMC3    O110769   1.287   0.891  14.896  0.2099  0.1512  0.5551
  728TMC3    O210770   1.738   1.083  14.964 -0.0238 -0.1731 -0.0272
  729MPD2     C10771   3.985   2.020  17.527 -0.5668 -0.1647  0.2814
  729MPD2    C110772   3.973   2.135  17.455  0.3423 -0.2143 -0.3897
  729MPD2    C210773   3.989   2.251  17.525 -0.2279  0.2587  0.1760
  729MPD2    C310774   4.020   2.254  17.661 -1.4351  0.8515  0.8031
  729MPD2    C410775   4.035   2.131   0.043 -0.0024 -0.2040 -0.6370
  729MPD2    C510776   4.016   2.016  17.659  0.2761  0.8445 -0.2559
  729MPD2     H10777   3.980   2.348  17.478  1.1073  0.2972 -0.0021
  729MPD2    H110778   4.061   2.115   0.147 -0.3497 -1.2846 -0.7193
  729MPD2    H210779   3.961   1.925  17.479 -1.0153  0.0182  0.1472
  729MPD2    H310780   4.022   1.922   0.026 -0.3195 -0.3123 -2.2564
  729MPD2     N10781   4.037   2.381   0.035  0.5647  0.4307 -0.0146
  729MPD2    H510782   4.020   2.465  17.667  0.8125 -0.2985 -1.2154
  729MPD2    N110783   3.957   2.124  17.313  0.2492  0.0670 -0.7975
  729MPD2    H710784   3.970   2.031  17.276 -1.0633 -0.6826  0.6146
  730TMC3    C110785   4.061   2.534   0.209  0.7224 -0.0049  0.0130
  730TMC3    C210786   4.154   2.594   0.288 -0.0041 -0.0497 -0.5160
  730TMC3    C310787   4.147   2.731   0.308 -0.6879 -0.2126  0.0183
  730TMC3    C410788   3.957   2.603   0.148  0.1496 -0.0711  0.4207
  730TMC3    C510789   3.945   2.737   0.178  0.4434  0.1336  0.0145
  730TMC3    C610790   4.037   2.793   0.262  0.4245  0.3501  0.4449
  730TMC3     C10791   4.078   2.395   0.169  0.4045  0.4585 -0.7986
  730TMC3     O10792   4.144   2.314   0.237  0.7111 -0.0315  0.2706
  730TMC3     H10793   4.250   2.544   0.288  0.6486  1.1914  0.2168
  730TMC3    H110794   3.885   2.555   0.083  0.2632  0.1816  0.1016
  730TMC3    H210795   4.041   2.901   0.256 -0.2588  0.3126 -0.6169
  730TMC3    C710796   3.859   2.812   0.093 -0.2073 -0.8699 -0.0445
  730TMC3    C810797   4.267   2.796   0.355 -0.0941 -0.1681 -0.9451
  730TMC3    O110798   3.826   2.764  17.674  0.2580 -0.6035  0.1708
  730TMC3    O210799   4.332   2.743   0.440 -0.1864  0.2201  0.1642
  731MPD2     C10800   3.083   0.069  12.179 -0.3072  0.9190  0.1428
  731MPD2    C110801   3.169   4.687  12.166 -0.4573 -0.1011 -0.0618
  731MPD2    C210802   3.228   4.631  12.285 -0.1759  0.2079 -0.1343
  731MPD2    C310803   3.178   4.661  12.413 -0.0482  0.5047  0.5936
  731MPD2    C410804   3.072   0.031  12.415 -0.1993  0.2533  0.0005
  731MPD2    C510805   3.033   0.109  12.304 -0.5503  0.3386  0.4395
  731MPD2     H10806   3.301   4.551  12.276 -1.2318 -0.6238 -1.3649
  731MPD2    H110807   3.026   0.059  12.509 -0.0739  0.2957  0.0481
  731MPD2    H210808   3.044   0.135  12.102  2.7385 -0.3644 -2.4808
  731MPD2    H310809   2.964   0.191  12.322 -0.0446  0.9105 -0.2699
  731MPD2     N10810   3.241   4.599  12.526 -0.1233  0.0926  0.3721
  731MPD2    H510811   3.319   4.536  12.507  0.8349  2.2148 -2.8272
  731MPD2    N110812   3.179   4.645  12.031  0.0250  0.1113  0.0944
  731MPD2    H710813   3.116   4.691  11.967  0.3310 -0.3962 -0.5695
  732TMC3    C110814   3.225   4.474  11.869 -0.0323 -0.2002  0.1962
  732TMC3    C210815   3.094   4.467  11.837  0.7485  0.1873  0.1290
  732TMC3    C310816   3.068   4.412  11.709  0.1144 -0.6978 -0.5097
  732TMC3    C410817   3.327   4.423  11.801 -0.4036 -0.9670  1.1060
  732TMC3    C510818   3.304   4.370  11.672 -0.0718  0.0304  0.2511
  732TMC3    C610819   3.172   4.362  11.632  0.5996 -0.2692 -0.0648
  732TMC3     C10820   3.264   4.548  11.993  0.1707  0.7711 -0.6575
  732TMC3     O10821   3.355   4.487  12.053  0.7992 -0.3230 -0.3134
  732TMC3     H10822   3.024   4.516  11.904 -0.4330 -1.6728  0.2529
  732TMC3    H110823   3.426   4.431  11.844 -0.0657  3.2128 -0.3970
  732TMC3    H210824   3.151   4.319  11.535 -1.9766  0.0472  0.3587
  732TMC3    C710825   3.409   4.359  11.569  0.0500  0.1600  0.4952
  732TMC3    C810826   2.942   4.443  11.638 -0.0727 -0.2029 -0.4881
  732TMC3    O110827   3.362   4.324  11.462 -0.2832  0.0027 -0.2401
  732TMC3    O210828   2.938   4.423  11.514  0.0560 -0.0406 -0.2604
  733TMC3    C110829   4.196   3.963  13.244  0.1249 -0.0504 -0.0486
  733TMC3    C210830   4.316   3.889  13.247 -0.4142  0.1039 -0.2264
  733TMC3    C310831   4.418   3.944  13.176  0.2637 -0.6461  0.0594
  733TMC3    C410832   4.193   4.081  13.175  0.2452 -0.0623 -0.0518
  733TMC3    C510833   4.297   4.122  13.101 -0.2473 -0.1164 -0.2797
  733TMC3    C610834   4.414   4.055  13.098 -0.2630 -0.5614  0.0725
  733TMC3     C10835   4.067   3.905  13.278 -0.1477 -0.0383 -0.3103
  733TMC3     O10836   3.974   3.969  13.227  0.1638  0.0720 -0.4060
  733TMC3     H10837   4.338   3.801  13.307  0.1908  1.0640  0.9474
  733TMC3    H110838   4.107   4.144  13.195 -0.0111 -0.8477  1.3218
  733TMC3    H210839   4.504   4.103  13.061 -0.0180  0.7137  2.3666
  733TMC3    C710840   4.282   4.221  12.990 -0.7538 -0.1322  0.1497
  733TMC3    C810841   4.547   3.878  13.190  0.2269 -0.2734 -0.3355
  733TMC3    O110842   4.200   4.311  13.010 -0.1228 -0.0586  0.2667
  733TMC3    O210843   4.571   3.809  13.288 -0.0688 -0.5173  0.4687
  734MPD2     C10844   2.463   1.102  12.328  0.2712 -0.3584  0.3685
  734MPD2    C110845   2.335   1.056  12.294 -0.5630 -0.5469 -0.4943
  734MPD2    C210846   2.274   1.079  12.166 -0.4095 -0.2299 -0.8291
  734MPD2    C310847   2.340   1.172  12.084  0.5867  0.5036 -0.1372
  734MPD2    C410848   2.466   1.218  12.118 -0.3434 -0.4347 -0.2661
  734MPD2    C510849   2.529   1.185  12.237  1.0831  0.4741  0.8202
  734MPD2     H10850   2.187   1.026  12.130 -0.3376 -0.2729 -0.9408
  734MPD2    H110851   2.524   1.293  12.064 -1.7547 -0.2316 -1.5057
  734MPD2    H210852   2.508   1.092  12.426  0.5284 -0.2775  0.2578
  734MPD2    H310853   2.626   1.228  12.257 -0.0278  2.9701  0.8510
  734MPD2     N10854   2.272   1.203  11.965  0.4961 -0.0078  0.0584
  734MPD2    H510855   2.177   1.168  11.967  0.7659 -0.8955 -2.0748
  734MPD2    N110856   2.268   0.974  12.385  0.0406  0.0074  0.6292
  734MPD2    H710857   2.322   0.922  12.454  0.0402  0.7055  1.1451
  735TMC3    C110858   2.100   0.819  12.448  0.6649  0.2705  0.9329
  735TMC3    C210859   1.972   0.825  12.458 -0.3123  0.3387  0.1855
  735TMC3    C310860   1.894   0.711  12.446 -1.1332  0.0717 -0.3143
  735TMC3    C410861   2.159   0.703  12.423  0.1053 -0.3349  0.6871
  735TMC3    C510862   2.091   0.583  12.420  0.0527  0.4313  0.0620
  735TMC3    C610863   1.956   0.588  12.448  0.2106 -0.0153 -0.2411
  735TMC3     C10864   2.134   0.945  12.379  0.3520 -0.1021 -0.3026
  735TMC3     O10865   2.042   0.994  12.313  0.1862 -0.5664  0.6317
  735TMC3     H10866   1.935   0.924  12.485 -1.1808  0.0427  0.0926
  735TMC3    H110867   2.261   0.713  12.387 -0.2582  3.1529  0.6514
  735TMC3    H210868   1.896   0.501  12.425  0.4726 -0.4040  0.5655
  735TMC3    C710869   2.131   0.493  12.310 -0.7608 -0.1526 -0.4534
  735TMC3    C810870   1.802   0.722  12.327  0.6180  0.2109  0.3555
  735TMC3    O110871   2.177   0.539  12.204  0.6200  0.2409  0.2122
  735TMC3    O210872   1.720   0.632  12.322 -0.3881 -0.3401  0.3014
  736MPD2     C10873   2.065   0.130  12.255  0.5894 -0.5348 -0.3534
  736MPD2    C110874   2.078   0.267  12.217  0.1520 -0.6299 -0.8676
  736MPD2    C210875   2.081   0.297  12.081  0.8529 -0.0622 -0.4406
  736MPD2    C310876   2.094   0.199  11.983  0.0321 -0.2271 -0.1361
  736MPD2    C410877   2.084   0.067  12.019  0.3229 -0.0979 -0.0204
  736MPD2    C510878   2.072   0.038  12.154  0.3753 -0.1766 -0.2294
  736MPD2     H10879   2.081   0.402  12.052 -1.1167 -0.0581 -0.4342
  736MPD2    H110880   2.093   4.704  11.951  1.9308 -0.9740  1.2807
  736MPD2    H210881   2.060   0.093  12.357  1.0459  0.9332  0.1987
  736MPD2    H310882   2.055   4.655  12.181 -1.3491 -0.0190 -0.7023
  736MPD2     N10883   2.118   0.232  11.849 -0.9724 -0.1547 -0.0483
  736MPD2    H510884   2.150   0.159  11.786 -2.2649 -0.0979 -0.7709
  736MPD2    N110885   2.094   0.361  12.326 -0.2536 -0.3962  0.2064
  736MPD2    H710886   2.100   0.321  12.419 -0.0177 -1.9917 -0.4942
  737TMC3    C110887   2.189   0.364  11.672  0.3512 -0.2352 -0.2643
  737TMC3    C210888   2.229   0.497  11.653 -0.5719  1.0835  0.2683
  737TMC3    C310889   2.222   0.558  11.529  0.1276  0.4940 -0.6055
  737TMC3    C410890   2.125   0.300  11.569 -0.7536  0.6037  0.6893
  737TMC3    C510891   2.123   0.360  11.443 -0.2669 -0.8815  1.1065
  737TMC3    C610892   2.161   0.495  11.426 -0.5821  0.2048 -0.5069
  737TMC3     C10893   2.118   0.363  11.800  0.3381 -0.1745  0.4340
  737TMC3     O10894   2.067   0.468  11.837  0.0816  0.1757  0.0167
  737TMC3     H10895   2.281   0.540  11.738 -1.0144 -1.2857  1.7397
  737TMC3    H110896   2.096   0.196  11.574  1.1139  0.0046 -1.1287
  737TMC3    H210897   2.164   0.540  11.327  1.9656 -1.3538 -1.1289
  737TMC3    C710898   2.077   0.281  11.328 -0.0675  0.0868 -0.3824
  737TMC3    C810899   2.236   0.701  11.536 -0.1924  0.0719  0.0656
  737TMC3    O110900   2.118   0.164  11.326  0.1690  0.0854 -0.3856
  737TMC3    O210901   2.324   0.744  11.617 -0.2273  0.0256  0.3463
  738MPD2     C10902   2.525   4.368  15.662 -0.5691  0.0408  0.4600
  738MPD2    C110903   2.465   4.343  15.539 -0.0428 -0.4926  1.5704
  738MPD2    C210904   2.541   4.391  15.436 -0.1075 -0.2709  0.1571
  738MPD2    C310905   2.657   4.472  15.446  0.0438  0.1717 -0.3876
  738MPD2    C410906   2.705   4.500  15.573  0.0377 -0.2276 -0.5884
  738MPD2    C510907   2.640   4.436  15.676 -0.1726 -0.1258 -0.3828
  738MPD2     H10908   2.499   4.363  15.340  1.5826  0.1539 -0.7038
  738MPD2    H110909   2.790   4.563  15.598  0.0516  0.2477 -1.8608
  738MPD2    H210910   2.491   4.330  15.757 -2.5734 -0.3740 -0.4273
  738MPD2    H310911   2.672   4.441  15.780  1.4027 -0.4156 -0.8641
  738MPD2     N10912   2.713   4.539  15.336 -0.0765  0.0100 -0.2640
  738MPD2    H510913   2.798   4.586  15.366  0.6775 -2.3683  1.2901
  738MPD2    N110914   2.353   4.261  15.510  0.1327 -0.4819 -0.0200
  738MPD2    H710915   2.330   4.237  15.414 -1.0767 -1.8008  0.5887
  739TMC3    C110916   2.762   4.627  15.122  0.4355 -0.8115 -0.8220
  739TMC3    C210917   2.805   4.564  15.011  0.2378  0.0544  0.0782
  739TMC3    C310918   2.900   4.624  14.934  0.5502  0.2211 -0.1235
  739TMC3    C410919   2.812   0.033  15.154 -0.3434  0.3048 -0.9716
  739TMC3    C510920   2.907   0.092  15.082  0.5649 -0.1782  0.4706
  739TMC3    C610921   2.956   0.029  14.963  0.0774 -0.2933 -0.0524
  739TMC3     C10922   2.670   4.557  15.203  0.6646  0.4256  0.0805
  739TMC3     O10923   2.576   4.499  15.151 -0.1188  0.5767 -0.5615
  739TMC3     H10924   2.759   4.477  14.966  2.5666 -0.0969 -1.9453
  739TMC3    H110925   2.773   0.088  15.239  2.5907 -1.7199  1.7024
  739TMC3    H210926   3.030   0.072  14.897 -0.2308  1.2409  0.5905
  739TMC3    C710927   2.952   0.227  15.120 -0.3528  0.1070  0.2917
  739TMC3    C810928   2.966   4.554  14.824  0.1591  0.1732  0.1198
  739TMC3    O110929   2.935   0.263  15.236  0.0837  0.0758  0.3101
  739TMC3    O210930   3.003   4.615  14.728  0.2134 -0.1456 -0.0856
  740TMC3    C110931   3.479   1.278  14.282 -0.0329 -0.6027 -0.3758
  740TMC3    C210932   3.516   1.341  14.398 -0.2389  0.5054 -0.1385
  740TMC3    C310933   3.651   1.352  14.419 -0.3202 -0.0130  0.0768
  740TMC3    C410934   3.569   1.226  14.193 -0.4016  0.8001 -0.5625
  740TMC3    C510935   3.703   1.226  14.228  0.0111 -0.6376 -0.8518
  740TMC3    C610936   3.746   1.283  14.346  0.0252 -0.0563  0.0268
  740TMC3     C10937   3.335   1.235  14.258  0.5088 -0.2484  0.4722
  740TMC3     O10938   3.286   1.245  14.148 -0.1962 -0.1980  1.4521
  740TMC3     H10939   3.446   1.385  14.469 -0.5056  0.4901 -0.3921
  740TMC3    H110940   3.525   1.178  14.106 -1.2767  0.7648 -0.0998
  740TMC3    H210941   3.851   1.299  14.369 -0.7045  3.0516  1.1610
  740TMC3    C710942   3.805   1.136  14.167  0.5168  0.7927  0.5406
  740TMC3    C810943   3.692   1.392  14.559  0.7281 -0.4546 -0.0303
  740TMC3    O110944   3.896   1.098  14.242  0.8588 -0.1041 -0.5949
  740TMC3    O210945   3.625   1.479  14.614  0.4538 -0.6774  0.4314
  741TMC3    C110946   2.927   0.490  13.637 -1.3012  0.3597 -0.1657
  741TMC3    C210947   2.836   0.483  13.742 -1.1347  0.4897  1.1486
  741TMC3    C310948   2.875   0.546  13.858 -0.1618  0.0998 -0.2400
  741TMC3    C410949   3.054   0.545  13.649  0.2332 -0.6670 -0.4801
  741TMC3    C510950   3.089   0.583  13.781 -0.1146  0.6120  0.4384
  741TMC3    C610951   3.001   0.591  13.887  0.6576  0.1134 -0.1897
  741TMC3     C10952   2.891   0.446  13.507 -0.5056 -0.0613 -0.6581
  741TMC3     O10953   2.979   0.417  13.425  0.1000 -0.5325  0.4277
  741TMC3     H10954   2.734   0.445  13.736 -0.7535 -0.5123  0.9886
  741TMC3    H110955   3.125   0.537  13.568 -1.9609  0.7639 -2.5660
  741TMC3    H210956   3.039   0.631  13.980  1.0017 -3.0162  1.0154
  741TMC3    C710957   3.222   0.617  13.817 -0.6374 -0.0758  0.0425
  741TMC3    C810958   2.822   0.485  13.974  0.0404 -0.3429 -0.0023
  741TMC3    O110959   3.258   0.628  13.932 -0.1708 -0.2280  0.7060
  741TMC3    O210960   2.741   0.395  13.954  0.2406 -0.4228 -0.0353
  742TMC3    C110961   2.911   3.465  15.589 -0.4745  0.5940 -0.7697
  742TMC3    C210962   2.777   3.425  15.574  0.0960 -0.9994  0.8664
  742TMC3    C310963   2.735   3.362  15.462  0.0147  0.5039  0.7601
  742TMC3    C410964   3.008   3.430  15.502 -0.1442  0.2209 -0.0841
  742TMC3    C510965   2.958   3.356  15.394  0.5275 -0.2459  0.6304
  742TMC3    C610966   2.828   3.322  15.376 -0.0870  0.1341  0.1931
  742TMC3     C10967   2.940   3.544  15.711 -0.2079 -0.1665  0.0675
  742TMC3     O10968   2.888   3.508  15.818  0.0242 -0.5955 -0.0956
  742TMC3     H10969   2.695   3.469  15.630  0.4654  1.4390 -0.5122
  742TMC3    H110970   3.114   3.448  15.516 -0.4701  0.8499  1.5327
  742TMC3    H210971   2.803   3.244  15.305  0.3039 -1.0626  1.3508
  742TMC3    C710972   3.054   3.324  15.290 -0.1859 -0.5926 -0.4590
  742TMC3    C810973   2.596   3.337  15.441 -0.1756  0.3562  0.0745
  742TMC3    O110974   3.171   3.332  15.322 -0.1579  0.1980  0.2941
  742TMC3    O210975   2.512   3.352  15.528 -0.5450 -0.4730 -0.4243
  743MPD2     C10976   4.703   4.697   1.609  0.0132  0.8534 -0.8936
  743MPD2    C110977   0.055   4.606   1.534  0.2789  0.4183 -0.2706
  743MPD2    C210978   0.186   4.592   1.557 -0.5295 -0.3409 -0.5823
  743MPD2    C310979   0.244   4.664   1.657  0.2014  0.3031  0.5993
  743MPD2    C410980   0.166   0.027   1.733  0.0664 -0.9931 -0.8398
  743MPD2    C510981   0.034   0.049   1.712  0.3880 -0.0776 -0.0475
  743MPD2     H10982   0.248   4.527   1.498 -1.0542 -1.0572 -0.3433
  743MPD2    H110983   0.211   0.087   1.811 -0.5013 -2.1331  0.3580
  743MPD2    H210984   4.597   4.706   1.588 -0.7872 -3.1238  1.4434
  743MPD2    H310985   4.689   0.115   1.767  0.5930 -0.4866  0.6965
  743MPD2     N10986   0.383   4.654   1.671 -0.2759 -0.0336 -0.5140
  743MPD2    H510987   0.421   4.587   1.605  0.6491 -1.0324  1.0046
  743MPD2    N110988   4.711   4.538   1.426 -0.1579 -0.1713 -0.5063
  743MPD2    H710989   4.627   4.585   1.393 -0.1218 -0.1505 -0.5686
  744TMC3    C110990   4.664   4.399   1.249 -0.5801 -0.0323 -0.1028
  744TMC3    C210991   4.531   4.436   1.262 -0.5353 -0.5886  0.3799
  744TMC3    C310992   4.458   4.455   1.149  0.6354  0.5790  0.7276
  744TMC3    C410993   4.721   4.358   1.134 -0.0663 -0.1756 -0.4099
  744TMC3    C510994   4.648   4.379   1.021 -0.5368 -0.4223  0.4053
  744TMC3    C610995   4.517   4.424   1.031 -0.6577 -0.0690 -0.0023
  744TMC3     C10996   0.031   4.427   1.359 -0.1938  0.0620 -0.8582
  744TMC3     O10997   0.124   4.351   1.373 -0.1261 -0.1977 -0.1107
  744TMC3     H10998   4.483   4.449   1.358 -0.3488 -1.5234  0.5977
  744TMC3    H110999   0.106   4.336   1.141 -0.0805  0.0012  0.3851
  744TMC3    H211000   4.462   4.451   0.941  0.5841  0.9357 -0.4520
  744TMC3    C711001   4.716   4.386   0.892  0.1484  0.0775 -0.1111
  744TMC3    C811002   4.338   4.540   1.150  0.1920 -0.3280  0.8062
  744TMC3    O111003   0.115   4.363   0.896 -0.4449 -0.0363 -0.1893
  744TMC3    O211004   4.325   4.604   1.248  0.2606 -0.1489 -0.1143
  745TMC3    C111005   3.268   3.014  13.784  0.6513 -0.5062  0.3213
  745TMC3    C211006   3.240   2.912  13.867 -0.2916  0.3685 -0.6678
  745TMC3    C311007   3.103   2.884  13.891  0.2353 -0.7079 -1.2526
  745TMC3    C411008   3.178   3.079  13.706 -0.1846  0.1653  0.6877
  745TMC3    C511009   3.046   3.044  13.727  0.2982  0.0569  0.1307
  745TMC3    C611010   3.004   2.956  13.824  0.4414  0.0451 -0.3860
  745TMC3     C11011   3.406   3.063  13.781 -0.2158  0.3406  1.2302
  745TMC3     O11012   3.487   2.975  13.803  0.1804  0.4307 -0.0514
  745TMC3     H11013   3.316   2.862  13.926  0.7531 -0.1003 -2.4240
  745TMC3    H111014   3.205   3.156  13.635  0.9257 -0.6650  0.2017
  745TMC3    H211015   2.902   2.922  13.836  0.1724  1.3115  0.9439
  745TMC3    C711016   2.952   3.076  13.617  0.4633  0.0427 -0.1128
  745TMC3    C811017   3.080   2.870  14.030 -0.5040 -0.1457  0.0216
  745TMC3    O111018   2.853   3.003  13.618  0.3690  0.4364  0.1678
  745TMC3    O211019   3.128   2.772  14.086 -0.3430 -0.8776 -0.2668
  746TMC3    C111020   0.646   0.437  11.179  0.3921 -0.1087  0.1600
  746TMC3    C211021   0.648   0.498  11.052  0.1659 -0.4781  0.6254
  746TMC3    C311022   0.569   0.443  10.952  0.6601  0.1819  0.1849
  746TMC3    C411023   0.565   0.328  11.205 -0.6671  0.7411 -0.5739
  746TMC3    C511024   0.495   0.274  11.102  0.1581 -0.5163  0.0896
  746TMC3    C611025   0.498   0.326  10.975 -0.6177  0.6964  0.5312
  746TMC3     C11026   0.725   0.480  11.290  0.4299  0.3207  0.2988
  746TMC3     O11027   0.715   0.423  11.398 -0.6434  0.5687 -0.6000
  746TMC3     H11028   0.680   0.601  11.040 -2.4253  0.4274  1.3309
  746TMC3    H111029   0.559   0.289  11.306 -0.6362  3.4346  0.4882
  746TMC3    H211030   0.419   0.300  10.905  1.5334 -3.0656 -0.4983
  746TMC3    C711031   0.420   0.148  11.108 -0.2826 -0.6476  0.5480
  746TMC3    C811032   0.551   0.491  10.814 -0.0000 -0.1932  0.2501
  746TMC3    O111033   0.335   0.129  11.021  0.3627  0.0291  1.0924
  746TMC3    O211034   0.468   0.438  10.739  0.7782 -0.3925 -0.2939
  747TMC3    C111035   2.249   0.809  10.464  0.7223  0.6842  0.2623
  747TMC3    C211036   2.163   0.707  10.503  0.4248 -0.2436  0.8486
  747TMC3    C311037   2.174   0.659  10.628  0.7131 -0.5110  0.2337
  747TMC3    C411038   2.358   0.836  10.538 -0.0752 -0.3484  0.3277
  747TMC3    C511039   2.375   0.769  10.653 -0.1473 -0.5331  0.1726
  747TMC3    C611040   2.281   0.688  10.708  0.3706  0.0669 -0.3418
  747TMC3     C11041   2.262   0.826  10.314 -0.4642 -0.0347 -0.4716
  747TMC3     O11042   2.247   0.941  10.271  0.7052 -0.1621  0.1252
  747TMC3     H11043   2.077   0.675  10.444 -0.4659  2.1358  0.8524
  747TMC3    H111044   2.436   0.905  10.506  1.4531 -2.3036 -0.2043
  747TMC3    H211045   2.299   0.627  10.795 -0.3140  0.6053  0.1863
  747TMC3    C711046   2.502   0.777  10.725  0.1053  0.4459 -0.2180
  747TMC3    C811047   2.106   0.537  10.666 -0.1512 -0.0657  0.1951
  747TMC3    O111048   2.558   0.888  10.721 -0.1897 -0.2648  0.0189
  747TMC3    O211049   2.067   0.459  10.577  0.1048  0.4102  0.1952
  748MPD2     C11050   4.192   1.366   1.364  0.7402  0.3477  0.1481
  748MPD2    C111051   4.216   1.229   1.354 -0.5750 -0.2444  0.0434
  748MPD2    C211052   4.321   1.173   1.280  0.6536 -0.6722 -0.3749
  748MPD2    C311053   4.415   1.261   1.229 -0.0651 -0.4113 -0.0865
  748MPD2    C411054   4.397   1.397   1.248 -0.1975 -0.3029  0.3114
  748MPD2    C511055   4.283   1.452   1.306 -0.1489  0.5090 -0.1323
  748MPD2     H11056   4.351   1.069   1.277  0.0417 -0.8976  1.0608
  748MPD2    H111057   4.467   1.468   1.205 -1.2609  0.7748  0.3457
  748MPD2    H211058   4.107   1.406   1.419 -0.0808 -2.7203  1.0952
  748MPD2    H311059   4.264   1.559   1.312 -0.3239  0.4453  0.4475
  748MPD2     N11060   4.526   1.209   1.157 -0.3997  0.0611 -0.1201
  748MPD2    H511061   4.542   1.109   1.159 -1.1041 -0.0331  0.7221
  748MPD2    N111062   4.128   1.146   1.419  0.1219  0.3928 -0.6381
  748MPD2    H711063   4.071   1.186   1.493  0.3427 -0.1748 -0.1666
  749TMC3    C111064   0.022   1.210   1.076 -0.9380  0.2056 -0.3598
  749TMC3    C211065   0.042   1.088   1.131  0.3347 -0.2892 -0.2402
  749TMC3    C311066   0.161   1.029   1.104 -0.8901 -0.2196  0.1099
  749TMC3    C411067   0.106   1.257   0.977  0.3626 -0.2160 -0.5852
  749TMC3    C511068   0.215   1.189   0.943 -0.3931 -0.1287  0.2622
  749TMC3    C611069   0.252   1.079   1.014  0.1233 -0.7024 -0.1958
  749TMC3     C11070   4.619   1.284   1.094  0.4143 -0.1507 -0.1655
  749TMC3     O11071   4.630   1.405   1.072  0.0105  0.3088  0.1948
  749TMC3     H11072   4.698   1.038   1.202  1.4668  1.8261  2.2692
  749TMC3    H111073   0.086   1.350   0.925 -1.2772  1.3741  2.8637
  749TMC3    H211074   0.350   1.032   1.007 -1.0305 -3.0790 -0.1387
  749TMC3    C711075   0.310   1.257   0.846 -0.1366  0.2114 -0.4222
  749TMC3    C811076   0.141   0.888   1.099 -0.2436 -0.3329  0.2598
  749TMC3    O111077   0.308   1.376   0.831 -0.4480  0.4148  0.4349
  749TMC3    O211078   0.023   0.854   1.077 -0.0674 -0.0236 -0.4362
  750MPD2     C11079   1.264   2.235  11.151  0.1082 -0.2324 -0.2784
  750MPD2    C111080   1.199   2.157  11.243 -0.2426 -0.1626  0.5052
  750MPD2    C211081   1.134   2.047  11.201  0.1539  0.1534 -0.3352
  750MPD2    C311082   1.125   2.021  11.062  0.5601  0.0040  0.0150
  750MPD2    C411083   1.190   2.095  10.968  0.1168 -0.3032  0.2269
  750MPD2    C511084   1.258   2.202  11.015 -0.5046  0.4258  0.1258
  750MPD2     H11085   1.073   1.992  11.270  0.8334 -1.6345 -1.1677
  750MPD2    H111086   1.179   2.078  10.861  0.4393 -0.7536  0.2634
  750MPD2    H211087   1.316   2.327  11.176 -0.5028 -1.1850  4.5672
  750MPD2    H311088   1.311   2.266  10.945  0.8539  0.1385  0.8733
  750MPD2     N11089   1.050   1.909  11.011  0.2044 -0.1758  0.2773
  750MPD2    H511090   1.048   1.894  10.910  1.0713  1.9757 -0.0809
  750MPD2    N111091   1.216   2.187  11.377  0.3630  0.1869  0.0361
  750MPD2    H711092   1.267   2.275  11.377  0.8539 -0.1014 -1.0735
  751TMC3    C111093   0.928   1.711  11.012 -0.5757 -0.1199  0.4866
  751TMC3    C211094   0.799   1.658  11.021  0.2535  0.2813 -0.1961
  751TMC3    C311095   0.749   1.582  10.918 -0.8176  0.2353 -0.0430
  751TMC3    C411096   1.014   1.663  10.914 -0.8252 -0.0521 -0.1730
  751TMC3    C511097   0.966   1.578  10.821  0.1815  0.1138 -0.2863
  751TMC3    C611098   0.834   1.544  10.818 -0.4528  0.2715  0.4170
  751TMC3     C11099   0.975   1.826  11.082 -0.6798  0.3322  0.2327
  751TMC3     O11100   0.906   1.847  11.182  0.1368  0.5360 -0.5714
  751TMC3     H11101   0.741   1.686  11.109 -0.3635 -2.2551  0.1883
  751TMC3    H111102   1.107   1.712  10.889 -0.5432 -0.6546 -0.3016
  751TMC3    H211103   0.786   1.496  10.734  0.8834  0.0211 -0.2125
  751TMC3    C711104   1.021   1.597  10.692  0.3194 -0.4684  0.3595
  751TMC3    C811105   0.652   1.477  10.953 -0.0792  0.0227 -0.4681
  751TMC3    O111106   1.090   1.695  10.665  0.4028  0.6654 -0.4121
  751TMC3    O211107   0.661   1.370  10.895  0.1668  0.7156 -0.1910
  752TMC3    C111108   4.672   1.783  17.560 -0.4569  0.5612  0.1957
  752TMC3    C211109   0.026   1.720  17.658  0.5777  0.7447  0.1059
  752TMC3    C311110   0.063   1.796   0.080 -0.3948 -0.1050 -0.9557
  752TMC3    C411111   4.643   1.922  17.553 -0.0104 -0.2480 -0.6062
  752TMC3    C511112   4.677   1.988  17.668  0.1553  0.6222  0.0591
  752TMC3    C611113   0.031   1.931   0.081 -0.0849 -0.8689  0.6936
  752TMC3     C11114   4.627   1.696  17.448  0.1705 -0.3817 -0.2769
  752TMC3     O11115   4.716   1.626  17.404  0.6341 -0.4422  0.3213
  752TMC3     H11116   0.049   1.615  17.667 -1.0200  0.3617 -0.3013
  752TMC3    H111117   4.579   1.974  17.483  1.1053  1.8021 -0.0923
  752TMC3    H211118   0.070   1.994   0.160  0.2922  0.3943 -0.5187
  752TMC3    C711119   4.635   2.122  17.683 -0.4353  0.3672 -0.1407
  752TMC3    C811120   0.079   1.723   0.209 -0.3743  0.1178  0.7695
  752TMC3    O111121   4.594   2.180  17.580  0.2864  0.0026 -0.1860
  752TMC3    O211122   0.109   1.605   0.202 -0.1087 -0.0792 -0.3652
  753TMC3    C111123   1.395   3.272  13.694  0.0880 -0.5426  0.0363
  753TMC3    C211124   1.514   3.288  13.749  0.2462 -0.2611  0.7456
  753TMC3    C311125   1.595   3.176  13.742 -0.9071 -0.5497  0.6570
  753TMC3    C411126   1.360   3.168  13.611  0.2228 -0.7095  0.5338
  753TMC3    C511127   1.448   3.075  13.585  0.5369 -0.7981 -0.1640
  753TMC3    C611128   1.574   3.073  13.653 -0.3644  0.2258 -0.2083
  753TMC3     C11129   1.274   3.333  13.750 -0.0175  0.1330  0.0311
  753TMC3     O11130   1.167   3.296  13.705  0.4271  0.2441  0.0656
  753TMC3     H11131   1.523   3.363  13.827 -1.3704 -1.5729  2.1690
  753TMC3    H111132   1.270   3.168  13.552  0.3069  3.1507  0.3623
  753TMC3    H211133   1.640   2.987  13.649 -2.4801 -1.3709 -0.5728
  753TMC3    C711134   1.445   2.996  13.461  0.5777  0.9204 -0.2108
  753TMC3    C811135   1.664   3.130  13.863 -0.2349 -0.5480 -0.1999
  753TMC3    O111136   1.550   2.957  13.413 -0.4097  0.4507 -0.7077
  753TMC3    O211137   1.684   3.013  13.888  0.5294 -0.6755  0.1050
  754MPD2     C11138   0.101   1.530  13.386  0.0563 -0.3164  0.4988
  754MPD2    C111139   0.041   1.427  13.315 -0.2051  0.0508 -0.0994
  754MPD2    C211140   4.682   1.462  13.206  0.7117 -0.0548  0.3606
  754MPD2    C311141   4.665   1.595  13.169 -0.2512 -0.3499  0.7319
  754MPD2    C411142   0.006   1.693  13.244 -0.0546 -0.4069 -0.4521
  754MPD2    C511143   0.085   1.660  13.350  0.2398  0.0118 -1.1111
  754MPD2     H11144   4.647   1.384  13.139 -3.3222  0.4263  1.9519
  754MPD2    H111145   0.015   1.796  13.212  0.0792  0.4391  2.2794
  754MPD2    H211146   0.165   1.502  13.469  1.7542  0.4955 -0.5368
  754MPD2    H311147   0.122   1.742  13.410  2.4277 -0.9645 -1.1023
  754MPD2     N11148   4.595   1.630  13.056 -0.2713  0.2323  0.1177
  754MPD2    H511149   4.587   1.729  13.039  0.2602 -0.1802 -2.4379
  754MPD2    N111150   0.067   1.297  13.359 -0.2956 -0.0203  0.0551
  754MPD2    H711151   0.138   1.288  13.432 -1.5979 -1.0410  1.1851
  755MPD2     C11152   3.643   1.800  12.845 -0.1010  0.0803 -0.2004
  755MPD2    C111153   3.740   1.899  12.858 -0.1195  0.3284  0.1266
  755MPD2    C211154   3.870   1.868  12.853 -0.0680 -0.2569  1.1119
  755MPD2    C311155   3.907   1.738  12.815  0.7114  0.8506 -0.3278
  755MPD2    C411156   3.817   1.638  12.814 -0.4287 -0.1413  0.1131
  755MPD2    C511157   3.685   1.673  12.827  0.0746  0.7754  0.4176
  755MPD2     H11158   3.941   1.949  12.861 -0.1275 -0.0156 -0.9348
  755MPD2    H111159   3.853   1.540  12.788  1.7259  0.0286  2.4786
  755MPD2    H211160   3.536   1.816  12.843  0.0131  0.6310 -2.7435
  755MPD2    H311161   3.608   1.598  12.808  0.4110  0.2229  1.2239
  755MPD2     N11162   4.040   1.694  12.792  0.0407  0.3831 -0.1410
  755MPD2    H511163   4.052   1.608  12.739  1.5308  0.7938 -0.4473
  755MPD2    N111164   3.706   2.027  12.903  0.1819  0.5230  0.1296
  755MPD2    H711165   3.781   2.095  12.899 -1.1798  2.0035 -0.2557
  756MPD2     C11166   0.445   2.736   9.751 -0.4015 -1.0286 -0.6177
  756MPD2    C111167   0.439   2.672   9.876  0.4693  0.5671  0.1385
  756MPD2    C211168   0.371   2.557   9.877 -0.2276 -0.1419 -0.0739
  756MPD2    C311169   0.308   2.497   9.770  0.1755 -0.1005  0.1871
  756MPD2    C411170   0.300   2.572   9.656 -0.3240  0.2403  1.0146
  756MPD2    C511171   0.367   2.689   9.648 -0.4866  0.8660 -0.4024
  756MPD2     H11172   0.369   2.502   9.970 -1.6752  0.5721  0.3080
  756MPD2    H111173   0.252   2.549   9.562 -1.7915 -0.5452  1.9595
  756MPD2    H211174   0.508   2.822   9.733  0.2925 -1.8504 -2.0802
  756MPD2    H311175   0.362   2.742   9.553  0.7390  0.4951 -0.6771
  756MPD2     N11176   0.228   2.386   9.794 -0.4354  0.7735  0.0875
  756MPD2    H511177   0.241   2.350   9.888  1.3064 -0.8564 -0.7832
  756MPD2    N111178   0.512   2.717   9.987 -0.7453 -0.6454 -0.2473
  756MPD2    H711179   0.525   2.659  10.069  0.2798  2.2327  1.6028
  757MPD2     C11180   4.539   1.414   9.542  0.3356  0.0218  0.3158
  757MPD2    C111181   4.649   1.411   9.623 -0.7849  0.2466  0.2028
  757MPD2    C211182   4.688   1.524   9.687  0.4658 -0.0700  0.0064
  757MPD2    C311183   4.624   1.644   9.663 -0.3193  0.1916 -0.2590
  757MPD2    C411184   4.517   1.642   9.576 -0.3527 -0.3269 -0.1466
  757MPD2    C511185   4.477   1.531   9.513  0.8298 -0.4555 -0.7215
  757MPD2     H11186   0.055   1.528   9.751 -0.6051  0.5088  1.4457
  757MPD2    H111187   4.462   1.729   9.541  0.5489 -0.5928 -2.1839
  757MPD2    H211188   4.497   1.324   9.498 -1.3339  0.9026  0.0849
  757MPD2    H311189   4.391   1.529   9.447 -0.6702  1.7551  1.1215
  757MPD2     N11190   4.669   1.765   9.718 -0.3090  0.6345 -0.2424
  757MPD2    H511191   0.021   1.765   9.789 -1.3150  0.4349  0.7966
  757MPD2    N111192   4.711   1.282   9.633  0.1146  0.2515 -0.1583
  757MPD2    H711193   4.648   1.206   9.608  0.4400  0.6006 -2.0605
  758MPD2     C11194   0.668   1.814  15.573  0.2080 -0.2703 -0.2956
  758MPD2    C111195   0.669   1.693  15.635 -0.1434  0.1363 -0.1939
  758MPD2    C211196   0.570   1.663  15.729 -0.1393 -0.3596 -0.3864
  758MPD2    C311197   0.476   1.752  15.771 -0.4613  0.0151  0.3582
  758MPD2    C411198   0.479   1.879  15.717  0.4733 -0.1063  0.3381
  758MPD2    C511199   0.576   1.908  15.621 -0.4779 -0.3461 -0.3830
  758MPD2     H11200   0.578   1.564  15.772  1.1588  0.0612  0.3387
  758MPD2    H111201   0.410   1.956  15.748 -0.0999  1.0165 -3.6834
  758MPD2    H211202   0.742   1.858  15.507 -0.1200 -0.9130 -1.0972
  758MPD2    H311203   0.587   2.006  15.577 -0.3842 -0.6206 -0.9746
  758MPD2     N11204   0.381   1.724  15.870  0.4571  0.0179 -0.1156
  758MPD2    H511205   0.341   1.807  15.911 -0.3961 -0.4466  0.0007
  758MPD2    N111206   0.775   1.606  15.607 -0.1173 -0.2295  0.1089
  758MPD2    H711207   0.840   1.629  15.532 -0.1881  0.1325  0.1582
  759MPD2     C11208   3.918   3.970  10.080 -0.2040 -0.4785  0.1010
  759MPD2    C111209   3.799   3.956  10.014 -0.2486 -0.2175  0.2631
  759MPD2    C211210   3.798   3.955   9.875  0.5915 -0.0263  0.6338
  759MPD2    C311211   3.915   3.977   9.803  0.1305 -0.0532  0.2429
  759MPD2    C411212   4.037   3.983   9.879  0.5049  0.3017 -0.3561
  759MPD2    C511213   4.030   3.997  10.013  0.1905  0.9727 -0.0149
  759MPD2     H11214   3.704   3.956   9.821  0.7913 -0.3933  0.2854
  759MPD2    H111215   4.135   3.992   9.834  0.7233  0.9976  0.2595
  759MPD2    H211216   3.932   3.981  10.187  0.9678  2.9676 -0.3814
  759MPD2    H311217   4.121   4.021  10.067  0.7694 -0.1205 -0.5067
  759MPD2     N11218   3.901   3.988   9.663  0.7345 -0.1738 -0.6247
  759MPD2    H511219   3.806   3.994   9.629  0.8140 -0.2547 -0.8611
  759MPD2    N111220   3.679   3.950  10.086 -0.6071 -0.1756  0.1984
  759MPD2    H711221   3.602   3.920  10.028 -2.3289  0.5630  2.1003
  760MPD2     C11222   3.957   2.125  12.210 -0.2818  0.3886 -0.2368
  760MPD2    C111223   4.058   2.198  12.143 -0.3936 -0.0065  0.6347
  760MPD2    C211224   4.156   2.128  12.071  0.3488 -0.2369  0.5601
  760MPD2    C311225   4.144   1.988  12.063  0.1364  0.2428  0.0997
  760MPD2    C411226   4.038   1.922  12.121 -0.0703  0.0254  0.2598
  760MPD2    C511227   3.934   1.987  12.187 -0.7891 -0.1659 -0.5308
  760MPD2     H11228   4.232   2.184  12.017 -0.0950 -1.2320 -1.1169
  760MPD2    H111229   4.030   1.814  12.115 -0.6157  0.0103  1.2975
  760MPD2    H211230   3.889   2.170  12.282  1.4706  0.4870  1.3438
  760MPD2    H311231   3.858   1.934  12.244  0.1611 -0.8442  0.1163
  760MPD2     N11232   4.232   1.900  11.975  0.1201 -0.8476  0.0676
  760MPD2    H511233   4.211   1.801  11.967  1.2645 -0.9283 -1.8617
  760MPD2    N111234   4.089   2.339  12.170  0.5873 -0.2426 -0.6607
  760MPD2    H711235   4.166   2.382  12.119  1.4374 -0.3304  0.5615
  761MPD2     C11236   0.312   1.306  11.293 -0.5784  0.3466 -0.1766
  761MPD2    C111237   0.419   1.240  11.235 -0.2758  0.5267  0.7610
  761MPD2    C211238   0.495   1.310  11.143 -0.9725 -0.6034 -0.1875
  761MPD2    C311239   0.473   1.448  11.121  0.9876  0.2479 -0.5820
  761MPD2    C411240   0.375   1.513  11.186 -0.0908 -0.0206 -0.3236
  761MPD2    C511241   0.294   1.435  11.262 -1.0713  0.4890  0.0615
  761MPD2     H11242   0.585   1.268  11.100 -0.9235 -2.1713  1.4551
  761MPD2    H111243   0.363   1.621  11.176 -3.2404 -0.3537 -0.2012
  761MPD2    H211244   0.247   1.257  11.365  1.3982  0.9216  2.0220
  761MPD2    H311245   0.211   1.491  11.303 -2.0375 -0.2210 -0.9248
  761MPD2     N11246   0.558   1.524  11.042 -0.5022  0.9260  0.2509
  761MPD2    H511247   0.552   1.626  11.038  1.5741  0.9566 -1.9470
  761MPD2    N111248   0.481   1.128  11.291  0.0312  0.2885  0.3875
  761MPD2    H711249   0.568   1.100  11.246  0.4661  0.9295  0.8356
  762MPD2     C11250   1.194   1.301  11.252 -0.3704 -0.4568  0.1770
  762MPD2    C111251   1.077   1.232  11.210 -0.0062  0.1355  0.0183
  762MPD2    C211252   1.065   1.221  11.072  0.0736  0.8759  0.3628
  762MPD2    C311253   1.162   1.278  10.989  0.4011 -0.0302 -0.4045
  762MPD2    C411254   1.266   1.353  11.031 -0.0280  0.3329  0.1699
  762MPD2    C511255   1.277   1.367  11.161 -0.0539 -0.5251 -0.4904
  762MPD2     H11256   0.982   1.167  11.028  0.9860  2.1768 -2.9551
  762MPD2    H111257   1.345   1.396  10.970 -1.4268 -0.4885 -2.2471
  762MPD2    H211258   1.211   1.326  11.356  1.7943 -0.6503 -0.1447
  762MPD2    H311259   1.350   1.441  11.192  0.2542 -1.0670  0.0897
  762MPD2     N11260   1.163   1.225  10.854  0.2082 -0.4801 -0.6055
  762MPD2    H511261   1.103   1.146  10.835 -2.6511  1.0452  2.0887
  762MPD2    N111262   1.000   1.167  11.303  0.8187 -0.1391  0.6945
  762MPD2    H711263   1.040   1.160  11.396 -0.6198  2.0489  1.4844
  763MPD2     C11264   2.786   1.729  16.054 -0.0709  0.0270 -0.0341
  763MPD2    C111265   2.667   1.793  16.029 -0.2070 -0.3387  0.3767
  763MPD2    C211266   2.650   1.921  16.070 -0.4233 -0.1956 -0.0421
  763MPD2    C311267   2.752   1.985  16.138  0.5970 -0.9169  1.4223
  763MPD2    C411268   2.876   1.921  16.161  0.4434  0.2505 -0.2066
  763MPD2    C511269   2.896   1.794  16.103 -0.4891  0.0272  0.2008
  763MPD2     H11270   2.548   1.956  16.058 -0.2661  0.4322  0.4000
  763MPD2    H111271   2.956   1.980  16.205 -0.3061  1.1934 -0.1125
  763MPD2    H211272   2.796   1.625  16.027 -1.2730 -0.6369  2.0241
  763MPD2    H311273   2.990   1.746  16.127 -0.8543  0.6352  2.8585
  763MPD2     N11274   2.740   2.120  16.192  0.0648 -0.4279  1.2046
  763MPD2    H511275   2.815   2.147  16.254  1.3708 -0.7802 -0.2272
  763MPD2    N111276   2.555   1.737  15.958 -0.1519 -0.3193  0.4435
  763MPD2    H711277   2.476   1.801  15.954 -1.2639 -1.7516 -0.8683
  764MPD2     C11278   0.587   2.543  17.170  0.2597 -0.5858  0.1352
  764MPD2    C111279   0.533   2.670  17.190 -0.1580 -0.0080  0.0281
  764MPD2    C211280   0.589   2.748  17.293  0.1127 -0.4035  0.5049
  764MPD2    C311281   0.683   2.700  17.382  0.0913 -0.0764 -0.2612
  764MPD2    C411282   0.725   2.569  17.363 -0.2251 -0.1841  0.3582
  764MPD2    C511283   0.681   2.496  17.256  0.0640 -0.0808 -0.1454
  764MPD2     H11284   0.553   2.849  17.306 -1.6546 -0.8269 -1.0587
  764MPD2    H111285   0.810   2.528  17.416  0.1588 -1.6371 -1.3811
  764MPD2    H211286   0.565   2.484  17.082  1.3450 -1.0689  0.1819
  764MPD2    H311287   0.721   2.396  17.239  1.4282  0.2544  1.1139
  764MPD2     N11288   0.718   2.786  17.490  0.4699  0.1263  0.3825
  764MPD2    H511289   0.688   2.882  17.477 -0.9106  0.0718  3.2015
  764MPD2    N111290   0.418   2.726  17.128  0.2928  0.1716 -0.1744
  764MPD2    H711291   0.393   2.823  17.148  0.6766  0.6994 -2.1582
  765MPD2     C11292   0.225   1.092  15.200  1.1278  0.0383  0.2335
  765MPD2    C111293   0.282   1.137  15.312 -0.9467  0.6614 -0.2951
  765MPD2    C211294   0.368   1.065  15.393 -0.7994 -0.1889 -0.1221
  765MPD2    C311295   0.391   0.926  15.359 -0.2257  0.1168  0.5526
  765MPD2    C411296   0.329   0.873  15.248 -0.2541  0.2569 -0.1700
  765MPD2    C511297   0.254   0.957  15.168  0.3068 -0.0979  0.2309
  765MPD2     H11298   0.415   1.104  15.482  3.5346 -0.2193 -2.4152
  765MPD2    H111299   0.346   0.770  15.218 -2.1986  0.4138 -1.8049
  765MPD2    H211300   0.143   1.152  15.162  1.7032  0.3515 -0.5006
  765MPD2    H311301   0.193   0.908  15.093  2.8356 -2.2561 -0.4163
  765MPD2     N11302   0.473   0.854  15.454 -0.3530  0.7697 -0.4815
  765MPD2    H511303   0.513   0.906  15.533  0.1636 -0.1070 -0.1685
  765MPD2    N111304   0.250   1.273  15.351 -0.5648  0.5566 -0.1768
  765MPD2    H711305   0.178   1.320  15.298 -0.3446  1.1034  0.0118
  766MPD2     C11306   4.423   1.486  15.155  0.9382 -0.1826 -0.4892
  766MPD2    C111307   4.549   1.439  15.161 -0.4390 -0.1563  0.9307
  766MPD2    C211308   4.607   1.362  15.059 -0.0066  0.3910  0.3705
  766MPD2    C311309   4.542   1.345  14.940  0.1637  0.6590  0.0359
  766MPD2    C411310   4.415   1.401  14.935  0.8243  0.4965 -0.2821
  766MPD2    C511311   4.359   1.463  15.041  0.5282 -0.3364 -0.9013
  766MPD2     H11312   4.710   1.330  15.071 -0.7351 -2.3021 -0.6623
  766MPD2    H111313   4.375   1.403  14.834 -0.2819  0.2161  0.1602
  766MPD2    H211314   4.370   1.535  15.236 -1.3582  0.1151 -2.1902
  766MPD2    H311315   4.261   1.505  15.023  1.5372  1.0779 -3.0858
  766MPD2     N11316   4.604   1.301  14.817  0.5731  0.3214 -0.0426
  766MPD2    H511317   4.554   1.322  14.731 -3.9079  0.8961  2.7122
  766MPD2    N111318   4.624   1.453  15.280 -0.8705  0.0242  0.2991
  766MPD2    H711319   4.715   1.407  15.283 -1.4837 -1.0913  1.4036
  767MPD2     C11320   4.229   1.644  14.763 -0.0878 -0.5723 -1.1999
  767MPD2    C111321   4.354   1.626  14.705 -0.4093  0.0957 -0.5027
  767MPD2    C211322   4.366   1.547  14.595  0.5999 -0.3468  0.6123
  767MPD2    C311323   4.255   1.487  14.540  0.1474  0.7029  0.6219
  767MPD2    C411324   4.129   1.514  14.593 -0.2403 -0.5072 -0.3820
  767MPD2    C511325   4.119   1.586  14.704  0.3514  0.0953  1.4120
  767MPD2     H11326   4.462   1.534  14.546 -0.4604 -0.3324 -1.4423
  767MPD2    H111327   4.035   1.477  14.552 -1.5945  1.3389  1.0287
  767MPD2    H211328   4.221   1.709  14.849 -0.5835  0.6310 -2.1383
  767MPD2    H311329   4.023   1.605  14.751  0.4845 -2.1500  2.5910
  767MPD2     N11330   4.280   1.400  14.428 -1.0021 -0.4130  0.3478
  767MPD2    H511331   4.379   1.392  14.406 -1.4477 -4.4283 -0.2228
  767MPD2    N111332   4.465   1.671  14.784  0.2558  0.1899 -0.1222
  767MPD2    H711333   4.437   1.713  14.872 -0.1031 -0.9917  0.3357
  768MPD2     C11334   4.315   4.396  11.745  0.1530 -0.8321  0.0129
  768MPD2    C111335   4.436   4.370  11.694 -0.1832 -0.2211  0.1271
  768MPD2    C211336   4.544   4.359  11.779 -0.8026 -0.1623 -0.6358
  768MPD2    C311337   4.527   4.384  11.913 -0.3928 -0.0324  0.3413
  768MPD2    C411338   4.396   4.418  11.961 -0.0769 -0.7216  0.0621
  768MPD2    C511339   4.291   4.418  11.879  0.1884  0.3219  0.9462
  768MPD2     H11340   4.644   4.363  11.739 -1.8837  2.8721 -3.0565
  768MPD2    H111341   4.374   4.443  12.065 -1.9287 -1.2304 -0.2139
  768MPD2    H211342   4.233   4.410  11.676  0.9850  2.2222 -0.3808
  768MPD2    H311343   4.190   4.445  11.910 -0.5194 -1.5132  0.2714
  768MPD2     N11344   4.631   4.397  12.009  0.0925  0.7423  0.4302
  768MPD2    H511345   4.601   4.438  12.097 -1.5633 -1.6891  0.9889
  768MPD2    N111346   4.452   4.362  11.553  0.1567 -0.3934  0.1506
  768MPD2    H711347   4.548   4.343  11.525  0.1028 -1.1372  0.4738
  769MPD2     C11348   1.692   2.484  14.725  0.2040  0.7828  0.5742
  769MPD2    C111349   1.623   2.592  14.769 -0.5302 -0.3683 -0.4137
  769MPD2    C211350   1.648   2.641  14.896 -0.0112  0.0483  0.3002
  769MPD2    C311351   1.731   2.571  14.979  0.1743  0.6763  0.7827
  769MPD2    C411352   1.807   2.467  14.932  0.7562 -1.1873  0.1744
  769MPD2    C511353   1.786   2.425  14.807  1.1691 -0.3557 -0.4530
  769MPD2     H11354   1.594   2.726  14.937 -1.6624 -1.3694  1.0988
  769MPD2    H111355   1.870   2.401  14.991  1.2103 -0.4540  0.5092
  769MPD2    H211356   1.665   2.446  14.627 -0.4280  0.3587  0.9109
  769MPD2    H311357   1.836   2.337  14.768  0.2432 -0.3753 -1.5887
  769MPD2     N11358   1.746   2.601  15.115  0.1571 -0.2289 -0.3432
  769MPD2    H511359   1.678   2.664  15.156 -1.9098 -0.1968 -3.8318
  769MPD2    N111360   1.522   2.633  14.681  0.2153  0.1372 -0.7488
  769MPD2    H711361   1.498   2.569  14.605 -1.0551 -1.0315  0.6478
  770MPD2     C11362   1.450   1.898  14.692 -0.2193  0.1475 -0.5869
  770MPD2    C111363   1.325   1.897  14.640  0.0030 -0.1732 -0.1106
  770MPD2    C211364   1.264   2.020  14.618 -0.3020  0.7995  0.5989
  770MPD2    C311365   1.337   2.135  14.598 -0.4512 -1.3278 -0.5913
  770MPD2    C411366   1.470   2.131  14.639  0.0938  0.5858  0.4346
  770MPD2    C511367   1.518   2.018  14.702 -0.4473  0.6396  0.1555
  770MPD2     H11368   1.156   2.017  14.605 -0.3627  0.3589  1.1864
  770MPD2    H111369   1.538   2.214  14.650  0.5244  0.4812 -1.4046
  770MPD2    H211370   1.485   1.809  14.742 -2.8853 -1.0161 -0.8113
  770MPD2    H311371   1.622   2.014  14.733  0.1524 -0.1662 -1.9942
  770MPD2     N11372   1.271   2.253  14.568  0.0165 -0.5372  0.0272
  770MPD2    H511373   1.170   2.258  14.563  0.0046  1.0145  2.0594
  770MPD2    N111374   1.255   1.777  14.649 -0.1449 -0.2634  0.4895
  770MPD2    H711375   1.311   1.701  14.686  0.1360  0.6014  1.8173
  771MPD2     C11376   2.298   0.312  13.605 -0.6515 -0.0521 -0.2563
  771MPD2    C111377   2.228   0.425  13.595 -0.3099 -0.0537 -0.1786
  771MPD2    C211378   2.111   0.422  13.526  0.1268  0.1245  0.4548
  771MPD2    C311379   2.062   0.309  13.464 -0.0967 -0.2697  0.4785
  771MPD2    C411380   2.134   0.193  13.475 -0.6095  0.9253 -0.2204
  771MPD2    C511381   2.244   0.197  13.551  0.1429  0.1672  0.2213
  771MPD2     H11382   2.056   0.515  13.515 -1.6397 -0.8056  1.3438
  771MPD2    H111383   2.104   0.097  13.433  0.6805  1.6730 -2.8695
  771MPD2    H211384   2.379   0.298  13.676 -1.0510 -0.8704  0.0320
  771MPD2    H311385   2.275   0.099  13.584 -0.8185 -0.0084  0.6030
  771MPD2     N11386   1.945   0.329  13.386  0.3810 -0.1237  0.0425
  771MPD2    H511387   1.906   0.419  13.360  0.4118 -0.2734 -0.5271
  771MPD2    N111388   2.266   0.542  13.666  0.1161  0.6652 -0.1326
  771MPD2    H711389   2.200   0.618  13.657 -4.1652 -3.3000 -2.0194
  772MPD2     C11390   2.061   0.805  14.266  0.1344 -0.1991 -0.3473
  772MPD2    C111391   2.023   0.762  14.140  0.1579  0.0308 -0.2746
  772MPD2    C211392   1.911   0.682  14.128  0.2996 -0.0201 -0.4090
  772MPD2    C311393   1.835   0.656  14.244  0.0380 -0.6682  0.0479
  772MPD2    C411394   1.892   0.692  14.363 -0.5568 -0.3885  0.1978
  772MPD2    C511395   1.999   0.771  14.379 -0.3366  0.1882 -0.2762
  772MPD2     H11396   1.865   0.649  14.036  0.2582  0.0190 -0.4021
  772MPD2    H111397   1.840   0.673  14.456 -0.1755  1.1499  0.7063
  772MPD2    H211398   2.139   0.881  14.277  0.1529 -0.2409 -0.1836
  772MPD2    H311399   2.021   0.802  14.481 -0.7312  1.2782 -0.5179
  772MPD2     N11400   1.708   0.603  14.253 -0.5702  0.5357 -0.1891
  772MPD2    H511401   1.667   0.591  14.346  1.8307 -2.1125  0.5430
  772MPD2    N111402   2.095   0.794  14.017 -0.1411  0.4382 -0.3225
  772MPD2    H711403   2.070   0.753  13.928 -1.1427 -0.5805  0.4233
  773MPD2     C11404   0.821   2.144  17.395 -0.2675 -0.0492 -0.3074
  773MPD2    C111405   0.774   2.016  17.375 -0.6936 -0.3118 -0.6921
  773MPD2    C211406   0.829   1.912  17.459  0.2508  0.7058 -0.4986
  773MPD2    C311407   0.922   1.944  17.557  0.5257  0.3302  0.8965
  773MPD2    C411408   0.964   2.072  17.578 -0.7832  1.1876  0.5858
  773MPD2    C511409   0.911   2.168  17.502 -0.5462 -0.1793  0.1437
  773MPD2     H11410   0.790   1.811  17.454  0.3642  0.8132 -3.2836
  773MPD2    H111411   1.032   2.102  17.657  1.3314 -1.0997 -0.3804
  773MPD2    H211412   0.798   2.230  17.333  0.8361  0.9455  0.6631
  773MPD2    H311413   0.941   2.269  17.525  0.3065 -0.0547 -1.5067
  773MPD2     N11414   0.966   1.833  17.634  0.5641  0.3265 -0.0275
  773MPD2    H511415   0.922   1.742  17.625  1.1083  0.0965 -0.3640
  773MPD2    N111416   0.687   1.978  17.274 -0.0826  0.0522  0.0518
  773MPD2    H711417   0.663   1.879  17.268 -1.4195  0.3483  0.5226
  774MPD2     C11418   4.644   0.262  13.587  0.4622 -0.2157  0.1737
  774MPD2    C111419   0.045   0.315  13.629  0.3599 -0.6318 -0.3000
  774MPD2    C211420   0.086   0.436  13.575 -0.6710 -0.3298  0.1510
  774MPD2    C311421   0.002   0.506  13.490  0.0121  0.4004 -0.3638
  774MPD2    C411422   4.597   0.460  13.452  0.6694  0.0926 -0.0277
  774MPD2    C511423   4.560   0.336  13.500  0.5287 -0.4934 -0.3952
  774MPD2     H11424   0.174   0.485  13.614 -0.7111  0.9662 -1.3843
  774MPD2    H111425   4.537   0.522  13.386 -0.5395 -1.9556 -0.8505
  774MPD2    H211426   4.606   0.168  13.626 -1.6153  0.5618  0.0283
  774MPD2    H311427   4.461   0.301  13.471 -0.1070 -0.8272  2.1451
  774MPD2     N11428   0.053   0.635  13.449  0.1638 -0.3402 -0.1893
  774MPD2    H511429   0.148   0.656  13.477 -1.6325  2.8135  3.6741
  774MPD2    N111430   0.115   0.252  13.733 -0.3750  0.0546 -0.1375
  774MPD2    H711431   0.084   0.163  13.770 -0.1575  0.6133  1.3814
  775MPD2     C11432   1.855   2.325  15.757  0.0537  0.1205 -0.1169
  775MPD2    C111433   1.827   2.455  15.793 -0.0532  0.7152 -0.2007
  775MPD2    C211434   1.915   2.558  15.766  1.1920  0.0464 -0.0680
  775MPD2    C311435   2.034   2.523  15.705 -0.3810 -0.6280 -0.3230
  775MPD2    C411436   2.060   2.397  15.657  0.5672  0.7601  0.1244
  775MPD2    C511437   1.971   2.301  15.686 -0.5010 -0.1702 -0.6868
  775MPD2     H11438   1.895   2.664  15.782  1.2860  0.0227  0.2058
  775MPD2    H111439   2.150   2.376  15.600 -0.3743  0.1881 -1.1553
  775MPD2    H211440   1.802   2.239  15.797  0.0019 -0.5722 -1.6680
  775MPD2    H311441   1.999   2.200  15.658 -1.4190 -1.0865  1.6945
  775MPD2     N11442   2.135   2.622  15.678 -0.4586  0.5829 -0.1346
  775MPD2    H511443   2.199   2.590  15.606  0.9623  0.5098  1.1588
  775MPD2    N111444   1.710   2.467  15.859  0.5781  0.3225  0.2061
  775MPD2    H711445   1.654   2.387  15.888  1.3639 -0.3418 -0.1000
  776MPD2     C11446   1.442   2.755  11.956 -0.2489 -0.2918  0.0188
  776MPD2    C111447   1.415   2.722  11.833 -0.2481 -0.5949  0.2371
  776MPD2    C211448   1.413   2.820  11.732  0.0468 -0.0703  0.2509
  776MPD2    C311449   1.452   2.947  11.757 -0.2823  0.3698  0.3401
  776MPD2    C411450   1.482   2.978  11.885  0.5027 -0.5703  0.6042
  776MPD2    C511451   1.478   2.885  11.985  0.2521 -0.8337 -0.4014
  776MPD2     H11452   1.389   2.792  11.630 -1.8553 -1.3180  1.0441
  776MPD2    H111453   1.508   3.078  11.918 -2.9460 -0.1113  1.9969
  776MPD2    H211454   1.434   2.683  12.038  1.1908 -0.0792  0.3549
  776MPD2    H311455   1.505   2.920  12.084  1.8838 -1.2065 -0.7131
  776MPD2     N11456   1.456   3.051  11.661 -0.5805 -0.5882 -0.1369
  776MPD2    H511457   1.473   3.144  11.697 -0.6371 -0.8152  0.4878
  776MPD2    N111458   1.359   2.596  11.811 -0.2953 -0.4696 -0.8608
  776MPD2    H711459   1.355   2.530  11.888 -0.6850  0.6303  0.0601
  777MPD2     C11460   1.123   4.629   0.926 -0.5888  0.0730  0.0064
  777MPD2    C111461   1.007   4.686   0.950 -0.3527 -0.3104  0.0111
  777MPD2    C211462   0.906   4.674   0.848 -0.2156 -0.1102  0.2761
  777MPD2    C311463   0.935   4.592   0.737  0.2644 -0.3355 -0.2839
  777MPD2    C411464   1.054   4.534   0.717  0.2229 -0.1942 -0.0363
  777MPD2    C511465   1.149   4.553   0.815 -1.3372  0.5900 -0.5893
  777MPD2     H11466   0.810   0.001   0.860  1.0468  2.8605 -1.5583
  777MPD2    H111467   1.086   4.485   0.625  0.7860  0.0907  0.0041
  777MPD2    H211468   1.198   4.642   1.003  0.8236 -2.3212 -0.9688
  777MPD2    H311469   1.248   4.512   0.800 -1.7503 -0.8334  0.6418
  777MPD2     N11470   0.825   4.572   0.651  0.1430  0.2841 -0.2157
  777MPD2    H511471   0.732   4.605   0.675 -0.0992 -0.5331 -0.0157
  777MPD2    N111472   0.995   0.042   1.064 -0.0084 -0.8384  0.1536
  777MPD2    H711473   1.086   0.068   1.100 -0.9569  2.0103  0.4511
  778MPD2     C11474   2.213   0.326  15.301 -0.4538  0.9621  0.0773
  778MPD2    C111475   2.137   0.294  15.192  0.0221  0.0903  0.0706
  778MPD2    C211476   2.155   0.373  15.079 -1.1917  0.5153 -0.7588
  778MPD2    C311477   2.244   0.480  15.083  0.3572  0.8355 -0.4948
  778MPD2    C411478   2.323   0.505  15.197 -0.1024  0.4399  0.2908
  778MPD2    C511479   2.311   0.422  15.302 -0.7607 -0.1811  0.0739
  778MPD2     H11480   2.096   0.347  14.992 -0.1178 -1.2873 -0.9583
  778MPD2    H111481   2.398   0.584  15.207  0.6271 -0.3217  0.8060
  778MPD2    H211482   2.205   0.273  15.395  0.2204  0.0160 -0.4028
  778MPD2    H311483   2.365   0.432  15.396 -1.1307 -0.4763  0.3197
  778MPD2     N11484   2.250   0.556  14.964 -0.3445 -0.1151  0.0586
  778MPD2    H511485   2.194   0.532  14.884 -0.4366  1.2410 -0.2924
  778MPD2    N111486   2.038   0.187  15.184  1.3013  0.9401  0.1637
  778MPD2    H711487   1.998   0.177  15.092 -1.4169 -0.7458  1.5490
  779MPD2     C11488   2.344   4.043  14.117 -0.3101  0.3210  0.5016
  779MPD2    C111489   2.304   4.075  14.244  0.1455  0.2332  0.1331
  779MPD2    C211490   2.354   4.192  14.299 -0.4110  0.3117  0.2850
  779MPD2    C311491   2.429   4.283  14.220 -0.7982 -0.6812 -0.1351
  779MPD2    C411492   2.472   4.245  14.100 -0.5476  0.1938  0.0237
  779MPD2    C511493   2.430   4.130  14.049  0.5147  0.3109  0.9555
  779MPD2     H11494   2.347   4.215  14.404  0.3761 -2.1583  0.8664
  779MPD2    H111495   2.547   4.296  14.040  1.0810 -1.3799  0.7317
  779MPD2    H211496   2.311   3.951  14.069  0.3668  0.0612  0.5340
  779MPD2    H311497   2.462   4.095  13.951  1.4557 -0.2944  1.4774
  779MPD2     N11498   2.455   4.418  14.270 -0.1634  0.4591 -0.4961
  779MPD2    H511499   2.501   4.480  14.204 -1.5222  0.5011 -1.4216
  779MPD2    N111500   2.213   3.990  14.318 -0.5623  0.3690 -0.1628
  779MPD2    H711501   2.184   4.020  14.410  2.6570 -1.3892  1.4040
  780MPD2     C11502   0.193   4.255   0.174  0.6705  0.6483 -0.1125
  780MPD2    C111503   0.300   4.175   0.212 -0.2748  0.6588  0.2836
  780MPD2    C211504   0.419   4.176   0.136 -0.0099  0.3541 -0.5075
  780MPD2    C311505   0.429   4.263   0.029  0.1100  0.0592  0.6440
  780MPD2    C411506   0.325   4.348  17.680 -0.5271  0.4888  0.1508
  780MPD2    C511507   0.204   4.341   0.065 -0.1365 -0.2942  0.9032
  780MPD2     H11508   0.498   4.106   0.160  0.8353  1.0410 -1.2537
  780MPD2    H111509   0.329   4.422  17.602 -0.0903  0.7121  0.3847
  780MPD2    H211510   0.096   4.249   0.223 -0.1324 -0.6326 -1.8438
  780MPD2    H311511   0.126   4.412   0.039  0.9025  0.0296 -1.3261
  780MPD2     N11512   0.551   4.269  17.646 -0.3937 -0.1378 -0.4167
  780MPD2    H511513   0.614   4.190  17.658 -0.1363  0.1872  0.3264
  780MPD2    N111514   0.288   4.119   0.342  0.1534 -0.4352 -0.3735
  780MPD2    H711515   0.198   4.127   0.388  0.7190  2.0784  0.2773
  781MPD2     C11516   3.487   1.279  11.907 -0.3474 -0.2724  0.7083
  781MPD2    C111517   3.382   1.185  11.901 -0.3713 -0.2665  0.5503
  781MPD2    C211518   3.325   1.161  11.774 -0.1677  0.8828  1.1048
  781MPD2    C311519   3.381   1.206  11.655 -0.6653 -0.4477 -0.3115
  781MPD2    C411520   3.492   1.285  11.665  0.7850  0.0863 -0.1465
  781MPD2    C511521   3.538   1.328  11.789 -0.2863  0.7970  0.1201
  781MPD2     H11522   3.242   1.091  11.770 -0.3367  1.1885 -0.6019
  781MPD2    H111523   3.538   1.330  11.579  1.6831  0.0897  0.3431
  781MPD2    H211524   3.532   1.324  11.995 -1.8666  1.0285  0.8154
  781MPD2    H311525   3.624   1.393  11.791 -1.7713  2.8638 -3.2722
  781MPD2     N11526   3.320   1.187  11.531 -0.3690 -0.0433  0.1741
  781MPD2    H511527   3.384   1.222  11.460  0.7786  1.6980  2.0566
  781MPD2    N111528   3.309   1.136  12.016 -0.3368  0.2637  0.1636
  781MPD2    H711529   3.231   1.075  11.994  0.4361 -0.9628  0.8000
  782MPD2     C11530   1.080   2.256  10.323  0.7843 -0.3802 -0.5750
  782MPD2    C111531   1.208   2.218  10.306 -0.4833 -0.0426  0.2365
  782MPD2    C211532   1.308   2.262  10.390  0.2417 -0.4870  0.4426
  782MPD2    C311533   1.268   2.332  10.508  0.5458 -0.5348  0.5150
  782MPD2    C411534   1.134   2.366  10.522  0.1023 -0.8289  0.1812
  782MPD2    C511535   1.036   2.324  10.436  0.6391 -0.0184 -0.2683
  782MPD2     H11536   1.414   2.247  10.374  0.2249  0.9504 -0.9971
  782MPD2    H111537   1.104   2.433  10.602 -2.8614  0.4065 -1.9612
  782MPD2    H211538   0.997   2.229  10.260 -0.5521  1.4504  0.3880
  782MPD2    H311539   0.933   2.355  10.442  0.1171 -1.7072 -0.4609
  782MPD2     N11540   1.372   2.371  10.598 -0.1631 -0.2400  0.4651
  782MPD2    H511541   1.465   2.344  10.569  1.2983  3.6297  1.5180
  782MPD2    N111542   1.228   2.144  10.188  0.2829  0.8138 -0.0488
  782MPD2    H711543   1.149   2.136  10.125 -0.0473  1.3203  0.2983
  783MPD2     C11544   0.988   1.361  10.415 -0.5397  0.2474  0.4820
  783MPD2    C111545   1.028   1.475  10.475 -0.0267  0.4013  0.3508
  783MPD2    C211546   1.087   1.575  10.400 -0.4026 -0.0259 -0.0788
  783MPD2    C311547   1.116   1.557  10.260 -0.4781 -0.1862 -0.0567
  783MPD2    C411548   1.069   1.443  10.199 -0.4031  0.6299 -0.6860
  783MPD2    C511549   1.013   1.346  10.283 -0.0285  0.1411 -0.0843
  783MPD2     H11550   1.111   1.672  10.441  3.0229 -1.5898  1.6316
  783MPD2    H111551   1.069   1.420  10.093 -0.1387  3.3102 -1.2558
  783MPD2    H211552   0.936   1.279  10.464  0.3591 -0.2603  0.5836
  783MPD2    H311553   0.986   1.253  10.234 -0.1776 -0.6443  1.5072
  783MPD2     N11554   1.166   1.670  10.185  0.4451 -0.2851  0.3957
  783MPD2    H511555   1.188   1.748  10.246 -0.9057  2.3682 -2.5298
  783MPD2    N111556   0.994   1.489  10.609  0.1097  0.1755  0.6645
  783MPD2    H711557   0.943   1.415  10.656 -0.1619  0.6157  1.0545
  784MPD2     C11558   4.050   1.778   0.291  0.8447  0.3249 -0.1583
  784MPD2    C111559   4.062   1.851   0.406 -0.6433 -0.1095  0.8319
  784MPD2    C211560   3.958   1.932   0.451 -0.3824 -0.0991  0.7532
  784MPD2    C311561   3.851   1.952   0.366 -0.8425  0.2858 -0.3328
  784MPD2    C411562   3.844   1.895   0.242 -0.3065  0.5376 -0.5018
  784MPD2    C511563   3.935   1.795   0.213  0.6367 -0.4304 -0.8346
  784MPD2     H11564   3.960   1.977   0.550  0.2193 -0.2653  0.8204
  784MPD2    H111565   3.751   1.897   0.186  0.0403 -1.8643 -1.1847
  784MPD2    H211566   4.115   1.695   0.264 -1.6658 -1.7269  0.0856
  784MPD2    H311567   3.918   1.729   0.129  1.0961 -0.8310 -0.6104
  784MPD2     N11568   3.745   2.031   0.413  0.3535 -0.1430  0.8161
  784MPD2    H511569   3.768   2.075   0.502 -0.7986 -0.5209  1.2981
  784MPD2    N111570   4.177   1.828   0.489  0.2600  0.5182  0.3773
  784MPD2    H711571   4.157   1.849   0.586  1.6717  1.3809  0.4845
  785MPD2     C11572   2.916   0.290   9.751 -0.0903 -0.0273 -0.1561
  785MPD2    C111573   2.902   0.293   9.888 -0.7378 -0.3438 -0.5358
  785MPD2    C211574   2.851   0.407   9.949  0.3871 -0.3828  0.1501
  785MPD2    C311575   2.808   0.516   9.875 -0.3474 -0.8171  0.0608
  785MPD2    C411576   2.825   0.508   9.732  0.0408 -0.5091 -0.1312
  785MPD2    C511577   2.878   0.394   9.673 -0.1690 -0.0252  0.0412
  785MPD2     H11578   2.851   0.418  10.057  0.9668 -2.1851  0.3367
  785MPD2    H111579   2.791   0.586   9.665  1.0757 -0.3538 -0.4683
  785MPD2    H211580   2.961   0.202   9.707 -0.2873  0.3324 -1.0768
  785MPD2    H311581   2.891   0.386   9.565 -0.8528 -0.1795 -0.0326
  785MPD2     N11582   2.766   0.631   9.955 -0.1006 -0.0575 -0.8017
  785MPD2    H511583   2.766   0.623  10.056  1.4090  1.1573 -0.7066
  785MPD2    N111584   2.936   0.180   9.955 -0.4157 -0.2550 -0.3255
  785MPD2    H711585   2.968   0.098   9.904 -0.6547 -1.3103  1.2040
  786MPD2     C11586   2.209   3.166  15.146 -0.2801 -0.0032 -0.3105
  786MPD2    C111587   2.324   3.154  15.081 -0.1669  0.3827  0.0832
  786MPD2    C211588   2.439   3.191  15.145  0.1617  0.3417  0.6517
  786MPD2    C311589   2.439   3.244  15.270 -0.8145  0.3527  0.0336
  786MPD2    C411590   2.323   3.238  15.343 -0.3316 -0.3763 -0.8407
  786MPD2    C511591   2.206   3.202  15.276 -0.1568 -0.6592 -0.4950
  786MPD2     H11592   2.528   3.210  15.086 -0.5179  1.3874 -0.0560
  786MPD2    H111593   2.308   3.252  15.449 -0.6319 -0.5773 -0.8552
  786MPD2    H211594   2.118   3.123  15.104 -0.1390  0.1826 -0.8129
  786MPD2    H311595   2.111   3.187  15.327 -0.9533  0.2035 -1.7146
  786MPD2     N11596   2.566   3.291  15.317  0.0156 -0.4127  0.2141
  786MPD2    H511597   2.642   3.285  15.250  0.9203 -0.0518  1.2171
  786MPD2    N111598   2.333   3.108  14.942  0.1929 -0.0842 -0.2928
  786MPD2    H711599   2.428   3.097  14.908 -0.8483 -1.0216 -2.8800
  787MPD2     C11600   2.854   2.861  14.848  0.1121  0.4775 -0.1387
  787MPD2    C111601   2.777   2.810  14.741 -1.2602  0.6682 -0.1738
  787MPD2    C211602   2.840   2.709  14.661 -0.8184 -0.8144 -0.2106
  787MPD2    C311603   2.957   2.642  14.708  0.6330  0.3146  0.7054
  787MPD2    C411604   3.028   2.702  14.816  0.0449  0.4552  0.2123
  787MPD2    C511605   2.980   2.814  14.877 -0.2432 -0.3443 -0.0766
  787MPD2     H11606   2.800   2.673  14.568 -1.7584 -1.0500  0.2831
  787MPD2    H111607   3.120   2.657  14.851 -0.7853 -0.6106  1.0341
  787MPD2    H211608   2.812   2.933  14.917  0.5993 -0.8116  1.4831
  787MPD2    H311609   3.033   2.865  14.956 -1.8952 -0.3279  1.0148
  787MPD2     N11610   3.011   2.533  14.634  0.1053  0.1006  1.0767
  787MPD2    H511611   2.973   2.515  14.542 -1.5660  3.1622  1.1814
  787MPD2    N111612   2.645   2.862  14.714 -0.1860  0.2883  0.5593
  787MPD2    H711613   2.616   2.937  14.776  0.8957  0.3548  0.9874
  788MPD2     C11614   4.260   1.189   0.856  0.0388  0.5198  0.0905
  788MPD2    C111615   4.267   1.094   0.761  0.1632  0.0421  0.0670
  788MPD2    C211616   4.245   1.119   0.626 -0.1986 -0.0910 -0.1911
  788MPD2    C311617   4.212   1.243   0.596  0.0022  0.4870  0.3352
  788MPD2    C411618   4.207   1.349   0.691  0.3240  0.5852  0.3697
  788MPD2    C511619   4.228   1.312   0.820  0.5166  0.0365  0.8754
  788MPD2     H11620   4.241   1.044   0.548 -0.1201  0.9759 -1.2139
  788MPD2    H111621   4.179   1.451   0.668  0.7958  0.5962 -0.1482
  788MPD2    H211622   4.277   1.179   0.962 -0.0132 -0.4169  0.0093
  788MPD2    H311623   4.229   1.390   0.895  0.0937 -0.0692  0.9915
  788MPD2     N11624   4.176   1.269   0.460  0.1370  0.6187 -0.3877
  788MPD2    H511625   4.184   1.187   0.401  2.5094  1.1839 -0.8663
  788MPD2    N111626   4.275   0.960   0.794  1.1819  0.1370  0.3052
  788MPD2    H711627   4.258   0.893   0.720  1.2041  1.4725 -0.9228
  789MPD2     C11628   0.247   1.222  16.259  0.2305  0.1975 -0.0973
  789MPD2    C111629   0.168   1.302  16.183  0.2571 -0.3227 -0.1534
  789MPD2    C211630   0.083   1.390  16.244  0.5827 -0.2916  0.0138
  789MPD2    C311631   0.076   1.386  16.384  0.1117 -0.3428 -0.0668
  789MPD2    C411632   0.156   1.298  16.456  0.3794  0.7161 -0.5705
  789MPD2    C511633   0.247   1.226  16.390 -0.1905 -0.0593  0.4346
  789MPD2     H11634   0.029   1.454  16.174 -0.7903 -0.6118  0.7703
  789MPD2    H111635   0.150   1.284  16.563 -1.8271  2.4059 -0.4692
  789MPD2    H211636   0.322   1.151  16.225  0.6083 -0.1931  1.5221
  789MPD2    H311637   0.302   1.150  16.444  0.0944 -1.5729 -2.0158
  789MPD2     N11638   4.701   1.468  16.456  0.0267  0.4818  0.1918
  789MPD2    H511639   4.693   1.454  16.556 -4.9494  1.5177 -0.1054
  789MPD2    N111640   0.167   1.289  16.042  0.3234  0.1820  0.2832
  789MPD2    H711641   0.097   1.347  15.996 -1.4290 -0.4146  2.1901
  790MPD2     C11642   0.742   3.272  13.624 -0.0207 -0.9145  0.4786
  790MPD2    C111643   0.820   3.162  13.598  0.2374 -0.7868  0.4518
  790MPD2    C211644   0.798   3.080  13.491  0.2004 -0.6690 -0.5902
  790MPD2    C311645   0.701   3.107  13.399 -0.3199 -0.1014  0.4771
  790MPD2    C411646   0.614   3.215  13.425 -0.0129 -0.4688  0.0331
  790MPD2    C511647   0.633   3.292  13.538 -0.8340  0.0221 -1.1230
  790MPD2     H11648   0.863   2.994  13.480  2.2496  0.8281 -0.1615
  790MPD2    H111649   0.528   3.236  13.363 -0.9505  0.6491  1.6936
  790MPD2    H211650   0.752   3.341  13.707  1.5984 -1.9099  1.1112
  790MPD2    H311651   0.578   3.384  13.552 -2.0876 -1.0049  0.7816
  790MPD2     N11652   0.679   3.020  13.292 -0.0873 -0.8591 -0.3471
  790MPD2    H511653   0.763   2.965  13.277  0.5934  0.0583  0.1466
  790MPD2    N111654   0.904   3.131  13.704  0.2745 -0.2478  0.9800
  790MPD2    H711655   0.905   3.183  13.791  2.0289  0.3507  0.6125
  791MPD2     C11656   4.670   2.848  13.025  0.4041 -0.0611  0.7610
  791MPD2    C111657   0.041   2.805  12.928 -0.1445 -0.3908 -0.3125
  791MPD2    C211658   4.717   2.722  12.830 -0.4825 -0.2215 -0.1154
  791MPD2    C311659   4.581   2.702  12.813 -0.3331 -0.1446  0.7719
  791MPD2    C411660   4.491   2.754  12.905 -0.3248 -0.4717  0.2474
  791MPD2    C511661   4.538   2.832  13.007  0.2014  0.5774 -1.0643
  791MPD2     H11662   0.066   2.670  12.766  1.2176  2.5705 -0.5489
  791MPD2    H111663   4.383   2.743  12.906 -0.5832  1.9953  1.7830
  791MPD2    H211664   4.712   2.902  13.110 -0.6402  1.0161  0.5879
  791MPD2    H311665   4.484   2.875  13.091  1.1948 -1.7976  0.7970
  791MPD2     N11666   4.533   2.614  12.710  0.0959  0.4905 -0.3616
  791MPD2    H511667   4.602   2.574  12.648  2.4553  2.2832  1.0852
  791MPD2    N111668   0.177   2.814  12.966  0.3414 -0.0298  0.4754
  791MPD2    H711669   0.199   2.876  13.043  1.0171 -1.3939  1.3901
  792MPD2     C11670   1.124   2.625  11.341 -0.2616  0.3082  1.0591
  792MPD2    C111671   1.136   2.624  11.197 -0.0961  0.5197 -0.3667
  792MPD2    C211672   1.064   2.531  11.123 -0.2405 -0.3796 -0.0009
  792MPD2    C311673   0.988   2.434  11.181 -0.5403  0.0143  0.7806
  792MPD2    C411674   0.987   2.432  11.317  0.2232  0.4136 -0.0696
  792MPD2    C511675   1.046   2.527  11.395 -1.0042 -0.1444 -0.0309
  792MPD2     H11676   1.068   2.539  11.014 -1.1683 -1.1680 -0.0872
  792MPD2    H111677   0.934   2.352  11.367 -1.3669  0.9987 -0.7844
  792MPD2    H211678   1.175   2.697  11.404  0.0705  1.0102  0.0005
  792MPD2    H311679   1.034   2.523  11.503  0.6308 -0.3592  0.1477
  792MPD2     N11680   0.911   2.350  11.101 -0.1372  0.4818  0.9099
  792MPD2    H511681   0.911   2.363  11.000  0.3559 -1.3977  0.6639
  792MPD2    N111682   1.219   2.721  11.143 -0.2189 -0.2851  0.4307
  792MPD2    H711683   1.292   2.749  11.208 -2.0918 -0.9615  2.8551
  793MPD2     C11684   0.212   2.666  10.631 -0.8975 -0.2948 -0.1369
  793MPD2    C111685   0.344   2.653  10.599  0.3200 -0.1774  0.8322
  793MPD2    C211686   0.417   2.554  10.657 -0.8967 -0.0522  0.7947
  793MPD2    C311687   0.363   2.465  10.749 -0.1425  0.9708  0.3619
  793MPD2    C411688   0.230   2.482  10.785 -0.6275 -0.3212  0.4523
  793MPD2    C511689   0.152   2.578  10.721 -0.1878  0.3251 -0.5161
  793MPD2     H11690   0.522   2.547  10.630 -1.1802 -0.8488 -0.1044
  793MPD2    H111691   0.176   2.410  10.845  1.1025 -0.6532  1.6035
  793MPD2    H211692   0.151   2.741  10.580 -0.3019  0.5245  0.3532
  793MPD2    H311693   0.047   2.598  10.739 -0.3119 -1.6278  0.9645
  793MPD2     N11694   0.447   2.355  10.783 -0.5704  0.0590 -0.4767
  793MPD2    H511695   0.534   2.340  10.733 -1.0438  0.1381 -1.3265
  793MPD2    N111696   0.399   2.737  10.492 -0.1068  0.4588 -0.0317
  793MPD2    H711697   0.337   2.794  10.437 -1.1964 -0.3002  0.4104
  794MPD2     C11698   0.056   2.296  16.841 -0.2655  0.3136 -0.6240
  794MPD2    C111699   0.158   2.233  16.763  0.4046  0.8984  0.0305
  794MPD2    C211700   0.144   2.238  16.628 -0.0493  0.0153  0.4068
  794MPD2    C311701   0.042   2.307  16.565  0.3067  0.2021 -0.0190
  794MPD2    C411702   4.671   2.373  16.645  0.9173 -0.5213  0.0815
  794MPD2    C511703   4.676   2.371  16.782  0.1628 -0.1771  0.9962
  794MPD2     H11704   0.210   2.176  16.568 -1.3071 -0.7050 -0.2455
  794MPD2    H111705   4.592   2.428  16.596 -1.3998 -1.1032  3.1443
  794MPD2    H211706   0.061   2.285  16.949  0.2772 -2.6433 -0.9448
  794MPD2    H311707   4.593   2.415  16.836 -0.7051  1.1275 -1.4383
  794MPD2     N11708   0.006   2.304  16.429 -0.3028  0.0075 -0.0825
  794MPD2    H511709   4.635   2.342  16.405  0.9724  3.3781  0.3598
  794MPD2    N111710   0.264   2.178  16.837  0.1225 -0.0728 -0.4833
  794MPD2    H711711   0.259   2.177  16.938 -0.5340  0.3510 -0.5104
  795MPD2     C11712   2.957   4.320  13.452  0.2433  0.2258 -0.6508
  795MPD2    C111713   2.965   4.187  13.415 -0.1896  0.1931  0.1090
  795MPD2    C211714   3.071   4.113  13.469  0.0022 -0.2699  0.4960
  795MPD2    C311715   3.178   4.178  13.536  0.6099  0.4397 -0.3643
  795MPD2    C411716   3.160   4.308  13.570 -0.5892 -0.0717 -0.7609
  795MPD2    C511717   3.057   4.382  13.519 -0.7783  0.1983  0.1562
  795MPD2     H11718   3.075   4.006  13.456 -0.5815 -0.3586  1.1043
  795MPD2    H111719   3.230   4.365  13.630  0.8547 -2.6426 -0.0508
  795MPD2    H211720   2.878   4.385  13.415 -1.4410  0.3772  3.2566
  795MPD2    H311721   3.051   4.485  13.552  0.6574  1.1928 -2.7122
  795MPD2     N11722   3.288   4.107  13.588 -0.0615 -0.0296  0.0761
  795MPD2    H511723   3.285   4.008  13.567 -2.3625 -0.0525  0.4830
  795MPD2    N111724   2.862   4.122  13.343 -0.1266 -0.4801 -0.0991
  795MPD2    H711725   2.860   4.020  13.336  0.1669 -0.5019  0.1468
  796MPD2     C11726   2.779   1.439  15.622 -0.4361  0.3852  0.1021
  796MPD2    C111727   2.853   1.490  15.730 -0.3518  0.3701 -0.4764
  796MPD2    C211728   2.866   1.628  15.746 -0.4873  0.0739 -1.0674
  796MPD2    C311729   2.783   1.706  15.669 -0.0447  0.7204  0.9019
  796MPD2    C411730   2.721   1.661  15.560 -0.3934 -0.2865  0.4418
  796MPD2    C511731   2.720   1.531  15.537  0.2212  0.0978  0.4769
  796MPD2     H11732   2.926   1.674  15.823  0.9338 -3.5775 -0.0260
  796MPD2    H111733   2.678   1.724  15.483 -0.3921  0.6084  1.1743
  796MPD2    H211734   2.769   1.331  15.615  2.0173  0.2566 -1.5800
  796MPD2    H311735   2.671   1.486  15.451 -1.3003 -0.0506  1.4279
  796MPD2     N11736   2.781   1.849  15.695 -0.2851  0.1162  0.1060
  796MPD2    H511737   2.852   1.871  15.764 -0.7122  0.3926  0.4579
  796MPD2    N111738   2.910   1.392  15.820 -0.4137 -0.7246  0.0327
  796MPD2    H711739   2.870   1.299  15.809 -3.2077  0.6281 -1.1538
  797MPD2     C11740   3.676   0.476  17.163  0.0403 -0.1574 -0.0691
  797MPD2    C111741   3.774   0.561  17.193  0.5216  0.0098  0.6424
  797MPD2    C211742   3.752   0.689  17.153  0.7244 -0.5302 -0.2598
  797MPD2    C311743   3.648   0.729  17.069  0.0658  1.2567 -0.0650
  797MPD2    C411744   3.551   0.633  17.044 -0.8061  0.4247 -0.3709
  797MPD2    C511745   3.561   0.507  17.086  0.0815  0.1847 -0.2757
  797MPD2     H11746   3.815   0.765  17.197  0.3171  0.3632 -1.2091
  797MPD2    H111747   3.465   0.667  16.987  0.4142  2.2390 -1.1325
  797MPD2    H211748   3.681   0.378  17.208 -0.0481  1.5060  3.6177
  797MPD2    H311749   3.490   0.425  17.089  1.3656 -0.9965 -2.3156
  797MPD2     N11750   3.643   0.864  17.021 -0.2359 -0.0011  0.2870
  797MPD2    H511751   3.722   0.926  17.040 -0.5784  0.1177  1.3460
  797MPD2    N111752   3.895   0.542  17.267 -0.2819  0.4141  0.2491
  797MPD2    H711753   3.950   0.627  17.270 -2.3064  1.7709 -0.6609
  798MPD2     C11754   4.290   1.085  17.011 -0.8586 -0.0454 -0.2688
  798MPD2    C111755   4.165   1.060  17.061  0.5353 -0.9718 -0.3240
  798MPD2    C211756   4.157   0.962  17.158  0.5942  0.1956 -0.5597
  798MPD2    C311757   4.270   0.888  17.197 -0.2546  1.0396 -0.0481
  798MPD2    C411758   4.393   0.915  17.136 -0.2639  0.1517 -0.0818
  798MPD2    C511759   4.405   1.010  17.038 -0.5426 -0.2274 -0.1126
  798MPD2     H11760   4.062   0.929  17.197  0.0655  2.3628 -0.0541
  798MPD2    H111761   4.478   0.850  17.157  0.6980  1.4362 -0.0194
  798MPD2    H211762   4.298   1.170  16.944 -0.7331 -0.6890 -1.0679
  798MPD2    H311763   4.491   1.045  16.981  0.2996  0.0895  1.3591
  798MPD2     N11764   4.254   0.766  17.262 -0.6139  0.2498 -0.1526
  798MPD2    H511765   4.159   0.745  17.291 -0.2870 -0.1362  0.6446
  798MPD2    N111766   4.049   1.134  17.020  0.3877 -0.1439 -0.1396
  798MPD2    H711767   4.060   1.221  16.969 -2.5112  0.4992  0.3329
  799MPD2     C11768   2.679   2.291  14.867 -0.1785 -0.0446  0.5948
  799MPD2    C111769   2.612   2.201  14.784  0.3249 -0.8499 -1.0735
  799MPD2    C211770   2.546   2.256  14.678 -0.2884  0.1530 -0.2733
  799MPD2    C311771   2.552   2.391  14.650 -0.4909  1.0066  0.1441
  799MPD2    C411772   2.620   2.478  14.734 -0.3639 -0.7704 -0.5270
  799MPD2    C511773   2.691   2.425  14.840 -0.2295 -0.1457  0.1251
  799MPD2     H11774   2.492   2.191  14.610  0.8536  1.1523 -2.1381
  799MPD2    H111775   2.629   2.582  14.703 -1.5500  0.1041  2.0188
  799MPD2    H211776   2.723   2.252  14.958  1.8333 -0.5900 -0.5891
  799MPD2    H311777   2.744   2.493  14.905  0.8371 -1.8572  1.0548
  799MPD2     N11778   2.483   2.446  14.538  0.0538  0.1127 -0.6637
  799MPD2    H511779   2.488   2.547  14.528  0.1297  0.3570  1.7090
  799MPD2    N111780   2.598   2.060  14.809  0.1634  0.1221  0.6524
  799MPD2    H711781   2.526   2.009  14.758  1.2183 -1.0443  0.3349
  800MPD2     C11782   3.067   3.174  14.441 -0.5312  0.0510 -0.2214
  800MPD2    C111783   3.041   3.253  14.331  0.3791 -0.5925  0.2959
  800MPD2    C211784   3.028   3.185  14.202 -0.4564  0.3036  0.2486
  800MPD2    C311785   3.032   3.051  14.196 -0.5099  0.5426  0.3078
  800MPD2    C411786   3.067   2.976  14.308  0.2736  0.2131  0.2215
  800MPD2    C511787   3.074   3.037  14.434 -0.2815  0.5994 -0.1090
  800MPD2     H11788   3.011   3.247  14.114  1.4857 -0.7218 -0.8401
  800MPD2    H111789   3.084   2.870  14.293 -0.1538  0.0973  0.5609
  800MPD2    H211790   3.083   3.228  14.534 -3.0142  3.2910 -1.6625
  800MPD2    H311791   3.115   2.970  14.509  2.5249  1.2386 -1.0911
  800MPD2     N11792   3.025   2.989  14.069 -0.2945 -0.4077 -0.1103
  800MPD2    H511793   2.995   3.051  13.994  0.7238  0.9020  0.5819
  800MPD2    N111794   3.047   3.397  14.341  0.3888  0.2887 -0.0836
  800MPD2    H711795   3.076   3.440  14.428  2.0772 -0.2346 -0.3912
  801MPD2     C11796   2.787   4.106  14.356 -0.1422 -0.0933  0.6917
  801MPD2    C111797   2.765   3.975  14.317  0.0025 -0.3085  0.6065
  801MPD2    C211798   2.664   3.911  14.376 -0.2793 -0.5482 -0.2691
  801MPD2    C311799   2.580   3.965  14.463  0.3516 -0.3196  0.2993
  801MPD2    C411800   2.608   4.089  14.515  0.1695 -0.6930  0.2105
  801MPD2    C511801   2.709   4.161  14.454  0.3694  0.5276 -1.0672
  801MPD2     H11802   2.641   3.808  14.353  1.8122 -1.1383  0.2873
  801MPD2    H111803   2.547   4.139  14.589 -0.9363  0.7276 -1.6694
  801MPD2    H211804   2.862   4.170  14.311  1.0051 -0.9396  1.3968
  801MPD2    H311805   2.733   4.261  14.491  1.9770  0.7542 -2.7378
  801MPD2     N11806   2.477   3.894  14.535  0.1240 -0.0365  0.4552
  801MPD2    H511807   2.450   3.926  14.627 -2.1346  2.6700 -1.1508
  801MPD2    N111808   2.868   3.906  14.243  0.4412 -0.3997 -0.2696
  801MPD2    H711809   2.840   3.809  14.239  0.4273 -0.4489  0.9672
  802MPD2     C11810   1.897   3.674   0.325 -0.1521 -0.2393 -0.1563
  802MPD2    C111811   1.935   3.796   0.282  1.0765  0.5255  0.4011
  802MPD2    C211812   2.043   3.799   0.188 -0.6809  0.3750 -0.4197
  802MPD2    C311813   2.093   3.687   0.127  0.0643 -0.6811  0.7141
  802MPD2    C411814   2.043   3.571   0.168  0.2639 -0.3108  0.0593
  802MPD2    C511815   1.953   3.557   0.273 -0.5342  0.2471 -0.0083
  802MPD2     H11816   2.065   3.898   0.149  4.0697  0.4393  2.4005
  802MPD2    H111817   2.097   3.482   0.138  0.0912 -0.4387  0.1322
  802MPD2    H211818   1.832   3.660   0.410 -1.7359  3.0242 -0.8236
  802MPD2    H311819   1.915   3.469   0.324 -4.0827 -0.0769 -3.1763
  802MPD2     N11820   2.180   3.705   0.017  0.6948  0.1382 -0.0168
  802MPD2    H511821   2.192   3.802  17.678  3.4293 -0.4406 -0.8489
  802MPD2    N111822   1.886   3.918   0.322  0.2411 -0.1377 -0.3167
  802MPD2    H711823   1.937   4.001   0.296 -1.8085  0.2477 -3.1410
  803MPD2     C11824   3.809   2.402  11.801  0.4942 -0.3890  0.5936
  803MPD2    C111825   3.767   2.489  11.901  0.5843  0.1655 -0.2485
  803MPD2    C211826   3.700   2.439  12.013 -0.2378  0.5461  0.0173
  803MPD2    C311827   3.689   2.301  12.032  0.4352  0.7103 -0.3831
  803MPD2    C411828   3.745   2.215  11.931  0.0531  0.3444 -0.5266
  803MPD2    C511829   3.802   2.269  11.818 -0.1593  0.8566 -0.5584
  803MPD2     H11830   3.643   2.511  12.071 -1.6609 -0.6158  0.0673
  803MPD2    H111831   3.742   2.109  11.949 -0.6844  0.4014 -0.3242
  803MPD2    H211832   3.858   2.430  11.709  0.6348  0.7079  1.0021
  803MPD2    H311833   3.837   2.202  11.740 -1.3479  1.9879 -2.0644
  803MPD2     N11834   3.626   2.233  12.146 -0.3103 -0.0423 -0.2000
  803MPD2    H511835   3.633   2.133  12.131 -2.3167 -0.6858  3.1427
  803MPD2    N111836   3.788   2.626  11.897  0.5277 -0.0863  0.6911
  803MPD2    H711837   3.753   2.680  11.975 -1.1500  0.6066 -0.5350
  804MPD2     C11838   2.984   3.908  17.070 -0.2070  0.3649 -0.2421
  804MPD2    C111839   3.000   3.888  17.206  0.2125 -0.2935  0.1911
  804MPD2    C211840   3.029   3.999  17.274 -0.4900 -0.0028 -0.1451
  804MPD2    C311841   3.053   4.130  17.221 -0.5920 -0.0528 -0.2039
  804MPD2    C411842   3.022   4.148  17.089  0.2875 -0.2450  0.0809
  804MPD2    C511843   2.980   4.037  17.020  0.1991  0.0175  0.5142
  804MPD2     H11844   3.049   3.978  17.378 -1.9884  1.6365  0.4774
  804MPD2    H111845   3.009   4.247  17.047  2.9005  0.1634  0.2450
  804MPD2    H211846   2.953   3.833  16.998  0.8740 -0.4943  0.1813
  804MPD2    H311847   2.940   4.041  16.920 -1.1545 -0.3440  1.0349
  804MPD2     N11848   3.107   4.227  17.307 -0.5864 -0.7860  0.2981
  804MPD2    H511849   3.131   4.199  17.401  0.9362 -1.7891 -0.3820
  804MPD2    N111850   2.992   3.767  17.272  0.1888 -0.4001 -0.6470
  804MPD2    H711851   3.012   3.761  17.371  0.7884  1.9754 -0.6255
  805MPD2     C11852   2.583   2.516  15.464  0.0695  0.0352  0.7306
  805MPD2    C111853   2.667   2.426  15.407  0.7816 -0.9853 -0.0104
  805MPD2    C211854   2.800   2.440  15.452  0.5613 -0.0765  1.0255
  805MPD2    C311855   2.842   2.522  15.561 -0.8433 -0.2348 -0.2328
  805MPD2    C411856   2.743   2.592  15.618  0.1731 -0.6048 -0.1106
  805MPD2    C511857   2.615   2.597  15.568 -0.1457  0.5708  0.3136
  805MPD2     H11858   2.871   2.375  15.403 -0.3801  0.3918 -0.9822
  805MPD2    H111859   2.750   2.667  15.696  2.0222 -2.9940  2.0191
  805MPD2    H211860   2.485   2.525  15.419  1.0213 -0.6421 -1.4803
  805MPD2    H311861   2.553   2.678  15.604  0.2009 -0.0612  2.3314
  805MPD2     N11862   2.974   2.528  15.609 -0.2807  0.0145  0.0360
  805MPD2    H511863   3.047   2.474  15.564 -1.0916  0.5329 -1.8946
  805MPD2    N111864   2.637   2.331  15.304  0.2614 -0.2819 -0.0294
  805MPD2    H711865   2.715   2.281  15.263  1.4141  1.3152  0.2299
  806MPD2     C11866   2.955   1.641   0.043 -0.3137 -0.3306  0.0425
  806MPD2    C111867   2.920   1.737   0.135  0.6373 -0.6107 -0.1981
  806MPD2    C211868   2.979   1.861   0.130  0.2757 -0.0311  0.7773
  806MPD2    C311869   3.071   1.895   0.033 -0.0644 -0.5233  0.1368
  806MPD2    C411870   3.107   1.795  17.628 -0.9381  0.3004 -0.4479
  806MPD2    C511871   3.054   1.670  17.638 -0.2287 -0.0013 -0.5018
  806MPD2     H11872   2.956   1.937   0.204 -2.9643 -0.4702  0.2559
  806MPD2    H111873   3.182   1.821  17.555  0.4429 -0.8814  0.5553
  806MPD2    H211874   2.908   1.544   0.058 -1.3434  0.1991  0.2037
  806MPD2    H311875   3.078   1.593  17.565 -1.2479  1.0666 -1.9611
  806MPD2     N11876   3.132   2.017   0.042 -0.0991 -0.2967 -0.2262
  806MPD2    H511877   3.096   2.077   0.115  0.9281 -0.1246  0.1434
  806MPD2    N111878   2.819   1.704   0.224 -0.5556  0.3481  0.1725
  806MPD2    H711879   2.789   1.608   0.237  1.8506 -0.6133 -1.3190
  807MPD2     C11880   2.278   2.016   0.853  0.1869  0.1191 -0.1415
  807MPD2    C111881   2.354   1.905   0.891 -0.0548 -0.9658  0.2507
  807MPD2    C211882   2.361   1.871   1.024  0.4800  0.3355  0.1360
  807MPD2    C311883   2.306   1.947   1.123  0.4749 -0.2833 -0.2547
  807MPD2    C411884   2.234   2.060   1.085  0.2272 -0.2158 -0.4317
  807MPD2    C511885   2.218   2.088   0.953 -0.2197  1.0822  0.1492
  807MPD2     H11886   2.426   1.790   1.055 -0.3572 -1.2500 -2.2507
  807MPD2    H111887   2.186   2.125   1.156  1.6510 -0.8492  1.1137
  807MPD2    H211888   2.266   2.030   0.747 -0.1665 -0.3562 -0.1638
  807MPD2    H311889   2.151   2.169   0.927  1.6325  1.6337 -2.7346
  807MPD2     N11890   2.332   1.922   1.262 -0.0028 -0.5344  0.3164
  807MPD2    H511891   2.386   1.836   1.269  1.4230  0.2579 -0.9792
  807MPD2    N111892   2.426   1.828   0.796 -0.8311  0.2601  0.1418
  807MPD2    H711893   2.454   1.738   0.834 -1.5354  0.1717  0.4566
  808MPD2     C11894   3.687   2.447   9.707  0.2679  0.1936 -0.5403
  808MPD2    C111895   3.562   2.506   9.710  0.0938  0.4568  0.5463
  808MPD2    C211896   3.552   2.645   9.725 -0.1373 -0.7087  0.0932
  808MPD2    C311897   3.672   2.716   9.735 -0.2928 -0.5600  0.3611
  808MPD2    C411898   3.799   2.657   9.724  0.0149  0.6410  0.1620
  808MPD2    C511899   3.803   2.518   9.714 -0.2573  0.5897 -0.0546
  808MPD2     H11900   3.452   2.685   9.738  0.0392 -0.4008  0.5110
  808MPD2    H111901   3.896   2.706   9.729  0.7106 -0.9012  1.7491
  808MPD2    H211902   3.694   2.339   9.711  0.4161  0.3047  1.7895
  808MPD2    H311903   3.897   2.466   9.727  0.0836  0.6141 -2.4289
  808MPD2     N11904   3.671   2.857   9.765 -0.2547 -0.0922  0.4611
  808MPD2    H511905   3.758   2.910   9.765 -0.7124  0.6495  1.3370
  808MPD2    N111906   3.447   2.427   9.690 -0.3446 -0.1435 -0.2798
  808MPD2    H711907   3.360   2.478   9.700 -0.3376 -0.4213  1.1034
  809MPD2     C11908   4.280   3.585   9.658 -0.4596 -0.0051 -0.4327
  809MPD2    C111909   4.272   3.450   9.694  0.0267 -0.3506 -0.5152
  809MPD2    C211910   4.142   3.400   9.698 -0.3950 -0.0418 -0.0683
  809MPD2    C311911   4.025   3.464   9.667  0.9438 -0.5629 -0.6477
  809MPD2    C411912   4.038   3.601   9.636 -0.6254  0.3877  0.3116
  809MPD2    C511913   4.161   3.651   9.638 -0.0676 -0.3022  0.2589
  809MPD2     H11914   4.136   3.295   9.725 -2.3746  0.1067  0.0507
  809MPD2    H111915   3.946   3.658   9.626 -0.4223  0.9587  1.6210
  809MPD2    H211916   4.378   3.629   9.644  0.4139 -2.0832 -0.8515
  809MPD2    H311917   4.172   3.758   9.621 -0.8216  0.0583  1.9673
  809MPD2     N11918   3.897   3.409   9.665 -0.1005  0.3326  0.0131
  809MPD2    H511919   3.822   3.476   9.651  1.3101  1.8233 -0.4521
  809MPD2    N111920   4.386   3.361   9.711 -0.7989  1.2456  0.3652
  809MPD2    H711921   4.368   3.267   9.745 -1.4368  1.1797 -0.1624
  810MPD2     C11922   3.261   2.596  10.070 -0.5288 -0.0135  0.3031
  810MPD2    C111923   3.161   2.556  10.155  0.2619  0.0165 -0.8752
  810MPD2    C211924   3.186   2.584  10.286  0.0783  0.0765  0.4050
  810MPD2    C311925   3.302   2.647  10.327 -0.8339  0.1760  0.1178
  810MPD2    C411926   3.404   2.671  10.245  0.2785 -0.5362 -0.0677
  810MPD2    C511927   3.383   2.643  10.109 -0.3318 -0.2674 -0.0797
  810MPD2     H11928   3.106   2.559  10.355 -0.0524 -0.5961  0.0122
  810MPD2    H111929   3.500   2.703  10.284  0.5668 -3.8139  1.8548
  810MPD2    H211930   3.246   2.572   9.965 -3.3135  0.9059  0.4732
  810MPD2    H311931   3.468   2.650  10.043 -1.7823 -2.7116 -2.2282
  810MPD2     N11932   3.326   2.691  10.456 -0.3087  0.9732  0.4529
  810MPD2    H511933   3.403   2.756  10.468  0.5291  0.4768 -2.2332
  810MPD2    N111934   3.029   2.505  10.125 -0.1449 -0.2093  0.2796
  810MPD2    H711935   2.973   2.471  10.202 -0.6339  0.2139  0.1074
  811MPD2     C11936   2.374   2.782   9.643  0.1853  0.2740 -0.4548
  811MPD2    C111937   2.475   2.791   9.734 -0.6761 -0.7788  0.0754
  811MPD2    C211938   2.543   2.906   9.767  0.3352  0.4234  0.5295
  811MPD2    C311939   2.501   3.024   9.705 -0.1358  1.0391  0.0627
  811MPD2    C411940   2.381   3.028   9.630  0.8246 -0.2094  0.1041
  811MPD2    C511941   2.326   2.901   9.601  0.3352  0.3445 -0.6659
  811MPD2     H11942   2.638   2.917   9.819  0.3422  1.0874  0.3726
  811MPD2    H111943   2.328   3.113   9.591  2.9442  2.0959  2.2164
  811MPD2    H211944   2.336   2.687   9.607 -0.7138 -0.0339  1.3137
  811MPD2    H311945   2.241   2.909   9.534 -1.3079  0.0566  1.3856
  811MPD2     N11946   2.582   3.141   9.733  0.4535  0.1544 -0.3328
  811MPD2    H511947   2.662   3.125   9.793 -1.3161 -1.2947  1.6127
  811MPD2    N111948   2.518   2.668   9.793 -0.1151 -0.3970 -0.9930
  811MPD2    H711949   2.467   2.583   9.776 -0.3798 -0.8600  2.1426
  812MPD2     C11950   1.842   2.848  12.273  0.1532 -0.0876  0.1421
  812MPD2    C111951   1.757   2.915  12.355 -0.4544 -0.2033 -0.8792
  812MPD2    C211952   1.702   2.841  12.467 -0.2103  0.3777  0.0274
  812MPD2    C311953   1.742   2.713  12.501 -0.4938 -0.5212  0.5774
  812MPD2    C411954   1.832   2.650  12.418  0.1870  0.4288 -0.5257
  812MPD2    C511955   1.869   2.716  12.301  0.0849 -1.1258  0.3504
  812MPD2     H11956   1.618   2.884  12.520 -0.8299 -1.9571  0.9430
  812MPD2    H111957   1.881   2.556  12.441  0.0926  0.2981 -0.8514
  812MPD2    H211958   1.893   2.900  12.193  0.7132 -0.1259  0.4723
  812MPD2    H311959   1.929   2.661  12.230 -0.6216  0.2850 -1.3559
  812MPD2     N11960   1.694   2.651  12.620  0.2050 -0.1357 -0.2945
  812MPD2    H511961   1.624   2.698  12.677 -1.6228 -1.0676 -1.7748
  812MPD2    N111962   1.734   3.051  12.320  0.4650  0.2843 -0.0028
  812MPD2    H711963   1.775   3.086  12.234 -1.2114  1.2288 -0.4260
  813MPD2     C11964   0.377   0.340  12.894 -0.1248  0.1986  0.2383
  813MPD2    C111965   0.447   0.339  13.013 -0.3172 -0.6296 -0.7576
  813MPD2    C211966   0.388   0.290  13.129 -0.4677 -0.9486  0.4103
  813MPD2    C311967   0.264   0.226  13.121  0.0427  0.5430 -0.4526
  813MPD2    C411968   0.201   0.212  12.994 -0.5538  0.2949  0.2577
  813MPD2    C511969   0.256   0.282  12.887  0.4591 -0.1509 -0.0110
  813MPD2     H11970   0.434   0.304  13.226  1.6066  0.8928 -0.8619
  813MPD2    H111971   0.109   0.155  12.989 -0.1898 -0.3099  0.4178
  813MPD2    H211972   0.413   0.387  12.803 -1.9697 -0.7974 -1.0059
  813MPD2    H311973   0.213   0.279  12.788  1.1295  2.7731 -0.3868
  813MPD2     N11974   0.213   0.174  13.238 -0.1959 -0.5967 -0.6114
  813MPD2    H511975   0.265   0.202  13.320  0.0981  0.7342 -1.2608
  813MPD2    N111976   0.579   0.379  13.008 -0.1793 -0.1033 -0.6621
  813MPD2    H711977   0.606   0.426  12.922 -1.8129  1.1439 -0.4983
  814MPD2     C11978   1.772   1.389  12.457 -0.4533  0.1440  0.2250
  814MPD2    C111979   1.701   1.453  12.353 -0.0511  0.4185 -0.1194
  814MPD2    C211980   1.676   1.589  12.366 -0.5423 -0.1646 -0.1750
  814MPD2    C311981   1.727   1.661  12.470  0.2664 -0.8970 -0.0958
  814MPD2    C411982   1.805   1.600  12.565 -0.1165 -0.4294 -0.0710
  814MPD2    C511983   1.825   1.464  12.562  0.1278  0.0968  0.3285
  814MPD2     H11984   1.610   1.637  12.295  1.4700 -1.5587 -2.9852
  814MPD2    H111985   1.839   1.647  12.656 -1.2446  0.4408 -0.1031
  814MPD2    H211986   1.805   1.286  12.464 -1.0667  0.0174  1.3397
  814MPD2    H311987   1.883   1.412  12.638  1.4568 -0.5104 -1.1089
  814MPD2     N11988   1.731   1.802  12.473  0.2259  0.5141 -0.8665
  814MPD2    H511989   1.787   1.850  12.542  0.7342  1.3688 -1.8754
  814MPD2    N111990   1.646   1.387  12.241 -0.3451 -0.0331  0.2057
  814MPD2    H711991   1.585   1.441  12.180 -0.4902 -0.9031 -0.4112
  815MPD2     C11992   1.475   0.059  11.658  0.4284 -0.4254  0.5623
  815MPD2    C111993   1.529   4.664  11.713  0.1661 -0.9930 -0.3783
  815MPD2    C211994   1.485   4.634  11.841  0.1128 -0.2788 -0.1875
  815MPD2    C311995   1.402   4.719  11.913  1.1084 -0.3160  0.1015
  815MPD2    C411996   1.365   0.120  11.861  0.0697 -0.4737 -0.3777
  815MPD2    C511997   1.400   0.146  11.731  0.2215 -0.0459 -0.3330
  815MPD2     H11998   1.508   4.537  11.885 -0.7400  0.5931  2.1625
  815MPD2    H111999   1.308   0.198  11.911  1.4368 -0.2030  0.7755
  815MPD2    H212000   1.493   0.088  11.556 -1.8975 -0.7449  0.0547
  815MPD2    H312001   1.363   0.238  11.687 -0.2017 -0.3047 -0.5159
  815MPD2     N12002   1.347   4.684  12.034  0.3878 -0.2405  0.0807
  815MPD2    H512003   1.355   4.585  12.058 -0.9176 -0.3481  0.0440
  815MPD2    N112004   1.603   4.573  11.632 -0.1204 -0.8644  0.3063
  815MPD2    H712005   1.618   4.588  11.533 -0.5141 -0.1416  0.3542
  816MPD2     C12006   1.811   3.521  17.597  0.6691 -0.0723 -0.2834
  816MPD2    C112007   1.857   3.634  17.549  0.4580  0.1036  0.2481
  816MPD2    C212008   1.954   3.623  17.441 -0.6222 -0.5437  0.1327
  816MPD2    C312009   1.984   3.497  17.385  1.1467  0.3606 -0.5286
  816MPD2    C412010   1.909   3.385  17.419  0.3252  0.0255  0.1464
  816MPD2    C512011   1.821   3.406  17.528  0.7292 -0.0059  0.7329
  816MPD2     H12012   1.992   3.708  17.386  0.1205 -0.7465  0.3316
  816MPD2    H112013   1.912   3.284  17.382 -2.3298 -0.1059  0.2418
  816MPD2    H212014   1.732   3.516  17.671  0.8128 -0.7003 -0.1695
  816MPD2    H312015   1.766   3.316  17.553  0.1227  0.2560  0.3231
  816MPD2     N12016   2.080   3.484  17.277  0.3464 -0.8120  0.4437
  816MPD2    H512017   2.107   3.570  17.230 -3.0508 -0.5959 -1.1325
  816MPD2    N112018   1.814   3.756  17.604  0.0885 -0.0534 -0.2498
  816MPD2    H712019   1.737   3.754  17.670 -1.7765  0.5009 -2.4110
  817MPD2     C12020   1.134   0.102  10.091  0.6386 -0.2274  0.1379
  817MPD2    C112021   1.233   0.184  10.040 -0.2117  0.6577  0.0268
  817MPD2    C212022   1.193   0.304   9.982 -0.0612 -0.8683  0.2697
  817MPD2    C312023   1.053   0.330   9.962 -0.2869 -0.1664 -0.7695
  817MPD2    C412024   0.958   0.236  10.002 -0.6912 -0.1410 -0.2648
  817MPD2    C512025   0.998   0.122  10.079  0.2594 -0.0305 -0.0354
  817MPD2     H12026   1.265   0.366   9.930  1.0159 -1.0127  1.5981
  817MPD2    H112027   0.852   0.247   9.982 -1.5547 -2.1410  3.2122
  817MPD2    H212028   1.173   0.019  10.149 -1.0036 -1.5717 -0.6828
  817MPD2    H312029   0.928   0.059  10.133  0.0161  0.1104 -0.1878
  817MPD2     N12030   1.017   0.434   9.879 -0.5029 -0.4449 -0.1420
  817MPD2    H512031   1.095   0.488   9.841 -1.2514 -0.0663 -1.1533
  817MPD2    N112032   1.365   0.154  10.032  0.9884 -0.6580  0.4629
  817MPD2    H712033   1.436   0.225  10.018  2.2821 -1.3243  3.5986
  818MPD2     C12034   4.583   4.458   9.876  0.2748  0.1957 -0.1699
  818MPD2    C112035   4.520   4.449   9.997  0.3587 -0.1525 -0.1551
  818MPD2    C212036   4.467   4.330  10.025 -0.1865  0.2103  0.2434
  818MPD2    C312037   4.479   4.215   9.947 -0.9110 -0.0446 -1.0440
  818MPD2    C412038   4.545   4.230   9.832  0.0354  0.2485  0.0668
  818MPD2    C512039   4.593   4.354   9.789  0.8599  0.4176 -0.1598
  818MPD2     H12040   4.421   4.327  10.123  0.1562 -0.7098  0.3765
  818MPD2    H112041   4.546   4.153   9.756  0.6712  1.1275 -0.8212
  818MPD2    H212042   4.623   4.555   9.847  1.0918 -0.4800 -1.3089
  818MPD2    H312043   4.635   4.366   9.690 -0.7261 -0.5350 -0.9358
  818MPD2     N12044   4.424   4.092   9.986 -0.9556  0.0298 -0.2027
  818MPD2    H512045   4.434   4.022   9.914  0.1509  0.9465 -0.9348
  818MPD2    N112046   4.504   4.550  10.092  0.1222 -0.3119 -0.3289
  818MPD2    H712047   4.463   4.527  10.182 -3.2114  0.4690 -1.6215
  819MPD2     C12048   3.190   1.859  15.556  0.5134 -0.6371  0.1739
  819MPD2    C112049   3.263   1.745  15.558  0.5391 -0.4748  0.9413
  819MPD2    C212050   3.398   1.754  15.586  0.2536  0.2286 -0.0872
  819MPD2    C312051   3.456   1.877  15.618 -0.3621 -0.0556  0.0313
  819MPD2    C412052   3.380   1.986  15.618  0.7070  0.3434  0.6701
  819MPD2    C512053   3.251   1.977  15.577 -0.6619  0.5119 -0.4930
  819MPD2     H12054   3.459   1.665  15.572 -0.6943 -0.2861 -0.9028
  819MPD2    H112055   3.411   2.088  15.633  0.6306  0.3039  1.0852
  819MPD2    H212056   3.088   1.868  15.520  0.3390 -1.3909  0.4916
  819MPD2    H312057   3.195   2.070  15.565 -1.4997 -0.0736 -1.1192
  819MPD2     N12058   3.586   1.881  15.657  0.2786  0.1992 -0.0653
  819MPD2    H512059   3.634   1.792  15.648 -2.8719 -1.4614 -0.2952
  819MPD2    N112060   3.193   1.632  15.525 -0.2004  0.7314  0.3137
  819MPD2    H712061   3.097   1.650  15.501 -0.5967 -0.8647  0.6929
  820MPD2     C12062   2.378   1.487  15.136 -1.0737 -0.3318  0.3459
  820MPD2    C112063   2.473   1.586  15.165 -0.8212 -0.0130  0.2534
  820MPD2    C212064   2.605   1.544  15.176 -0.0127  0.1012  0.5774
  820MPD2    C312065   2.645   1.412  15.176  0.3942  0.9006 -0.3415
  820MPD2    C412066   2.544   1.321  15.152 -0.1229 -0.5579  0.1466
  820MPD2    C512067   2.412   1.358  15.132  0.0307 -0.3527 -0.5066
  820MPD2     H12068   2.685   1.609  15.209  0.1883 -0.8362  1.9508
  820MPD2    H112069   2.565   1.215  15.143  5.0253  0.3613  1.0163
  820MPD2    H212070   2.281   1.524  15.107 -1.9432 -1.1913  2.1623
  820MPD2    H312071   2.344   1.277  15.110  0.9315 -1.3141  0.2664
  820MPD2     N12072   2.770   1.363  15.201  0.8353 -0.1112 -0.5691
  820MPD2    H512073   2.778   1.262  15.211  0.6015 -0.0707  0.0227
  820MPD2    N112074   2.435   1.725  15.190  0.3544 -0.3091  0.6895
  820MPD2    H712075   2.335   1.741  15.190  0.6982  1.9719 -0.0354
  821MPD2     C12076   2.805   3.177  13.376 -0.1567 -0.0998  0.3240
  821MPD2    C112077   2.922   3.230  13.425 -0.4303 -0.3158 -0.3670
  821MPD2    C212078   2.989   3.329  13.353 -0.0820  0.6664 -0.7050
  821MPD2    C312079   2.941   3.379  13.232  0.3195 -0.1756  0.1385
  821MPD2    C412080   2.817   3.333  13.190  0.6411  0.2385 -0.3276
  821MPD2    C512081   2.754   3.234  13.260 -0.7272  0.0255 -0.2087
  821MPD2     H12082   3.075   3.380  13.395  1.6214 -2.6020 -0.2725
  821MPD2    H112083   2.776   3.365  13.095  0.1634  1.6339  0.3578
  821MPD2    H212084   2.750   3.094  13.420 -2.8604  1.3001 -0.3940
  821MPD2    H312085   2.652   3.210  13.231  0.1816 -1.3519 -2.2201
  821MPD2     N12086   3.004   3.492  13.161  0.2179 -0.0568 -0.2618
  821MPD2    H512087   2.951   3.545  13.092 -3.3543 -1.2875  1.5310
  821MPD2    N112088   2.992   3.179  13.536 -0.3019  0.0370 -0.6245
  821MPD2    H712089   3.085   3.218  13.542  0.0817 -0.8896 -0.4667
  822MPD2     C12090   3.892   3.415  15.826 -0.1863  0.8115  0.4055
  822MPD2    C112091   3.802   3.354  15.914  1.0072 -0.9020  0.3737
  822MPD2    C212092   3.703   3.426  15.978  0.1512 -0.5967 -0.0753
  822MPD2    C312093   3.702   3.562  15.959 -0.5047  0.4065  0.2099
  822MPD2    C412094   3.776   3.622  15.859  0.6788  0.3295  0.4922
  822MPD2    C512095   3.863   3.543  15.786  0.4221 -0.2694  0.6249
  822MPD2     H12096   3.637   3.381  16.050  0.9170  2.3181  2.4678
  822MPD2    H112097   3.764   3.727  15.836  2.1886 -0.0664 -2.0421
  822MPD2    H212098   3.976   3.357  15.788  0.4351  2.2624 -0.4580
  822MPD2    H312099   3.911   3.582  15.697 -1.5461  0.7028 -0.0201
  822MPD2     N12100   3.618   3.639  16.043  0.5591 -0.0400  0.6252
  822MPD2    H512101   3.577   3.596  16.126  1.4983  3.7287  3.0156
  822MPD2    N112102   3.826   3.224  15.967 -0.5908 -0.1190  0.5227
  822MPD2    H712103   3.779   3.201  16.054 -1.0885 -2.4282 -0.3480
  823MPD2     C12104   3.312   3.843  16.826  0.5538  0.5247 -0.0620
  823MPD2    C112105   3.342   3.754  16.727 -0.2304 -0.2649  0.1606
  823MPD2    C212106   3.374   3.629  16.773  0.6592  0.4724 -0.1372
  823MPD2    C312107   3.398   3.602  16.910  0.0706 -0.4198 -0.1389
  823MPD2    C412108   3.358   3.695  17.006  0.6227  0.2863  0.1866
  823MPD2    C512109   3.322   3.814  16.961  0.3164 -0.4817  0.7047
  823MPD2     H12110   3.398   3.556  16.696  2.5195  1.1811 -0.2220
  823MPD2    H112111   3.359   3.678  17.113  0.4808  1.0910  0.3137
  823MPD2    H212112   3.282   3.945  16.806  0.1152  0.7622  1.7376
  823MPD2    H312113   3.296   3.892  17.031 -0.2972 -0.5641  0.5649
  823MPD2     N12114   3.443   3.478  16.967  0.7045 -0.8069  0.3463
  823MPD2    H512115   3.456   3.472  17.068 -0.8112  0.2967  0.6138
  823MPD2    N112116   3.335   3.799  16.592  0.0723  0.2377  0.2675
  823MPD2    H712117   3.335   3.898  16.571  2.8912 -0.1374 -1.4950
  824MPD2     C12118   4.242   2.495  16.048  0.3599  0.5580 -0.6754
  824MPD2    C112119   4.230   2.609  15.964  0.2235 -0.1333  0.3240
  824MPD2    C212120   4.319   2.626  15.865 -0.2018  0.2745  0.0293
  824MPD2    C312121   4.421   2.534  15.844  0.0504 -0.1947 -0.0906
  824MPD2    C412122   4.431   2.422  15.927 -0.2675  0.1386 -0.1345
  824MPD2    C512123   4.334   2.395  16.023 -0.2042  0.0428  0.6004
  824MPD2     H12124   4.305   2.709  15.796 -2.9057 -0.9744 -0.9144
  824MPD2    H112125   4.508   2.349  15.908 -0.6204 -0.3085  0.1602
  824MPD2    H212126   4.166   2.481  16.124 -0.8109 -2.6963 -2.4523
  824MPD2    H312127   4.334   2.301  16.077 -0.1003 -1.0723 -1.3582
  824MPD2     N12128   4.521   2.567  15.747  0.1343  0.0288  0.4964
  824MPD2    H512129   4.493   2.639  15.681  1.6657 -0.4374 -0.6652
  824MPD2    N112130   4.146   2.715  15.991 -0.0391 -0.2300 -0.2221
  824MPD2    H712131   4.167   2.802  15.943 -0.3035 -0.1979 -0.2828
  825MPD2     C12132   0.234   3.107  15.281  0.1176  0.4757 -0.3981
  825MPD2    C112133   0.178   3.079  15.402 -0.1135  0.9933 -0.6563
  825MPD2    C212134   0.128   3.188  15.478 -0.4752  0.6552 -0.1187
  825MPD2    C312135   0.132   3.320  15.430 -0.0188  0.2147 -0.5302
  825MPD2    C412136   0.185   3.337  15.305  0.1739 -0.6375  0.1866
  825MPD2    C512137   0.228   3.233  15.230 -0.4470  0.2599  0.0960
  825MPD2     H12138   0.086   3.161  15.574 -0.3584  2.4253  0.4354
  825MPD2    H112139   0.190   3.438  15.267 -1.1515 -0.7756 -0.3554
  825MPD2    H212140   0.285   3.032  15.221 -0.7097 -0.4345  0.0261
  825MPD2    H312141   0.269   3.254  15.132  0.1390  2.7219  0.8743
  825MPD2     N12142   0.083   3.435  15.503  0.2398  0.2583  0.1407
  825MPD2    H512143   0.100   3.523  15.456  0.9804  0.5865  1.0290
  825MPD2    N112144   0.180   2.943  15.439 -0.7608  0.1240  0.1592
  825MPD2    H712145   0.229   2.877  15.380  0.1102  0.2906  0.6844
  826MPD2     C12146   0.737   2.254  13.768 -0.0038 -0.2443 -1.0988
  826MPD2    C112147   0.626   2.171  13.764  0.7241  0.3494 -0.4176
  826MPD2    C212148   0.501   2.231  13.735 -0.3346  0.3374  0.2630
  826MPD2    C312149   0.483   2.366  13.732 -0.4686 -0.9003 -0.0755
  826MPD2    C412150   0.596   2.449  13.743  0.4064  0.3328 -0.1220
  826MPD2    C512151   0.718   2.389  13.762  0.0121  0.6444 -0.2236
  826MPD2     H12152   0.418   2.163  13.724 -0.7378  0.4191  2.6633
  826MPD2    H112153   0.580   2.557  13.745 -2.1213 -0.1234  4.2319
  826MPD2    H212154   0.838   2.218  13.783  0.2073  1.4016  1.4303
  826MPD2    H312155   0.808   2.449  13.763  0.1536  0.4272  0.2110
  826MPD2     N12156   0.360   2.425  13.697 -0.0631  0.2521 -0.5059
  826MPD2    H512157   0.361   2.527  13.695  0.0997  0.3003  1.9874
  826MPD2    N112158   0.648   2.029  13.778 -0.1876  0.3010  0.8804
  826MPD2    H712159   0.744   1.999  13.793 -0.0888  0.5915  0.8193
  827MPD2     C12160   0.585   4.162   9.959  0.2726 -0.2114  0.0044
  827MPD2    C112161   0.579   4.069  10.058  0.3105 -0.0118  0.0957
  827MPD2    C212162   0.496   3.961  10.034 -0.7441  0.6222  0.3085
  827MPD2    C312163   0.424   3.944   9.918  0.4348 -0.2774  0.5706
  827MPD2    C412164   0.429   4.041   9.817  0.3376 -0.3243  0.2909
  827MPD2    C512165   0.509   4.150   9.840  0.1742 -0.0473  0.4493
  827MPD2     H12166   0.487   3.886  10.112 -2.1121  1.7298  1.2140
  827MPD2    H112167   0.361   4.039   9.733 -1.0980  1.2808  1.4392
  827MPD2    H212168   0.635   4.259   9.962 -0.0081 -0.1212  1.5022
  827MPD2    H312169   0.516   4.229   9.766  0.7816  0.2297  0.8079
  827MPD2     N12170   0.356   3.823   9.903  0.3081 -0.1164 -0.0589
  827MPD2    H512171   0.352   3.760   9.983  1.0062 -1.1099 -0.7909
  827MPD2    N112172   0.660   4.081  10.177  0.1028 -0.2099 -0.0840
  827MPD2    H712173   0.720   4.162  10.190  0.9672 -1.1483  1.8770
  828MPD2     C12174   3.367   3.411  12.850  0.2098  0.3279 -0.4587
  828MPD2    C112175   3.404   3.461  12.726  0.3108 -0.2786  0.1416
  828MPD2    C212176   3.539   3.462  12.690  0.5242 -0.3318 -0.1672
  828MPD2    C312177   3.636   3.427  12.783  0.1447  0.4701  0.2176
  828MPD2    C412178   3.600   3.409  12.918  0.7338 -0.5844 -0.1370
  828MPD2    C512179   3.464   3.398  12.946  0.4697 -0.8750  0.3615
  828MPD2     H12180   3.554   3.491  12.587 -0.6251 -0.0445 -0.2544
  828MPD2    H112181   3.668   3.383  12.997  1.6004  2.2759  0.0613
  828MPD2    H212182   3.265   3.406  12.886  0.2705 -0.4922 -0.4072
  828MPD2    H312183   3.447   3.376  13.050 -2.2716 -1.0467 -0.1154
  828MPD2     N12184   3.771   3.415  12.760  0.3266 -0.0002 -0.4498
  828MPD2    H512185   3.829   3.371  12.830  1.7861 -0.0210 -1.6683
  828MPD2    N112186   3.309   3.481  12.626 -0.3401  0.0465  0.1220
  828MPD2    H712187   3.342   3.515  12.537  0.2373  2.4395  1.2472
  829MPD2     C12188   3.452   3.682  11.780  0.0676  1.5123 -0.0864
  829MPD2    C112189   3.319   3.637  11.775  0.2234 -0.1902 -0.3907
  829MPD2    C212190   3.248   3.602  11.889 -0.1621 -0.7405  0.1871
  829MPD2    C312191   3.305   3.632  12.018 -0.4973  0.0101 -0.2967
  829MPD2    C412192   3.440   3.666  12.017  0.1583  0.3300 -0.2815
  829MPD2    C512193   3.515   3.689  11.901  0.3084 -0.6590  0.4389
  829MPD2     H12194   3.155   3.547  11.875 -1.1826  1.2175 -0.8005
  829MPD2    H112195   3.488   3.667  12.114  0.9142 -0.5718 -0.6507
  829MPD2    H212196   3.515   3.701  11.694 -0.1169  0.5934 -0.4153
  829MPD2    H312197   3.620   3.711  11.916  0.8628 -1.0804 -2.9208
  829MPD2     N12198   3.248   3.596  12.139 -0.1995  0.0488  0.0954
  829MPD2    H512199   3.303   3.602  12.224 -1.1671  2.4894  0.5497
  829MPD2    N112200   3.269   3.625  11.646 -0.2211 -0.3633 -0.0217
  829MPD2    H712201   3.332   3.662  11.576 -1.3721  1.0029 -0.3363
  830MPD2     C12202   3.988   2.102  15.236 -0.1182 -0.6833 -0.2296
  830MPD2    C112203   4.082   2.089  15.338 -0.3702  0.1076  0.3013
  830MPD2    C212204   4.211   2.136  15.325  0.7802 -0.1607  0.3336
  830MPD2    C312205   4.243   2.205  15.210  0.6156  0.3462  0.6571
  830MPD2    C412206   4.154   2.226  15.106 -0.9867 -0.0589  0.3693
  830MPD2    C512207   4.024   2.173  15.119 -0.1898  0.1292 -0.1070
  830MPD2     H12208   4.282   2.125  15.405  2.0199 -0.8324 -0.8505
  830MPD2    H112209   4.173   2.294  15.024 -2.2588 -1.4990 -1.1329
  830MPD2    H212210   3.888   2.061  15.251 -2.0375  3.2397 -2.2363
  830MPD2    H312211   3.960   2.186  15.033  0.4330 -2.4823 -0.9423
  830MPD2     N12212   4.362   2.278  15.182 -0.0672 -0.4064 -0.1685
  830MPD2    H512213   4.349   2.332  15.097  0.2501  0.1709  0.1487
  830MPD2    N112214   4.040   2.017  15.444  0.4398 -0.0117  0.2441
  830MPD2    H712215   3.942   1.990  15.440  0.1397  1.2256 -0.6165
  831MPD2     C12216   3.750   3.775  16.475  0.6836 -0.2364 -0.0855
  831MPD2    C112217   3.785   3.690  16.371  1.0579  0.1444  0.7677
  831MPD2    C212218   3.739   3.562  16.378  0.3422 -0.5943 -0.0799
  831MPD2    C312219   3.675   3.508  16.498  1.0304  0.1424 -0.2562
  831MPD2    C412220   3.671   3.593  16.602 -0.1521  0.3631  0.0147
  831MPD2    C512221   3.700   3.728  16.591  0.1389 -0.1901 -0.1079
  831MPD2     H12222   3.756   3.494  16.295  1.2133  0.2106 -0.5667
  831MPD2    H112223   3.645   3.555  16.700  0.3477 -0.8165 -0.3164
  831MPD2    H212224   3.781   3.878  16.477 -0.8585  0.2186  0.2384
  831MPD2    H312225   3.698   3.785  16.684  0.4139  0.1681 -0.3166
  831MPD2     N12226   3.622   3.380  16.505 -0.4339 -0.0705 -0.1347
  831MPD2    H512227   3.596   3.345  16.596  1.6473 -0.0005  0.4929
  831MPD2    N112228   3.860   3.751  16.263 -0.0862 -0.0184 -0.1443
  831MPD2    H712229   3.874   3.851  16.269 -3.4949  0.4341  0.3018
  832MPD2     C12230   2.190   4.584  17.394  0.5919 -0.1944 -0.0057
  832MPD2    C112231   2.215   4.701  17.323 -0.1565  0.0118 -0.0066
  832MPD2    C212232   2.121   0.026  17.235  0.6840 -0.5851  0.1641
  832MPD2    C312233   1.991   4.691  17.229 -0.0682 -0.0597 -0.0774
  832MPD2    C412234   1.961   4.575  17.302  1.1310 -0.3732  0.3950
  832MPD2    C512235   2.064   4.528  17.385  0.3540 -0.3156  0.5165
  832MPD2     H12236   2.145   0.108  17.168 -1.6766  2.4461  3.0942
  832MPD2    H112237   1.868   4.521  17.288  0.6455  0.3388  0.8435
  832MPD2    H212238   2.253   4.522  17.456  0.4956 -0.9473 -0.6575
  832MPD2    H312239   2.034   4.446  17.450  1.1955 -0.6452  0.4892
  832MPD2     N12240   1.883   0.021  17.151 -0.2000  0.5745 -0.2858
  832MPD2    H512241   1.790   4.703  17.168 -0.1304  0.2349 -0.6762
  832MPD2    N112242   2.343   0.038  17.348 -0.0313  0.4869 -0.4496
  832MPD2    H712243   2.409   4.707  17.406  0.2753 -1.4867 -2.5233
  833MPD2     C12244   4.566   0.916  12.142  0.7842 -0.4721  0.4281
  833MPD2    C112245   4.563   1.034  12.074 -0.9041 -0.1706  0.0628
  833MPD2    C212246   4.587   1.049  11.942  0.7470  0.2856  0.2140
  833MPD2    C312247   4.595   0.943  11.859  0.6917 -0.1081 -0.3958
  833MPD2    C412248   4.594   0.818  11.925 -0.6345 -0.1002 -0.7458
  833MPD2    C512249   4.580   0.808  12.061  0.2216  0.1286  0.7174
  833MPD2     H12250   4.579   1.149  11.900  2.1446  0.2524 -0.1520
  833MPD2    H112251   4.620   0.732  11.865  2.1803  1.0335 -1.1267
  833MPD2    H212252   4.547   0.910  12.249 -0.4981 -0.4607  0.1964
  833MPD2    H312253   4.581   0.709  12.104  1.3193  0.1222  0.6672
  833MPD2     N12254   4.612   0.948  11.719 -0.2929 -0.2517 -0.6306
  833MPD2    H512255   4.615   0.864  11.662  1.5674 -0.7860  0.2780
  833MPD2    N112256   4.544   1.139  12.158  0.1955  0.4682  0.0507
  833MPD2    H712257   4.508   1.114  12.250  3.9523  0.5527  1.5248
  834MPD2     C12258   3.953   1.100  11.042 -0.0291  0.3244  0.2682
  834MPD2    C112259   4.065   1.141  10.967 -0.1981  0.0639  0.3808
  834MPD2    C212260   4.178   1.187  11.038  0.3554 -0.0783 -0.4122
  834MPD2    C312261   4.180   1.178  11.178  0.0153 -0.0217 -0.2855
  834MPD2    C412262   4.066   1.149  11.252 -0.4446 -0.1399  1.2020
  834MPD2    C512263   3.959   1.113  11.178  0.3630  0.3160  0.0823
  834MPD2     H12264   4.272   1.214  10.992  0.2385  1.0640  0.0000
  834MPD2    H112265   4.069   1.137  11.359 -1.4181 -0.7833  1.1622
  834MPD2    H212266   3.869   1.047  11.000  0.1669  1.0559 -1.0427
  834MPD2    H312267   3.885   1.061  11.238  3.2423 -2.7896  0.9175
  834MPD2     N12268   4.300   1.200  11.246 -0.3601  0.0200  0.4177
  834MPD2    H512269   4.377   1.226  11.184 -0.9546  1.0938  0.1327
  834MPD2    N112270   4.048   1.123  10.828  0.4183 -0.5772 -0.6232
  834MPD2    H712271   3.965   1.071  10.801 -0.8604  0.4223  1.3796
  835MPD2     C12272   4.425   4.027  11.247  0.1133 -0.3978  0.6320
  835MPD2    C112273   4.291   4.057  11.220  0.6218  1.0379 -0.1224
  835MPD2    C212274   4.191   4.063  11.322  0.2401 -0.6764 -0.4171
  835MPD2    C312275   4.229   4.014  11.448 -0.1857  0.2133 -0.5283
  835MPD2    C412276   4.363   4.002  11.478 -0.5699  0.3427 -0.1066
  835MPD2    C512277   4.456   4.015  11.381 -0.5181 -0.4189 -0.1219
  835MPD2     H12278   4.088   4.074  11.292  0.7595  2.0148 -1.1958
  835MPD2    H112279   4.394   3.982  11.580 -0.0343 -1.2499 -0.5873
  835MPD2    H212280   4.494   4.016  11.164 -1.4716 -1.1946 -0.5837
  835MPD2    H312281   4.561   4.007  11.407 -0.8490 -1.3491  0.9326
  835MPD2     N12282   4.135   4.000  11.553 -0.1297  0.1397  0.0348
  835MPD2    H512283   4.170   3.982  11.646  1.3737  1.9266 -0.2107
  835MPD2    N112284   4.240   4.057  11.089  0.1760 -0.2307  0.2809
  835MPD2    H712285   4.142   4.079  11.079  0.8178  1.8085 -1.4740
  836MPD2     C12286   3.344   3.987  11.455  0.0215  0.7594  0.5661
  836MPD2    C112287   3.383   4.002  11.589 -0.4894 -1.0395  0.5069
  836MPD2    C212288   3.285   4.008  11.693 -0.6672  0.6545 -0.1892
  836MPD2    C312289   3.148   3.999  11.656  0.1114 -0.0539 -0.1189
  836MPD2    C412290   3.110   3.994  11.527 -0.1440 -0.1061 -0.0043
  836MPD2    C512291   3.210   3.981  11.426  0.6017  0.1732  0.5491
  836MPD2     H12292   3.321   4.015  11.795  0.8966 -1.0944 -0.6177
  836MPD2    H112293   3.004   3.997  11.505  0.2475  0.0928 -1.8113
  836MPD2    H212294   3.415   3.999  11.374  0.6834  0.6781  1.1297
  836MPD2    H312295   3.185   3.965  11.322 -2.2696 -0.8249  1.3875
  836MPD2     N12296   3.044   3.999  11.759 -0.1699 -0.6042  0.3411
  836MPD2    H512297   2.945   3.990  11.739  0.1200 -2.6077 -0.2551
  836MPD2    N112298   3.522   4.021  11.611  0.0594  0.1474 -0.2841
  836MPD2    H712299   3.586   3.981  11.544 -0.4026 -0.1371 -0.5541
  837MPD2     C12300   2.655   3.670  10.271  0.2566  0.4664 -0.3978
  837MPD2    C112301   2.697   3.729  10.158 -0.0088  0.0636  0.9226
  837MPD2    C212302   2.671   3.859  10.123  0.6237 -0.2198  0.4530
  837MPD2    C312303   2.595   3.937  10.216  0.1074 -0.3259 -0.3114
  837MPD2    C412304   2.557   3.875  10.339  0.5666 -0.3867  0.5434
  837MPD2    C512305   2.581   3.742  10.361  0.3751  1.2229 -0.4704
  837MPD2     H12306   2.712   3.905  10.034 -1.3549 -0.1005 -0.4011
  837MPD2    H112307   2.488   3.926  10.406 -1.6003 -1.9997 -0.4653
  837MPD2    H212308   2.658   3.562  10.273 -0.0662  0.4618 -0.1461
  837MPD2    H312309   2.538   3.699  10.451  0.9792 -1.9629 -1.7290
  837MPD2     N12310   2.555   4.072  10.168  0.0046 -1.0761  0.2455
  837MPD2    H512311   2.604   4.106  10.085  0.4310 -1.1429  0.4685
  837MPD2    N112312   2.747   3.651  10.047 -0.6089 -0.0229  0.4742
  837MPD2    H712313   2.786   3.709   9.973 -0.9162  0.2121  0.4983
  838MPD2     C12314   0.937   1.523  11.295 -0.3296 -0.2699  0.5438
  838MPD2    C112315   0.942   1.618  11.393 -0.2379  0.0711 -0.6617
  838MPD2    C212316   0.835   1.633  11.476 -0.2021 -0.5969 -0.2104
  838MPD2    C312317   0.725   1.556  11.468  0.4838  0.0395  0.2585
  838MPD2    C412318   0.726   1.458  11.372 -0.1905 -0.6473 -0.8313
  838MPD2    C512319   0.822   1.452  11.274  1.0780  0.0734 -0.6544
  838MPD2     H12320   0.844   1.705  11.557 -1.1149  0.6440 -1.2239
  838MPD2    H112321   0.640   1.393  11.357 -0.1981 -0.3993 -1.9116
  838MPD2    H212322   1.008   1.521  11.213  0.2122  0.2956  0.9993
  838MPD2    H312323   0.818   1.388  11.187  1.5168  2.4744 -2.4534
  838MPD2     N12324   0.617   1.583  11.550  0.5368 -0.5554  0.0475
  838MPD2    H512325   0.615   1.670  11.602  1.3731 -0.2207 -0.4675
  838MPD2    N112326   1.056   1.692  11.430  0.5938 -0.3192  0.3292
  838MPD2    H712327   1.036   1.762  11.501  0.3571  0.4474 -0.4860
  839MPD2     C12328   1.238   1.395  12.188 -0.6158  0.2625  0.3396
  839MPD2    C112329   1.171   1.368  12.071 -0.2266  0.0018  0.5986
  839MPD2    C212330   1.183   1.446  11.965  0.0494 -0.3499  0.3510
  839MPD2    C312331   1.273   1.552  11.956 -0.2630  0.4773  0.2243
  839MPD2    C412332   1.338   1.582  12.067 -0.1623  0.8185  0.6834
  839MPD2    C512333   1.317   1.510  12.184  0.5574 -0.1037 -0.7927
  839MPD2     H12334   1.111   1.430  11.886 -0.6349  1.0620  0.6823
  839MPD2    H112335   1.397   1.671  12.085  0.6580 -0.0278  2.2097
  839MPD2    H212336   1.244   1.327  12.272 -0.4598  0.9159  0.8560
  839MPD2    H312337   1.381   1.534  12.269 -0.0760 -2.1597  0.2541
  839MPD2     N12338   1.290   1.623  11.840  0.0096  0.2367  0.2351
  839MPD2    H512339   1.228   1.591  11.767 -0.8192  0.8307  0.6859
  839MPD2    N112340   1.084   1.256  12.060  0.1232  0.3459 -0.3253
  839MPD2    H712341   1.036   1.247  11.971 -1.1136  1.8759  0.1984
  840MPD2     C12342   0.863   4.609  10.435  0.3521  0.2027  0.4590
  840MPD2    C112343   0.875   4.513  10.538  0.0616  0.3204 -0.3057
  840MPD2    C212344   0.954   4.549  10.641 -0.2873  0.1346 -0.4221
  840MPD2    C312345   1.016   4.678  10.649 -0.1765  0.7349 -0.3963
  840MPD2    C412346   1.004   0.046  10.544  0.6002  0.0293 -0.7117
  840MPD2    C512347   0.928   0.010  10.436 -0.0750  0.2860 -0.0393
  840MPD2     H12348   0.980   4.483  10.724 -0.7426  0.3389 -0.1141
  840MPD2    H112349   1.057   0.141  10.542  1.8375 -0.6454 -0.0053
  840MPD2    H212350   0.807   4.589  10.344 -0.9707 -3.5405  2.1338
  840MPD2    H312351   0.916   0.074  10.350 -2.5664  2.4846  1.9022
  840MPD2     N12352   1.116   4.704  10.754 -0.2162  0.1679 -0.0735
  840MPD2    H512353   1.128   4.630  10.823 -0.0349  1.5037  1.3188
  840MPD2    N112354   0.828   4.383  10.513 -0.7069  0.0762  0.6686
  840MPD2    H712355   0.790   4.360  10.421  1.1757 -0.1652 -0.0507
  841MPD2     C12356   0.438   4.500  15.348  0.1515 -0.7403 -0.1712
  841MPD2    C112357   0.420   4.431  15.227 -0.1465 -0.5442  0.3636
  841MPD2    C212358   0.463   4.489  15.110  0.2445 -0.3724  0.7037
  841MPD2    C312359   0.540   4.605  15.109  0.1849 -0.5216 -0.4367
  841MPD2    C412360   0.554   4.678  15.229  0.4253 -0.1479 -0.2954
  841MPD2    C512361   0.496   4.624  15.342  0.1162 -0.3056  0.1234
  841MPD2     H12362   0.459   4.431  15.018 -1.4189 -0.6654  0.9618
  841MPD2    H112363   0.614   0.047  15.244  0.7400 -0.4134  0.0378
  841MPD2    H212364   0.414   4.467  15.448  1.5052 -4.3739 -1.0515
  841MPD2    H312365   0.498   4.676  15.437  2.3788  0.5265 -0.3928
  841MPD2     N12366   0.588   4.644  14.978  0.0355 -0.1737 -0.4967
  841MPD2    H512367   0.563   4.576  14.906  0.9640 -0.3853 -0.6137
  841MPD2    N112368   0.375   4.295  15.217 -0.4386 -0.0773 -0.0186
  841MPD2    H712369   0.385   4.239  15.133  1.7305 -0.4739  0.4891
  842MPD2     C12370   1.720   0.549  17.073 -0.0650 -0.7540 -0.5118
  842MPD2    C112371   1.598   0.482  17.085 -0.3566  0.1775 -0.1889
  842MPD2    C212372   1.561   0.425  17.205 -0.7811 -0.6744  0.1309
  842MPD2    C312373   1.661   0.420  17.305 -0.5157 -0.0971  0.3833
  842MPD2    C412374   1.783   0.474  17.281  0.4016 -0.0482  0.4120
  842MPD2    C512375   1.811   0.548  17.171  0.4495  0.2213  0.0206
  842MPD2     H12376   1.468   0.370  17.211 -1.5497  0.3276 -2.5961
  842MPD2    H112377   1.865   0.473  17.353  0.4163  2.0774  0.4175
  842MPD2    H212378   1.757   0.601  16.986  1.7284  0.9811  1.2900
  842MPD2    H312379   1.910   0.589  17.154 -0.7839  1.8108 -3.3998
  842MPD2     N12380   1.638   0.343  17.429 -0.0746  0.1116 -0.2925
  842MPD2    H512381   1.722   0.316  17.479 -0.4119  0.9892  0.7493
  842MPD2    N112382   1.514   0.469  16.972  0.0451  0.0987 -0.3351
  842MPD2    H712383   1.547   0.504  16.883  1.4927 -1.6035 -0.4497
  843MPD2     C12384   2.974   4.689  17.491 -0.0922  0.9488  0.1423
  843MPD2    C112385   3.007   4.685  17.621 -0.8409  0.4032 -0.4130
  843MPD2    C212386   3.130   0.011  17.664  1.0470 -0.5790  0.1935
  843MPD2    C312387   3.216   0.071  17.574 -0.2694  0.5032  0.8339
  843MPD2    C412388   3.182   0.076  17.441  0.3688  0.0174 -0.3706
  843MPD2    C512389   3.061   0.014  17.399  0.7892  0.2658  0.0216
  843MPD2     H12390   3.161   0.015   0.082  4.1863  1.5028 -0.8356
  843MPD2    H112391   3.245   0.118  17.363  0.0183 -0.1901 -0.7681
  843MPD2    H212392   2.878   4.654  17.453  0.2321  0.1461  0.0744
  843MPD2    H312393   3.030   0.015  17.295  0.9387 -0.2969 -0.0278
  843MPD2     N12394   3.337   0.132  17.608  0.6952 -0.1503  0.2390
  843MPD2    H512395   3.376   0.197  17.540 -0.9603  0.3743 -0.2159
  843MPD2    N112396   2.927   4.621   0.030  0.8933 -0.9056  0.1708
  843MPD2    H712397   2.969   4.617   0.123 -0.8255 -2.4664  0.8820
  844MPD2     C12398   1.596   4.332  16.619  0.2717 -0.2212  0.3785
  844MPD2    C112399   1.706   4.248  16.627  0.2480  0.1353  0.1098
  844MPD2    C212400   1.820   4.283  16.696  0.2468 -0.3732  0.1463
  844MPD2    C312401   1.829   4.410  16.753 -0.5795  0.5627  0.0048
  844MPD2    C412402   1.721   4.492  16.739  0.5388  0.1977 -0.0819
  844MPD2    C512403   1.612   4.451  16.678  0.4094 -0.5456 -0.0969
  844MPD2     H12404   1.904   4.214  16.707  1.0710  0.2298 -2.2396
  844MPD2    H112405   1.726   4.587  16.789  0.0302 -0.3589  1.0250
  844MPD2    H212406   1.513   4.311  16.554  1.8801 -0.0237 -1.7253
  844MPD2    H312407   1.535   4.527  16.678  0.6110 -0.3409  0.2436
  844MPD2     N12408   1.952   4.449  16.805  0.7293  0.1217  0.0669
  844MPD2    H512409   2.020   4.373  16.814  1.1683  0.5236  0.1142
  844MPD2    N112410   1.699   4.120  16.569  0.3365  0.1299  0.2298
  844MPD2    H712411   1.774   4.059  16.597  0.5478 -0.4580 -1.6428
  845MPD2     C12412   2.327   0.579  16.649 -0.2082  0.0625 -0.3395
  845MPD2    C112413   2.399   0.545  16.761  0.3564 -0.3145  0.6582
  845MPD2    C212414   2.397   0.413  16.798 -0.9244 -0.0310  0.1461
  845MPD2    C312415   2.313   0.320  16.737 -0.5723  0.4403 -0.1322
  845MPD2    C412416   2.229   0.361  16.637  0.2466  0.4856  0.4435
  845MPD2    C512417   2.251   0.486  16.585 -0.1753  0.0152 -0.1653
  845MPD2     H12418   2.468   0.376  16.870 -0.6299  2.4069  1.1166
  845MPD2    H112419   2.159   0.303  16.579  1.5591  0.1530 -0.8141
  845MPD2    H212420   2.328   0.678  16.605 -0.3154  0.3750  0.3537
  845MPD2    H312421   2.202   0.524  16.497  0.5639 -0.3203 -0.7257
  845MPD2     N12422   2.294   0.192  16.788 -0.4217  0.2576 -0.3368
  845MPD2    H512423   2.238   0.128  16.732  1.1082 -0.6525 -0.8163
  845MPD2    N112424   2.476   0.640  16.827 -0.0905 -0.4997 -0.7222
  845MPD2    H712425   2.482   0.729  16.779  2.2873 -1.4103 -2.1425
  846MPD2     C12426   4.027   0.864  13.789 -0.0700  0.1801  0.4943
  846MPD2    C112427   3.925   0.933  13.731 -0.2424 -0.5936  0.1394
  846MPD2    C212428   3.843   1.014  13.811 -0.3293  0.9247  0.2866
  846MPD2    C312429   3.865   1.022  13.950 -0.0085 -1.4786 -0.2945
  846MPD2    C412430   3.967   0.950  14.005  0.1700 -0.3092  0.1326
  846MPD2    C512431   4.049   0.872  13.920 -0.4231 -0.1341  0.7125
  846MPD2     H12432   3.765   1.074  13.765 -0.9761 -0.7670 -0.8312
  846MPD2    H112433   3.994   0.957  14.110  1.9421 -0.4117 -0.3222
  846MPD2    H212434   4.101   0.826  13.720 -1.8885  1.2540 -2.0538
  846MPD2    H312435   4.129   0.812  13.963  0.6140  1.0824  0.4713
  846MPD2     N12436   3.785   1.104  14.035  0.0912 -0.2206  0.0400
  846MPD2    H512437   3.718   1.167  13.992 -1.0915 -0.1232  1.9864
  846MPD2    N112438   3.900   0.939  13.592  0.1958 -0.2242  0.4461
  846MPD2    H712439   3.816   0.992  13.567 -1.3955 -2.8077  0.3825
  847MPD2     C12440   3.973   1.958  13.829  0.0259 -0.6116  0.1597
  847MPD2    C112441   4.054   2.053  13.886 -0.0296  0.1189 -0.5331
  847MPD2    C212442   4.137   2.019  13.995 -0.5311  0.1810 -0.5559
  847MPD2    C312443   4.126   1.896  14.057  0.7617 -0.7003 -0.1514
  847MPD2    C412444   4.045   1.802  14.001 -0.0471  0.2149  0.0575
  847MPD2    C512445   3.970   1.839  13.890  0.8706 -0.0343 -0.6124
  847MPD2     H12446   4.209   2.090  14.034 -0.5658 -0.1232  0.0699
  847MPD2    H112447   4.048   1.698  14.033  0.3827 -0.5404 -2.4715
  847MPD2    H212448   3.902   1.978  13.750  0.9317 -1.3072 -0.8223
  847MPD2    H312449   3.904   1.761  13.853  0.4388 -0.7790  1.7093
  847MPD2     N12450   4.215   1.881  14.165 -0.4404 -0.2593  0.2867
  847MPD2    H512451   4.270   1.961  14.193  1.1903 -0.8753 -1.1496
  847MPD2    N112452   4.046   2.187  13.855  0.1048  0.6678 -0.2380
  847MPD2    H712453   4.081   2.250  13.926  1.3087  0.0384 -0.2817
  848MPD2     C12454   1.460   0.249  16.470  0.0605  0.2600 -0.0572
  848MPD2    C112455   1.565   0.300  16.540 -0.2117 -0.0584  0.2163
  848MPD2    C212456   1.657   0.384  16.483 -0.4495 -0.3931  0.2359
  848MPD2    C312457   1.642   0.419  16.350  0.7549  0.3156 -0.4190
  848MPD2    C412458   1.533   0.379  16.281  0.4945  0.5920 -0.7336
  848MPD2    C512459   1.448   0.279  16.335 -0.3481  0.4038  0.3709
  848MPD2     H12460   1.752   0.402  16.532 -1.3477  1.0186  1.4560
  848MPD2    H112461   1.521   0.417  16.180  0.5681 -0.1566 -1.0247
  848MPD2    H212462   1.385   0.190  16.519 -0.2254 -1.2030 -2.2522
  848MPD2    H312463   1.366   0.239  16.276 -2.2239  1.7470  2.0669
  848MPD2     N12464   1.735   0.499  16.276  0.3765  0.0479  0.5482
  848MPD2    H512465   1.716   0.517  16.178 -0.7397 -3.6222  0.0665
  848MPD2    N112466   1.595   0.256  16.674  0.3114  0.4325  0.0164
  848MPD2    H712467   1.683   0.296  16.705  1.1039 -2.4566  1.5199
  849MPD2     C12468   1.318   4.517  14.130  0.1023 -0.0692 -0.0548
  849MPD2    C112469   1.445   4.549  14.096  0.6308 -0.0081 -0.2237
  849MPD2    C212470   1.543   4.463  14.126 -0.6100  0.3119  0.7220
  849MPD2    C312471   1.526   4.346  14.200 -0.2532  0.7221  0.3113
  849MPD2    C412472   1.400   4.324  14.252 -0.3173  0.3660 -0.2704
  849MPD2    C512473   1.302   4.411  14.215  0.8179  0.2896  0.4893
  849MPD2     H12474   1.645   4.479  14.091 -1.1330 -0.4201 -1.1555
  849MPD2    H112475   1.372   4.249  14.326  2.6703 -1.0197 -0.5509
  849MPD2    H212476   1.240   4.585  14.098  0.7147 -0.3290 -2.0988
  849MPD2    H312477   1.204   4.395  14.261  0.8509 -1.2362  0.0376
  849MPD2     N12478   1.638   4.270  14.225  0.2286 -0.2252 -1.3064
  849MPD2    H512479   1.721   4.294  14.173  0.0611  1.8225 -0.6260
  849MPD2    N112480   1.462   4.679  14.033  0.4542 -0.5618  0.3599
  849MPD2    H712481   1.379   0.014  14.015  0.2690 -1.3163 -1.2046
  850MPD2     C12482   3.999   3.145  14.508  0.9598  0.3696  0.2137
  850MPD2    C112483   4.023   3.101  14.634 -0.5846 -0.6860  0.1885
  850MPD2    C212484   4.127   3.162  14.707  0.0781 -0.5245  0.5764
  850MPD2    C312485   4.211   3.255  14.646 -0.4173 -0.0279 -0.4128
  850MPD2    C412486   4.184   3.286  14.514  0.3343 -0.6308 -0.0738
  850MPD2    C512487   4.083   3.232  14.450 -0.0712 -0.1009 -0.0391
  850MPD2     H12488   4.133   3.129  14.810  1.3050  0.8779  0.9481
  850MPD2    H112489   4.238   3.365  14.464 -0.2817 -0.2533 -0.1420
  850MPD2    H212490   3.910   3.121  14.451  1.0302  0.7260 -0.0445
  850MPD2    H312491   4.073   3.267  14.348 -1.7019  0.9335  0.4753
  850MPD2     N12492   4.313   3.313  14.715  0.0099 -0.1913  0.6611
  850MPD2    H512493   4.359   3.390  14.668 -0.5361 -0.6234 -0.5864
  850MPD2    N112494   3.944   3.010  14.698  0.1612  0.2092 -1.2319
  850MPD2    H712495   3.972   3.000  14.796  0.3287  0.4643 -1.2527
  851MPD2     C12496   3.947   2.853  15.386 -0.2844  0.2632  0.3271
  851MPD2    C112497   3.995   2.850  15.257  0.2248 -0.2660 -0.4122
  851MPD2    C212498   4.125   2.832  15.245  0.6034  0.7002 -1.1274
  851MPD2    C312499   4.208   2.798  15.349  0.3288  0.0628  0.3875
  851MPD2    C412500   4.151   2.781  15.478 -0.1056 -0.0556  0.3661
  851MPD2    C512501   4.019   2.816  15.492  0.1061 -0.1340  0.9950
  851MPD2     H12502   4.162   2.828  15.144  1.6311 -1.6529 -0.6612
  851MPD2    H112503   4.205   2.751  15.567  1.1048  0.7769 -0.0918
  851MPD2    H212504   3.845   2.883  15.407 -0.9438 -0.3521 -1.9514
  851MPD2    H312505   3.978   2.817  15.592  0.3399  2.4344  1.0697
  851MPD2     N12506   4.336   2.764  15.313 -0.4946  0.0072 -0.0946
  851MPD2    H512507   4.347   2.768  15.212 -2.5911 -1.1136 -0.3673
  851MPD2    N112508   3.918   2.866  15.138 -0.8034  0.0856  0.1115
  851MPD2    H712509   3.968   2.878  15.051  0.3629  0.4059  0.8241
  852MPD2     C12510   3.358   1.088  10.169  0.1124 -0.3195  0.1755
  852MPD2    C112511   3.315   0.967  10.111  0.0236 -0.3524  0.1639
  852MPD2    C212512   3.415   0.874  10.076  0.1693 -0.4300 -0.2005
  852MPD2    C312513   3.549   0.906  10.088 -0.2037  0.3269  0.2327
  852MPD2    C412514   3.587   1.029  10.137  0.3325  0.0832 -0.6434
  852MPD2    C512515   3.487   1.116  10.179  0.4153  0.1136  0.1016
  852MPD2     H12516   3.393   0.770  10.059  0.5943 -0.7991  1.5358
  852MPD2    H112517   3.692   1.057  10.143  0.7384 -1.9000  1.9397
  852MPD2    H212518   3.288   1.168  10.190  0.2883 -0.0509 -0.2654
  852MPD2    H312519   3.521   1.214  10.211 -1.0134  0.7620 -0.3619
  852MPD2     N12520   3.644   0.808  10.046 -0.2232 -0.6067 -0.6405
  852MPD2    H512521   3.594   0.721  10.029  0.7361 -0.8532 -2.1367
  852MPD2    N112522   3.177   0.927  10.097 -0.2195  0.2085 -0.8058
  852MPD2    H712523   3.161   0.842  10.044  0.8007 -0.0638 -0.6786
  853MPD2     C12524   0.507   1.158  13.182  0.0258  0.4283 -0.1792
  853MPD2    C112525   0.571   1.034  13.148 -0.2358  0.0269 -0.1365
  853MPD2    C212526   0.546   0.972  13.026 -0.6472 -0.4122  0.2629
  853MPD2    C312527   0.455   1.027  12.935 -0.4270  0.5914  0.1973
  853MPD2    C412528   0.400   1.148  12.969  0.3269  0.0344 -1.0361
  853MPD2    C512529   0.428   1.215  13.086  0.8358  0.0406  0.9382
  853MPD2     H12530   0.596   0.878  13.005  0.0897  0.4564 -1.8211
  853MPD2    H112531   0.338   1.207  12.903  0.3856  0.9631 -0.2621
  853MPD2    H212532   0.532   1.210  13.273  0.1773  1.3324 -0.7332
  853MPD2    H312533   0.391   1.314  13.110 -0.5305 -0.1406 -0.4271
  853MPD2     N12534   0.440   0.970  12.807 -0.0638  0.3587  0.4619
  853MPD2    H512535   0.398   1.034  12.741 -1.0862  0.7770  1.5211
  853MPD2    N112536   0.671   0.992  13.241  0.0233 -0.2452  0.1060
  853MPD2    H712537   0.704   1.056  13.314  1.9321 -0.4166 -0.6088
  854MPD2     C12538   1.751   0.068  12.903  0.2570  0.1775  0.4631
  854MPD2    C112539   1.840   0.170  12.932  0.2137 -0.3417  0.3671
  854MPD2    C212540   1.953   0.138  13.001 -0.0271 -0.2401  0.4341
  854MPD2    C312541   1.981   4.719  13.025  0.7381  0.3526  0.6764
  854MPD2    C412542   1.890   4.620  12.989  0.4276 -0.5210 -0.5549
  854MPD2    C512543   1.768   4.660  12.941  0.1673  0.0440  0.0869
  854MPD2     H12544   2.028   0.210  13.033 -0.6438  0.1964  0.8897
  854MPD2    H112545   1.907   4.518  13.022  0.6862  0.0741  1.1266
  854MPD2    H212546   1.654   0.099  12.866 -0.6736 -0.3837  2.4159
  854MPD2    H312547   1.692   4.582  12.938 -0.5655  0.8428 -2.5641
  854MPD2     N12548   2.089   4.674  13.097 -0.0468  0.6429  0.2717
  854MPD2    H512549   2.083   4.579  13.131  0.7197 -0.1526 -1.8274
  854MPD2    N112550   1.813   0.305  12.898  0.3496  0.0292  0.0938
  854MPD2    H712551   1.870   0.371  12.949  0.2657 -0.4000  0.7453
  855MPD2     C12552   2.748   0.045  13.828 -0.3185 -0.0000  0.0356
  855MPD2    C112553   2.772   4.641  13.777  0.5356  0.1863  0.5281
  855MPD2    C212554   2.693   4.597  13.674  0.2648  0.4320 -0.6017
  855MPD2    C312555   2.601   4.683  13.615  0.1603  0.1214  1.2024
  855MPD2    C412556   2.590   0.087  13.658  0.5652  0.5765 -0.3111
  855MPD2    C512557   2.665   0.135  13.760 -0.1863 -0.6711 -0.2742
  855MPD2     H12558   2.699   4.498  13.632 -0.2998  0.2951 -0.3576
  855MPD2    H112559   2.522   0.157  13.610 -0.2851 -0.1392 -0.1503
  855MPD2    H212560   2.797   0.092  13.912 -1.0353  3.2874 -1.3952
  855MPD2    H312561   2.657   0.238  13.791 -0.3955 -0.4693 -0.9983
  855MPD2     N12562   2.524   4.653  13.505  0.1792  0.5000  0.3848
  855MPD2    H512563   2.456   0.004  13.481 -0.3632 -1.0697 -2.8505
  855MPD2    N112564   2.859   4.550  13.847 -0.0833  0.1221  0.6579
  855MPD2    H712565   2.866   4.457  13.806 -1.5185 -0.7941  2.4829
  856MPD2     C12566   0.060   0.856  13.749  0.2512 -0.2752  1.0367
  856MPD2    C112567   0.153   0.961  13.761 -0.7275  0.1655  0.5272
  856MPD2    C212568   0.109   1.091  13.729  0.9185  0.7282  0.5189
  856MPD2    C312569   4.702   1.116  13.687 -0.3168 -0.3447  0.4485
  856MPD2    C412570   4.608   1.007  13.676 -1.2569 -0.2380  0.3735
  856MPD2    C512571   4.651   0.876  13.712  0.2704 -0.1599 -0.0613
  856MPD2     H12572   0.185   1.169  13.725  1.3715  0.2222 -0.7620
  856MPD2    H112573   4.505   1.036  13.656 -1.1973  0.6427  1.3022
  856MPD2    H212574   0.079   0.758  13.791 -2.8498 -1.2522  0.1912
  856MPD2    H312575   4.580   0.795  13.701 -0.8354  0.9746 -1.2864
  856MPD2     N12576   4.656   1.248  13.665  0.1836  0.5797 -0.1602
  856MPD2    H512577   4.560   1.254  13.632  0.2988 -1.7489 -0.9001
  856MPD2    N112578   0.279   0.955  13.824  0.3315 -0.3586 -0.1606
  856MPD2    H712579   0.331   1.042  13.833  1.5860 -0.8782 -2.2904
  857MPD2     C12580   1.210   3.283  13.277 -0.9164  0.0068  0.3538
  857MPD2    C112581   1.340   3.305  13.244 -0.9246  0.5620  0.3253
  857MPD2    C212582   1.408   3.402  13.318  0.2177 -0.0895 -0.2486
  857MPD2    C312583   1.340   3.477  13.415  0.2903  0.4235  0.2802
  857MPD2    C412584   1.211   3.450  13.442  0.2762 -0.8460  0.1776
  857MPD2    C512585   1.144   3.350  13.374  0.1288  0.0342  0.3688
  857MPD2     H12586   1.510   3.438  13.308 -0.3269  1.2466 -0.9443
  857MPD2    H112587   1.153   3.510  13.511  1.6380  0.7088 -0.0418
  857MPD2    H212588   1.158   3.213  13.213 -0.0875  0.2285 -0.5660
  857MPD2    H312589   1.040   3.327  13.398  0.2493  0.1041  0.9540
  857MPD2     N12590   1.415   3.589  13.472 -0.3123  0.2779  0.2464
  857MPD2    H512591   1.495   3.619  13.418  1.5124  1.3400  3.6255
  857MPD2    N112592   1.398   3.229  13.139 -0.8657  0.2340  0.2631
  857MPD2    H712593   1.344   3.169  13.078 -0.0862 -0.5579  0.3518
  858MPD2     C12594   2.138   2.378  16.452 -1.3943 -0.7868  0.3179
  858MPD2    C112595   2.203   2.497  16.437 -0.5383  0.5719  0.0539
  858MPD2    C212596   2.176   2.596  16.521  0.1160 -0.0106  0.7774
  858MPD2    C312597   2.086   2.572  16.622 -0.2578  0.0016  0.0968
  858MPD2    C412598   2.016   2.459  16.633  0.1190 -0.8056 -0.1852
  858MPD2    C512599   2.054   2.362  16.546 -0.2004  0.1682 -0.1971
  858MPD2     H12600   2.218   2.695  16.516 -1.3974  0.6468  0.9547
  858MPD2    H112601   1.946   2.439  16.714  1.1283  2.2715  1.4414
  858MPD2    H212602   2.170   2.286  16.404  2.2256  0.1625  0.9027
  858MPD2    H312603   2.007   2.265  16.558 -1.7270  1.0645  1.2778
  858MPD2     N12604   2.070   2.663  16.726  0.5271 -0.3074  0.8213
  858MPD2    H512605   2.033   2.620  16.811 -1.2839  1.2009  0.7977
  858MPD2    N112606   2.314   2.493  16.357 -0.9951  0.3249 -0.3577
  858MPD2    H712607   2.319   2.404  16.309  1.3221 -0.1458  0.7947
  859MPD2     C12608   0.778   4.622  15.706 -0.2503  0.1886 -0.2258
  859MPD2    C112609   0.796   4.609  15.572 -0.0616 -0.2047 -0.0441
  859MPD2    C212610   0.742   4.502  15.505  0.5889 -0.2352 -0.6512
  859MPD2    C312611   0.687   4.395  15.577  0.9480  0.3248  0.4010
  859MPD2    C412612   0.661   4.415  15.714  0.1800 -0.1985  0.0961
  859MPD2    C512613   0.709   4.525  15.771 -0.2197 -0.5460  0.0251
  859MPD2     H12614   0.756   4.501  15.398  0.4373 -1.1004 -0.6677
  859MPD2    H112615   0.608   4.339  15.771 -0.3824 -1.2152 -1.7802
  859MPD2    H212616   0.800   4.712  15.763 -3.2224  0.7847 -0.0074
  859MPD2    H312617   0.681   4.552  15.872 -2.3854 -0.5208 -0.5750
  859MPD2     N12618   0.646   4.276  15.515  0.1034  0.6529  0.1881
  859MPD2    H512619   0.600   4.202  15.567 -0.4971  0.5130 -0.5315
  859MPD2    N112620   0.863   4.716  15.513 -0.2588  0.0235  0.0644
  859MPD2    H712621   0.870   0.071  15.580 -2.6898 -0.6376  1.0734
  860MPD2     C12622   2.704   4.604  11.544  0.3978  0.3777  0.3512
  860MPD2    C112623   2.749   4.599  11.673  0.0523 -0.2781 -0.7126
  860MPD2    C212624   2.688   4.675  11.773 -0.3177 -0.1611 -0.2289
  860MPD2    C312625   2.593   0.049  11.747 -0.3249 -0.5659  0.0812
  860MPD2    C412626   2.557   0.062  11.614 -0.7050  0.1059  0.0773
  860MPD2    C512627   2.606   4.695  11.521 -0.0325 -0.1182 -0.1332
  860MPD2     H12628   2.722   4.665  11.875 -1.0975  1.2912  0.1722
  860MPD2    H112629   2.484   0.137  11.585 -0.5122  0.0038 -0.6860
  860MPD2    H212630   2.733   4.529  11.471 -0.0311 -1.7297  2.3179
  860MPD2    H312631   2.572   4.704  11.419 -0.1819  0.5233 -0.0279
  860MPD2     N12632   2.537   0.126  11.856  0.4017  0.2536 -0.2102
  860MPD2    H512633   2.554   0.094  11.951 -1.6537 -0.8008 -0.1987
  860MPD2    N112634   2.854   4.514  11.717 -0.1134 -0.2438 -0.2902
  860MPD2    H712635   2.880   4.527  11.814 -0.1428 -0.5902 -0.2351
  861MPD2     C12636   2.333   3.222  11.070 -0.0916  0.0282 -0.0178
  861MPD2    C112637   2.230   3.283  11.134 -0.4351 -0.4082  0.1654
  861MPD2    C212638   2.123   3.337  11.063  0.7219  0.0983  0.0622
  861MPD2    C312639   2.115   3.327  10.932  0.1901 -0.3879  0.1967
  861MPD2    C412640   2.212   3.261  10.865  0.4730  0.0963  0.0965
  861MPD2    C512641   2.316   3.207  10.933 -0.3993  0.5082  0.2371
  861MPD2     H12642   2.045   3.385  11.121  0.6339  0.9417 -0.7468
  861MPD2    H112643   2.209   3.239  10.759  0.4730 -1.4509  0.4125
  861MPD2    H212644   2.430   3.194  11.111 -0.1917 -0.5100 -0.1409
  861MPD2    H312645   2.390   3.152  10.874  0.2942  0.5017  1.1154
  861MPD2     N12646   2.007   3.376  10.850 -0.5388 -0.0761  0.3491
  861MPD2    H512647   2.022   3.345  10.755  0.2498 -1.6842  0.9945
  861MPD2    N112648   2.232   3.304  11.277 -0.2987 -0.3786 -0.1836
  861MPD2    H712649   2.149   3.352  11.311 -0.6507 -0.6441 -0.6616
  862MPD2     C12650   1.928   3.622  10.159  0.1029 -0.1955 -0.3308
  862MPD2    C112651   1.875   3.526  10.244 -1.0515  0.2677 -0.3673
  862MPD2    C212652   1.823   3.406  10.193 -0.5104  0.3234  0.5481
  862MPD2    C312653   1.838   3.387  10.058 -0.5679 -0.8768 -0.2594
  862MPD2    C412654   1.889   3.485   9.977 -0.4031  0.2432  0.0687
  862MPD2    C512655   1.935   3.599  10.023  0.3353  0.2027  0.5251
  862MPD2     H12656   1.768   3.339  10.258  1.8206  0.1044  2.2819
  862MPD2    H112657   1.896   3.457   9.872 -0.7355  0.2497  0.0436
  862MPD2    H212658   1.963   3.716  10.198 -1.5258  0.0284  0.5839
  862MPD2    H312659   1.975   3.672   9.953  1.5407 -1.6258 -0.6922
  862MPD2     N12660   1.785   3.272   9.999  0.0792  0.1016 -0.2006
  862MPD2    H512661   1.798   3.258   9.899  1.8585 -1.8020  0.2836
  862MPD2    N112662   1.870   3.540  10.383  0.0660  0.3102 -0.4833
  862MPD2    H712663   1.815   3.472  10.435 -0.4729  1.2486  0.1771
  863MPD2     C12664   0.913   1.475  16.114 -0.0306  0.3841  0.4238
  863MPD2    C112665   0.834   1.488  16.226  0.3300 -0.0274  0.3525
  863MPD2    C212666   0.895   1.480  16.350  0.7239  0.6744  0.0701
  863MPD2    C312667   1.029   1.458  16.366  0.3713  0.2313 -0.0542
  863MPD2    C412668   1.115   1.448  16.255  0.0735  0.1327  0.8889
  863MPD2    C512669   1.050   1.463  16.134 -0.3991 -0.7716  0.0269
  863MPD2     H12670   0.841   1.479  16.445 -1.2799  0.3330 -1.0735
  863MPD2    H112671   1.219   1.415  16.257 -0.0486 -0.2918  0.4199
  863MPD2    H212672   0.869   1.490  16.016  0.0734  2.1569  0.6585
  863MPD2    H312673   1.113   1.459  16.046 -0.4135  0.5475 -0.0398
  863MPD2     N12674   1.083   1.436  16.494  0.1918 -0.6474 -1.1895
  863MPD2    H512675   1.015   1.428  16.570  1.8140 -0.1389  0.3105
  863MPD2    N112676   0.698   1.504  16.200 -0.1015  0.1837 -0.0362
  863MPD2    H712677   0.666   1.521  16.106 -1.3469 -0.1133  0.3439
  864MPD2     C12678   0.825   2.903  16.625 -0.3348 -0.4704  0.6559
  864MPD2    C112679   0.879   2.929  16.751 -0.4115 -0.1506  0.8685
  864MPD2    C212680   0.942   3.049  16.774 -0.0520  0.7949  0.7761
  864MPD2    C312681   0.967   3.133  16.666  0.1758  0.7471 -0.5032
  864MPD2    C412682   0.892   3.124  16.554  0.1251  0.7116 -0.4583
  864MPD2    C512683   0.823   3.007  16.535 -0.0779 -0.1477 -0.1563
  864MPD2     H12684   0.992   3.068  16.868  1.2383  3.1098 -0.3845
  864MPD2    H112685   0.905   3.189  16.468 -1.0936  0.5877 -0.7368
  864MPD2    H212686   0.768   2.813  16.601  0.9776 -1.1128 -0.0468
  864MPD2    H312687   0.775   3.002  16.438  0.1019  3.7205 -0.4540
  864MPD2     N12688   1.057   3.242  16.669  0.6165  0.5614 -0.1960
  864MPD2    H512689   1.060   3.298  16.585 -0.9135  0.9071 -0.0164
  864MPD2    N112690   0.884   2.820  16.845 -0.3240 -0.9340  0.1840
  864MPD2    H712691   0.848   2.728  16.822 -1.5599 -1.0891  2.7324
  865MPD2     C12692   1.279   3.156  15.959 -0.2243 -0.2559 -0.0309
  865MPD2    C112693   1.331   3.084  16.052  0.2193  0.4267  0.7938
  865MPD2    C212694   1.364   3.136  16.177  0.2295  0.3485 -0.4279
  865MPD2    C312695   1.329   3.266  16.198 -0.2307 -0.8627 -0.0621
  865MPD2    C412696   1.240   3.325  16.114 -0.8027  0.0024  0.2251
  865MPD2    C512697   1.227   3.278  15.988 -0.0118  1.2524 -0.1273
  865MPD2     H12698   1.413   3.078  16.255 -0.9621  0.8677  0.7188
  865MPD2    H112699   1.197   3.421  16.138 -1.3588 -0.0316 -0.6384
  865MPD2    H212700   1.265   3.123  15.857  0.7089  0.2976 -0.3409
  865MPD2    H312701   1.173   3.333  15.912  0.1961  2.3790  0.5401
  865MPD2     N12702   1.348   3.329  16.326 -0.2275  0.1628  0.0887
  865MPD2    H512703   1.309   3.421  16.344  0.3620  0.4485 -0.1159
  865MPD2    N112704   1.353   2.949  16.019 -0.4189  0.2456  0.0422
  865MPD2    H712705   1.332   2.916  15.925  1.6713 -2.8653  0.6711
  866MPD2     C12706   2.668   3.464  11.622 -0.4038 -0.0835 -0.1211
  866MPD2    C112707   2.700   3.471  11.485 -0.1775 -0.3547 -0.5134
  866MPD2    C212708   2.633   3.565  11.412  0.0047  0.3792  0.0809
  866MPD2    C312709   2.545   3.655  11.471 -0.8927 -0.2817  0.0735
  866MPD2    C412710   2.544   3.660  11.611  0.1295  0.1628 -0.3856
  866MPD2    C512711   2.609   3.565  11.685  0.1383 -0.2435 -0.3345
  866MPD2     H12712   2.620   3.567  11.305  1.3286 -2.0802 -0.1260
  866MPD2    H112713   2.490   3.738  11.663 -0.1859  0.3177 -0.9463
  866MPD2    H212714   2.727   3.407  11.692  0.4249 -2.1846 -2.5014
  866MPD2    H312715   2.594   3.550  11.792 -0.3285 -0.1889 -0.3892
  866MPD2     N12716   2.459   3.738  11.394 -0.4553  0.4621  0.5036
  866MPD2    H512717   2.402   3.810  11.438 -0.2209  1.6773 -1.2027
  866MPD2    N112718   2.781   3.372  11.432 -0.1310 -0.9113  0.4573
  866MPD2    H712719   2.828   3.308  11.496  0.3078 -0.0423  0.9959
  867MPD2     C12720   4.326   2.604  16.399  0.2608 -0.1041 -0.2925
  867MPD2    C112721   4.460   2.631  16.377  0.4284  0.5290 -0.5080
  867MPD2    C212722   4.534   2.678  16.483  0.2540  0.4132 -0.6756
  867MPD2    C312723   4.478   2.686  16.613  0.3325  0.4579 -0.7573
  867MPD2    C412724   4.351   2.650  16.634  0.5137  0.3051 -0.3210
  867MPD2    C512725   4.271   2.612  16.525  0.1434 -0.0218 -0.4890
  867MPD2     H12726   4.639   2.700  16.471  0.0732  2.1720  1.0402
  867MPD2    H112727   4.306   2.637  16.731 -2.0142 -1.3244 -1.7038
  867MPD2    H212728   4.266   2.562  16.319  2.0269 -0.6146 -1.3300
  867MPD2    H312729   4.166   2.592  16.542  0.0604 -0.2599 -1.3120
  867MPD2     N12730   4.561   2.704  16.728  0.1916  0.2482  0.7697
  867MPD2    H512731   4.513   2.701  16.817 -0.0746 -0.1083  0.6135
  867MPD2    N112732   4.517   2.597  16.248 -0.3194  0.2586  0.0199
  867MPD2    H712733   4.459   2.537  16.191 -0.2671 -1.9015  2.2517
  868MPD2     C12734   1.809   1.809  13.106 -0.2553  0.2221 -0.0601
  868MPD2    C112735   1.874   1.777  13.228  0.0164 -0.1706 -0.5264
  868MPD2    C212736   1.797   1.771  13.344 -0.1816 -0.1013 -0.2241
  868MPD2    C312737   1.657   1.803  13.353 -0.1326 -0.0325  0.1972
  868MPD2    C412738   1.591   1.824  13.239  0.6504  0.1460  0.9104
  868MPD2    C512739   1.671   1.827  13.122  0.6011 -0.1002  0.3056
  868MPD2     H12740   1.843   1.754  13.441  1.0719 -4.0119 -1.5109
  868MPD2    H112741   1.484   1.836  13.223  0.3816 -0.3156  2.3630
  868MPD2    H212742   1.856   1.809  13.009 -1.4224  2.2294 -0.6182
  868MPD2    H312743   1.609   1.843  13.034  1.3880 -0.7818 -0.3735
  868MPD2     N12744   1.599   1.799  13.480 -0.1775  0.9056  0.1849
  868MPD2    H512745   1.663   1.791  13.558  0.7978  0.3173 -0.6667
  868MPD2    N112746   2.010   1.735  13.213 -0.2632 -0.0730 -0.6648
  868MPD2    H712747   2.054   1.722  13.122 -0.7394  1.3900 -1.0952
  869MPD2     C12748   3.235   0.111   1.909  0.3728 -0.3544  0.5531
  869MPD2    C112749   3.175   0.005   1.848 -0.2506 -0.1331  0.2528
  869MPD2    C212750   3.118   0.026   1.724 -0.4383 -0.5152  0.4990
  869MPD2    C312751   3.145   0.141   1.656  0.3523  0.0641 -0.9092
  869MPD2    C412752   3.197   0.250   1.722 -0.1326  0.2789  0.5912
  869MPD2    C512753   3.238   0.236   1.850  0.1455 -0.6763  0.5205
  869MPD2     H12754   3.087   4.661   1.667  0.7946 -0.1238 -0.7547
  869MPD2    H112755   3.199   0.349   1.678 -0.4644 -0.4074 -0.9873
  869MPD2    H212756   3.276   0.109   2.010 -1.3572  0.7890  1.2720
  869MPD2    H312757   3.265   0.325   1.905  0.8514  0.2623 -1.3544
  869MPD2     N12758   3.110   0.155   1.525  0.2627  0.5291 -0.1608
  869MPD2    H512759   3.132   0.246   1.485  0.8784  0.4522  0.0123
  869MPD2    N112760   3.151   4.611   1.924  0.2816  0.4876 -0.2928
  869MPD2    H712761   3.195   4.607   2.015 -1.9735  0.3984  0.8029
  870MPD2     C12762   2.863   3.360   1.762 -0.6247  0.6016 -0.1211
  870MPD2    C112763   2.827   3.252   1.686 -0.4862  0.0020  0.0615
  870MPD2    C212764   2.703   3.234   1.632  0.0005  0.1247  0.1947
  870MPD2    C312765   2.611   3.338   1.650  0.8198  0.1546  0.4479
  870MPD2    C412766   2.642   3.448   1.728  0.1926  0.1496  0.1349
  870MPD2    C512767   2.769   3.454   1.782 -0.2063  0.0810 -0.8224
  870MPD2     H12768   2.690   3.160   1.554 -0.9042 -0.4548  0.8852
  870MPD2    H112769   2.570   3.529   1.733  1.1118  0.9714  0.0995
  870MPD2    H212770   2.960   3.372   1.809 -0.2037 -2.6025 -0.1723
  870MPD2    H312771   2.776   3.544   1.841  1.6234 -1.1643  0.8672
  870MPD2     N12772   2.485   3.319   1.581  0.2994 -0.4690  0.0767
  870MPD2    H512773   2.479   3.236   1.523  0.8298  0.4053 -1.2535
  870MPD2    N112774   2.924   3.154   1.663  0.2308 -0.2617  0.5672
  870MPD2    H712775   3.022   3.181   1.661 -0.0263  0.6868  0.8593
  871MPD2     C12776   3.837   2.864  16.652 -0.0036  0.5030  0.1358
  871MPD2    C112777   3.864   2.868  16.783 -0.3994 -0.1190 -0.6493
  871MPD2    C212778   3.910   2.761  16.853  0.5426 -0.1689 -0.6902
  871MPD2    C312779   3.938   2.642  16.793  0.4411  0.4279 -0.3740
  871MPD2    C412780   3.896   2.629  16.661 -0.0729 -0.1369 -0.2751
  871MPD2    C512781   3.851   2.739  16.595 -0.3339  0.3362  0.4811
  871MPD2     H12782   3.950   2.769  16.954 -3.5909  2.0005  0.7761
  871MPD2    H112783   3.895   2.533  16.610  4.1140 -0.1510 -0.2831
  871MPD2    H212784   3.786   2.945  16.600  1.7216  1.6142  0.1594
  871MPD2    H312785   3.823   2.736  16.490  0.7747 -1.0618  0.2320
  871MPD2     N12786   3.982   2.525  16.869 -0.0383 -0.6112 -0.5162
  871MPD2    H512787   3.997   2.536  16.969  1.4351  1.9028 -1.0137
  871MPD2    N112788   3.826   2.988  16.847  0.0388  0.1666 -0.9244
  871MPD2    H712789   3.801   3.062  16.783 -3.9911 -1.6857 -1.4913
  872MPD2     C12790   4.565   0.238  14.344  0.4074  0.5743 -0.3949
  872MPD2    C112791   4.586   0.329  14.237  0.0198 -0.2571 -0.2827
  872MPD2    C212792   4.481   0.412  14.200 -0.2605 -0.2215  0.3413
  872MPD2    C312793   4.362   0.419  14.279 -0.8542  0.0968  0.5910
  872MPD2    C412794   4.343   0.327  14.371  0.4820  0.1628 -0.1813
  872MPD2    C512795   4.443   0.241  14.408  0.3619  0.2213  0.0163
  872MPD2     H12796   4.496   0.488  14.124 -0.3133 -1.8062 -1.2446
  872MPD2    H112797   4.252   0.314  14.429  1.9301  2.1588  2.5146
  872MPD2    H212798   4.631   0.158  14.373 -0.9018 -0.6485 -0.7838
  872MPD2    H312799   4.420   0.163  14.480  1.0645  0.2739  0.3003
  872MPD2     N12800   4.260   0.528  14.255 -0.0073 -0.1724 -0.8222
  872MPD2    H512801   4.176   0.529  14.311  2.5931 -3.3225  3.1581
  872MPD2    N112802   4.709   0.325  14.167 -0.4833  0.6958 -0.2501
  872MPD2    H712803   4.707   0.363  14.073  1.9381  0.2876 -0.4633
  873MPD2     C12804   1.889   0.313   1.056  0.7804 -0.1641 -0.6895
  873MPD2    C112805   1.753   0.298   1.037 -0.6654  0.7960 -0.4509
  873MPD2    C212806   1.699   0.166   1.039  0.2960  0.6177 -0.6814
  873MPD2    C312807   1.780   0.058   1.058 -0.0881 -0.2267 -0.3298
  873MPD2    C412808   1.916   0.078   1.074  0.2449  0.5671 -0.5010
  873MPD2    C512809   1.971   0.204   1.059  0.0173 -0.1600  0.1115
  873MPD2     H12810   1.594   0.152   1.017  0.1439 -2.5209  2.1765
  873MPD2    H112811   1.981   4.716   1.098 -0.7542  0.4277  1.7261
  873MPD2    H212812   1.938   0.410   1.058  0.6584 -0.1033 -0.6530
  873MPD2    H312813   2.079   0.214   1.062 -0.2090  2.2829  0.2110
  873MPD2     N12814   1.726   4.644   1.066 -0.7954 -0.1634 -0.3456
  873MPD2    H512815   1.798   4.575   1.083 -1.4734 -1.0282 -0.9903
  873MPD2    N112816   1.683   0.413   1.000  0.1091  0.0588 -0.0144
  873MPD2    H712817   1.741   0.496   1.005 -0.8487  0.8090 -1.4241
  874MPD2     C12818   1.225   0.668  16.189 -0.1012 -0.2699 -0.1426
  874MPD2    C112819   1.316   0.668  16.295 -0.4049  0.6022  0.4274
  874MPD2    C212820   1.440   0.723  16.271  0.5548 -0.3880 -0.8212
  874MPD2    C312821   1.478   0.774  16.150 -0.1076  0.7818  0.8348
  874MPD2    C412822   1.388   0.770  16.047  0.1370  0.0787  0.8098
  874MPD2    C512823   1.263   0.724  16.073 -0.1175  0.1791  0.4107
  874MPD2     H12824   1.518   0.722  16.347  0.0270  1.0386 -0.2617
  874MPD2    H112825   1.421   0.808  15.951  1.9525 -0.0478  1.3776
  874MPD2    H212826   1.123   0.631  16.195 -0.0576 -0.8172 -2.8433
  874MPD2    H312827   1.198   0.714  15.987  1.5818 -0.5699 -0.7835
  874MPD2     N12828   1.605   0.825  16.141 -0.0815 -0.1557 -0.5228
  874MPD2    H512829   1.652   0.833  16.231 -2.7690  2.0590  0.6966
  874MPD2    N112830   1.273   0.601  16.413  0.0469 -0.3267 -0.7729
  874MPD2    H712831   1.181   0.559  16.416 -0.5111  0.8367 -1.9022
  875MPD2     C12832   2.125   3.546  14.910  0.0930  0.1310 -0.2515
  875MPD2    C112833   2.093   3.681  14.893 -0.0119  0.2820 -1.0433
  875MPD2    C212834   2.091   3.762  15.004  0.2855  0.4482  0.8960
  875MPD2    C312835   2.115   3.708  15.130  0.3706 -0.9616  0.0669
  875MPD2    C412836   2.132   3.569  15.141  0.0902  0.3573 -0.0753
  875MPD2    C512837   2.147   3.488  15.031 -0.3389 -0.5824 -1.3264
  875MPD2     H12838   2.068   3.868  14.993  1.4008  0.8445  2.2973
  875MPD2    H112839   2.157   3.526  15.237 -0.8145  0.4550  0.2056
  875MPD2    H212840   2.152   3.496  14.818  0.1709  0.4838 -0.4206
  875MPD2    H312841   2.182   3.386  15.040  1.7944  0.2207 -0.4371
  875MPD2     N12842   2.119   3.782  15.251 -0.2926  0.2590 -0.0485
  875MPD2    H512843   2.134   3.730  15.337 -2.1032 -0.9511 -0.4806
  875MPD2    N112844   2.057   3.735  14.761  0.6264 -0.0614  0.3290
  875MPD2    H712845   2.020   3.829  14.761 -1.4959 -0.8860  0.6355
  876MPD2     C12846   0.902   0.172  16.051  0.3107 -0.5203  0.3217
  876MPD2    C112847   1.035   0.143  16.016 -0.0858 -0.3233  0.4761
  876MPD2    C212848   1.080   0.010  16.019 -0.1155  0.2093  0.1957
  876MPD2    C312849   0.994   4.627  16.046 -0.5727 -0.9309  0.1750
  876MPD2    C412850   0.869   4.654  16.064 -0.3236  0.8745  0.7490
  876MPD2    C512851   0.819   0.063  16.069 -0.3205 -1.4127  1.2359
  876MPD2     H12852   1.186   4.714  16.005  0.1662  1.7583  0.5301
  876MPD2    H112853   0.792   4.580  16.080  0.9150 -1.0358 -2.0894
  876MPD2    H212854   0.863   0.273  16.041  1.4812  0.2699  3.6844
  876MPD2    H312855   0.716   0.085  16.091 -0.0088  0.8200  0.4605
  876MPD2     N12856   1.031   4.490  16.045  0.1800  0.2758 -0.4706
  876MPD2    H512857   0.967   4.420  16.080 -1.0839  0.7940 -1.7431
  876MPD2    N112858   1.117   0.247  15.965  0.6968  0.3790  0.1393
  876MPD2    H712859   1.082   0.342  15.963 -0.2068  0.0948  2.1376
  877MPD2     C12860   1.132   0.664  15.348  0.6241 -0.0521  0.2515
  877MPD2    C112861   1.265   0.631  15.385  0.1213  0.0915  0.4266
  877MPD2    C212862   1.358   0.607  15.286  0.5413  0.1904 -0.8867
  877MPD2    C312863   1.330   0.613  15.151  0.8620  0.3338  0.6293
  877MPD2    C412864   1.198   0.645  15.130 -0.0546  0.1093 -0.3294
  877MPD2    C512865   1.096   0.670  15.215 -0.2046  0.0772  0.7594
  877MPD2     H12866   1.457   0.580  15.321 -0.0581 -0.3012  0.4589
  877MPD2    H112867   1.182   0.659  15.024  0.6912  0.3162 -0.4184
  877MPD2    H212868   1.053   0.658  15.422  0.1849  0.3458 -0.1852
  877MPD2    H312869   0.994   0.696  15.188  0.6884  3.3182  0.4539
  877MPD2     N12870   1.403   0.587  15.032  0.0202 -0.0895 -0.5371
  877MPD2    H512871   1.362   0.598  14.939  2.0945 -1.3540 -1.6055
  877MPD2    N112872   1.307   0.604  15.519  0.0383 -0.4428  0.3678
  877MPD2    H712873   1.407   0.591  15.532  0.0768 -1.0550 -0.5606
  878MPD2     C12874   1.134   4.690  13.322 -0.6280 -0.4625 -0.2342
  878MPD2    C112875   1.175   0.100  13.327 -0.0070 -0.0268 -0.5357
  878MPD2    C212876   1.275   0.130  13.414  0.6796 -0.0325  0.6524
  878MPD2    C312877   1.339   0.028  13.489 -0.2154  0.7215  0.3797
  878MPD2    C412878   1.303   4.617  13.471 -0.4267  0.3063 -0.4240
  878MPD2    C512879   1.205   4.590  13.383 -0.9119  0.4595 -0.5372
  878MPD2     H12880   1.305   0.234  13.428 -1.6107  0.7147  0.0686
  878MPD2    H112881   1.358   4.530  13.505 -0.1916  0.4106 -0.5365
  878MPD2    H212882   1.051   4.659  13.259  0.1163  0.2982 -1.5995
  878MPD2    H312883   1.159   4.493  13.372  0.2487 -0.2829  1.0363
  878MPD2     N12884   1.448   0.053  13.577 -0.5670  0.2900  1.1623
  878MPD2    H512885   1.463   4.696  13.640  0.5180 -0.2958  0.1877
  878MPD2    N112886   1.111   0.198  13.248  0.5282  0.5934 -0.1864
  878MPD2    H712887   1.030   0.162  13.199 -1.6168  2.1435  2.2176
  879MPD2     C12888   1.867   1.471  16.919  0.2492 -0.6410  0.2654
  879MPD2    C112889   1.743   1.446  16.978 -0.0214 -0.1637 -0.4468
  879MPD2    C212890   1.649   1.367  16.918  0.1397  0.0779  0.1439
  879MPD2    C312891   1.676   1.305  16.795 -0.1000 -0.1139 -0.1828
  879MPD2    C412892   1.796   1.335  16.733 -0.1012 -0.1457 -0.3480
  879MPD2    C512893   1.893   1.403  16.800 -0.1229 -0.1701 -0.1299
  879MPD2     H12894   1.549   1.356  16.959 -0.0347 -0.6176 -0.4832
  879MPD2    H112895   1.815   1.290  16.637 -2.2705  0.4147 -1.0540
  879MPD2    H212896   1.941   1.540  16.959 -0.8450  1.0907 -0.6924
  879MPD2    H312897   1.989   1.422  16.754 -0.6368  0.7158 -0.8282
  879MPD2     N12898   1.585   1.221  16.728  0.0566 -0.7243 -0.1876
  879MPD2    H512899   1.616   1.192  16.636 -0.4177 -0.1650 -0.5215
  879MPD2    N112900   1.721   1.509  17.101  0.3557 -0.1573  0.2461
  879MPD2    H712901   1.788   1.578  17.133 -0.4907  0.6250  0.3440
  880MPD2     C12902   2.710   2.407   0.276 -0.5975  0.3822  0.2117
  880MPD2    C112903   2.791   2.511   0.323 -0.0577  1.0302  0.2779
  880MPD2    C212904   2.930   2.486   0.352  0.8555 -0.8846 -0.1650
  880MPD2    C312905   2.979   2.355   0.334  0.9111 -0.0115  0.3941
  880MPD2    C412906   2.899   2.256   0.280 -0.1923  0.3328 -0.7665
  880MPD2    C512907   2.766   2.281   0.257 -0.0492 -0.1706  0.1700
  880MPD2     H12908   3.000   2.563   0.380 -0.5866  0.7956 -1.1984
  880MPD2    H112909   2.938   2.159   0.252 -0.2146 -0.4158  1.8629
  880MPD2    H212910   2.606   2.425   0.250 -1.3800 -2.1869  1.4364
  880MPD2    H312911   2.706   2.196   0.227 -0.0590  0.0217 -0.3748
  880MPD2     N12912   3.113   2.318   0.372 -0.1616  0.5249 -0.1705
  880MPD2    H512913   3.170   2.398   0.396 -0.7545  0.7290  0.5719
  880MPD2    N112914   2.740   2.636   0.356  0.4655 -0.6499  0.2601
  880MPD2    H712915   2.809   2.706   0.380 -2.1011  1.6762  0.7833
  881MPD2     C12916   2.590   3.592   0.079 -0.0625 -0.0180 -0.4190
  881MPD2    C112917   2.681   3.499   0.070  0.6048 -0.6178 -0.4329
  881MPD2    C212918   2.649   3.382   0.132  0.3268  0.0285  0.3539
  881MPD2    C312919   2.545   3.361   0.219  0.5434  0.3787  0.1458
  881MPD2    C412920   2.457   3.462   0.234  0.4781 -0.4167 -0.2667
  881MPD2    C512921   2.486   3.581   0.167 -0.5632  0.5068 -0.0077
  881MPD2     H12922   2.700   3.291   0.102 -1.8166 -1.4287  1.1632
  881MPD2    H112923   2.364   3.458   0.289  1.0514 -1.6012  0.6280
  881MPD2    H212924   2.606   3.690   0.034  0.6609  1.0065  2.1024
  881MPD2    H312925   2.421   3.665   0.189 -0.6216  0.2697  0.7289
  881MPD2     N12926   2.514   3.235   0.279  0.2230  0.4684  0.4282
  881MPD2    H512927   2.422   3.224   0.321  0.0500  0.1110 -0.0392
  881MPD2    N112928   2.780   3.511  17.650  0.5545 -0.6750  0.1549
  881MPD2    H712929   2.770   3.590  17.587  2.1648  1.1382  2.1218
  882MPD2     C12930   1.279   0.042  14.408  0.1252  0.0132  0.1781
  882MPD2    C112931   1.260   0.130  14.507 -0.0272  0.6035  0.5067
  882MPD2    C212932   1.132   0.185  14.525  0.4774  0.3393  0.2426
  882MPD2    C312933   1.026   0.143  14.443  0.2531  0.0409 -0.2250
  882MPD2    C412934   1.051   0.054  14.348 -0.0396  0.0748  0.3554
  882MPD2    C512935   1.173   4.717  14.337  0.8113 -0.1248  0.0346
  882MPD2     H12936   1.113   0.266  14.595  3.3605 -0.2385  1.7111
  882MPD2    H112937   0.972   0.035  14.276 -0.7336 -0.1966  1.1849
  882MPD2    H212938   1.378   0.001  14.394  0.9765  2.7457 -1.7633
  882MPD2    H312939   1.172   4.629  14.274 -0.3961  0.0593 -0.2046
  882MPD2     N12940   0.894   0.198  14.452 -0.6876  0.1873 -0.1178
  882MPD2    H512941   0.823   0.164  14.389 -1.4402 -2.6236  2.2470
  882MPD2    N112942   1.367   0.171  14.598  0.4042 -0.0528  0.2271
  882MPD2    H712943   1.459   0.140  14.569 -0.6730 -1.5907 -1.6000
  883MPD2     C12944   3.293   0.844  16.391  0.3099  0.4716  0.5612
  883MPD2    C112945   3.363   0.822  16.273 -0.2240  0.2882  0.2924
  883MPD2    C212946   3.502   0.804  16.270 -0.0300 -0.6611  0.2934
  883MPD2    C312947   3.565   0.813  16.388 -0.2665  0.8825 -0.0230
  883MPD2    C412948   3.492   0.825  16.510 -0.0428 -0.9895  0.2817
  883MPD2    C512949   3.357   0.844  16.512  0.3508 -0.0191  0.9520
  883MPD2     H12950   3.563   0.802  16.180 -0.9732  0.5251 -0.3567
  883MPD2    H112951   3.539   0.837  16.607  0.9035  1.7543 -0.4934
  883MPD2    H212952   3.186   0.861  16.394  0.6160  2.1840  1.6023
  883MPD2    H312953   3.308   0.868  16.605 -1.7398 -1.9283  0.3371
  883MPD2     N12954   3.705   0.815  16.385 -0.3413 -0.2780 -0.0637
  883MPD2    H512955   3.747   0.798  16.294 -1.8925 -1.9263 -0.4488
  883MPD2    N112956   3.303   0.836  16.146  0.4435 -0.2963 -0.1138
  883MPD2    H712957   3.363   0.830  16.065 -0.9003 -0.9326 -1.0755
  884MPD2     C12958   0.700   1.307  14.996  0.0645 -0.7627 -0.3157
  884MPD2    C112959   0.672   1.391  14.889 -0.2330 -0.5575 -0.4511
  884MPD2    C212960   0.553   1.460  14.880  0.2748 -0.2406  0.0769
  884MPD2    C312961   0.458   1.440  14.975 -0.1612  0.5732  0.6004
  884MPD2    C412962   0.492   1.365  15.094 -0.1096  0.3886 -0.4672
  884MPD2    C512963   0.609   1.296  15.100 -0.2923  0.3550  0.4648
  884MPD2     H12964   0.537   1.516  14.789  1.9981 -2.0800 -1.3362
  884MPD2    H112965   0.431   1.355  15.184  0.7243  0.1249  0.0717
  884MPD2    H212966   0.792   1.250  15.004  0.7984  0.5755  0.7705
  884MPD2    H312967   0.634   1.227  15.180  1.4656  1.7301  1.0874
  884MPD2     N12968   0.340   1.521  14.968  0.1800  0.2194  0.1094
  884MPD2    H512969   0.323   1.563  14.878 -0.4988  3.4923  1.7611
  884MPD2    N112970   0.767   1.422  14.796 -0.0150 -0.3107 -0.3543
  884MPD2    H712971   0.743   1.471  14.710  1.4169  0.6257 -0.2122
  885MPD2     C12972   3.296   0.767  17.400 -0.8027 -0.2849  0.1718
  885MPD2    C112973   3.330   0.869  17.481  0.3606 -0.8738 -0.0412
  885MPD2    C212974   3.352   0.991  17.418  0.8402 -0.4991  0.0049
  885MPD2    C312975   3.343   1.006  17.276  0.5555  0.1020 -0.1312
  885MPD2    C412976   3.293   0.902  17.205  0.1363  0.1783 -0.0934
  885MPD2    C512977   3.283   0.779  17.261 -0.0273 -0.2114  0.0270
  885MPD2     H12978   3.385   1.075  17.477  0.4509  1.1574 -2.1260
  885MPD2    H112979   3.277   0.915  17.099 -1.5421  3.0456  0.5257
  885MPD2    H212980   3.278   0.670  17.444  2.5065 -0.4111  1.2467
  885MPD2    H312981   3.241   0.694  17.208  2.2540 -1.5676  0.3949
  885MPD2     N12982   3.384   1.127  17.211  0.3060 -0.5177  0.4676
  885MPD2    H512983   3.351   1.137  17.116  2.2615 -0.8924 -0.2467
  885MPD2    N112984   3.337   0.847  17.622 -0.2638 -0.1171 -0.6212
  885MPD2    H712985   3.333   0.749  17.649  0.8002  0.0338  0.1267
  886MPD2     C12986   4.314   0.230  15.265  0.3067  0.3241  0.3227
  886MPD2    C112987   4.443   0.191  15.261  0.8701 -0.0851 -0.3976
  886MPD2    C212988   4.539   0.266  15.195  0.3176 -0.3542 -0.0834
  886MPD2    C312989   4.502   0.384  15.133  0.3821  0.0581  1.2048
  886MPD2    C412990   4.368   0.422  15.129 -0.3849  0.6709  0.1448
  886MPD2    C512991   4.274   0.339  15.183 -0.8113 -0.1544  0.4953
  886MPD2     H12992   4.643   0.236  15.190  1.1721  2.6524 -0.1301
  886MPD2    H112993   4.334   0.515  15.084 -0.2542  0.6176 -0.0660
  886MPD2    H212994   4.235   0.168  15.305  0.5692  1.4162  2.4872
  886MPD2    H312995   4.170   0.366  15.193 -1.3719 -2.3060  0.6078
  886MPD2     N12996   4.596   0.466  15.061  0.3772  0.0256  0.5883
  886MPD2    H512997   4.555   0.544  15.010  0.3896 -0.1703  0.2826
  886MPD2    N112998   4.494   0.066  15.311 -0.6563 -0.0424  1.0104
  886MPD2    H712999   4.590   0.042  15.289 -0.0821 -1.0303  4.5935
  887MPD2     C13000   0.324   4.628  15.771 -0.0774  0.3561 -0.7587
  887MPD2    C113001   0.277   4.714  15.670  0.2984  0.9139 -0.0862
  887MPD2    C213002   0.319   0.123  15.657  0.2698  0.1875  0.5394
  887MPD2    C313003   0.425   0.164  15.734  0.5640  0.6450  0.0907
  887MPD2    C413004   0.473   0.082  15.835 -0.1676  0.0167 -0.1030
  887MPD2    C513005   0.415   4.679  15.860 -0.0836 -0.2339  0.2017
  887MPD2     H13006   0.279   0.187  15.579 -0.5225 -0.0288  0.7708
  887MPD2    H113007   0.555   0.116  15.897  0.3187 -0.4006 -0.5176
  887MPD2    H213008   0.299   4.523  15.781  1.1474  0.3154  1.8182
  887MPD2    H313009   0.440   4.631  15.954  0.5385  0.9862  0.6579
  887MPD2     N13010   0.468   0.298  15.706  0.2768  0.5116 -0.7951
  887MPD2    H513011   0.417   0.347  15.634  0.0846 -0.1789 -1.1262
  887MPD2    N113012   0.187   4.660  15.573  0.0859  0.4396 -0.0309
  887MPD2    H713013   0.165   4.713  15.489 -1.0453 -0.3779 -0.2568
  888MPD2     C13014   2.537   0.133  14.875  0.8873 -0.2347 -0.1001
  888MPD2    C113015   2.507   0.203  14.993  0.7177  0.2013  0.6165
  888MPD2    C213016   2.552   0.332  14.999  0.0986  0.3689 -0.0935
  888MPD2    C313017   2.629   0.382  14.900 -0.7877 -0.1991 -0.0093
  888MPD2    C413018   2.658   0.313  14.782 -0.4187 -0.1287  0.2542
  888MPD2    C513019   2.597   0.200  14.770  0.0440  0.0837  0.6904
  888MPD2     H13020   2.535   0.395  15.085 -0.9692 -0.3842  0.2560
  888MPD2    H113021   2.736   0.343  14.714  0.2601  0.1656  1.1531
  888MPD2    H213022   2.480   0.047  14.842  0.0906  1.2991 -2.7226
  888MPD2    H313023   2.608   0.140  14.681  0.2382 -0.0239  0.7874
  888MPD2     N13024   2.676   0.517  14.919 -0.3352  0.1198 -0.2758
  888MPD2    H513025   2.613   0.563  14.984  0.6489  2.3775 -0.9363
  888MPD2    N113026   2.438   0.148  15.099  0.3481 -0.0393  0.0153
  888MPD2    H713027   2.429   0.201  15.185 -0.5988 -0.4936  0.2057
  889MPD2     C13028   1.358   4.247  13.117 -0.2419 -0.2754 -0.5168
  889MPD2    C113029   1.452   4.274  13.218  1.3745  0.1876  0.2857
  889MPD2    C213030   1.482   4.410  13.236  0.9552 -0.3911 -0.1684
  889MPD2    C313031   1.448   4.511  13.152  0.0123  0.1419  0.4025
  889MPD2    C413032   1.356   4.482  13.057  0.2714  0.6706 -0.0829
  889MPD2    C513033   1.304   4.357  13.052  0.2169  0.0835  0.0757
  889MPD2     H13034   1.558   4.439  13.308 -0.4420 -1.1363  1.5942
  889MPD2    H113035   1.313   4.548  12.982  1.4332 -0.7051 -1.9538
  889MPD2    H213036   1.297   4.158  13.116 -0.7447  0.0737 -1.2692
  889MPD2    H313037   1.214   4.340  12.994 -0.1592  3.2335 -0.2478
  889MPD2     N13038   1.517   4.632  13.176 -0.2993  0.1480 -0.0369
  889MPD2    H513039   1.594   4.622  13.240 -0.0485 -1.0068 -0.5287
  889MPD2    N113040   1.489   4.176  13.318 -0.5900 -0.2448  0.1667
  889MPD2    H713041   1.531   4.208  13.405 -0.6079  0.1499  0.0309
  890MPD2     C13042   1.390   1.191  14.471  0.1303 -0.3237 -0.4645
  890MPD2    C113043   1.497   1.234  14.540 -0.4184  0.0450  0.4931
  890MPD2    C213044   1.538   1.167  14.657 -0.1433  0.3027  0.5418
  890MPD2    C313045   1.448   1.079  14.714  0.6102  0.0613 -0.5966
  890MPD2    C413046   1.338   1.042  14.650  0.4522 -0.1727  0.3800
  890MPD2    C513047   1.317   1.088  14.523  0.7397 -0.1002 -0.3950
  890MPD2     H13048   1.631   1.187  14.708 -1.2693  2.0679  1.9045
  890MPD2    H113049   1.281   0.955  14.680  1.7051 -1.1849 -0.1986
  890MPD2    H213050   1.360   1.228  14.374 -0.6748  2.7174  0.9458
  890MPD2    H313051   1.231   1.047  14.472  0.2190  0.2707  0.1855
  890MPD2     N13052   1.478   1.018  14.839 -0.7668 -0.4636  0.4273
  890MPD2    H513053   1.566   1.044  14.882 -1.0712  1.7672 -0.2851
  890MPD2    N113054   1.566   1.346  14.486  0.5786  0.3389  0.2513
  890MPD2    H713055   1.541   1.393  14.400  0.3441 -0.6688 -0.2328
  891MPD2     C13056   3.740   4.129  16.754 -0.1957  0.1970  0.0879
  891MPD2    C113057   3.694   4.254  16.765  0.0649  0.4820  0.1437
  891MPD2    C213058   3.779   4.348  16.826 -0.2283  0.0176 -0.3438
  891MPD2    C313059   3.910   4.314  16.850 -0.4814 -0.4954  0.7127
  891MPD2    C413060   3.951   4.185  16.832 -0.8018  0.3889 -0.2413
  891MPD2    C513061   3.869   4.090  16.786  0.4785  0.2741 -0.1116
  891MPD2     H13062   3.749   4.451  16.843 -0.2636 -0.2736  1.3132
  891MPD2    H113063   4.055   4.158  16.848 -1.0675  1.3694  3.0119
  891MPD2    H213064   3.675   4.052  16.713 -1.2719  0.4318  1.3620
  891MPD2    H313065   3.898   3.986  16.776 -0.4899 -0.2979  3.1958
  891MPD2     N13066   4.002   4.423  16.886 -0.1589  0.3654  0.2869
  891MPD2    H513067   3.962   4.517  16.889 -0.6634  0.0686  2.5347
  891MPD2    N113068   3.566   4.284  16.713 -0.6200  0.2540  0.0501
  891MPD2    H713069   3.516   4.218  16.656 -0.8921 -0.6556  1.3372
  892MPD2     C13070   0.656   1.161  14.448  0.9636  0.0365 -0.0261
  892MPD2    C113071   0.553   1.095  14.511 -0.1531 -0.0734  0.5632
  892MPD2    C213072   0.558   0.960  14.517 -0.1931 -0.7639  0.2444
  892MPD2    C313073   0.670   0.887  14.481 -0.4639  0.2100  0.0142
  892MPD2    C413074   0.774   0.951  14.414 -0.8871  0.0314  0.4268
  892MPD2    C513075   0.767   1.092  14.410  0.2519 -0.5891 -0.6510
  892MPD2     H13076   0.467   0.923  14.563  1.1246 -0.0535  3.4367
  892MPD2    H113077   0.850   0.890  14.367 -0.0158  0.7296  0.9013
  892MPD2    H213078   0.658   1.269  14.438  1.7679 -0.0268 -0.5327
  892MPD2    H313079   0.846   1.142  14.355  0.9101 -1.3076 -0.3466
  892MPD2     N13080   0.683   0.750  14.488  0.2907  0.4039  0.0177
  892MPD2    H513081   0.767   0.701  14.458  0.3087 -0.0959  0.8853
  892MPD2    N113082   0.425   1.143  14.545  0.0766 -0.0342  0.3285
  892MPD2    H713083   0.359   1.084  14.595  1.0908 -1.9670 -0.6444
  893MPD2     C13084   2.197   3.578   1.019  0.4888 -0.3168 -0.9332
  893MPD2    C113085   2.231   3.673   1.109  0.8017  0.5368 -0.2379
  893MPD2    C213086   2.137   3.769   1.155 -0.4094 -0.9412  0.3244
  893MPD2    C313087   2.013   3.772   1.087 -0.4935  1.0707 -0.4240
  893MPD2    C413088   1.981   3.671   0.995 -0.1251  0.0084 -0.4008
  893MPD2    C513089   2.069   3.574   0.962 -0.4206  0.5215  0.2940
  893MPD2     H13090   2.165   3.842   1.231 -1.6299 -0.8342  0.6720
  893MPD2    H113091   1.880   3.658   0.955 -0.2474  2.8727 -1.0413
  893MPD2    H213092   2.261   3.496   0.988  0.3518 -0.4045 -0.9830
  893MPD2    H313093   2.037   3.503   0.887 -0.0097 -0.5473  1.1434
  893MPD2     N13094   1.911   3.864   1.117  0.0175  0.4553 -0.1409
  893MPD2    H513095   1.827   3.859   1.062  1.5311 -1.1059 -2.3090
  893MPD2    N113096   2.354   3.658   1.166 -0.0475 -0.5095  0.1097
  893MPD2    H713097   2.413   3.586   1.127  0.2813  0.7278 -1.6816
  894MPD2     C13098   0.428   1.674   0.225  0.2615  0.0746  0.9349
  894MPD2    C113099   0.439   1.610   0.340  0.0352  0.1415  0.2737
  894MPD2    C213100   0.437   1.686   0.451 -0.4610  0.3161 -0.4079
  894MPD2    C313101   0.438   1.827   0.447 -0.2430  0.4272 -0.4515
  894MPD2    C413102   0.439   1.889   0.326  0.1538 -0.9646 -0.1548
  894MPD2    C513103   0.434   1.804   0.215  0.0654  0.3715  0.0865
  894MPD2     H13104   0.429   1.636   0.547 -0.4192  1.6355  0.2901
  894MPD2    H113105   0.430   1.996   0.316  0.5396 -1.0639 -1.5229
  894MPD2    H213106   0.402   1.624   0.132  0.5929  1.3052  0.1870
  894MPD2    H313107   0.419   1.852   0.119 -0.8222  1.1610  0.6161
  894MPD2     N13108   0.439   1.893   0.570 -0.3931 -0.4701 -0.0725
  894MPD2    H513109   0.446   1.839   0.655 -1.1731 -0.6368 -0.1100
  894MPD2    N113110   0.452   1.467   0.343  0.2082  0.5994 -0.0733
  894MPD2    H713111   0.470   1.428   0.435  0.8361 -0.1522 -0.5178
  895MPD2     C13112   3.817   0.300  14.062  0.0705 -1.0623 -0.1929
  895MPD2    C113113   3.838   0.294  13.928  0.4648 -0.5997 -0.2740
  895MPD2    C213114   3.967   0.284  13.879 -0.2092  0.5522  0.3800
  895MPD2    C313115   4.070   0.263  13.970 -0.1863  0.3066 -0.3733
  895MPD2    C413116   4.046   0.265  14.103 -0.0576  0.5316  0.1302
  895MPD2    C513117   3.918   0.286  14.151  0.7870 -0.2097  0.2488
  895MPD2     H13118   3.983   0.283  13.772  0.6317  1.3879  0.4922
  895MPD2    H113119   4.121   0.247  14.179 -0.0255 -2.0791 -0.5216
  895MPD2    H213120   3.722   0.313  14.113 -0.2209 -2.3357 -0.4115
  895MPD2    H313121   3.892   0.281  14.256  1.1226 -0.2384  0.3317
  895MPD2     N13122   4.203   0.250  13.921 -0.0807 -0.7712  0.1621
  895MPD2    H513123   4.213   0.278  13.824 -2.6626 -2.3099 -0.5585
  895MPD2    N113124   3.733   0.296  13.837 -0.3982 -1.1303 -0.5299
  895MPD2    H713125   3.766   0.288  13.741  1.1367  0.4671 -0.1239
  896MPD2     C13126   1.974   2.550   1.550 -0.1580  0.5691 -0.5843
  896MPD2    C113127   1.956   2.462   1.447 -0.2047  0.0847  0.1240
  896MPD2    C213128   1.851   2.378   1.426 -1.5579  0.7593  0.2492
  896MPD2    C313129   1.750   2.390   1.519 -0.2337  0.3692 -0.1491
  896MPD2    C413130   1.769   2.461   1.633  0.3733  0.8494  0.3127
  896MPD2    C513131   1.875   2.543   1.647  0.5298  0.0760  0.2595
  896MPD2     H13132   1.848   2.309   1.342 -0.2837  1.1464 -0.1214
  896MPD2    H113133   1.690   2.469   1.707  0.1652 -2.5048  0.4764
  896MPD2    H213134   2.052   2.625   1.559  0.5720 -0.3535  0.7525
  896MPD2    H313135   1.872   2.616   1.727 -1.2750 -0.6264  0.8316
  896MPD2     N13136   1.632   2.323   1.483 -0.5385  0.8020 -0.9246
  896MPD2    H513137   1.636   2.262   1.402  1.8933  1.8265 -1.5713
  896MPD2    N113138   2.064   2.459   1.358 -0.0077 -0.3324 -0.5583
  896MPD2    H713139   2.135   2.527   1.384  0.1509 -0.2563 -1.1889
  897MPD2     C13140   2.836   4.420  10.186  0.1254 -0.0717 -0.7138
  897MPD2    C113141   2.727   4.494  10.205 -0.5580 -0.3460  0.0105
  897MPD2    C213142   2.647   4.479  10.325  0.0608  0.3523  0.0385
  897MPD2    C313143   2.664   4.375  10.412  0.5183 -0.7439 -0.1106
  897MPD2    C413144   2.772   4.291  10.384  0.1476 -0.6435 -0.1736
  897MPD2    C513145   2.852   4.312  10.275 -0.4317 -0.4123 -0.5984
  897MPD2     H13146   2.555   4.535  10.333 -0.2006 -0.2033  0.8384
  897MPD2    H113147   2.794   4.205  10.447 -1.3773 -0.7021  0.2774
  897MPD2    H213148   2.905   4.445  10.107  0.8962  0.8443  0.2511
  897MPD2    H313149   2.931   4.240  10.257  1.1585  1.6912 -1.9550
  897MPD2     N13150   2.569   4.358  10.518 -0.0794 -0.4253  0.0894
  897MPD2    H513151   2.514   4.439  10.542  0.4285 -0.4421  1.3134
  897MPD2    N113152   2.703   4.586  10.105 -0.5975 -0.0563 -0.3972
  897MPD2    H713153   2.766   4.581  10.026  0.1272 -0.5970  0.2083
  898MPD2     C13154   4.683   0.324  17.634  0.8239  0.0418 -0.0491
  898MPD2    C113155   0.087   0.378  17.648 -0.0303 -0.9765  0.1819
  898MPD2    C213156   0.143   0.444  17.545 -0.6978 -0.1019  0.4244
  898MPD2    C313157   0.077   0.463  17.423  0.3289  0.4634 -0.5141
  898MPD2    C413158   4.669   0.407  17.411 -0.4291  0.5981  0.5666
  898MPD2    C513159   4.619   0.331  17.512 -0.2193 -0.1601  0.1999
  898MPD2     H13160   0.245   0.475  17.566 -0.8702  0.3262  0.6266
  898MPD2    H113161   4.622   0.431  17.316  1.0931 -0.2998 -0.4271
  898MPD2    H213162   4.626   0.287   0.032  0.7109  2.4872  0.9628
  898MPD2    H313163   4.523   0.280  17.503 -0.0183 -0.7985  1.8504
  898MPD2     N13164   0.140   0.552  17.337  0.4768  0.4328 -0.0277
  898MPD2    H513165   0.227   0.595  17.368  0.6996  1.5409 -2.2409
  898MPD2    N113166   0.163   0.357   0.080 -1.0032 -0.3515  0.8412
  898MPD2    H713167   0.261   0.379   0.073 -1.2592  0.3292 -0.6800
  899MPD2     C13168   0.814   0.974  16.827 -0.2409 -0.6036  0.1735
  899MPD2    C113169   0.897   1.046  16.915  1.2584  0.3474 -0.2818
  899MPD2    C213170   0.902   1.020  17.050 -0.5436  1.0968 -0.0577
  899MPD2    C313171   0.817   0.923  17.096  0.5793  0.0349  0.3182
  899MPD2    C413172   0.728   0.861  17.010  0.0413  0.7063  0.7141
  899MPD2    C513173   0.741   0.874  16.873  0.6396  0.2235 -0.3511
  899MPD2     H13174   0.975   1.068  17.113 -0.5601  1.0009  0.0337
  899MPD2    H113175   0.664   0.782  17.048  0.4194  1.0035  1.9849
  899MPD2    H213176   0.808   1.000  16.722  2.0424 -0.0705  0.1729
  899MPD2    H313177   0.685   0.804  16.812  1.7747 -1.2245  0.2684
  899MPD2     N13178   0.804   0.895  17.230 -0.5764  0.2066 -0.4725
  899MPD2    H513179   0.720   0.849  17.262  0.2551  0.5895  2.2255
  899MPD2    N113180   0.979   1.150  16.865  0.1198 -0.3790 -0.3999
  899MPD2    H713181   0.990   1.156  16.764 -1.0534  0.6154 -0.4646
  900MPD2     C13182   0.730   3.041  12.843 -0.8342 -0.0710 -0.8872
  900MPD2    C113183   0.649   2.962  12.764  0.0036  0.2228 -0.2226
  900MPD2    C213184   0.514   2.994  12.756 -0.2875  0.4358 -0.2913
  900MPD2    C313185   0.458   3.080  12.840  0.1165  0.0807 -0.6331
  900MPD2    C413186   0.534   3.145  12.936 -0.4633  0.5045 -0.2122
  900MPD2    C513187   0.671   3.130  12.932 -0.1876  0.4433 -0.7744
  900MPD2     H13188   0.447   2.945  12.687  1.0841 -0.0124 -1.3082
  900MPD2    H113189   0.497   3.211  13.013  1.6028  1.6142 -0.1590
  900MPD2    H213190   0.839   3.041  12.837 -0.6937 -0.6325  1.5657
  900MPD2    H313191   0.727   3.189  13.004 -0.4056  1.3779 -1.3752
  900MPD2     N13192   0.321   3.105  12.830 -0.1101 -0.4146 -0.3803
  900MPD2    H513193   0.273   3.071  12.747 -1.9526 -3.3561  1.9102
  900MPD2    N113194   0.706   2.853  12.681 -0.3943  0.2302 -0.1756
  900MPD2    H713195   0.801   2.823  12.698 -0.6812  0.1357  1.2649
  901MPD2     C13196   0.293   1.878  12.538  0.4507 -0.7570 -0.1431
  901MPD2    C113197   0.418   1.862  12.595  0.4081 -0.0405  0.2803
  901MPD2    C213198   0.515   1.961  12.586 -0.1179 -0.8569 -0.1301
  901MPD2    C313199   0.478   2.079  12.528  0.1826 -0.0186 -0.3720
  901MPD2    C413200   0.356   2.086  12.462  0.9010  0.5543  0.7639
  901MPD2    C513201   0.265   1.991  12.475 -0.6392 -0.5490 -0.3245
  901MPD2     H13202   0.614   1.957  12.630 -0.2187  0.5444  0.2098
  901MPD2    H113203   0.326   2.174  12.407  2.0777  0.3262 -0.2237
  901MPD2    H213204   0.212   1.806  12.539 -1.1716  1.0431 -2.5269
  901MPD2    H313205   0.170   2.001  12.424 -1.6530  0.4576  1.7596
  901MPD2     N13206   0.572   2.187  12.536 -0.3594  0.0460  0.8039
  901MPD2    H513207   0.655   2.175  12.593  0.3856  0.8729 -0.0962
  901MPD2    N113208   0.446   1.736  12.643 -0.3622  0.1081 -0.3695
  901MPD2    H713209   0.369   1.670  12.639 -1.1347  1.0360 -0.7970
  902MPD2     C13210   3.960   0.424  12.375  0.3209 -0.1832 -0.3756
  902MPD2    C113211   3.979   0.481  12.251 -0.1289  0.5977 -0.2244
  902MPD2    C213212   4.028   0.403  12.151  0.1105 -0.7935  0.5192
  902MPD2    C313213   4.064   0.267  12.170 -0.1164  0.5679  0.6324
  902MPD2    C413214   4.033   0.210  12.293  0.2906  0.1576  0.3184
  902MPD2    C513215   3.977   0.288  12.394  0.2993 -0.7202  0.1538
  902MPD2     H13216   4.045   0.450  12.055 -0.7541  1.3527  1.4134
  902MPD2    H113217   4.060   0.110  12.323  1.3357  0.6026  0.8942
  902MPD2    H213218   3.936   0.485  12.461  0.0103 -0.2288 -0.4294
  902MPD2    H313219   3.964   0.250  12.494 -0.8137 -1.0009 -0.0972
  902MPD2     N13220   4.123   0.192  12.062  0.3073  1.1786 -0.2076
  902MPD2    H513221   4.127   0.091  12.077  0.6582  1.1457 -0.5447
  902MPD2    N113222   3.953   0.618  12.226 -0.3243  0.5176  0.1823
  902MPD2    H713223   3.936   0.671  12.311 -0.0219 -0.9135  1.1444
  903MPD2     C13224   3.897   4.371  11.436 -0.2204  0.4075  0.0089
  903MPD2    C113225   3.885   4.445  11.551 -0.2712 -0.1905  0.2426
  903MPD2    C213226   3.758   4.451  11.610  0.4106 -0.7481 -0.6850
  903MPD2    C313227   3.654   4.387  11.549  0.1760 -0.9187 -0.3687
  903MPD2    C413228   3.660   4.320  11.424 -0.5217  0.1540  0.2662
  903MPD2    C513229   3.784   4.318  11.366  0.0299  0.4134 -0.0153
  903MPD2     H13230   3.742   4.510  11.700  0.9383  0.1670 -1.1957
  903MPD2    H113231   3.578   4.265  11.379 -0.0835 -0.4054  0.1347
  903MPD2    H213232   3.990   4.384  11.383  0.0700 -2.0781 -0.0827
  903MPD2    H313233   3.793   4.265  11.271 -1.4906  1.9464 -1.0174
  903MPD2     N13234   3.533   4.406  11.614 -0.2667  0.1462 -0.4079
  903MPD2    H513235   3.537   4.437  11.710  1.2216  0.5686 -0.6100
  903MPD2    N113236   3.996   4.516  11.597 -0.0303 -0.3842  0.1600
  903MPD2    H713237   4.080   4.509  11.540 -0.2135  0.3874 -0.2058
  904MPD2     C13238   3.748   4.084  14.123  0.4539  0.1356 -0.5144
  904MPD2    C113239   3.779   4.218  14.100  0.1820  0.6309  0.2208
  904MPD2    C213240   3.904   4.270  14.131  0.1129 -0.0376 -0.3988
  904MPD2    C313241   4.000   4.192  14.198  0.4543  0.8681 -0.0514
  904MPD2    C413242   3.973   4.057  14.212 -0.4380 -0.0945 -0.2814
  904MPD2    C513243   3.852   4.005  14.175 -1.0657  0.3850  0.9558
  904MPD2     H13244   3.919   4.377  14.123  2.8247 -0.5233 -1.9698
  904MPD2    H113245   4.039   3.991  14.268 -0.8150 -1.5253 -1.5383
  904MPD2    H213246   3.650   4.042  14.109  0.4204  0.5119 -1.4019
  904MPD2    H313247   3.830   3.908  14.218 -0.2845  0.4767  1.5407
  904MPD2     N13248   4.118   4.254  14.246 -0.4807 -0.1736  0.3586
  904MPD2    H513249   4.131   4.350  14.216  0.3850 -0.4166 -0.0359
  904MPD2    N113250   3.688   4.309  14.042 -0.2641 -0.1793  0.3679
  904MPD2    H713251   3.729   4.396  14.007 -2.4048  0.9599  0.6443
  905MPD2     C13252   3.780   4.556  13.452 -1.0090  0.0722 -0.2496
  905MPD2    C113253   3.806   4.616  13.569 -0.3766  0.3309  0.7670
  905MPD2    C213254   3.926   4.687  13.587  0.2964  0.0733 -0.3536
  905MPD2    C313255   4.029   4.662  13.498 -0.6107 -0.5777 -0.1648
  905MPD2    C413256   3.994   4.586  13.388  0.7895 -0.1523  0.2410
  905MPD2    C513257   3.871   4.544  13.358 -0.7383  0.1465  0.3049
  905MPD2     H13258   3.948   0.014  13.681 -0.5599  0.7505 -0.4974
  905MPD2    H113259   4.061   4.565  13.306  0.4455 -1.5342  0.3155
  905MPD2    H213260   3.679   4.520  13.435 -1.9742  1.8448  1.8273
  905MPD2    H313261   3.860   4.486  13.268  0.6292 -1.4503  1.1728
  905MPD2     N13262   4.161   4.686  13.526 -0.5251 -0.2175 -0.1645
  905MPD2    H513263   4.225   4.638  13.464  0.4741 -0.4231  1.0272
  905MPD2    N113264   3.707   4.604  13.669  0.2256 -0.0152 -0.2349
  905MPD2    H713265   3.620   4.563  13.636  0.8716 -1.4805 -0.1352
  906MPD2     C13266   1.282   4.571  11.468 -0.6171  0.0036  0.3169
  906MPD2    C113267   1.356   4.505  11.372  0.0261  0.8134  0.1621
  906MPD2    C213268   1.398   4.373  11.390  0.2870  0.2894  0.0462
  906MPD2    C313269   1.368   4.309  11.511 -0.1490 -0.6269  0.1589
  906MPD2    C413270   1.298   4.380  11.605 -0.2338 -0.6929 -0.7515
  906MPD2    C513271   1.251   4.504  11.583  0.1916 -0.0955  0.5121
  906MPD2     H13272   1.461   4.326  11.316 -2.0594  0.2963 -1.9661
  906MPD2    H113273   1.269   4.332  11.698 -1.0302 -1.2646 -1.2956
  906MPD2    H213274   1.251   4.674  11.461  0.2741  0.2537 -0.0720
  906MPD2    H313275   1.181   4.542  11.656  2.8968  2.6165  1.7272
  906MPD2     N13276   1.383   4.172  11.532 -0.4553 -0.1782 -0.7619
  906MPD2    H513277   1.322   4.130  11.602 -0.9113  2.2902  0.2922
  906MPD2    N113278   1.385   4.565  11.244 -0.0690 -0.2575  0.5441
  906MPD2    H713279   1.445   4.519  11.176 -0.1819 -0.3274  0.4920
  907MPD2     C13280   4.675   3.834  16.234 -0.2779 -0.0308  0.4904
  907MPD2    C113281   0.029   3.758  16.145  0.2346 -0.1082  0.6773
  907MPD2    C213282   0.148   3.702  16.198 -0.9812  0.5021 -0.4037
  907MPD2    C313283   0.194   3.736  16.332  0.0926 -1.0745 -0.2185
  907MPD2    C413284   0.113   3.814  16.414 -0.0735  0.5000 -0.7057
  907MPD2    C513285   4.717   3.863  16.362 -0.1280 -0.5278 -0.3915
  907MPD2     H13286   0.210   3.627  16.150 -0.5648  2.4609 -2.9552
  907MPD2    H113287   0.141   3.821  16.519 -1.3187  1.9873 -0.4748
  907MPD2    H213288   4.587   3.879  16.189  0.0142 -1.3995 -1.4620
  907MPD2    H313289   4.636   3.905  16.421  0.4950 -1.7232  1.2886
  907MPD2     N13290   0.316   3.678  16.376  0.2016 -0.1188  0.7644
  907MPD2    H513291   0.349   3.594  16.329  0.5712 -0.6259  1.9283
  907MPD2    N113292   4.699   3.727  16.015  0.4312  0.1331  0.1697
  907MPD2    H713293   0.048   3.672  15.966  0.7583  1.3816 -0.7784
  908MPD2     C13294   2.746   4.232   9.348 -0.3552 -0.2716 -0.3362
  908MPD2    C113295   2.837   4.246   9.453  0.3167  0.6700  0.0842
  908MPD2    C213296   2.812   4.349   9.542 -0.7556  0.3864 -0.4379
  908MPD2    C313297   2.705   4.437   9.527 -0.2005 -0.8334 -0.4386
  908MPD2    C413298   2.626   4.429   9.410  0.4965  0.2422  0.5685
  908MPD2    C513299   2.647   4.323   9.324  0.1170  0.2478  0.5411
  908MPD2     H13300   2.866   4.356   9.636  2.2876  1.3939 -2.2733
  908MPD2    H113301   2.551   4.505   9.387 -0.8307 -1.0887  0.5168
  908MPD2    H213302   2.762   4.157   9.271  2.7102  1.4689 -1.4023
  908MPD2    H313303   2.590   4.309   9.232 -2.5180  1.9304  1.9132
  908MPD2     N13304   2.695   4.546   9.617  0.0139 -0.5296  0.0821
  908MPD2    H513305   2.751   4.532   9.701  1.2408  1.5870 -0.3776
  908MPD2    N113306   2.940   4.148   9.482  0.4781 -0.2642  0.1559
  908MPD2    H713307   2.996   4.167   9.565  1.4162  0.3456 -0.6192
  909MPD2     C13308   3.214   2.097  12.209 -0.0801 -0.2448  0.0596
  909MPD2    C113309   3.194   2.200  12.126 -0.1015  0.3795  0.0721
  909MPD2    C213310   3.105   2.299  12.170 -0.1150 -0.4950  0.4672
  909MPD2    C313311   3.029   2.285  12.289 -0.2608 -0.2090  0.2554
  909MPD2    C413312   3.051   2.175  12.366 -0.2690 -0.7800 -0.6957
  909MPD2    C513313   3.137   2.081  12.324 -0.1804  0.2867  0.5470
  909MPD2     H13314   3.091   2.389  12.112  0.3400  0.0059  1.1345
  909MPD2    H113315   3.004   2.166  12.463 -0.2291 -0.7986 -0.6781
  909MPD2    H213316   3.280   2.012  12.193  0.7841  0.5781 -0.6988
  909MPD2    H313317   3.165   2.002  12.393 -1.9082 -0.6169  0.2112
  909MPD2     N13318   2.940   2.391  12.324  0.0626 -0.1398 -0.0281
  909MPD2    H513319   2.939   2.472  12.262  0.8074 -0.0273  0.1040
  909MPD2    N113320   3.279   2.221  12.014  0.3490 -0.0570 -0.2325
  909MPD2    H713321   3.260   2.307  11.965  0.1188  0.1146  0.1546
  910MPD2     C13322   4.351   4.487  16.350  0.8623  0.4563 -0.1997
  910MPD2    C113323   4.256   4.392  16.359 -0.0613  0.2185 -0.0617
  910MPD2    C213324   4.165   4.371  16.258  0.6645 -0.3926 -0.1273
  910MPD2    C313325   4.180   4.441  16.137  0.0343  0.2660 -0.1346
  910MPD2    C413326   4.285   4.524  16.127  0.5080  0.3544 -0.3190
  910MPD2    C513327   4.371   4.544  16.231 -0.5043 -0.0749 -0.1077
  910MPD2     H13328   4.090   4.295  16.275 -0.5031  0.8469  0.3113
  910MPD2    H113329   4.289   4.579  16.034  1.3196  0.7233 -0.0655
  910MPD2    H213330   4.424   4.513  16.426  0.5744 -1.5170  0.7478
  910MPD2    H313331   4.449   4.618  16.216  0.8599 -1.8548 -1.7854
  910MPD2     N13332   4.098   4.424  16.022  0.2308 -0.1843  0.2144
  910MPD2    H513333   4.118   4.480  15.939  1.9816  1.2461  1.6053
  910MPD2    N113334   4.260   4.301  16.472  0.0168  0.4406 -0.2494
  910MPD2    H713335   4.213   4.212  16.461 -1.1419  0.5549  3.5838
  911MPD2     C13336   2.075   4.144  16.287  0.4694 -0.0952  0.4833
  911MPD2    C113337   2.086   4.208  16.410 -0.2983 -0.4149 -0.1556
  911MPD2    C213338   2.001   4.318  16.445 -0.1369 -0.4611 -0.3399
  911MPD2    C313339   1.903   4.356  16.347  0.3028 -0.0497 -0.3473
  911MPD2    C413340   1.883   4.286  16.227 -0.0625 -0.1933 -0.7028
  911MPD2    C513341   1.970   4.178  16.205  1.3813 -0.1740  1.1323
  911MPD2     H13342   2.015   4.374  16.537  0.4345 -1.8384  0.4071
  911MPD2    H113343   1.803   4.317  16.161  2.0767  0.6552 -2.9017
  911MPD2    H213344   2.129   4.053  16.264 -0.2015 -0.3036 -0.2913
  911MPD2    H313345   1.963   4.122  16.113  2.8110  1.2726  0.1536
  911MPD2     N13346   1.839   4.480  16.355  0.1551  0.0945  0.3533
  911MPD2    H513347   1.754   4.488  16.299  1.8253  3.1005 -1.7761
  911MPD2    N113348   2.190   4.162  16.495  0.3917 -0.7264  0.1926
  911MPD2    H713349   2.236   4.074  16.473  0.7241 -1.1093  2.4695
  912MPD2     C13350   1.540   4.458  15.906 -0.1634  0.8677 -0.1955
  912MPD2    C113351   1.527   4.460  16.043  0.6054  0.4535 -0.2049
  912MPD2    C213352   1.537   4.349  16.117 -0.0202 -0.4546 -0.2749
  912MPD2    C313353   1.562   4.231  16.050  0.1864 -0.0948 -0.0556
  912MPD2    C413354   1.589   4.231  15.915  0.4058  0.2687 -0.6852
  912MPD2    C513355   1.564   4.346  15.840  0.1478 -0.0625 -0.5145
  912MPD2     H13356   1.525   4.347  16.225  1.8536  1.0309 -0.0518
  912MPD2    H113357   1.630   4.153  15.852  0.1182 -0.2149 -0.2705
  912MPD2    H213358   1.523   4.545  15.844 -2.1645  1.4828  1.2317
  912MPD2    H313359   1.572   4.353  15.733 -1.5975  1.0312 -0.5747
  912MPD2     N13360   1.567   4.109  16.122 -0.1918 -0.0756  0.0708
  912MPD2    H513361   1.554   4.116  16.222 -1.0910  0.4881 -0.0855
  912MPD2    N113362   1.514   4.585  16.105 -0.4127  0.0959  0.7234
  912MPD2    H713363   1.522   4.667  16.046 -0.2276  0.5262  1.3516
  913MPD2     C13364   2.016   0.952  10.689 -0.1653 -0.6211 -0.5468
  913MPD2    C113365   2.128   1.024  10.719  0.0667 -0.2992  0.6211
  913MPD2    C213366   2.180   1.116  10.623 -0.3040 -0.7176  0.1537
  913MPD2    C313367   2.110   1.149  10.507  0.5444 -0.5411 -0.2499
  913MPD2    C413368   1.991   1.078  10.482 -0.1623 -0.3572  0.2316
  913MPD2    C513369   1.958   0.977  10.570  0.2732 -0.5035 -1.1881
  913MPD2     H13370   2.268   1.176  10.642 -2.0175  1.7597  0.2243
  913MPD2    H113371   1.926   1.085  10.396  0.3410 -1.0566 -0.2151
  913MPD2    H213372   1.971   0.877  10.753  0.9012  0.8315  1.9216
  913MPD2    H313373   1.869   0.920  10.547  0.5031 -1.9250  1.4181
  913MPD2     N13374   2.152   1.235  10.402  0.3104  0.0005 -0.0362
  913MPD2    H513375   2.086   1.253  10.326 -1.1752  2.9412  1.9602
  913MPD2    N113376   2.190   0.989  10.840 -0.3455 -0.5129 -0.2555
  913MPD2    H713377   2.147   0.907  10.882 -1.9164  0.2754 -0.3252
  914MPD2     C13378   0.183   1.195  12.117  0.5333 -0.8232  0.3384
  914MPD2    C113379   0.268   1.302  12.112  0.4375  0.5104  0.7215
  914MPD2    C213380   0.350   1.326  12.219  0.8673 -0.1099  0.5563
  914MPD2    C313381   0.340   1.259  12.337  0.4974  0.3267 -0.5669
  914MPD2    C413382   0.254   1.152  12.346  0.3023  0.1591 -0.4278
  914MPD2    C513383   0.171   1.129  12.240  0.3659  0.3528  0.0535
  914MPD2     H13384   0.416   1.412  12.215  0.2867  0.3557  1.1949
  914MPD2    H113385   0.218   1.105  12.437  0.4440 -1.8312 -1.3978
  914MPD2    H213386   0.117   1.172  12.033  0.8963  1.5892 -0.5991
  914MPD2    H313387   0.102   1.046  12.254  0.0761  0.7159  0.7507
  914MPD2     N13388   0.427   1.307  12.443  0.1822 -0.3581  0.0417
  914MPD2    H513389   0.490   1.385  12.430  0.6505 -0.5615  1.0628
  914MPD2    N113390   0.275   1.385  11.992 -0.2174  0.2728 -0.0408
  914MPD2    H713391   0.222   1.359  11.909 -1.5392 -0.0050  0.9076
  915MPD2     C13392   4.073   1.573  15.765 -0.5629 -0.4917  0.0554
  915MPD2    C113393   3.939   1.565  15.724 -0.2524 -0.6570 -0.5011
  915MPD2    C213394   3.849   1.588  15.830 -0.1054 -0.2986  0.6437
  915MPD2    C313395   3.888   1.606  15.960 -0.5480 -0.1843 -0.1407
  915MPD2    C413396   4.023   1.605  15.994  0.5518  0.4572 -0.3853
  915MPD2    C513397   4.118   1.585  15.893 -0.6132  0.6258 -0.1360
  915MPD2     H13398   3.743   1.589  15.810 -0.3614 -0.9896  1.9476
  915MPD2    H113399   4.057   1.608  16.097 -0.7041  1.2503  0.0191
  915MPD2    H213400   4.158   1.556  15.700 -1.7859  0.4007 -1.7612
  915MPD2    H313401   4.224   1.580  15.912 -1.1054 -2.1969  1.9376
  915MPD2     N13402   3.791   1.632  16.060 -0.4749 -0.3111 -0.0620
  915MPD2    H513403   3.705   1.674  16.027  0.1653 -0.1756 -1.5483
  915MPD2    N113404   3.900   1.535  15.590  0.2586 -0.9721  0.5159
  915MPD2    H713405   3.977   1.506  15.531  0.0458  0.5194 -0.5052
  916MPD2     C13406   1.265   4.130  15.458 -0.3053  0.4225  0.0278
  916MPD2    C113407   1.315   4.057  15.560 -0.0953  0.2455  0.0550
  916MPD2    C213408   1.407   3.955  15.531  0.4793 -0.6343 -0.1080
  916MPD2    C313409   1.451   3.941  15.402 -0.2692 -0.6200  1.0846
  916MPD2    C413410   1.403   4.023  15.302  0.5215  0.1473 -0.5008
  916MPD2    C513411   1.305   4.114  15.334 -0.1335 -0.3594  0.1497
  916MPD2     H13412   1.454   3.890  15.602  2.1200 -0.1636 -0.7611
  916MPD2    H113413   1.422   4.017  15.195 -3.1300 -0.0143 -1.1444
  916MPD2    H213414   1.186   4.202  15.477 -0.5125  0.2606 -0.2124
  916MPD2    H313415   1.275   4.183  15.256 -1.4524 -0.8105  0.2532
  916MPD2     N13416   1.533   3.825  15.378 -0.1021 -0.2265  0.2288
  916MPD2    H513417   1.559   3.768  15.458  0.2402  0.2968  0.4947
  916MPD2    N113418   1.275   4.094  15.690 -0.0300  0.6249  0.0363
  916MPD2    H713419   1.212   4.174  15.694  2.6383  2.7017  0.1784
  917MPD2     C13420   1.919   2.108  11.017  0.6907 -0.1542 -0.2298
  917MPD2    C113421   1.986   2.185  11.115 -0.1836 -0.3728  0.8221
  917MPD2    C213422   2.054   2.302  11.079 -0.3142 -0.4293 -0.2596
  917MPD2    C313423   2.071   2.327  10.946 -0.0492  0.2222  0.2746
  917MPD2    C413424   2.008   2.245  10.852 -0.7338 -0.7665 -0.1050
  917MPD2    C513425   1.924   2.142  10.881  0.4490 -0.0610 -0.5118
  917MPD2     H13426   2.086   2.380  11.146 -0.5691 -2.3134  2.0588
  917MPD2    H113427   2.017   2.267  10.746  1.0146 -0.8574  0.0287
  917MPD2    H213428   1.875   2.012  11.039  1.2491 -0.2774  0.3413
  917MPD2    H313429   1.876   2.087  10.800 -0.5006  0.6175 -0.4091
  917MPD2     N13430   2.144   2.440  10.898 -0.2865 -0.2958  0.6279
  917MPD2    H513431   2.141   2.453  10.798 -1.1868  2.1504  0.9524
  917MPD2    N113432   1.959   2.145  11.246  0.1642 -0.5677 -0.0883
  917MPD2    H713433   1.896   2.066  11.253 -0.2619 -0.1069  1.1611
  918MPD2     C13434   2.245   2.401  12.240 -0.3895  0.7005 -0.0017
  918MPD2    C113435   2.287   2.276  12.189 -0.1967  0.8206 -0.1752
  918MPD2    C213436   2.215   2.213  12.095  0.2715  0.0992 -0.5035
  918MPD2    C313437   2.105   2.272  12.035 -0.2427 -0.7793 -0.0143
  918MPD2    C413438   2.074   2.395  12.080 -0.2206  0.5503  0.1631
  918MPD2    C513439   2.129   2.449  12.192 -0.0866  0.3488  0.5749
  918MPD2     H13440   2.255   2.116  12.066  2.6050  0.9701 -0.2231
  918MPD2    H113441   1.994   2.446  12.028  1.3572  2.1924 -0.6773
  918MPD2    H213442   2.289   2.457  12.322 -1.3660 -1.8180  2.2272
  918MPD2    H313443   2.099   2.544  12.234  1.7813  2.3583 -2.5806
  918MPD2     N13444   2.039   2.200  11.924  0.3788  0.0257 -0.1709
  918MPD2    H513445   2.084   2.113  11.899  1.6326  0.7856 -0.5732
  918MPD2    N113446   2.412   2.220  12.221  0.4078  0.3040 -0.6021
  918MPD2    H713447   2.432   2.136  12.167 -1.2764 -0.0589 -0.6556
  919MPD2     C13448   2.264   0.995  11.473 -0.2890 -0.1722 -0.3662
  919MPD2    C113449   2.174   0.910  11.407 -0.3461  0.4887 -0.0932
  919MPD2    C213450   2.090   0.964  11.311 -0.3276 -0.3445 -0.5006
  919MPD2    C313451   2.109   1.087  11.262  0.1372 -1.4713 -0.1577
  919MPD2    C413452   2.207   1.171  11.330  0.2469 -0.2744 -0.4826
  919MPD2    C513453   2.279   1.127  11.438 -0.2187  0.4645 -0.1275
  919MPD2     H13454   2.021   0.892  11.269  0.6730  0.0441 -2.8153
  919MPD2    H113455   2.214   1.273  11.295 -0.8970 -0.5904 -1.6400
  919MPD2    H213456   2.318   0.969  11.563 -0.3738  1.3650  0.1355
  919MPD2    H313457   2.347   1.200  11.482  0.1221  1.1135 -1.7228
  919MPD2     N13458   2.038   1.138  11.150  0.0572 -0.2154  0.2145
  919MPD2    H513459   2.052   1.234  11.119  0.2956 -0.5991 -0.8612
  919MPD2    N113460   2.166   0.771  11.442 -0.1868  0.8689  0.0696
  919MPD2    H713461   2.103   0.725  11.377 -0.8334 -1.3010  2.2603
  920MPD2     C13462   2.215   1.680  10.341  0.0008  0.0538  0.3757
  920MPD2    C113463   2.096   1.611  10.309 -0.1261  0.5434  0.7913
  920MPD2    C213464   2.024   1.541  10.400 -0.6033  0.4955  0.0869
  920MPD2    C313465   2.071   1.527  10.532  0.2928  0.0557  0.1473
  920MPD2    C413466   2.186   1.594  10.570  0.6316  0.6128 -0.0686
  920MPD2    C513467   2.259   1.673  10.475 -0.8082  0.3623 -1.5066
  920MPD2     H13468   1.937   1.487  10.366  0.3753 -1.0247  0.0301
  920MPD2    H113469   2.231   1.588  10.669 -0.4835 -0.4841  0.3758
  920MPD2    H213470   2.263   1.751  10.274 -1.2669  0.4857 -0.0790
  920MPD2    H313471   2.344   1.730  10.510 -0.9636  0.1509 -0.7691
  920MPD2     N13472   1.995   1.448  10.621 -0.1410 -0.0782 -0.1930
  920MPD2    H513473   1.916   1.397  10.584 -0.3042  2.5814 -3.5278
  920MPD2    N113474   2.052   1.601  10.172  0.5459 -0.1219 -0.4994
  920MPD2    H713475   1.966   1.556  10.144 -0.1138  1.2353 -0.6661
  921MPD2     C13476   2.732   4.669  16.673  0.4857  0.4982 -0.0542
  921MPD2    C113477   2.809   4.560  16.716  0.2610  0.6043 -0.1975
  921MPD2    C213478   2.743   4.449  16.772 -0.1297  0.2711 -0.2973
  921MPD2    C313479   2.605   4.441  16.772  0.1545  0.5638  0.3708
  921MPD2    C413480   2.540   4.546  16.716 -0.6185 -0.2902 -0.3704
  921MPD2    C513481   2.593   4.663  16.673 -0.2631 -0.0908 -0.6293
  921MPD2     H13482   2.801   4.367  16.814  0.1777  1.3043  1.3226
  921MPD2    H113483   2.432   4.546  16.728 -0.5495  0.0658  0.2888
  921MPD2    H213484   2.781   0.034  16.629  2.5230  0.6236  2.4187
  921MPD2    H313485   2.531   0.020  16.631  2.4607  2.1757 -0.4426
  921MPD2     N13486   2.536   4.324  16.801  0.2923  0.3532  0.4144
  921MPD2    H513487   2.443   4.322  16.762  0.3267 -0.9736  0.4059
  921MPD2    N113488   2.948   4.569  16.692  0.5396 -0.5965  0.3325
  921MPD2    H713489   2.982   4.651  16.643  1.0711  0.0083  1.7277
  922MPD2     C13490   4.527   3.207   0.477 -0.5992  0.0439  0.2737
  922MPD2    C113491   4.467   3.219   0.351  0.0223 -0.1731  0.2980
  922MPD2    C213492   4.379   3.126   0.308  0.0463 -0.1289 -0.1665
  922MPD2    C313493   4.360   3.020   0.375 -0.6715 -0.3908  0.3404
  922MPD2    C413494   4.416   3.000   0.502 -0.1632 -0.1225 -0.3646
  922MPD2    C513495   4.506   3.093   0.550  0.6600 -0.1373  0.4015
  922MPD2     H13496   4.336   3.148   0.211  0.6406 -1.7026 -0.7729
  922MPD2    H113497   4.394   2.914   0.565 -2.2825  0.8167  0.1964
  922MPD2    H213498   4.606   3.269   0.516 -0.0107 -1.8955  2.1827
  922MPD2    H313499   4.554   3.085   0.646  1.4193 -0.0232  0.0299
  922MPD2     N13500   4.273   2.925   0.314 -0.1952  0.3356  0.1226
  922MPD2    H513501   4.226   2.961   0.232 -0.0292 -0.1779 -0.2034
  922MPD2    N113502   4.489   3.329   0.270 -0.2468  0.3045 -0.4452
  922MPD2    H713503   4.465   3.326   0.172 -1.1416 -0.5783 -0.2037
  923MPD2     C13504   0.545   3.847   9.048  0.4860 -0.6866  0.4352
  923MPD2    C113505   0.569   3.977   9.089 -0.8956  0.8873 -0.0859
  923MPD2    C213506   0.694   4.011   9.142  0.2121 -0.3481  0.6162
  923MPD2    C313507   0.796   3.910   9.147 -0.2062  0.4920 -0.1335
  923MPD2    C413508   0.772   3.783   9.111  0.3441 -0.6113 -0.0217
  923MPD2    C513509   0.646   3.752   9.059  0.0638  0.1283 -0.1513
  923MPD2     H13510   0.720   4.110   9.177 -0.5006  0.2688 -0.6044
  923MPD2    H113511   0.848   3.706   9.115  0.4515 -0.5676 -1.1817
  923MPD2    H213512   0.453   3.814   9.001  0.0150 -1.4951  1.9427
  923MPD2    H313513   0.623   3.651   9.026 -1.5771  0.2288  0.6980
  923MPD2     N13514   0.922   3.920   9.211  0.3083 -0.5855  0.1676
  923MPD2    H513515   0.970   3.835   9.241  0.1725 -0.5610  0.4578
  923MPD2    N113516   0.461   4.064   9.080 -0.4117 -0.4519 -0.2115
  923MPD2    H713517   0.380   4.027   9.032 -2.4367  3.2256  0.3787
  924MPD2     C13518   0.375   2.869  16.186 -0.2091  0.3674 -0.4579
  924MPD2    C113519   0.299   2.984  16.191  0.3846 -0.3390 -0.7153
  924MPD2    C213520   0.356   3.107  16.204  0.1772  0.5783 -0.5343
  924MPD2    C313521   0.495   3.116  16.227  0.3037 -0.7664  0.5731
  924MPD2    C413522   0.572   3.001  16.204  0.5333 -0.6499  0.3762
  924MPD2    C513523   0.508   2.885  16.189  0.7922 -0.4891  0.4320
  924MPD2     H13524   0.294   3.196  16.201 -2.1601 -1.0950 -2.1659
  924MPD2    H113525   0.679   2.993  16.218  0.5918 -2.9170 -1.4459
  924MPD2    H213526   0.336   2.768  16.197 -0.4891  0.6267  0.9472
  924MPD2    H313527   0.573   2.798  16.192 -0.1733 -1.2106  0.5225
  924MPD2     N13528   0.563   3.231  16.269 -0.7173  0.1224 -0.2677
  924MPD2    H513529   0.662   3.221  16.289 -1.3423 -2.3427  1.6422
  924MPD2    N113530   0.163   2.961  16.198 -0.0322  0.0884 -0.2856
  924MPD2    H713531   0.132   2.868  16.223 -0.2347  0.3457  0.4375
  925MPD2     C13532   4.323   1.019  14.809 -1.3232  0.3582 -0.4378
  925MPD2    C113533   4.227   0.934  14.774  0.0414  0.7862  0.3543
  925MPD2    C213534   4.138   0.883  14.871  0.5699 -0.0390 -0.6689
  925MPD2    C313535   4.154   0.913  15.006  0.1667  0.5167  0.1080
  925MPD2    C413536   4.254   1.001  15.032 -0.1695  0.2299 -0.8104
  925MPD2    C513537   4.345   1.046  14.936 -0.5632  0.1465  0.4154
  925MPD2     H13538   4.055   0.822  14.838  0.2964  0.6128 -1.2140
  925MPD2    H113539   4.263   1.031  15.135 -1.5721 -2.8762  0.2257
  925MPD2    H213540   4.377   1.081  14.738 -0.5644  0.5600  0.3112
  925MPD2    H313541   4.420   1.120  14.961 -0.5153  0.5379 -0.8997
  925MPD2     N13542   4.082   0.856  15.113 -0.8102 -0.3017 -0.5144
  925MPD2    H513543   4.127   0.873  15.202  0.5718  1.1218 -1.4908
  925MPD2    N113544   4.202   0.907  14.636  0.4428 -0.1295 -0.5327
  925MPD2    H713545   4.129   0.839  14.615 -2.6384  2.8532  0.5451
  926MPD2     C13546   2.624   3.662  13.294  0.5465 -0.4803  0.2482
  926MPD2    C113547   2.737   3.701  13.357 -0.4572  0.4618 -0.4209
  926MPD2    C213548   2.825   3.789  13.291 -0.5641 -0.1378  0.2317
  926MPD2    C313549   2.802   3.834  13.161  0.3106  0.4742  0.1453
  926MPD2    C413550   2.689   3.789  13.093  0.5246  0.1663  0.9964
  926MPD2    C513551   2.609   3.697  13.164  0.2821 -0.5216 -0.4584
  926MPD2     H13552   2.914   3.814  13.348 -1.0377 -0.0924  0.9477
  926MPD2    H113553   2.666   3.813  12.990 -2.1187 -1.3929  1.2413
  926MPD2    H213554   2.550   3.597  13.340  0.0247  0.2234  0.4084
  926MPD2    H313555   2.541   3.636  13.106 -0.9982 -1.5189  2.0798
  926MPD2     N13556   2.897   3.916  13.084  0.2774 -0.1928 -0.2114
  926MPD2    H513557   2.874   3.941  12.988 -2.5558  2.3616  1.1208
  926MPD2    N113558   2.787   3.647  13.481 -0.0842  0.7985 -0.1065
  926MPD2    H713559   2.868   3.696  13.517  0.4918 -0.0576 -0.2269
  927MPD2     C13560   2.679   0.864  17.421 -0.1144  0.1287 -0.5521
  927MPD2    C113561   2.664   0.992  17.380  0.0666 -0.2507 -0.5244
  927MPD2    C213562   2.742   1.037  17.275 -0.3564  0.4682  0.6802
  927MPD2    C313563   2.829   0.948  17.205  0.0219 -0.4464  0.3839
  927MPD2    C413564   2.835   0.819  17.255  0.3745  0.4122  0.0698
  927MPD2    C513565   2.761   0.777  17.361  0.4503  0.3263  0.5933
  927MPD2     H13566   2.747   1.141  17.245  0.1521  0.4415  0.6695
  927MPD2    H113567   2.898   0.746  17.205 -0.4229 -0.0516 -0.2411
  927MPD2    H213568   2.616   0.831  17.504  1.5161 -1.1182  0.1934
  927MPD2    H313569   2.778   0.678  17.403 -0.4004  0.6291  1.6436
  927MPD2     N13570   2.905   1.000  17.098 -0.6859  0.3566  0.0843
  927MPD2    H513571   2.896   1.101  17.084 -1.3847  0.3282  0.3589
  927MPD2    N113572   2.562   1.061  17.451  0.0552  0.5561  0.1804
  927MPD2    H713573   2.525   1.013  17.533 -0.1118  2.5071  1.2479
  928MPD2     C13574   4.566   4.454   0.565  0.7171 -0.5660 -0.2801
  928MPD2    C113575   4.665   4.421   0.650  0.1952 -0.0624 -0.6333
  928MPD2    C213576   0.072   4.423   0.611 -0.1764  0.3052 -0.0539
  928MPD2    C313577   0.111   4.457   0.484 -0.0196 -0.4316 -0.4126
  928MPD2    C413578   0.009   4.499   0.400  0.6981 -0.0584  0.0689
  928MPD2    C513579   4.600   4.489   0.440 -0.0280  0.2714  0.0813
  928MPD2     H13580   0.151   4.387   0.676  0.2273  2.8891  0.8873
  928MPD2    H113581   0.026   4.536   0.299 -0.0388 -0.6124 -0.2595
  928MPD2    H213582   4.462   4.437   0.589  0.2648 -1.6542 -3.0942
  928MPD2    H313583   4.514   4.518   0.381 -0.9068 -0.3328  1.0421
  928MPD2     N13584   0.239   4.469   0.435  0.1691 -0.7743 -0.2744
  928MPD2    H513585   0.250   4.496   0.338 -1.3099  2.1717  0.3672
  928MPD2    N113586   4.627   4.409   0.784  0.2455 -0.8762  0.1156
  928MPD2    H713587   4.527   4.416   0.798  0.0227  1.0324 -2.5432
  929MPD2     C13588   0.041   3.985   9.861 -0.5354  0.3543  0.5402
  929MPD2    C113589   4.717   3.945   9.986  0.1786 -0.5713  0.2189
  929MPD2    C213590   4.650   3.824   9.993 -0.2763 -0.2103 -0.4659
  929MPD2    C313591   4.617   3.755   9.877 -0.0815 -0.0804  1.0158
  929MPD2    C413592   4.665   3.796   9.755 -0.3889  0.6933  0.2833
  929MPD2    C513593   0.015   3.906   9.750 -0.3319 -0.3422  0.5374
  929MPD2     H13594   4.608   3.794  10.089  2.7164 -0.3472  0.8103
  929MPD2    H113595   4.634   3.742   9.666  0.6181 -0.6570  0.7426
  929MPD2    H213596   0.099   4.077   9.853  1.0115 -0.4770  2.3400
  929MPD2    H313597   0.047   3.944   9.653  2.1451 -1.3210  0.9870
  929MPD2     N13598   4.522   3.644   9.874  0.2129  0.0225 -0.3192
  929MPD2    H513599   4.538   3.579   9.797 -0.9972 -0.2058 -0.3794
  929MPD2    N113600   0.024   4.029  10.096 -0.2121 -0.0870 -0.5449
  929MPD2    H713601   0.070   4.116  10.073  1.3999 -0.5714  0.8564
  930MPD2     C13602   2.227   2.044  14.288  0.4951  0.1434 -0.1046
  930MPD2    C113603   2.316   1.947  14.253  0.1749  0.1481 -0.2267
  930MPD2    C213604   2.304   1.887  14.125  0.5516 -0.3407  0.0244
  930MPD2    C313605   2.213   1.937  14.033 -0.3798 -0.0950 -0.4325
  930MPD2    C413606   2.118   2.019  14.082 -0.8006  0.8749  0.2333
  930MPD2    C513607   2.120   2.069  14.201 -0.2030 -0.0577  0.0104
  930MPD2     H13608   2.376   1.811  14.094 -0.3132 -0.9330 -0.5137
  930MPD2    H113609   2.034   2.040  14.017  0.0214  2.4983 -0.3143
  930MPD2    H213610   2.226   2.103  14.379  2.4721 -0.6880  0.4520
  930MPD2    H313611   2.036   2.131  14.231  0.2407  1.4704 -1.9113
  930MPD2     N13612   2.207   1.896  13.898  0.4505  0.1874 -0.0437
  930MPD2    H513613   2.120   1.924  13.852 -0.1090 -0.1906  0.7968
  930MPD2    N113614   2.422   1.930  14.342  1.0067 -0.1052 -0.1724
  930MPD2    H713615   2.423   2.004  14.411 -0.1158 -1.2188  1.0224
  931MPD2     C13616   1.989   1.129   0.354  0.1732 -0.4423  0.1389
  931MPD2    C113617   2.120   1.116   0.321 -0.0691 -0.8406  0.9074
  931MPD2    C213618   2.213   1.075   0.415 -0.7780  0.4681 -0.3483
  931MPD2    C313619   2.174   1.024   0.535  0.0462  0.0752 -1.1823
  931MPD2    C413620   2.038   1.033   0.566  0.5438  0.5416  0.2769
  931MPD2    C513621   1.946   1.086   0.476  0.5973  0.5182 -0.3722
  931MPD2     H13622   2.318   1.063   0.390 -0.9703 -0.2132 -0.8283
  931MPD2    H113623   2.013   0.979   0.656  2.7917 -0.0773  0.5185
  931MPD2    H213624   1.914   1.155   0.280 -1.3878 -2.0541  1.1570
  931MPD2    H313625   1.841   1.096   0.502 -0.0994 -0.5000 -2.7459
  931MPD2     N13626   2.255   0.989   0.646 -0.0582 -0.7073 -0.5357
  931MPD2    H513627   2.198   0.976   0.729  1.5989  0.2299  0.7372
  931MPD2    N113628   2.166   1.172   0.200 -0.0645 -0.2482 -0.3235
  931MPD2    H713629   2.097   1.229   0.152 -1.7662 -2.8172 -0.8836
  932MPD2     C13630   3.623   0.774  10.406 -0.4266 -0.3441  0.6007
  932MPD2    C113631   3.756   0.752  10.442 -0.5632 -0.1494 -0.5336
  932MPD2    C213632   3.807   0.624  10.457 -0.1439  0.6865  0.7760
  932MPD2    C313633   3.724   0.517  10.432 -0.7890  0.4593  0.7410
  932MPD2    C413634   3.592   0.535  10.393  0.6327 -0.6813  0.5679
  932MPD2    C513635   3.552   0.664  10.373 -0.7322  0.4536  0.7869
  932MPD2     H13636   3.911   0.607  10.484  0.1515 -0.6508 -1.2331
  932MPD2    H113637   3.535   0.444  10.381  1.3894 -1.3557  2.0038
  932MPD2    H213638   3.585   0.875  10.391 -0.5960 -0.4823  0.1015
  932MPD2    H313639   3.451   0.682  10.337 -0.0441 -0.0811 -1.3802
  932MPD2     N13640   3.764   0.378  10.449 -0.8610 -0.7324 -0.1077
  932MPD2    H513641   3.686   0.315  10.434 -0.3646 -1.5019  0.4870
  932MPD2    N113642   3.851   0.858  10.457  0.2896  0.1166  0.4780
  932MPD2    H713643   3.948   0.838  10.479  0.0524 -1.0545  0.4369
  933MPD2     C13644   4.134   4.632   0.863  0.2942 -0.0640  0.0772
  933MPD2    C113645   4.177   4.649   0.991 -0.1317  0.5925 -0.6105
  933MPD2    C213646   4.153   0.042   1.066  0.2312 -0.2963 -0.4190
  933MPD2    C313647   4.073   0.142   1.014  0.6086 -0.0058  0.5205
  933MPD2    C413648   4.019   0.124   0.887 -0.2674 -0.4329 -0.4948
  933MPD2    C513649   4.055   0.011   0.808 -0.0437  0.1913  0.5504
  933MPD2     H13650   4.201   0.055   1.162 -1.1528 -1.2248  0.4011
  933MPD2    H113651   3.967   0.202   0.832 -0.1362  1.0264  1.4448
  933MPD2    H213652   4.156   4.542   0.808 -2.1521 -1.6995  1.7478
  933MPD2    H313653   4.023   0.008   0.704  0.0457  2.5760  0.4420
  933MPD2     N13654   4.045   0.258   1.084 -0.3432 -0.3635  0.2990
  933MPD2    H513655   4.097   0.267   1.170 -1.5692 -0.9742  1.0932
  933MPD2    N113656   4.275   4.553   1.029  0.0916  0.2498  0.4584
  933MPD2    H713657   4.277   4.471   0.970  0.2835 -1.4473  2.8362
  934MPD2     C13658   1.372   2.094   1.726 -0.9776 -0.5416 -0.3228
  934MPD2    C113659   1.463   2.000   1.697  0.0438  0.4787  0.2140
  934MPD2    C213660   1.426   1.897   1.616 -0.0946  0.4990 -0.6375
  934MPD2    C313661   1.299   1.893   1.561 -0.7074 -0.4096 -0.8086
  934MPD2    C413662   1.207   1.988   1.598 -0.0664 -0.5960  0.0265
  934MPD2    C513663   1.241   2.084   1.687 -0.7181 -0.2406  0.3134
  934MPD2     H13664   1.502   1.824   1.591  0.2029  0.4447  0.3955
  934MPD2    H113665   1.103   1.981   1.568  0.4770 -2.2644 -1.4858
  934MPD2    H213666   1.399   2.174   1.795 -3.0400 -0.2594  0.1366
  934MPD2    H313667   1.171   2.164   1.710  0.6572  1.0790 -0.0714
  934MPD2     N13668   1.255   1.797   1.463 -0.2251 -0.0052 -0.2142
  934MPD2    H513669   1.164   1.814   1.421 -1.4119 -2.0415  1.5173
  934MPD2    N113670   1.601   2.007   1.738 -0.1735  0.3388 -0.6217
  934MPD2    H713671   1.653   1.924   1.709 -1.1085 -0.6138  0.4255
  935MPD2     C13672   1.813   1.136   0.886 -0.4881  0.6211  0.3669
  935MPD2    C113673   1.685   1.100   0.874  0.1594  0.4789  0.6227
  935MPD2    C213674   1.585   1.187   0.924 -0.5275 -0.0132 -0.1529
  935MPD2    C313675   1.611   1.311   0.988  0.3536  0.1150 -1.0235
  935MPD2    C413676   1.744   1.336   0.997 -0.2185 -0.2707 -0.4383
  935MPD2    C513677   1.844   1.258   0.948  0.0863 -0.0530  0.2829
  935MPD2     H13678   1.480   1.168   0.904 -0.6282 -0.0911  0.4635
  935MPD2    H113679   1.771   1.432   1.039  3.4607 -0.4363 -2.4302
  935MPD2    H213680   1.901   1.082   0.852 -0.3663  0.2859  1.2300
  935MPD2    H313681   1.947   1.289   0.962  0.7848 -1.7407 -1.1382
  935MPD2     N13682   1.514   1.398   1.044 -0.4398  0.0934  0.0261
  935MPD2    H513683   1.548   1.474   1.102 -0.3942 -0.7272  1.0956
  935MPD2    N113684   1.637   0.985   0.801  0.1825 -0.5498 -0.0950
  935MPD2    H713685   1.537   0.974   0.790  0.4029 -1.7291 -0.9236
  936MPD2     C13686   4.334   4.402  12.762  0.3413 -0.3775 -0.3174
  936MPD2    C113687   4.400   4.284  12.783  0.9262  0.4375  0.9520
  936MPD2    C213688   4.511   4.253  12.713  0.1336 -0.0301  0.2997
  936MPD2    C313689   4.564   4.341  12.619 -0.0460  0.3478  0.3621
  936MPD2    C413690   4.498   4.459  12.588  0.1429 -0.1042 -0.1034
  936MPD2    C513691   4.380   4.483  12.662 -0.3327  0.2293 -0.1690
  936MPD2     H13692   4.565   4.161  12.736  1.0669  0.4632  0.0595
  936MPD2    H113693   4.533   4.531  12.515  0.4750  0.1042  0.2657
  936MPD2    H213694   4.247   4.427  12.821 -1.1301 -0.4436 -2.4348
  936MPD2    H313695   4.328   4.574  12.634 -2.9259 -1.2921 -0.3347
  936MPD2     N13696   4.690   4.306  12.572  0.3763 -0.7918  0.0654
  936MPD2    H513697   0.015   4.227  12.617  1.0384 -0.5290 -0.1474
  936MPD2    N113698   4.370   4.202  12.889  0.0446 -0.5844  0.0182
  936MPD2    H713699   4.412   4.109  12.889 -0.5951 -0.9083  3.7195
  937MPD2     C13700   2.038   0.198  11.041  0.0589  0.2389 -0.1198
  937MPD2    C113701   2.018   0.326  11.095 -0.1987 -0.1370  0.4913
  937MPD2    C213702   2.042   0.432  11.011 -0.1265  0.2791 -0.1777
  937MPD2    C313703   2.053   0.411  10.875 -0.6668 -0.7477  0.6042
  937MPD2    C413704   2.043   0.291  10.820  0.9989  0.1197 -0.1755
  937MPD2    C513705   2.037   0.181  10.905 -0.0133  0.1709 -0.2101
  937MPD2     H13706   2.054   0.532  11.053 -0.3529  0.9736 -1.7845
  937MPD2    H113707   2.045   0.267  10.715  0.1860  0.3561 -0.2403
  937MPD2    H213708   2.030   0.108  11.100  3.1719 -0.7332 -1.1824
  937MPD2    H313709   2.031   0.080  10.866 -0.2921 -0.2912  1.0431
  937MPD2     N13710   2.095   0.527  10.797 -0.9262  0.7539 -0.0789
  937MPD2    H513711   2.113   0.613  10.849 -0.1452  1.8491 -2.1402
  937MPD2    N113712   2.027   0.355  11.228 -0.2289 -0.5951 -0.2584
  937MPD2    H713713   2.027   0.454  11.249  0.6533 -1.1598  2.4148
  938MPD2     C13714   0.722   1.263   0.549 -0.0303 -0.1265  0.0919
  938MPD2    C113715   0.649   1.367   0.602  0.0525 -0.3594  0.3480
  938MPD2    C213716   0.541   1.334   0.678  0.4350  0.0721 -0.1907
  938MPD2    C313717   0.507   1.211   0.709 -0.1350  0.7304 -0.1896
  938MPD2    C413718   0.586   1.102   0.658  0.0054  0.3185 -0.6906
  938MPD2    C513719   0.695   1.133   0.584  0.4320 -0.1930 -0.1870
  938MPD2     H13720   0.474   1.416   0.701 -1.1055 -0.3239 -3.2610
  938MPD2    H113721   0.566   0.996   0.667 -1.7619  0.5272 -2.1536
  938MPD2    H213722   0.814   1.275   0.494  1.1214 -1.1880  1.7975
  938MPD2    H313723   0.758   1.047   0.563  1.2511  0.8718 -2.0569
  938MPD2     N13724   0.397   1.170   0.790  0.2037  0.5532 -0.2726
  938MPD2    H513725   0.392   1.075   0.825 -1.0082  0.6570 -0.1488
  938MPD2    N113726   0.674   1.501   0.569  1.3439  0.3750 -0.0068
  938MPD2    H713727   0.645   1.575   0.632 -0.3628  1.4380 -2.0369
  939MPD2     C13728   1.357   2.789   1.000 -0.0501  0.0031 -0.6073
  939MPD2    C113729   1.314   2.879   0.907  0.3245 -0.2685  0.1004
  939MPD2    C213730   1.371   2.870   0.783 -0.0506 -0.1445 -0.3763
  939MPD2    C313731   1.482   2.784   0.764  0.4677  0.6709 -0.5052
  939MPD2    C413732   1.535   2.713   0.866  0.1105 -0.0429  0.1467
  939MPD2    C513733   1.470   2.710   0.986  0.2669 -0.9152  0.2778
  939MPD2     H13734   1.340   2.930   0.699  2.1074  2.2963  0.5663
  939MPD2    H113735   1.630   2.661   0.857  0.7626  1.2321 -0.3394
  939MPD2    H213736   1.327   2.784   1.104  1.3852  2.0889 -0.0977
  939MPD2    H313737   1.509   2.648   1.066  1.6705 -0.7255 -0.2694
  939MPD2     N13738   1.552   2.793   0.641 -0.6063  0.0725 -0.4397
  939MPD2    H513739   1.519   2.862   0.575 -1.1296  0.1954 -0.0520
  939MPD2    N113740   1.216   2.966   0.953 -0.7961 -0.2316 -0.6290
  939MPD2    H713741   1.195   2.979   1.052  0.0531 -0.1347 -0.4572
  940MPD2     C13742   0.864   3.736  13.817  0.0140 -0.0543  0.4138
  940MPD2    C113743   0.742   3.679  13.789  0.5675  0.2396 -0.1681
  940MPD2    C213744   0.713   3.642  13.661 -0.0099  0.0074 -0.3366
  940MPD2    C313745   0.811   3.654  13.562 -0.1751 -0.5619 -0.3306
  940MPD2    C413746   0.934   3.699  13.595  0.7138  0.3607  0.5158
  940MPD2    C513747   0.963   3.734  13.724 -0.1249  0.1503 -0.3505
  940MPD2     H13748   0.617   3.599  13.635 -0.2915  0.8047 -0.6044
  940MPD2    H113749   1.008   3.689  13.516  1.3102  1.4454  0.9323
  940MPD2    H213750   0.881   3.773  13.917  0.5450 -1.4454  0.8438
  940MPD2    H313751   1.064   3.763  13.752 -0.4493  1.0946 -0.1517
  940MPD2     N13752   0.786   3.624  13.424  0.6011 -0.3948  0.4794
  940MPD2    H513753   0.863   3.625  13.359 -0.0782 -2.1008 -0.3491
  940MPD2    N113754   0.644   3.668  13.883  0.2231  0.2219  0.1118
  940MPD2    H713755   0.555   3.631  13.852 -0.1673  0.6654  0.7009
  941MPD2     C13756   0.050   2.773   9.876 -0.0525  0.2767  0.0522
  941MPD2    C113757   0.135   2.782   9.981 -0.2524  0.2095  0.2865
  941MPD2    C213758   0.126   2.691  10.083 -0.3510  0.1756 -0.2277
  941MPD2    C313759   0.031   2.588  10.083  0.4453  0.4651 -0.2485
  941MPD2    C413760   4.670   2.576   9.973  0.5278  0.1449  0.2988
  941MPD2    C513761   4.685   2.666   9.874 -0.2935 -0.3429  0.1725
  941MPD2     H13762   0.182   2.708  10.174 -0.0229 -2.6208  0.1095
  941MPD2    H113763   4.589   2.503   9.972 -1.4277  2.2878  1.5956
  941MPD2    H213764   0.058   2.846   9.796  2.1776 -1.5882 -1.4201
  941MPD2    H313765   4.623   2.655   9.785 -1.0250 -0.1665  0.6663
  941MPD2     N13766   0.006   2.502  10.192 -0.1018 -0.3122  0.2273
  941MPD2    H513767   4.647   2.439  10.187 -0.8636  0.8410 -2.2857
  941MPD2    N113768   0.212   2.899  10.007 -0.1449 -0.2132  0.1982
  941MPD2    H713769   0.247   2.899  10.102  0.1254  1.0433  0.1051
  942MPD2     C13770   3.748   3.320   9.327  0.6383 -0.0869  1.1550
  942MPD2    C113771   3.844   3.220   9.336 -0.8987  0.1615  0.0048
  942MPD2    C213772   3.979   3.248   9.324  0.5478  0.5640  0.5303
  942MPD2    C313773   4.023   3.378   9.306 -0.5842 -0.0951  0.0869
  942MPD2    C413774   3.924   3.476   9.299 -0.2564  0.6318  0.7786
  942MPD2    C513775   3.791   3.450   9.304 -0.6729  0.0849 -0.6098
  942MPD2     H13776   4.054   3.171   9.312  0.0286  0.2429 -0.6378
  942MPD2    H113777   3.948   3.581   9.288  0.8474  0.5933  2.6957
  942MPD2    H213778   3.642   3.302   9.342  0.4248  1.0782  1.0318
  942MPD2    H313779   3.720   3.531   9.298 -2.3936 -1.4945 -1.5690
  942MPD2     N13780   4.156   3.421   9.300 -0.1590  0.3182 -0.5741
  942MPD2    H513781   4.175   3.515   9.269  1.4840  0.1438 -0.1034
  942MPD2    N113782   3.805   3.085   9.351 -0.6608 -0.1594 -0.2677
  942MPD2    H713783   3.871   3.019   9.310 -0.7618  0.3019 -1.1940
  943MPD2     C13784   3.805   2.107   9.877 -0.6206  0.8061  0.0441
  943MPD2    C113785   3.677   2.123   9.925  0.0399 -0.2034 -0.5632
  943MPD2    C213786   3.653   2.225  10.012  0.3026 -0.2668  0.3252
  943MPD2    C313787   3.748   2.309  10.052 -0.3649 -0.4866  0.0100
  943MPD2    C413788   3.872   2.300   9.997 -0.3398  0.2393  0.7642
  943MPD2    C513789   3.900   2.201   9.909 -0.0275  0.0412  0.1380
  943MPD2     H13790   3.553   2.243  10.048  1.1264  0.9136  1.9695
  943MPD2    H113791   3.953   2.365  10.028  1.0766 -1.0644 -0.2317
  943MPD2    H213792   3.840   2.035   9.804 -2.6247 -0.8187  0.6864
  943MPD2    H313793   4.005   2.188   9.885  1.0033  5.7351  1.6616
  943MPD2     N13794   3.739   2.395  10.161 -0.2937  0.4579  0.3938
  943MPD2    H513795   3.823   2.433  10.203  0.6436 -1.3511  0.1846
  943MPD2    N113796   3.567   2.045   9.877 -0.4940  0.6583  0.7012
  943MPD2    H713797   3.589   1.987   9.797  0.1196 -0.3986  1.6254
  944MPD2     C13798   2.790   1.459  10.898  0.0228 -0.1547  0.4934
  944MPD2    C113799   2.926   1.496  10.880  0.2239 -0.8130 -0.2688
  944MPD2    C213800   3.001   1.534  10.993  0.2497  0.0471 -0.4866
  944MPD2    C313801   2.948   1.531  11.123 -0.0352  0.0958  0.1360
  944MPD2    C413802   2.815   1.513  11.131  0.3735 -0.3136  0.2786
  944MPD2    C513803   2.735   1.480  11.024 -0.1391 -0.3315  0.0053
  944MPD2     H13804   3.107   1.553  10.979  0.4437 -1.1693 -0.6808
  944MPD2    H113805   2.774   1.498  11.230  1.4467  3.1218  1.2348
  944MPD2    H213806   2.729   1.425  10.815  1.1989 -2.1865  0.4625
  944MPD2    H313807   2.630   1.469  11.046  0.1537 -0.9771  1.0880
  944MPD2     N13808   3.020   1.545  11.244 -0.0354  0.0051  0.0533
  944MPD2    H513809   2.961   1.553  11.326 -1.1710  0.7034 -0.8170
  944MPD2    N113810   2.980   1.467  10.757  0.3597 -0.5067 -0.2045
  944MPD2    H713811   2.917   1.412  10.699 -0.4865 -0.2260  0.4582
    1TCq1    O113812   0.129   3.146  14.709  0.3652 -0.5000 -0.5917
    1TCq1    C113813   0.220   3.075  14.774 -0.0705 -0.3932 -0.5192
    1TCq1    O213814   0.207   3.019  14.883 -0.2761 -0.3029 -0.1954
    1TCq1    C213815   0.353   3.126  14.739  0.2007  0.5417 -0.4692
    1TCq1    C313816   0.399   3.124  14.614  0.4091  0.2393  0.2293
    1TCq1    C413817   0.526   3.164  14.589 -0.1836  0.2048  0.6183
    1TCq1    C513818   0.596   3.236  14.686 -0.1125  0.7423  0.4544
    1TCq1    C613819   0.536   3.251  14.810 -0.1227 -0.7102  0.0588
    1TCq1    C713820   0.424   3.184  14.843  0.3283  0.2124 -0.2672
    1TCq1    C813821   0.589   3.333  14.916 -0.1369  0.4246 -0.1617
    1TCq1    O413822   0.586   3.293  15.032 -0.1303 -0.4740  0.4775
    1TCq1    C913823   0.586   3.143  14.456  1.1865  0.6756  0.2280
    1TCq1    O513824   0.711   3.165  14.446  0.2404 -0.0058  0.1622
    1TCq1    O613825   0.521   3.083  14.364 -0.0792 -0.9408  0.4959
    1TCq1    H113826   0.161   3.219  14.652 -0.7374 -0.3172 -0.9714
    1TCq1    H213827   0.339   3.079  14.535 -1.5659 -0.5186  2.1852
    1TCq1    H313828   0.690   3.284  14.661 -0.3098  1.6966  1.5219
    1TCq1    H413829   0.375   3.197  14.939 -0.3549  0.4434 -0.6423
    2MPD2     C13830   0.888   3.734  15.080  0.1789  0.4264 -0.1515
    2MPD2    C113831   0.867   3.750  14.940 -0.3176  1.0042 -0.7956
    2MPD2    C213832   0.790   3.654  14.877 -0.6708 -0.0267 -0.8033
    2MPD2    C313833   0.733   3.538  14.937  0.2746  0.7172  0.4530
    2MPD2    C413834   0.775   3.521  15.069  0.0080  0.6255  0.6176
    2MPD2    C513835   0.849   3.613  15.135 -0.0392  0.7442 -0.8512
    2MPD2     H13836   0.754   3.678  14.777  0.0395  2.6981 -0.3907
    2MPD2    H113837   0.751   3.438  15.134  1.2806 -1.3222 -1.4328
    2MPD2    H213838   0.934   3.815  15.135  0.0594 -1.5638  2.9071
    2MPD2    H313839   0.887   3.590  15.233 -0.6053  0.6930 -0.6452
    2MPD2     N13840   0.652   3.445  14.864 -0.8644 -0.1299  0.2927
    2MPD2    H513841   0.621   3.470  14.771 -0.6460 -0.1063  0.2260
    2MPD2    N113842   0.937   3.859  14.883 -0.0306  0.0389  0.1033
    2MPD2    H713843   1.003   3.901  14.948 -0.8219  1.0300  0.2699
    3TMC2    C113844   1.023   4.017  14.729  0.9041  0.2564 -0.1849
    3TMC2    C213845   1.120   4.051  14.821  0.3326 -0.5207  0.4800
    3TMC2    C313846   1.199   4.154  14.786 -0.6054 -0.2559 -0.3264
    3TMC2    C413847   0.998   4.086  14.608  0.0542 -0.4880  0.0298
    3TMC2    C513848   1.082   4.200  14.582 -0.3445 -0.5673 -0.4669
    3TMC2    C613849   1.183   4.227  14.667 -0.3359  0.6671 -0.4925
    3TMC2     C13850   0.940   3.903  14.754 -0.1735 -0.2290  0.4769
    3TMC2     O13851   0.869   3.869  14.660  0.0480 -0.4133  0.0814
    3TMC2     H13852   1.126   4.004  14.918 -0.6259 -2.2296 -0.2879
    3TMC2    H113853   0.914   4.062  14.543 -0.4103  1.2378 -0.0118
    3TMC2    H213854   1.243   4.315  14.648  1.2429 -0.1425  0.7537
    3TMC2    C713855   1.056   4.300  14.474 -0.1610  0.3563  0.3087
    3TMC2    C813856   1.263   4.211  14.896 -0.6784  0.3306 -0.5629
    3TMC2    O113857   1.110   4.405  14.490 -0.1459 -0.0166  0.4588
    3TMC2    O213858   1.190   4.257  14.982  0.3156  0.0376 -0.2213
    3TMC2    O513859   1.369   4.278  14.840 -0.8667  0.7304  0.2637
    3TMC2    H513860   1.399   4.225  14.764 -0.8290  0.5211  0.4234
    4MPD2     C13861   4.632   4.011  13.499 -0.1129 -0.2792 -0.0625
    4MPD2    C113862   0.004   4.091  13.431  0.0027  0.5861  0.1122
    4MPD2    C213863   0.135   4.075  13.458  1.0814  0.1349  0.5790
    4MPD2    C313864   0.180   3.986  13.551 -0.4559  0.6791 -0.3057
    4MPD2    C413865   0.087   3.901  13.615 -0.5079  0.2787 -0.4743
    4MPD2    C513866   4.678   3.921  13.586  0.2803  0.1052 -0.2762
    4MPD2     H13867   0.211   4.125  13.398 -1.4976 -0.3448 -3.0558
    4MPD2    H113868   0.113   3.824  13.686  1.9959  0.6038 -1.0431
    4MPD2    H213869   4.524   4.015  13.487  0.0023  1.0936 -0.6455
    4MPD2    H313870   4.605   3.859  13.638 -1.8810  2.1661 -0.8710
    4MPD2     N13871   0.316   3.988  13.583  0.2782 -0.8899  0.7371
    4MPD2    H513872   0.365   4.060  13.530 -1.0987 -0.3148  0.2540
    4MPD2    N113873   4.671   4.188  13.341 -0.0412  0.0895  0.7849
    4MPD2    H713874   4.571   4.201  13.350 -0.0126  2.1789 -1.9559
    5TCq2    C113875   0.384   3.915  13.681 -0.8898 -0.3224  0.3041
    5TCq2    O213876   0.337   3.849  13.772  0.0698 -0.1701 -0.3102
    5TCq2    C213877   0.520   3.960  13.683 -0.4839 -0.4688 -0.0151
    5TCq2    C313878   0.581   4.019  13.576  0.1215 -0.5358  0.3266
    5TCq2    C413879   0.692   4.095  13.599 -0.2081  1.3478 -1.1282
    5TCq2    C513880   0.743   4.107  13.722  0.0282 -0.0338 -0.1416
    5TCq2    C613881   0.683   4.048  13.833  0.5548 -0.1677 -0.4803
    5TCq2    C713882   0.568   3.979  13.814 -0.7556  0.5584 -0.0751
    5TCq2    C813883   0.712   4.102  13.965 -0.1228  0.0939 -0.1064
    5TCq2    O413884   0.673   4.037  14.061  0.0717  0.0705  0.0968
    5TCq2    C913885   0.766   4.149  13.486 -0.6109 -0.1007 -0.0287
    5TCq2    O513886   0.890   4.169  13.510 -0.1172  0.1317 -0.2188
    5TCq2    O613887   0.709   4.162  13.373 -0.4565 -0.3616 -0.5563
    5TCq2    H213888   0.556   4.003  13.472  0.6419  0.8988 -0.0091
    5TCq2    H313889   0.836   4.161  13.732  0.2599 -0.5404  0.4647
    5TCq2    H413890   0.509   3.950  13.900 -1.1342 -0.0480 -0.5374
    6MPD1     C13891   3.833   1.011  12.513 -0.0894  0.2261  0.3582
    6MPD1    C113892   3.868   0.877  12.518 -0.6552 -0.5367 -0.8826
    6MPD1    C213893   3.986   0.844  12.578 -0.4576  0.4491  0.7197
    6MPD1    C313894   4.063   0.932  12.652 -0.4791  0.1553  0.4210
    6MPD1    C413895   4.030   1.064  12.653  0.5861  0.0232 -0.4326
    6MPD1    C513896   3.918   1.099  12.576 -0.2265  0.3977 -0.5064
    6MPD1     H13897   4.027   0.743  12.580 -0.0734  0.6573  2.9440
    6MPD1    H113898   4.096   1.139  12.696 -0.9311  1.4941 -0.6727
    6MPD1    H213899   3.743   1.041  12.460  0.1982 -1.4431 -1.0847
    6MPD1    H313900   3.892   1.204  12.580  1.1596  0.7717 -1.0457
    6MPD1     N13901   4.183   0.899  12.725 -1.0838 -0.5305  0.5024
    6MPD1    H513902   4.225   0.976  12.778 -1.6326  0.2014 -0.1280
    6MPD1    N113903   3.797   0.787  12.438  0.1679  0.0949  0.0015
    6MPD1    H613904   3.765   0.707  12.493 -2.0834  1.5061  0.7521
    6MPD1    H713905   3.709   0.829  12.407 -0.7459 -1.5840  0.2886
    7MPD2     C13906   4.272   0.399  13.243 -0.1605  0.4679 -0.0088
    7MPD2    C113907   4.394   0.390  13.177 -1.0607  0.6161 -0.0212
    7MPD2    C213908   4.451   0.264  13.165 -0.5524 -0.6532  0.0464
    7MPD2    C313909   4.395   0.147  13.214  0.1372 -0.7617  0.1455
    7MPD2    C413910   4.271   0.160  13.263  0.2776 -0.1441 -0.1497
    7MPD2    C513911   4.214   0.283  13.283 -0.2810  0.2349  0.2416
    7MPD2     H13912   4.547   0.255  13.115 -0.5693 -0.2063 -0.0691
    7MPD2    H113913   4.211   0.072  13.282  0.2872  0.2084  1.4574
    7MPD2    H213914   4.212   0.490  13.249  0.2935  0.8687 -1.4119
    7MPD2    H313915   4.127   0.288  13.347 -1.3416 -0.2095 -1.1533
    7MPD2     N13916   4.466   0.023  13.193  0.0832 -1.0196 -0.4476
    7MPD2    H513917   4.557   0.025  13.149  0.6444  0.4104  0.7612
    7MPD2    N113918   4.447   0.495  13.103  0.0198 -0.4605 -0.5316
    7MPD2    H713919   4.532   0.477  13.051 -1.7354 -0.6436 -3.3065
    8TMC3    C113920   4.488   4.510  13.172 -0.0384 -0.5482 -0.2054
    8TMC3    C213921   4.551   4.413  13.244 -0.7963 -0.0019 -1.1583
    8TMC3    C313922   4.663   4.363  13.179 -0.3410  0.7854  0.3526
    8TMC3    C413923   4.521   4.540  13.040 -0.5675  0.4323 -0.0360
    8TMC3    C513924   4.627   4.480  12.979 -0.5390 -0.0370  0.6260
    8TMC3    C613925   4.699   4.395  13.049  0.3863  0.0156 -0.1297
    8TMC3     C13926   4.429   4.619  13.249 -0.0193 -0.4327  0.0749
    8TMC3     O13927   4.369   4.598  13.352 -0.0850 -0.0024  0.3111
    8TMC3     H13928   4.550   4.416  13.353 -1.7485  0.2839 -1.1738
    8TMC3    H113929   4.446   4.594  12.984 -0.5443  0.5659  0.0627
    8TMC3    H213930   0.073   4.367  13.005  2.6512  3.6914  2.3904
    8TMC3    C713931   4.678   4.551  12.866  0.1124 -0.2205 -0.2278
    8TMC3    C813932   0.022   4.260  13.250 -0.1115  0.0138 -0.2544
    8TMC3    O113933   0.052   4.506  12.811  0.4733 -0.3481  0.3902
    8TMC3    O213934   0.139   4.240  13.210 -0.0013  0.1113 -0.7083
    9TMC3    C113935   4.383   0.803  12.787 -0.2701  0.4097 -1.1590
    9TMC3    C213936   4.481   0.731  12.720  0.1636 -0.1974 -0.4865
    9TMC3    C313937   4.572   0.664  12.787  0.8808  0.2621  0.5383
    9TMC3    C413938   4.376   0.783  12.918  0.0688  0.0790 -0.7801
    9TMC3    C513939   4.465   0.703  12.982 -0.7089 -0.1153  1.0145
    9TMC3    C613940   4.562   0.645  12.917 -0.2342 -0.5417  0.2580
    9TMC3     C13941   4.259   0.787  12.719  0.2926  0.2885  0.6170
    9TMC3     O13942   4.235   0.678  12.668 -0.1499  0.5412 -0.0393
    9TMC3     H13943   4.480   0.724  12.612  0.1427 -0.8260 -0.4454
    9TMC3    H113944   4.295   0.836  12.967 -0.7408 -2.1141  0.2336
    9TMC3    H213945   4.643   0.597  12.970 -0.0667 -0.7028 -0.1454
    9TMC3    C713946   4.391   0.621  13.076  0.3120 -0.1052 -0.3421
    9TMC3    C813947   4.635   0.555  12.713  0.6658  0.1505 -0.0187
    9TMC3    O113948   4.279   0.663  13.104  0.6354  0.4458 -0.1183
    9TMC3    O213949   4.700   0.574  12.612 -0.0221  0.2731  0.5177
   10MPD2     C13950   0.019   0.049  12.652  0.3823  0.5341 -0.5991
   10MPD2    C113951   4.661   0.068  12.769  0.3251  0.5303  0.0147
   10MPD2    C213952   4.614   0.196  12.791 -0.3308 -0.4119 -0.5754
   10MPD2    C313953   4.649   0.308  12.709 -0.0980  0.7188 -0.3708
   10MPD2    C413954   0.008   0.284  12.598  0.2773 -0.0166 -0.9154
   10MPD2    C513955   0.058   0.153  12.574 -0.9138  0.1876 -0.4325
   10MPD2     H13956   4.554   0.206  12.881 -0.0828 -0.6652 -0.3848
   10MPD2    H113957   0.023   0.365  12.527  1.1751 -0.7724 -1.5857
   10MPD2    H213958   0.046   4.671  12.618 -0.2227  0.5598 -1.1580
   10MPD2    H313959   0.120   0.139  12.486  1.1755  1.0136  0.9111
   10MPD2     N13960   4.601   0.430  12.763  1.2850 -0.3786 -0.0734
   10MPD2    H513961   4.536   0.421  12.840  1.4303  4.6039  0.6607
   10MPD2    N113962   4.620   4.677  12.853  0.3433  0.3510 -0.3965
   10MPD2    H713963   4.554   4.704  12.926 -0.7056 -2.3444 -0.3689
   11MPD2     C13964   0.918   4.456  14.263 -0.2823  0.6257  0.0917
   11MPD2    C113965   0.917   4.317  14.274 -0.4764  0.3854 -0.9176
   11MPD2    C213966   0.856   4.243  14.177  0.3058  0.3269 -0.1045
   11MPD2    C313967   0.805   4.307  14.064  0.0684  0.1164 -0.1646
   11MPD2    C413968   0.793   4.440  14.061 -0.6433  0.4564  0.1735
   11MPD2    C513969   0.854   4.514  14.157 -0.3143  0.1156 -0.4498
   11MPD2     H13970   0.880   4.137  14.179  0.2720  0.3380  0.8343
   11MPD2    H113971   0.743   4.496  13.983 -1.4028  1.1269  1.1420
   11MPD2    H213972   0.967   4.517  14.338  1.6011 -1.5232  0.6137
   11MPD2    H313973   0.857   4.621  14.142  1.4435 -0.0227 -1.0965
   11MPD2     N13974   0.755   4.233  13.956  0.3621 -0.0477  0.1681
   11MPD2    H513975   0.725   4.284  13.873 -0.6464 -0.1012  0.5064
   11MPD2    N113976   0.971   4.247  14.382 -0.0993  0.2972 -0.1961
   11MPD2    H713977   0.966   4.146  14.378 -0.0708  0.2824  0.1319
    1MPD1     C13978   3.604   0.127  16.766  0.1650 -0.7967  0.3494
    1MPD1    C113979   3.674   0.095  16.654 -0.2396 -0.4706 -0.4947
    1MPD1    C213980   3.787   0.166  16.613 -0.2502 -0.3412  0.1716
    1MPD1    C313981   3.824   0.279  16.691 -0.5744 -0.1904  1.3080
    1MPD1    C413982   3.752   0.308  16.810 -0.1431 -0.2171  0.0907
    1MPD1    C513983   3.650   0.226  16.847  0.7094 -0.2408  0.1350
    1MPD1     H13984   3.833   0.133  16.521  0.9028 -1.2381  1.0665
    1MPD1    H113985   3.776   0.403  16.856  0.3169 -0.0745 -0.4495
    1MPD1    H213986   3.520   0.065  16.793 -1.1890  0.7814 -0.2852
    1MPD1    H313987   3.595   0.251  16.937 -0.2428 -0.0921 -0.4863
    1MPD1     N13988   3.933   0.360  16.657 -0.1240  0.1786  0.2863
    1MPD1    H513989   3.944   0.435  16.724  2.5005 -0.0705  0.1190
    1MPD1    N113990   3.627   4.708  16.575  0.2997 -0.0495 -0.0741
    1MPD1    H613991   3.553   4.654  16.619 -0.6274  0.4373 -1.0359
    1MPD1    H713992   3.699   4.655  16.525 -1.6058 -1.1178 -1.6565
    2MPD1     C13993   0.045   0.927  16.772 -0.6657 -0.9124  0.7975
    2MPD1    C113994   0.049   0.881  16.637  0.8616  0.0655 -0.3542
    2MPD1    C213995   4.670   0.798  16.592 -0.6429 -0.3197  0.6536
    2MPD1    C313996   4.573   0.756  16.676  0.1816  0.0765  0.5289
    2MPD1    C413997   4.577   0.786  16.810  0.6324  0.4794 -0.1678
    2MPD1    C513998   4.663   0.880  16.854 -0.2307  0.4011  0.7095
    2MPD1     H13999   4.662   0.779  16.486  0.9089 -0.2569  0.5340
    2MPD1    H114000   4.488   0.764  16.868  0.7433 -1.2180 -0.6550
    2MPD1    H214001   0.109   1.005  16.813 -0.9890  0.9959 -2.2826
    2MPD1    H314002   4.657   0.918  16.955  1.0214 -0.3469  1.0593
    2MPD1     N14003   4.466   0.685  16.607  0.5610  0.5238 -0.0250
    2MPD1    H514004   4.486   0.655  16.512 -2.1980 -0.0044 -0.4149
    2MPD1    N114005   0.123   0.950  16.542  0.3809  0.5646  0.0560
    2MPD1    H614006   0.214   0.984  16.575  0.2332 -0.0813  1.1139
    2MPD1    H714007   0.148   0.883  16.470  0.2733  0.7900 -0.1926
    3TMC3    C114008   4.261   0.595  16.572  0.2863 -0.0663 -0.3007
    3TMC3    C214009   4.271   0.650  16.442  0.6429  0.4142 -0.3792
    3TMC3    C314010   4.184   0.605  16.344  0.3116 -0.1143 -0.0963
    3TMC3    C414011   4.164   0.503  16.612 -0.0621 -0.6372  0.2023
    3TMC3    C514012   4.086   0.468  16.509  0.0069  0.1651 -0.2489
    3TMC3    C614013   4.083   0.513  16.379 -0.1691  0.5696  0.4757
    3TMC3     C14014   4.360   0.632  16.664  0.1584 -0.2076  0.5115
    3TMC3     O14015   4.323   0.631  16.783 -0.2520  0.1719  0.2603
    3TMC3     H14016   4.339   0.732  16.421  0.6142  0.6775  0.5677
    3TMC3    H114017   4.154   0.455  16.709 -1.5988  0.5988  0.6687
    3TMC3    H214018   4.023   0.462  16.305 -0.4464  2.2254 -0.4350
    3TMC3    C714019   4.009   0.348  16.535  0.6567 -0.3881 -0.4828
    3TMC3    C814020   4.184   0.647  16.204 -0.7151 -0.0621 -0.2824
    3TMC3    O114021   4.001   0.271  16.439  0.0439 -0.9969 -0.5610
    3TMC3    O214022   4.088   0.614  16.133  0.2879  0.3384  0.2701
    4MPD1     C14023   4.456   0.806  15.802 -0.2975  0.1900 -0.1756
    4MPD1    C114024   4.530   0.827  15.914 -0.2324 -0.2041  0.0877
    4MPD1    C214025   4.457   0.826  16.028 -0.0647 -0.1140  0.0857
    4MPD1    C314026   4.338   0.754  16.039 -0.3315 -0.4841 -0.2716
    4MPD1    C414027   4.271   0.710  15.926  0.2591 -0.2009 -0.6852
    4MPD1    C514028   4.334   0.736  15.811 -0.2955  0.3715 -0.4859
    4MPD1     H14029   4.513   0.846  16.119 -0.1859 -0.1332  0.1651
    4MPD1    H114030   4.182   0.648  15.923 -0.5667  0.9871 -0.9306
    4MPD1    H214031   4.492   0.821  15.701  0.3010  0.5567  0.0988
    4MPD1    H314032   4.275   0.704  15.726 -2.0339 -1.1517  1.2936
    4MPD1     N14033   4.293   0.728  16.172 -0.5973  0.2439  0.2411
    4MPD1    H514034   4.353   0.764  16.246  0.0043 -0.3463  0.0439
    4MPD1    N114035   4.645   0.905  15.900 -0.2017 -0.1698 -0.2694
    4MPD1    H614036   4.708   0.898  15.980 -1.5013  0.5222  0.8084
    4MPD1    H714037   4.696   0.880  15.816 -1.3024 -3.0411 -0.0674
    1TCq1    O114038   4.279   1.133  11.724 -0.0852 -0.3067  0.2463
    1TCq1    C114039   4.206   1.098  11.833 -0.0869  0.1377 -0.2837
    1TCq1    O214040   4.196   1.162  11.938  0.1618 -0.4123  0.5338
    1TCq1    C214041   4.218   0.956  11.833  0.0814  0.2673  0.2553
    1TCq1    C314042   4.223   0.882  11.714 -0.2964 -0.0962 -0.8908
    1TCq1    C414043   4.246   0.751  11.738  0.1290  0.5332  0.3633
    1TCq1    C514044   4.277   0.690  11.853  0.0048 -0.4751 -0.2062
    1TCq1    C614045   4.273   0.770  11.962  0.6466 -1.1684  0.3929
    1TCq1    C714046   4.236   0.901  11.961  0.1352 -0.0438  0.6520
    1TCq1    C814047   4.297   0.704  12.091 -0.6728 -0.7006  0.1050
    1TCq1    O414048   4.270   0.771  12.188  0.7845  0.5791 -0.0963
    1TCq1    C914049   4.272   0.673  11.618 -0.4067  0.2288  0.6427
    1TCq1    O514050   4.212   0.697  11.509  0.3764 -0.2676 -0.2288
    1TCq1    O614051   4.354   0.580  11.634  0.6793 -0.0124 -0.5713
    1TCq1    H114052   4.284   1.060  11.659  1.8557  0.3976 -0.4081
    1TCq1    H214053   4.181   0.912  11.618 -1.8158  2.1595  0.4895
    1TCq1    H314054   4.287   0.582  11.854 -3.5913 -0.8294 -1.2626
    1TCq1    H414055   4.225   0.957  12.052  0.8893 -1.1307  1.4151
    2MPD1     C14056   4.431   0.341  12.412 -0.0064  0.7864 -0.3382
    2MPD1    C114057   4.474   0.310  12.284 -0.4143 -0.0624  0.2891
    2MPD1    C214058   4.431   0.388  12.179 -0.3387 -0.2016  0.4855
    2MPD1    C314059   4.355   0.490  12.200 -0.0914  0.0174 -0.1258
    2MPD1    C414060   4.309   0.524  12.324  0.3006 -0.6351  0.1048
    2MPD1    C514061   4.346   0.448  12.429  0.0157 -0.2111 -0.0724
    2MPD1     H14062   4.474   0.362  12.083  1.1500  0.0796  1.0834
    2MPD1    H114063   4.259   0.618  12.345  0.7974  0.6898 -4.5356
    2MPD1    H214064   4.459   0.278  12.496 -0.6011  0.4798 -0.3636
    2MPD1    H314065   4.300   0.472  12.525 -0.3421 -0.9707 -0.0523
    2MPD1     N14066   4.336   0.575  12.084  0.2574 -0.1219 -0.3806
    2MPD1    H514067   4.351   0.525  11.997 -3.4605  3.6793 -3.2353
    2MPD1    N114068   4.544   0.192  12.262 -0.1541 -0.1692  0.2718
    2MPD1    H614069   4.621   0.211  12.199 -0.6440 -1.0876 -0.6029
    2MPD1    H714070   4.578   0.173  12.356 -1.0987  1.2317  0.9073
    1TCq1    O114071   1.803   1.570   0.703 -0.1652 -0.2347  0.2566
    1TCq1    C114072   1.842   1.484   0.598 -0.4565  0.3947  0.3962
    1TCq1    O214073   1.935   1.405   0.610 -0.5457  0.7502  0.0732
    1TCq1    C214074   1.801   1.537   0.468 -0.2173 -0.3244 -0.5757
    1TCq1    C314075   1.758   1.667   0.452 -0.7606  0.2245  0.0200
    1TCq1    C414076   1.743   1.719   0.329  0.7207  0.3788  0.2235
    1TCq1    C514077   1.794   1.658   0.217 -0.2042 -0.1711 -0.6055
    1TCq1    C614078   1.854   1.533   0.231  0.0094 -0.5804  0.1774
    1TCq1    C714079   1.855   1.474   0.357 -0.1884  0.6276  0.4365
    1TCq1    C814080   1.897   1.459   0.116 -0.4635 -0.2413  0.5093
    1TCq1    O414081   1.938   1.345   0.137 -0.1608  0.3646 -0.9357
    1TCq1    C914082   1.696   1.854   0.309  0.5287  0.4592  1.1247
    1TCq1    O514083   1.632   1.902   0.407 -0.4081  0.4793 -0.6231
    1TCq1    O614084   1.698   1.897   0.196  0.0249 -0.0399 -0.4458
    1TCq1    H114085   1.709   1.591   0.685  0.0325  1.9177  1.7625
    1TCq1    H214086   1.744   1.737   0.534 -2.8137  0.6584 -0.7096
    1TCq1    H314087   1.748   1.682   0.122 -1.0327  1.4753  0.2109
    1TCq1    H414088   1.901   1.378   0.378 -2.3505  0.0959  2.7169
    2MPD1     C14089   2.050   1.427  17.319  0.5949  0.3894 -0.4442
    2MPD1    C114090   2.060   1.554  17.362 -0.2557  0.6986  0.2499
    2MPD1    C214091   2.001   1.594  17.481  0.2632 -0.2445  0.1876
    2MPD1    C314092   1.957   1.501  17.567  0.2752  0.9710  0.1171
    2MPD1    C414093   1.963   1.373  17.527  0.0529  0.1825  0.6942
    2MPD1    C514094   2.005   1.338  17.405 -0.4017 -0.4167  0.5339
    2MPD1     H14095   1.984   1.698  17.505  0.2138 -0.1153 -0.4092
    2MPD1    H114096   1.930   1.294  17.594  1.0829 -0.8247  0.0226
    2MPD1    H214097   2.080   1.387  17.223 -0.6660  2.4536 -1.7041
    2MPD1    H314098   2.019   1.232  17.387  1.7718  0.0867 -0.8740
    2MPD1     N14099   1.912   1.542   0.011 -0.2954  0.5516 -0.9748
    2MPD1    H514100   1.904   1.643   0.023 -0.5669  0.7772 -2.9922
    2MPD1    N114101   2.111   1.661  17.282  0.0649 -0.4129 -0.8251
    2MPD1    H614102   2.160   1.719  17.350  0.7309 -0.9950 -0.8054
    2MPD1    H714103   2.185   1.621  17.224  1.4453  0.6118  0.2314
    1MPD1     C14104   1.404   4.369  12.452  0.0351  0.0515 -0.4788
    1MPD1    C114105   1.422   4.487  12.526  0.3093 -0.0814 -0.1659
    1MPD1    C214106   1.486   4.588  12.465 -0.1707 -0.0511  0.1108
    1MPD1    C314107   1.536   4.581  12.334 -0.5751  0.0139 -0.4263
    1MPD1    C414108   1.519   4.467  12.260 -0.4755 -0.0249 -0.6555
    1MPD1    C514109   1.464   4.359  12.326 -0.0671  0.0415 -0.8532
    1MPD1     H14110   1.500   4.683  12.516  0.1282 -0.0820  0.0848
    1MPD1    H114111   1.561   4.458  12.160  1.4891 -1.5841  0.3219
    1MPD1    H214112   1.356   4.279  12.489 -2.6061  0.7990 -2.0985
    1MPD1    H314113   1.454   4.259  12.284 -0.5944  0.0677 -0.7916
    1MPD1     N14114   1.580   4.696  12.273 -0.1327  0.1351 -0.2586
    1MPD1    H514115   1.564   0.063  12.321  0.2478 -0.5217  1.0808
    1MPD1    N114116   1.398   4.493  12.663  0.0186 -0.2230  0.4085
    1MPD1    H614117   1.306   4.452  12.674  0.1011 -0.0603  1.7155
    1MPD1    H714118   1.389   4.592  12.685  0.0853 -0.3854  1.1660
    2MPD1     C14119   0.968   4.043  11.440  0.2352  0.1090 -0.9831
    2MPD1    C114120   0.833   4.012  11.416 -0.3155  1.1997  0.2477
    2MPD1    C214121   0.758   4.084  11.324  0.0569 -0.3353 -0.3963
    2MPD1    C314122   0.820   4.194  11.256  0.3440 -0.0086  0.5034
    2MPD1    C414123   0.946   4.230  11.286 -0.2525  0.7740  0.2998
    2MPD1    C514124   1.017   4.159  11.379  0.3204 -0.1159 -0.1331
    2MPD1     H14125   0.659   4.059  11.288  0.4376 -2.1148 -0.2119
    2MPD1    H114126   0.989   4.311  11.230 -1.5577  2.9261  2.4037
    2MPD1    H214127   1.024   3.991  11.517 -1.1167  1.1775  0.7283
    2MPD1    H314128   1.116   4.196  11.405 -0.8128  1.7555  1.5982
    2MPD1     N14129   0.752   4.279  11.162 -0.2654 -0.3996  0.0023
    2MPD1    H514130   0.801   4.357  11.119 -0.0041  1.1243  3.0592
    2MPD1    N114131   0.780   3.901  11.484  0.5377 -0.4291  0.0749
    2MPD1    H614132   0.679   3.910  11.497  0.3554 -1.0467 -0.9207
    2MPD1    H714133   0.824   3.880  11.572  0.1437 -1.5552  0.0018
    3MPD1     C14134   0.419   4.386  10.161 -0.1544  0.1492  0.0058
    3MPD1    C114135   0.468   4.506  10.205  0.1663  0.0215  0.4994
    3MPD1    C214136   0.490   4.523  10.342 -0.3778 -0.3001 -0.3488
    3MPD1    C314137   0.476   4.419  10.435  0.1321  0.4102 -0.6295
    3MPD1    C414138   0.447   4.297  10.381  0.1517  0.0293  0.4477
    3MPD1    C514139   0.415   4.285  10.251  0.0143  0.2314  0.0332
    3MPD1     H14140   0.518   4.620  10.382 -0.0696 -0.1718 -0.8757
    3MPD1    H114141   0.433   4.207  10.440  0.0760  0.0024  0.3882
    3MPD1    H214142   0.406   4.356  10.058  0.9817  0.6105 -0.2772
    3MPD1    H314143   0.369   4.195  10.212  1.2845  0.2515 -1.5125
    3MPD1     N14144   0.500   4.443  10.570  0.2053 -0.2714 -0.2290
    3MPD1    H514145   0.529   4.540  10.583 -2.7449  0.8144 -1.7266
    3MPD1    N114146   0.463   4.617  10.121  0.5433  0.4275 -0.7775
    3MPD1    H614147   0.505   4.593  10.031  0.4527  1.7911 -1.1883
    3MPD1    H714148   0.494   4.711  10.146  1.8960 -0.3184  0.3032
    4MPD2     C14149   1.226   0.472  12.017  0.4324  0.2863 -0.6896
    4MPD2    C114150   1.339   0.467  11.935  0.2369 -0.1415 -0.8941
    4MPD2    C214151   1.319   0.473  11.794 -0.2295 -0.3345  0.1505
    4MPD2    C314152   1.198   0.495  11.739  0.4690 -0.1510  0.2450
    4MPD2    C414153   1.087   0.510  11.825  0.1799 -0.1432  0.3074
    4MPD2    C514154   1.098   0.496  11.962 -0.0549 -0.5736  0.7972
    4MPD2     H14155   1.400   0.450  11.726  0.6494 -0.5239  1.2433
    4MPD2    H114156   0.996   0.526  11.769 -0.4405  0.8203  1.5783
    4MPD2    H214157   1.234   0.470  12.125 -0.2225  0.8570 -0.6323
    4MPD2    H314158   1.012   0.498  12.028 -1.0658  2.2494 -0.6417
    4MPD2     N14159   1.174   0.500  11.602 -0.1959 -0.1247  0.3747
    4MPD2    H514160   1.085   0.475  11.560  0.0098 -0.1932 -0.0277
    4MPD2    N114161   1.469   0.444  11.983 -0.8566  0.1852  0.1805
    4MPD2    H714162   1.536   0.406  11.917 -0.6563  0.4649  0.2181
    5TMC3    C114163   1.624   0.350  12.133 -0.6334  0.1403  0.5731
    5TMC3    C214164   1.601   0.228  12.177  0.1927  0.7644  0.2017
    5TMC3    C314165   1.669   0.126  12.120 -0.2980  0.1340  0.1933
    5TMC3    C414166   1.714   0.372  12.031 -0.1097 -0.2348 -0.2394
    5TMC3    C514167   1.767   0.267  11.963 -1.0158  1.1009 -0.0133
    5TMC3    C614168   1.751   0.139  12.011  0.6960  0.3495 -0.1819
    5TMC3     C14169   1.501   0.420  12.114 -0.3172 -0.3832 -0.0568
    5TMC3     O14170   1.432   0.452  12.211 -0.0776  0.1449 -0.1986
    5TMC3     H14171   1.518   0.216  12.246 -1.1743  1.1999 -1.3541
    5TMC3    H114172   1.735   0.472  11.994 -2.9667  0.6464  0.5729
    5TMC3    H214173   1.780   0.052  11.953  0.8354  0.2123  0.0913
    5TMC3    C714174   1.757   0.287  11.818  0.9043  0.0000 -0.4168
    5TMC3    C814175   1.653   4.708  12.158 -0.4864  0.2832  1.0178
    5TMC3    O114176   1.691   0.389  11.796  0.6695  0.0403  0.1938
    5TMC3    O214177   1.698   4.619  12.085 -0.2907  0.0900  0.7458
    6TMC3    C114178   0.586   4.349  11.016 -0.1747 -0.1314 -0.6640
    6TMC3    C214179   0.543   4.313  10.893  0.5274  0.0675 -0.2271
    6TMC3    C314180   0.555   4.399  10.788  0.0042  1.0531 -0.7827
    6TMC3    C414181   0.624   4.480  11.039  0.1048  0.1688 -0.7575
    6TMC3    C514182   0.641   4.558  10.926  0.2055 -0.7369 -0.6127
    6TMC3    C614183   0.615   4.523  10.797 -0.3585  0.2849 -0.0105
    6TMC3     C14184   0.631   4.248  11.107  0.0230 -0.2051 -0.6747
    6TMC3     O14185   0.560   4.147  11.111 -0.1749 -0.5755 -0.0809
    6TMC3     H14186   0.522   4.208  10.874 -2.1540  0.7693 -1.0671
    6TMC3    H114187   0.660   4.508  11.137 -3.3195  4.2733 -0.6442
    6TMC3    H214188   0.646   4.588  10.715 -0.1465  0.4284  0.1851
    6TMC3    C714189   0.709   4.685  10.951 -0.0467 -0.0339 -0.0079
    6TMC3    C814190   0.497   4.351  10.669  0.4394 -0.3402  0.2296
    6TMC3    O114191   0.756   4.701  11.063 -0.0558  0.4363  0.0986
    6TMC3    O214192   0.469   4.232  10.667  0.5413 -0.6590  0.2929
    7MPD2     C14193   1.701   0.117  11.333 -0.5426 -0.2320 -0.1076
    7MPD2    C114194   1.657   0.223  11.402 -0.4330 -0.1102 -0.2915
    7MPD2    C214195   1.699   0.255  11.528  0.2115  0.7118 -0.4444
    7MPD2    C314196   1.781   0.179  11.597  0.4033  0.1597 -0.3895
    7MPD2    C414197   1.829   0.068  11.533  0.5398 -0.1128 -0.0480
    7MPD2    C514198   1.796   0.039  11.403 -0.2749 -0.7425  0.2104
    7MPD2     H14199   1.658   0.340  11.582  0.6492 -0.0504  1.0956
    7MPD2    H114200   1.879   4.712  11.591  1.0394  1.0365  1.0514
    7MPD2    H214201   1.668   0.100  11.231 -0.0976  3.1681 -0.8224
    7MPD2    H314202   1.833   4.666  11.362  0.8442  0.1419 -0.8014
    7MPD2     N14203   1.805   0.184  11.739  0.4633  0.4644  0.1884
    7MPD2    H514204   1.861   0.113  11.786 -0.6437  0.0913  0.9327
    7MPD2    N114205   1.559   0.310  11.356 -0.8317 -1.4293  0.1589
    7MPD2    H714206   1.528   0.386  11.416  1.5167  0.8274 -1.4513
    8TMC3    C114207   1.411   0.415  11.206 -0.2587 -0.1327 -0.3945
    8TMC3    C214208   1.295   0.365  11.142  0.0863  0.0587  0.8209
    8TMC3    C314209   1.175   0.389  11.198  0.4301 -0.0139 -0.1979
    8TMC3    C414210   1.398   0.507  11.308 -0.5426 -0.2785 -0.2797
    8TMC3    C514211   1.271   0.511  11.372 -0.5391 -0.2861  0.1543
    8TMC3    C614212   1.161   0.453  11.317  0.2776  0.3317  0.1385
    8TMC3     C14213   1.508   0.311  11.233  0.0123  0.8512 -0.3264
    8TMC3     O14214   1.528   0.233  11.139  0.1825 -0.9155 -0.2252
    8TMC3     H14215   1.304   0.287  11.068  0.5365  1.1820 -0.3114
    8TMC3    H114216   1.490   0.558  11.337 -0.7892 -1.0767  1.8913
    8TMC3    H214217   1.065   0.466  11.366 -0.3301 -0.5065 -0.8552
    8TMC3    C714218   1.282   0.528  11.515 -0.5365  0.0950  0.1664
    8TMC3    C814219   1.060   0.322  11.143  0.5300  0.1304 -0.1415
    8TMC3    O114220   1.397   0.558  11.537  0.2012 -0.2433 -0.4703
    8TMC3    O214221   0.967   0.286  11.212  0.2448 -0.1077  0.3601
    9MPD2     C14222   0.954   0.373  10.801  0.5119  0.3166 -0.4599
    9MPD2    C114223   0.960   0.306  10.916 -0.3737  0.2548  0.2823
    9MPD2    C214224   0.882   0.202  10.941 -1.0287 -0.4506 -0.3091
    9MPD2    C314225   0.787   0.167  10.844  0.4688  0.9072  0.5236
    9MPD2    C414226   0.792   0.219  10.719 -0.0601 -0.0096  0.5554
    9MPD2    C514227   0.863   0.336  10.703  0.0112  0.6149  0.6478
    9MPD2     H14228   0.903   0.152  11.035 -0.1862  2.9440  1.3001
    9MPD2    H114229   0.714   0.205  10.646  0.4334 -0.2453  0.0727
    9MPD2    H214230   1.014   0.460  10.778 -0.2129  0.8421 -0.3632
    9MPD2    H314231   0.839   0.410  10.627 -1.7018 -0.5757  0.0288
    9MPD2     N14232   0.695   0.061  10.851 -0.6879  0.6855  0.0174
    9MPD2    H514233   0.634   0.037  10.773  1.7637 -0.7813 -1.4784
    9MPD2    N114234   1.060   0.346  11.006 -0.7021 -0.9452  0.4173
    9MPD2    H714235   1.130   0.409  10.969  0.1004 -2.2930 -0.3711
    1MPD1     C14236   1.484   3.766  16.655 -0.0706  0.1350 -0.5146
    1MPD1    C114237   1.413   3.777  16.542  0.3136  0.1387  0.0666
    1MPD1    C214238   1.444   3.705  16.430 -0.8742  0.9517  0.2648
    1MPD1    C314239   1.562   3.633  16.438  0.1615  0.1144  0.1805
    1MPD1    C414240   1.642   3.629  16.550 -0.3159 -0.4984  0.4145
    1MPD1    C514241   1.594   3.686  16.666  0.3214  0.5201 -0.9274
    1MPD1     H14242   1.377   3.704  16.345  0.9400 -1.2536 -1.1313
    1MPD1    H114243   1.734   3.572  16.542 -0.5028 -0.8291  0.6210
    1MPD1    H214244   1.440   3.813  16.741  1.9251  0.2957  0.4308
    1MPD1    H314245   1.642   3.690  16.763  0.2359 -3.1078 -0.7245
    1MPD1     N14246   1.610   3.557  16.329  0.3826 -0.7201  0.5158
    1MPD1    H514247   1.700   3.512  16.342  1.0113  0.7334  1.2310
    1MPD1    N114248   1.287   3.834  16.549  0.1212  0.1076  0.1971
    1MPD1    H614249   1.268   3.905  16.619 -1.3905  1.4235 -1.5674
    1MPD1    H714250   1.263   3.878  16.461 -1.1100 -1.0711 -0.0623
    2MPD1     C14251   1.572   3.219  15.254 -0.0723 -0.2841  0.1988
    2MPD1    C114252   1.594   3.105  15.331  0.0631 -0.4129  0.5216
    2MPD1    C214253   1.615   3.131  15.464 -0.3859 -0.5201 -0.6056
    2MPD1    C314254   1.592   3.254  15.529  0.5927 -0.1825  1.1340
    2MPD1    C414255   1.540   3.355  15.452  0.4658 -0.1528 -0.5721
    2MPD1    C514256   1.528   3.335  15.317 -0.7163 -0.4333 -0.3857
    2MPD1     H14257   1.655   3.052  15.528  1.5896 -0.4416 -1.7306
    2MPD1    H114258   1.498   3.447  15.491  0.2220 -0.8004  0.6957
    2MPD1    H214259   1.562   3.213  15.147  0.3464  0.9631  0.0917
    2MPD1    H314260   1.496   3.418  15.255  0.1460  0.9965  1.0817
    2MPD1     N14261   1.606   3.262  15.670  0.6425  0.2500 -0.0020
    2MPD1    H514262   1.642   3.180  15.718 -0.5840 -0.4989 -0.3783
    2MPD1    N114263   1.647   2.993  15.263  0.5160  0.3199 -0.0699
    2MPD1    H614264   1.589   2.975  15.181  0.8828  0.3908 -0.3464
    2MPD1    H714265   1.652   2.908  15.318 -2.1818 -0.2346 -0.6813
    3TCq2    C114266   1.575   3.371  15.749 -0.5845  0.0839  0.0233
    3TCq2    O214267   1.516   3.471  15.711 -0.5159 -0.3853 -0.3126
    3TCq2    C214268   1.609   3.365  15.892  0.2301 -0.1920 -0.1461
    3TCq2    C314269   1.692   3.267  15.935  0.4677  0.7113 -0.0854
    3TCq2    C414270   1.729   3.263  16.069  0.4360  0.9053 -0.2654
    3TCq2    C514271   1.681   3.350  16.164 -0.7213  0.4596  0.3587
    3TCq2    C614272   1.602   3.451  16.117  0.1628 -0.2081 -0.1887
    3TCq2    C714273   1.560   3.456  15.984 -0.4029  0.1104 -0.7565
    3TCq2    C814274   1.547   3.547  16.207  0.3173  0.0532 -0.5011
    3TCq2    O414275   1.451   3.605  16.156 -0.7078 -0.1704 -0.3350
    3TCq2    C914276   1.801   3.151  16.117  0.2368  0.1629  0.4201
    3TCq2    O514277   1.805   3.050  16.039 -0.3725  0.2433  0.0774
    3TCq2    O614278   1.870   3.159  16.226  0.1787  0.4663  0.6442
    3TCq2    H214279   1.750   3.206  15.866  0.0503 -0.6171  0.7397
    3TCq2    H314280   1.725   3.346  16.263 -0.3658 -1.7877  0.1180
    3TCq2    H414281   1.482   3.522  15.948  0.1337  1.4127  0.4987
    1TCq1    O114282   4.395   2.396  13.137 -0.1187  0.0531  0.1631
    1TCq1    C114283   4.386   2.529  13.141  1.1271  1.1519 -0.4229
    1TCq1    O214284   4.280   2.592  13.129  0.1378  0.5269 -0.1652
    1TCq1    C214285   4.493   2.571  13.224 -0.2813 -0.0308  0.1786
    1TCq1    C314286   4.470   2.661  13.327  0.3933  0.7611 -0.0914
    1TCq1    C414287   4.569   2.705  13.409 -0.6783  0.2139 -0.0926
    1TCq1    C514288   4.701   2.666  13.379 -0.0850  0.1470 -0.2682
    1TCq1    C614289   4.718   2.575  13.277  0.0983 -0.6568  0.0065
    1TCq1    C714290   4.618   2.532  13.196 -0.7491 -0.0988  0.3721
    1TCq1    C814291   0.130   2.532  13.237  0.4114 -0.1548  0.7297
    1TCq1    O414292   0.137   2.425  13.179 -0.1674 -0.0379 -0.3778
    1TCq1    C914293   4.541   2.793  13.524  0.0320  0.9208 -0.1540
    1TCq1    O514294   4.424   2.795  13.566  0.3512  0.4136  0.8822
    1TCq1    O614295   4.633   2.876  13.558  0.3583 -0.2948 -0.0765
    1TCq1    H114296   4.486   2.367  13.159 -0.4726 -1.8359 -0.8773
    1TCq1    H214297   4.364   2.683  13.338  0.3344 -1.0675  2.7937
    1TCq1    H314298   0.062   2.694  13.444 -1.6213  0.3053  1.5959
    1TCq1    H414299   4.635   2.460  13.117 -0.3268  1.0495 -0.5810
    2MPD2     C14300   0.423   2.464  13.270  0.4039  0.0072 -0.4629
    2MPD2    C114301   0.361   2.581  13.317 -0.5101 -0.3392  0.1443
    2MPD2    C214302   0.434   2.665  13.404 -0.0524 -0.1868  0.3582
    2MPD2    C314303   0.566   2.635  13.435 -0.1840  0.2758 -0.6180
    2MPD2    C414304   0.628   2.518  13.382  0.1607 -0.6111 -0.3192
    2MPD2    C514305   0.552   2.440  13.301  0.7453 -0.3776  0.5180
    2MPD2     H14306   0.395   2.749  13.460  0.1188  0.6569 -0.8008
    2MPD2    H114307   0.726   2.488  13.416 -0.8101 -2.9787  0.3995
    2MPD2    H214308   0.373   2.398  13.200 -0.8838 -0.5086  0.9403
    2MPD2    H314309   0.601   2.355  13.253  0.8036 -0.4494  0.7040
    2MPD2     N14310   0.627   2.712  13.534 -0.3594 -0.5410  0.0908
    2MPD2    H514311   0.566   2.775  13.584  2.6109  2.9920 -0.7109
    2MPD2    N114312   0.225   2.616  13.292  0.8223  0.4270 -0.0462
    2MPD2    H714313   0.190   2.707  13.320 -2.2821 -0.9383  0.4892
    3TCq1    O114314   0.982   2.686  14.125  0.1448  0.0470  0.3587
    3TCq1    C114315   1.001   2.710  13.990 -0.0193 -0.0800 -0.7753
    3TCq1    O214316   1.110   2.688  13.931 -0.1434  0.4020 -0.3497
    3TCq1    C214317   0.878   2.742  13.922 -0.5268  0.0096 -0.6570
    3TCq1    C314318   0.783   2.821  13.985  0.4294  0.4759  0.6609
    3TCq1    C414319   0.679   2.858  13.906 -0.2897 -0.4004 -0.9615
    3TCq1    C514320   0.681   2.846  13.768 -0.0352 -0.9944  0.5022
    3TCq1    C614321   0.779   2.768  13.710  0.0901  0.3497 -0.4015
    3TCq1    C714322   0.884   2.729  13.785 -0.5640 -0.2499  0.1887
    3TCq1    C814323   0.764   2.707  13.577  0.0778 -0.0735 -0.0711
    3TCq1    O414324   0.858   2.647  13.522  0.9590  0.3894 -0.1568
    3TCq1    C914325   0.580   2.935  13.976 -0.0757 -0.0242 -0.7103
    3TCq1    O514326   0.595   2.954  14.099  0.5148 -0.0391  0.7989
    3TCq1    O614327   0.475   2.954  13.905  0.5815 -0.1839 -0.4798
    3TCq1    H114328   0.891   2.657  14.150 -0.2537 -0.0778 -1.2384
    3TCq1    H214329   0.795   2.842  14.091 -0.9894  1.1531  0.6862
    3TCq1    H314330   0.604   2.896  13.711  2.4531 -0.2998 -2.2182
    3TCq1    H414331   0.967   2.676  13.740  2.1445  4.2191  0.0587
    1MPD2     C14332   3.843   4.152  15.090 -0.0422  0.0772 -0.3527
    1MPD2    C114333   3.819   4.046  15.004 -0.6968 -0.4236  0.4908
    1MPD2    C214334   3.895   3.933  15.011 -0.5826  0.7041 -0.1297
    1MPD2    C314335   3.978   3.909  15.118  0.1350  0.1955  0.2010
    1MPD2    C414336   4.009   4.016  15.196  0.4339 -0.5722 -0.2568
    1MPD2    C514337   3.942   4.139  15.182  0.0078  0.4314 -0.2934
    1MPD2     H14338   3.888   3.864  14.929  0.3755 -0.7894  1.0504
    1MPD2    H114339   4.087   4.013  15.272  0.1668  1.6369  0.1008
    1MPD2    H214340   3.789   4.246  15.091  2.0027  1.2616 -0.3032
    1MPD2    H314341   3.958   4.228  15.241  1.6520 -0.2208  0.2558
    1MPD2     N14342   4.049   3.793  15.129  0.2465 -0.4698 -0.4354
    1MPD2    H514343   4.124   3.789  15.197  0.7073  2.2086 -0.7965
    1MPD2    N114344   3.724   4.074  14.905 -0.2640 -0.3946 -0.1118
    1MPD2    H714345   3.687   4.169  14.898  1.4600  0.3311  0.5896
    2TMC3    C114346   3.567   4.036  14.728  0.5705  0.6984 -0.0175
    2TMC3    C214347   3.524   3.927  14.660 -0.3105  0.3360 -0.3387
    2TMC3    C314348   3.396   3.879  14.675 -0.1232 -0.1284  0.0881
    2TMC3    C414349   3.481   4.101  14.815  0.2542  0.3858  0.1402
    2TMC3    C514350   3.359   4.041  14.832  1.1206  0.1566  0.0383
    2TMC3    C614351   3.319   3.927  14.778 -0.3337  0.1883  0.9689
    2TMC3     C14352   3.686   3.987  14.805 -0.7444  0.3542  0.5997
    2TMC3     O14353   3.728   3.874  14.776 -0.4437 -0.1119  0.6891
    2TMC3     H14354   3.588   3.896  14.579 -1.1127  0.9251 -1.1980
    2TMC3    H114355   3.506   4.188  14.873  2.3441 -0.4626  0.5032
    2TMC3    H214356   3.220   3.883  14.784 -0.4489  0.1761 -0.9963
    2TMC3    C714357   3.285   4.070  14.952 -0.0740  0.0833  0.0018
    2TMC3    C814358   3.396   3.734  14.675 -1.1569 -0.5888 -0.2242
    2TMC3    O114359   3.210   3.980  14.988  0.1656 -0.3717  0.1063
    2TMC3    O214360   3.289   3.676  14.678  0.9809 -0.5781  0.8279
    3TCq1    O114361   2.887   0.340  15.495  0.6215 -0.0779  0.5799
    3TCq1    C114362   2.990   0.349  15.582  0.0342 -0.1476  0.6649
    3TCq1    O214363   3.006   0.447  15.648 -0.3391 -0.2511 -0.4613
    3TCq1    C214364   3.094   0.279  15.510 -0.9473  0.0307  0.2679
    3TCq1    C314365   3.194   0.343  15.443  0.7280 -0.1597  0.4117
    3TCq1    C414366   3.259   0.269  15.345  0.3992 -0.2870 -0.7199
    3TCq1    C514367   3.217   0.143  15.316  0.1094 -0.2171  0.0345
    3TCq1    C614368   3.118   0.077  15.383 -0.1453 -0.1959  0.0402
    3TCq1    C714369   3.054   0.149  15.479 -0.4635  0.4307 -0.6010
    3TCq1    C814370   3.081   4.659  15.353  0.3699 -0.0384  0.3011
    3TCq1    O414371   2.986   4.615  15.415  0.3777  0.1563  0.3926
    3TCq1    C914372   3.363   0.334  15.272  0.1902 -0.3956  0.9505
    3TCq1    O514373   3.415   0.438  15.313  0.3670  0.2077  0.1430
    3TCq1    O614374   3.400   0.277  15.167 -0.1294  0.0762  0.5585
    3TCq1    H114375   2.912   0.279  15.422 -0.9539  1.0138 -0.8644
    3TCq1    H214376   3.228   0.441  15.472  0.3135  0.1318 -0.0904
    3TCq1    H314377   3.269   0.096  15.234  2.0984 -0.0980  1.2277
    3TCq1    H414378   2.970   0.115  15.538  0.6604 -0.6158  0.4021
    4MPD2     C14379   3.068   4.375  15.305 -0.4017  0.2556  0.3318
    4MPD2    C114380   3.132   4.457  15.217  0.3578  0.4263 -1.1013
    4MPD2    C214381   3.208   4.404  15.111  0.6413 -0.6425 -0.3944
    4MPD2    C314382   3.219   4.262  15.099  0.3905  0.1297  0.1783
    4MPD2    C414383   3.156   4.186  15.195 -0.3015 -0.5801 -0.1428
    4MPD2    C514384   3.078   4.239  15.294 -0.2413  0.9061 -0.1637
    4MPD2     H14385   3.272   4.468  15.053 -1.6089  1.6057 -0.3773
    4MPD2    H114386   3.148   4.078  15.204  0.9353 -0.7372 -0.9841
    4MPD2    H214387   2.999   4.411  15.381 -1.7002  0.4506 -0.9444
    4MPD2    H314388   3.012   4.175  15.351 -1.2698  1.8621 -0.2882
    4MPD2     N14389   3.287   4.203  14.988 -0.5799  0.3450  0.2050
    4MPD2    H514390   3.337   4.266  14.927  1.3312 -1.5256 -0.1743
    4MPD2    N114391   3.148   4.596  15.248 -0.7556 -0.7302  0.3070
    4MPD2    H714392   3.206   4.655  15.190 -0.4761 -0.6366  0.6855
    5TMC2    C114393   4.015   3.341  15.053 -0.1028  0.6858 -0.6215
    5TMC2    C214394   4.015   3.314  15.182  0.3423 -0.1444 -0.3455
    5TMC2    C314395   4.059   3.408  15.267 -0.9080 -0.0647 -0.4105
    5TMC2    C414396   4.070   3.463  15.010  0.1921 -0.2938  0.2238
    5TMC2    C514397   4.106   3.568  15.093  0.0050  0.0558  0.1300
    5TMC2    C614398   4.099   3.539  15.223 -0.4923 -0.2833  0.0426
    5TMC2     C14399   3.901   3.296  14.971 -0.0342 -0.0537  0.4961
    5TMC2     O14400   3.847   3.189  14.993 -0.1473  0.5871 -0.0044
    5TMC2     H14401   3.957   3.229  15.218  0.1751 -0.9199 -2.4637
    5TMC2    H114402   4.075   3.473  14.902  1.6566  0.4926  0.3726
    5TMC2    H214403   4.132   3.611  15.298  0.6781 -1.3834  0.5819
    5TMC2    C714404   4.024   3.677  15.065 -0.1306 -0.1537  0.5218
    5TMC2    C814405   4.038   3.393  15.411  0.0712  0.0184  0.1000
    5TMC2    O114406   3.937   3.640  14.989  0.4764  0.2125  0.0480
    5TMC2    O214407   3.970   3.474  15.470 -0.1273 -0.1271 -0.0589
    5TMC2    O514408   4.042   3.261  15.429  0.1663  0.3003  0.5693
    5TMC2    H514409   4.120   3.225  15.381 -0.0892 -0.1077  0.4588
    6MPD2     C14410   3.489   3.444  14.696 -0.0662  0.4384  0.5178
    6MPD2    C114411   3.569   3.552  14.717 -0.1383 -0.1550  0.7999
    6MPD2    C214412   3.693   3.526  14.781  0.1346 -0.3653  0.1905
    6MPD2    C314413   3.729   3.405  14.826  0.1907  0.0668 -0.4878
    6MPD2    C414414   3.647   3.300  14.809 -0.0910 -0.4991  0.3124
    6MPD2    C514415   3.533   3.317  14.733 -0.4115  0.2437 -0.5086
    6MPD2     H14416   3.761   3.609  14.794  0.9285 -0.8288 -1.0029
    6MPD2    H114417   3.672   3.198  14.838 -2.0149 -0.1169  3.2534
    6MPD2    H214418   3.390   3.454  14.653  0.4505  1.6830 -0.4023
    6MPD2    H314419   3.470   3.235  14.699  0.2945  0.0575 -1.3879
    6MPD2     N14420   3.847   3.404  14.910  0.0099  0.2558  0.3106
    6MPD2    H514421   3.889   3.496  14.922  3.1391 -1.3052  1.4631
    6MPD2    N114422   3.526   3.681  14.697 -0.0760 -0.2846  0.1512
    6MPD2    H714423   3.598   3.750  14.713  1.7529 -1.3886 -3.2739
  945NH3     N114424   2.659   1.043   3.085 -0.3968  0.6041  0.1905
  945NH3     H214425   2.741   0.984   3.076  0.8414  2.1355  1.4454
  945NH3     H314426   2.699   1.134   3.102  1.7034 -0.5001  1.0909
  945NH3     H414427   2.633   1.054   2.987 -3.5606  0.5626  1.0144
  946SOD     NA14428   3.037   0.246  14.439 -0.1767 -0.0252  0.4668
  947SOD     NA14429   1.318   3.252  14.672  0.5646  0.4030  0.1912
  948SOD     NA14430   2.651   2.297  14.025  0.2141 -0.1481  0.0031
  949SOD     NA14431   3.669   1.478  10.581  0.4545  0.2398  0.3216
  950SOD     NA14432   4.710   2.534  12.148 -0.5163  0.3158  0.3973
  951SOD     NA14433   3.825   2.743  17.193  0.2034  0.2293  0.1056
  952SOD     NA14434   3.144   0.411  11.309  0.3352  0.4344 -0.2190
  953SOD     NA14435   3.917   1.804  10.229  0.2746  0.2916  0.0087
  954SOD     NA14436   0.580   3.581  11.707  0.5829 -0.1477 -0.2491
  955SOD     NA14437   0.408   3.532  15.413 -0.2379 -0.5406 -0.3853
  956SOD     NA14438   3.864   2.588  11.070  0.5773  0.1587  0.1527
  957SOD     NA14439   2.838   4.562   6.552 -0.3392 -1.0189 -0.1673
  958SOD     NA14440   1.940   2.954  16.260 -0.2034 -0.7253 -0.1119
  959SOD     NA14441   1.913   3.190  14.873 -0.0482  0.3078 -0.3028
  960SOD     NA14442   1.155   0.288  12.747 -0.0460 -0.2556 -0.2166
  961SOD     NA14443   4.111   2.615  11.644 -0.2692  0.2672 -0.0147
  962SOD     NA14444   0.464   2.894  14.271  0.3609 -0.0161 -0.2147
  963SOD     NA14445   4.537   3.004  12.322  0.0197 -0.1938 -0.2074
  964SOD     NA14446   3.595   1.079   9.319  0.7571 -0.1209 -0.0123
  965SOD     NA14447   3.976   2.349  10.861 -0.1141  0.1195  0.6559
  966SOD     NA14448   2.082   3.654   1.931  0.4548 -0.8513 -0.2258
  967SOD     NA14449   1.690   1.139  17.186  0.1040  0.0854 -0.4457
  968SOD     NA14450   1.540   2.051   0.253 -0.3352  0.4794  0.0578
  969SOD     NA14451   3.390   2.179  10.236  0.0052  0.1739 -0.7721
  970SOD     NA14452   0.426   2.692  11.180 -0.6399  0.0823  0.4647
  971SOD     NA14453   3.617   2.424  13.421  0.5734  0.4937 -0.0566
  972SOD     NA14454   3.368   0.608  11.159 -0.1068 -0.3758  0.8293
  973SOD     NA14455   1.812   2.374   0.670  0.8206  0.0509  0.1440
  974SOD     NA14456   0.892   3.293  14.403  0.0807  0.0698  0.0780
  975SOD     NA14457   0.666   1.727   0.033 -0.0810  0.1187  0.4574
  976SOD     NA14458   4.206   2.494  10.718  0.2189  0.1784  0.1345
  977SOD     NA14459   3.105   2.179  13.156 -0.5971  0.3924 -0.1838
  978SOD     NA14460   1.673   2.054   0.555 -0.0557 -0.6182  0.8654
  979SOD     NA14461   0.315   4.098  15.869 -0.1393  0.3744  0.3294
  980SOD     NA14462   1.096   0.440  14.712 -0.1719 -0.5507  0.3974
  981SOD     NA14463   1.196   4.200   0.338  0.1178  0.0481  0.6058
  982SOD     NA14464   1.117   3.719  10.270 -0.5087  0.2319  0.1344
  983SOD     NA14465   4.565   2.894   9.181  0.4623  0.3631 -0.6026
  984SOD     NA14466   3.465   3.290  10.966 -0.0351  0.1401 -0.0214
  985SOD     NA14467   2.917   1.804   9.414 -0.5856 -0.4026  0.4465
  986SOD     NA14468   3.401   0.948   1.687  0.3424 -0.3030 -0.0329
  987SOD     NA14469   4.487   2.956  13.719 -0.2597 -0.1194  0.3103
  988SOD     NA14470   1.225   3.315  14.972  0.0288 -0.3437  0.2469
  989SOD     NA14471   0.705   0.677  17.624  0.4576 -0.1839  0.5669
  990SOD     NA14472   4.389   2.138   5.042  0.3195  0.4556  0.1088
  991SOD     NA14473   4.351   3.389  16.117 -0.3940  0.1361 -0.3972
  992SOD     NA14474   3.873   0.151  15.149  0.2910  0.2608 -0.1503
  993SOD     NA14475   4.311   1.246   6.306  0.4811 -0.1251  0.3625
  994SOD     NA14476   0.730   3.343  12.458 -0.0742  0.1786 -0.1853
  995SOD     NA14477   0.711   3.049  14.253  0.7792  0.1706 -0.3941
  996SOD     NA14478   0.225   2.013   3.803  0.1515 -0.6382  0.2332
  997SOD     NA14479   4.116   2.836   7.123  0.3405 -0.4164 -0.2953
  998SOD     NA14480   3.235   2.581   8.883 -0.4794  0.5277  0.0130
  999SOD     NA14481   2.187   1.234   2.184 -0.0614  0.6562  0.5603
 1000SOD     NA14482   2.614   4.102   2.932 -0.3986 -0.1549 -0.1458
 1001SOD     NA14483   2.738   3.084  11.017 -0.0187 -0.3683  0.2087
 1002SOD     NA14484   0.926   3.552  15.577  0.0603  0.1746 -0.2697
 1003SOD     NA14485   2.857   0.628   0.574  0.0472 -0.2403 -0.2296
 1004SOD     NA14486   3.085   4.309   3.624 -0.1864 -0.0614  0.7325
 1005SOD     NA14487   3.493   1.943  14.821  0.0099 -0.0264 -0.1002
 1006SOD     NA14488   0.687   2.236   0.127  0.0929 -0.0737 -0.1671
 1007SOD     NA14489   4.026   2.369  11.291 -0.2337 -0.0661  0.1545
 1008SOD     NA14490   3.416   0.282  15.950  0.1832  0.0539 -0.3546
 1009SOD     NA14491   3.490   0.313  16.254 -0.1067 -0.2944 -0.2636
 1010SOD     NA14492   2.872   4.599  11.143 -0.1579 -0.4779 -0.4292
 1011SOD     NA14493   4.579   3.104  10.457  0.2778 -0.0497 -0.7671
 1012SOL     OW14494   0.845   4.528   3.250  0.4424 -0.1783  0.3954
 1012SOL    HW114495   0.896   4.584   3.191 -1.0477  1.1270  0.3423
 1012SOL    HW214496   0.764   4.539   3.200  0.6538  0.7891  0.2578
 1013SOL     OW14497   3.897   0.734   6.466 -0.0630 -0.5068  0.0063
 1013SOL    HW114498   3.954   0.658   6.458 -1.2038 -1.2030 -1.6656
 1013SOL    HW214499   3.935   0.782   6.393 -1.3576  1.5014  0.6379
 1014SOL     OW14500   4.243   3.341  10.169 -0.2718 -0.3012 -0.4056
 1014SOL    HW114501   4.303   3.393  10.116 -1.1606  1.7414  0.5906
 1014SOL    HW214502   4.165   3.396  10.173 -0.4627 -0.5770 -0.3274
 1015SOL     OW14503   3.333   0.371   4.812  0.8498 -0.8776 -0.2341
 1015SOL    HW114504   3.375   0.299   4.859  0.8751 -0.6633  0.0727
 1015SOL    HW214505   3.396   0.395   4.744 -2.1519 -0.6211 -2.9229
 1016SOL     OW14506   3.889   0.571   0.195 -0.4082 -0.0215 -0.0094
 1016SOL    HW114507   3.920   0.631   0.263 -0.0836 -1.3453  0.9986
 1016SOL    HW214508   3.885   0.485   0.235 -1.2828 -0.0807 -0.2172
 1017SOL     OW14509   3.117   3.494  14.595 -0.2598  0.1214 -0.3925
 1017SOL    HW114510   3.168   3.570  14.623 -1.3066  0.2114  1.3173
 1017SOL    HW214511   3.100   3.464  14.685 -1.9197  1.8156 -0.1555
 1018SOL     OW14512   0.321   2.396   1.388 -0.3360 -0.4391 -0.2617
 1018SOL    HW114513   0.232   2.360   1.388 -1.1017  1.4473 -0.7279
 1018SOL    HW214514   0.379   2.324   1.360 -0.7351 -1.0540  0.4901
 1019SOL     OW14515   2.811   3.103  10.100  0.2235 -0.3422  0.2647
 1019SOL    HW114516   2.876   3.127  10.166  0.6568 -3.8048  1.0491
 1019SOL    HW214517   2.797   3.011  10.121  0.5606 -0.5887 -0.5742
 1020SOL     OW14518   2.679   3.058   4.779  0.2958 -0.4376  0.4522
 1020SOL    HW114519   2.691   2.978   4.727 -2.6153 -1.5303  1.4698
 1020SOL    HW214520   2.594   3.042   4.819  0.3272  2.1946  1.5603
 1021SOL     OW14521   3.371   3.384  16.097 -0.2405 -0.7284  0.5283
 1021SOL    HW114522   3.442   3.377  16.162 -0.6551 -0.6101  0.9907
 1021SOL    HW214523   3.315   3.453  16.131 -0.5223 -0.7830  0.1789
 1022SOL     OW14524   1.768   2.570   7.942  0.1661  0.2509  0.4267
 1022SOL    HW114525   1.818   2.547   8.020 -0.9834  2.5752  1.8154
 1022SOL    HW214526   1.737   2.658   7.963 -0.1987 -0.0410  1.0858
 1023SOL     OW14527   1.344   3.415   3.056  0.6264  0.1891 -0.1628
 1023SOL    HW114528   1.363   3.507   3.041  2.3454 -0.1279  0.0589
 1023SOL    HW214529   1.279   3.394   2.989  2.8428  1.7013 -2.7848
 1024SOL     OW14530   0.032   3.775   1.677  0.4723  0.0286  0.4027
 1024SOL    HW114531   0.075   3.696   1.710 -3.8876 -2.4200  0.1929
 1024SOL    HW214532   4.678   3.738   1.631  0.8893 -1.3192  0.7892
 1025SOL     OW14533   1.367   4.022   2.590  0.3008 -0.4274 -0.1510
 1025SOL    HW114534   1.445   3.967   2.580 -0.4121 -1.0265 -2.4776
 1025SOL    HW214535   1.288   3.967   2.585  0.0054 -0.1308  1.3735
 1026SOL     OW14536   1.829   3.768  13.189  0.2015  0.2328  0.7857
 1026SOL    HW114537   1.830   3.842  13.128  0.3743 -0.7046 -0.3364
 1026SOL    HW214538   1.920   3.746  13.207  0.5548  1.3897  0.4633
 1027SOL     OW14539   1.119   1.963  12.215 -0.8434 -0.0918  0.0261
 1027SOL    HW114540   1.172   1.945  12.292 -0.0751 -1.1018 -0.7380
 1027SOL    HW214541   1.109   2.058  12.222 -0.9206 -0.3114  2.9535
 1028SOL     OW14542   4.634   1.709   3.705  0.0789 -0.2283 -0.3414
 1028SOL    HW114543   4.681   1.637   3.662  1.2347  0.4707 -0.2229
 1028SOL    HW214544   4.687   1.781   3.673  0.4653 -0.7059 -0.7888
 1029SOL     OW14545   1.249   3.768  15.039 -0.1504  0.2834 -0.2474
 1029SOL    HW114546   1.307   3.731  15.106  2.3049  3.4012 -0.6436
 1029SOL    HW214547   1.243   3.694  14.979  1.8961 -0.4099  0.4159
 1030SOL     OW14548   4.122   3.079   2.966  0.0589 -0.2368  0.3369
 1030SOL    HW114549   4.041   3.070   3.015  0.1549  0.8271  0.7094
 1030SOL    HW214550   4.110   3.021   2.892  0.8477  1.3541 -1.0392
 1031SOL     OW14551   0.079   3.656   1.013  0.0378 -0.6042  0.2029
 1031SOL    HW114552   0.100   3.562   1.009  1.6176 -0.2356 -0.1638
 1031SOL    HW214553   0.010   3.667   0.948 -0.7156  0.3692  1.1740
 1032SOL     OW14554   0.390   0.872   7.222  0.1632 -0.0909  0.4848
 1032SOL    HW114555   0.358   0.961   7.235 -1.1549 -0.4743 -0.2267
 1032SOL    HW214556   0.473   0.876   7.270  0.6149  0.2671 -0.3176
 1033SOL     OW14557   0.592   2.492   7.964  0.3418  0.5371  0.5814
 1033SOL    HW114558   0.511   2.522   7.922  1.3897  1.8264 -0.5533
 1033SOL    HW214559   0.627   2.447   7.888  0.5268  1.4888  0.0975
 1034SOL     OW14560   4.149   2.817   5.423  0.1578 -0.2681  0.0311
 1034SOL    HW114561   4.243   2.807   5.437  0.2982  0.9999  0.0436
 1034SOL    HW214562   4.158   2.897   5.371  1.0685 -0.7990 -0.6425
 1035SOL     OW14563   3.866   1.397  10.459 -0.2738  0.2829 -0.4307
 1035SOL    HW114564   3.899   1.328  10.517  1.2980  0.9861 -0.4827
 1035SOL    HW214565   3.913   1.476  10.487  2.1716 -0.9448 -1.0852
 1036SOL     OW14566   2.579   4.373   6.231  0.1708 -0.0614 -0.1764
 1036SOL    HW114567   2.622   4.377   6.146 -1.6664  0.1024 -1.0941
 1036SOL    HW214568   2.493   4.334   6.214 -0.2711  1.5026 -1.4960
 1037SOL     OW14569   1.632   1.282  11.112  0.3100 -0.4225 -0.0024
 1037SOL    HW114570   1.636   1.365  11.066 -0.8201 -0.3528  0.0269
 1037SOL    HW214571   1.663   1.304  11.200  1.1850  1.7078 -0.8491
 1038SOL     OW14572   0.148   3.294   8.452  0.5714  0.0845 -0.2396
 1038SOL    HW114573   0.186   3.357   8.391  0.4656 -1.0099 -1.4631
 1038SOL    HW214574   0.073   3.260   8.403  0.8507  0.2051 -0.7518
 1039SOL     OW14575   0.630   4.469   2.114 -0.2379  0.2472 -0.0308
 1039SOL    HW114576   0.569   4.542   2.110  2.0855  2.1613 -0.0297
 1039SOL    HW214577   0.625   4.440   2.023  0.5519 -0.8680  0.2793
 1040SOL     OW14578   1.456   2.195   8.905  0.5088  0.2346 -0.4672
 1040SOL    HW114579   1.520   2.263   8.926  1.1487  0.2431 -2.4411
 1040SOL    HW214580   1.500   2.146   8.836  0.2218 -0.1204 -0.3977
 1041SOL     OW14581   0.162   1.072   7.374  0.5299  0.2525 -0.7356
 1041SOL    HW114582   0.230   1.140   7.374 -2.6041  3.4090 -1.1559
 1041SOL    HW214583   0.163   1.047   7.281  1.3413 -2.0285 -0.0947
 1042SOL     OW14584   3.498   3.410   8.643 -0.2049 -1.1669  0.2332
 1042SOL    HW114585   3.456   3.344   8.587  0.6876 -1.7398  0.2456
 1042SOL    HW214586   3.587   3.420   8.610 -0.3533  1.7097  0.6871
 1043SOL     OW14587   4.041   3.041   7.200  0.5282  0.3706  0.0642
 1043SOL    HW114588   3.953   3.029   7.235  0.1537  3.6210  0.2453
 1043SOL    HW214589   4.043   3.130   7.164 -0.2744 -0.0220 -0.9566
 1044SOL     OW14590   2.532   2.327   9.038 -0.6119 -0.3965  0.1502
 1044SOL    HW114591   2.516   2.242   9.079  0.6654 -0.1480  1.1836
 1044SOL    HW214592   2.605   2.358   9.092 -1.0038  1.5428 -0.4714
 1045SOL     OW14593   0.015   3.797  11.489 -0.1121  0.1944 -0.0083
 1045SOL    HW114594   4.681   3.775  11.414  0.1853  2.0677 -0.7698
 1045SOL    HW214595   0.039   3.886  11.466 -0.7811  0.3326 -0.1535
 1046SOL     OW14596   4.307   0.024  12.399 -0.2292 -0.2180  0.4173
 1046SOL    HW114597   4.273   0.060  12.481  0.0491  0.6948  0.1345
 1046SOL    HW214598   4.362   0.094  12.365 -1.5050  0.6020  0.0313
 1047SOL     OW14599   0.755   2.177   2.782  0.2329 -0.2619  0.1157
 1047SOL    HW114600   0.810   2.196   2.857  0.1751  1.3923 -0.2548
 1047SOL    HW214601   0.698   2.109   2.818  2.5169 -3.0195 -1.4854
 1048SOL     OW14602   4.651   4.572   2.793  0.8684 -0.1094 -0.5543
 1048SOL    HW114603   4.686   4.647   2.841  0.0633 -0.9195  1.2871
 1048SOL    HW214604   4.669   4.507   2.861  0.3319  0.5375  0.2135
 1049SOL     OW14605   0.377   2.740  13.728 -1.0950 -0.6833  0.0634
 1049SOL    HW114606   0.420   2.790  13.798 -1.0572 -1.4690  0.6081
 1049SOL    HW214607   0.298   2.788  13.705 -0.3309  0.3475 -0.4267
 1050SOL     OW14608   1.605   0.018  14.515  0.1752 -0.1289  0.9274
 1050SOL    HW114609   1.667   4.718  14.445  0.0313 -0.3558  0.8689
 1050SOL    HW214610   1.563   4.654  14.523 -0.4708 -0.0851 -1.9033
 1051SOL     OW14611   0.586   2.816   9.067  0.5843  0.4948  0.1052
 1051SOL    HW114612   0.573   2.833   8.973 -0.9329  1.8885  0.5774
 1051SOL    HW214613   0.633   2.733   9.058  1.7847  1.3488 -1.4725
 1052SOL     OW14614   1.146   3.238   4.834 -0.0389  0.2163 -0.0120
 1052SOL    HW114615   1.239   3.248   4.814 -0.6186  1.1410 -2.2753
 1052SOL    HW214616   1.116   3.327   4.818 -3.2799 -0.8113  0.4125
 1053SOL     OW14617   3.101   1.394   9.133  0.6536 -0.6457 -0.3133
 1053SOL    HW114618   3.050   1.354   9.203  1.6622 -1.8146 -0.2478
 1053SOL    HW214619   3.175   1.416   9.191 -0.8686  0.4920  1.1816
 1054SOL     OW14620   1.346   0.396   6.988 -0.1640 -0.1355  0.0045
 1054SOL    HW114621   1.368   0.321   7.043 -0.1241 -0.6064 -0.6568
 1054SOL    HW214622   1.280   0.436   7.045 -0.9308 -0.3413 -0.7483
 1055SOL     OW14623   2.777   1.039   7.101  0.7256  0.0388 -0.5633
 1055SOL    HW114624   2.689   1.024   7.067  0.0041  0.1655  1.2103
 1055SOL    HW214625   2.805   0.948   7.109 -1.6215 -0.6820 -0.5162
 1056SOL     OW14626   4.653   2.573   4.870 -0.1988  0.1087  0.0966
 1056SOL    HW114627   4.709   2.651   4.870 -1.6967  1.1695  0.0393
 1056SOL    HW214628   4.697   2.519   4.935 -0.5033  1.3895  1.3546
 1057SOL     OW14629   2.980   0.112   9.303  0.0483 -0.0346  0.1552
 1057SOL    HW114630   3.023   0.080   9.382 -1.6122 -2.1287  0.2256
 1057SOL    HW214631   3.050   0.101   9.240  0.0067 -1.0094  0.2727
 1058SOL     OW14632   3.322   2.993   6.638  0.0423 -0.7167 -0.3558
 1058SOL    HW114633   3.325   2.977   6.733 -3.0179 -1.9736 -0.4405
 1058SOL    HW214634   3.353   3.083   6.634 -0.5252 -0.2008  6.0223
 1059SOL     OW14635   3.101   3.705   9.840  0.3795  0.2366  0.2601
 1059SOL    HW114636   3.171   3.737   9.898  0.0852  0.6964  0.3658
 1059SOL    HW214637   3.147   3.701   9.757  0.5322 -4.6002  0.5996
 1060SOL     OW14638   2.823   0.123   1.821 -0.6249 -0.0767  0.1864
 1060SOL    HW114639   2.864   0.199   1.779  0.7987 -0.1182  1.5211
 1060SOL    HW214640   2.897   0.064   1.834 -1.2533 -1.2998 -1.7394
 1061SOL     OW14641   3.984   0.395   4.545 -1.0153 -0.2982 -0.2314
 1061SOL    HW114642   3.892   0.383   4.522 -1.1102  1.1963 -0.6389
 1061SOL    HW214643   4.021   0.351   4.468  0.3172  1.9796 -0.8969
 1062SOL     OW14644   0.007   4.615   7.148  0.3351 -0.5270 -0.4294
 1062SOL    HW114645   0.037   4.689   7.096  3.8038 -1.2721  0.4695
 1062SOL    HW214646   4.656   4.581   7.096  2.6483 -2.3776 -2.4463
 1063SOL     OW14647   0.699   3.339   5.266  0.1925 -0.0995  0.1788
 1063SOL    HW114648   0.751   3.419   5.270  0.0597 -0.0360  0.5739
 1063SOL    HW214649   0.639   3.379   5.203  0.6263 -0.5365 -0.5144
 1064SOL     OW14650   2.644   1.036   7.565 -0.8585  0.4143 -0.3058
 1064SOL    HW114651   2.555   1.018   7.596 -0.9358  0.9102 -0.2456
 1064SOL    HW214652   2.686   0.951   7.547 -0.0118  0.5127  1.2496
 1065SOL     OW14653   4.305   2.996  13.860  0.2641  0.0306  0.2437
 1065SOL    HW114654   4.251   3.049  13.919  0.4523 -0.2349  0.6470
 1065SOL    HW214655   4.300   2.913  13.907 -1.0562  0.9589  1.7422
 1066SOL     OW14656   2.980   4.017   1.572 -0.4322 -0.9571 -0.0836
 1066SOL    HW114657   3.016   4.043   1.657  0.5704  1.4623 -1.2592
 1066SOL    HW214658   2.978   3.922   1.585  0.9560 -1.1459 -1.1537
 1067SOL     OW14659   0.188   0.239  17.195 -0.6438 -0.4554 -0.2392
 1067SOL    HW114660   0.245   0.272  17.126  1.1722 -1.4065  0.8080
 1067SOL    HW214661   0.120   0.307  17.189 -0.1998 -0.3675 -3.8267
 1068SOL     OW14662   2.427   1.702   9.441 -0.1896  0.2294 -0.4932
 1068SOL    HW114663   2.441   1.670   9.352 -0.2563 -0.0068 -0.4165
 1068SOL    HW214664   2.481   1.639   9.488  0.3645 -0.1610 -1.6389
 1069SOL     OW14665   0.100   1.757   6.549  0.6882 -0.3561  0.5802
 1069SOL    HW114666   0.083   1.671   6.587  0.9923 -0.5634  0.2511
 1069SOL    HW214667   0.030   1.816   6.576 -0.3298 -1.7999  1.0913
 1070SOL     OW14668   4.263   1.927   8.389  0.3068 -0.8357 -0.2186
 1070SOL    HW114669   4.281   1.998   8.328 -2.0078 -0.7199 -0.7515
 1070SOL    HW214670   4.252   1.973   8.473 -1.3193  0.6891 -1.2789
 1071SOL     OW14671   0.258   2.379   0.436  0.3733  0.3386  0.6285
 1071SOL    HW114672   0.199   2.447   0.467  0.4709 -0.7638  3.2321
 1071SOL    HW214673   0.330   2.438   0.411  0.5698  0.1738  0.7971
 1072SOL     OW14674   1.412   0.543   6.744 -0.2428 -0.1546 -0.6836
 1072SOL    HW114675   1.324   0.532   6.708 -0.2691 -1.9198 -0.0553
 1072SOL    HW214676   1.396   0.504   6.830 -2.5264  2.1433 -0.0346
 1073SOL     OW14677   3.200   2.912   2.812 -0.0483  0.3563 -0.2772
 1073SOL    HW114678   3.280   2.953   2.845  0.6243 -0.2110 -1.1976
 1073SOL    HW214679   3.171   2.970   2.741  1.3242 -0.1763 -1.2521
 1074SOL     OW14680   2.610   0.349  15.417  0.1306  0.4922  0.1471
 1074SOL    HW114681   2.543   0.309  15.472  0.7834 -1.5526 -0.5150
 1074SOL    HW214682   2.687   0.296  15.438  0.6885  1.6605  1.0562
 1075SOL     OW14683   3.724   3.369   7.707  0.7951 -0.7360  0.2688
 1075SOL    HW114684   3.692   3.424   7.635  1.5963  0.9448  1.1847
 1075SOL    HW214685   3.688   3.403   7.789 -0.1864  3.5014 -1.8963
 1076SOL     OW14686   1.387   1.774   8.632 -0.3634  0.7763 -0.1419
 1076SOL    HW114687   1.299   1.762   8.668 -0.7624  1.6805 -0.8270
 1076SOL    HW214688   1.445   1.797   8.705  0.2053  0.2763 -0.4352
 1077SOL     OW14689   0.458   1.006   1.232 -0.1427 -0.3211 -0.3279
 1077SOL    HW114690   0.455   1.100   1.247 -1.0076 -0.4426  0.2285
 1077SOL    HW214691   0.514   0.979   1.305 -0.1315  1.2883  0.2479
 1078SOL     OW14692   0.405   3.487   9.054 -0.4273 -0.1443 -0.5785
 1078SOL    HW114693   0.377   3.405   9.014  1.2181 -0.4246 -1.1311
 1078SOL    HW214694   0.464   3.455   9.122 -1.4815  1.0428  0.9072
 1079SOL     OW14695   1.034   1.643   6.030 -0.2195 -0.3349 -0.0111
 1079SOL    HW114696   0.944   1.612   6.033 -0.1563 -0.2455  2.5857
 1079SOL    HW214697   1.082   1.573   6.073  1.6422  0.6567 -0.4317
 1080SOL     OW14698   1.084   4.416   2.078 -0.7863 -0.4073  0.2504
 1080SOL    HW114699   1.021   4.452   2.141  1.5597  1.6980  1.4322
 1080SOL    HW214700   1.042   4.335   2.050 -0.5578 -0.3674 -0.2001
 1081SOL     OW14701   1.459   2.430   0.765  0.0456 -0.1282  0.1537
 1081SOL    HW114702   1.453   2.525   0.775 -1.3795 -0.5145  2.7729
 1081SOL    HW214703   1.524   2.418   0.695  1.6013 -0.6869  1.7104
 1082SOL     OW14704   4.693   4.661   3.181 -0.3019  0.1044  0.4663
 1082SOL    HW114705   4.706   4.639   3.273 -2.5373  1.4947  1.1283
 1082SOL    HW214706   4.715   4.577   3.141 -2.7279 -0.2281 -0.1901
 1083SOL     OW14707   0.455   2.725   4.292 -0.0995 -0.1640  0.1583
 1083SOL    HW114708   0.523   2.710   4.227 -0.7386  1.8870 -0.9716
 1083SOL    HW214709   0.467   2.814   4.325 -1.6312 -0.9134  2.7428
 1084SOL     OW14710   4.477   0.155   2.927 -0.0135 -0.3084  0.3052
 1084SOL    HW114711   4.519   0.146   3.013 -0.0089 -2.1628  0.1081
 1084SOL    HW214712   4.537   0.204   2.872  0.5049 -0.1793  0.9806
 1085SOL     OW14713   2.049   3.357   5.884  0.0240 -0.3771 -0.9826
 1085SOL    HW114714   2.035   3.451   5.872 -0.4415 -0.5140 -1.4431
 1085SOL    HW214715   2.137   3.369   5.922  0.1116  1.9641 -1.9458
 1086SOL     OW14716   3.445   1.503   2.150  0.0321 -0.4140 -0.9735
 1086SOL    HW114717   3.536   1.500   2.118 -0.1119  0.6128 -1.4603
 1086SOL    HW214718   3.456   1.556   2.229 -4.1888 -1.7224  0.4787
 1087SOL     OW14719   0.730   2.839  15.446  0.0405  0.1210 -0.3621
 1087SOL    HW114720   0.769   2.825  15.360  0.1949  0.4480 -0.3450
 1087SOL    HW214721   0.723   2.748  15.475  1.4394  0.8742  2.3694
 1088SOL     OW14722   0.688   2.196   2.080 -0.1008 -0.3248  0.3796
 1088SOL    HW114723   0.670   2.203   2.174 -1.3320 -0.2174  0.1353
 1088SOL    HW214724   0.781   2.177   2.075 -0.3729 -1.5406 -0.1461
 1089SOL     OW14725   2.756   3.905  10.582  0.5149  0.0260 -0.0088
 1089SOL    HW114726   2.701   3.983  10.586  0.8193  0.1089  3.0170
 1089SOL    HW214727   2.720   3.873  10.499  1.1883  0.6271 -0.5315
 1090SOL     OW14728   3.153   2.666   3.543 -0.5810  0.7767  0.2324
 1090SOL    HW114729   3.132   2.709   3.626  0.1190  3.3100 -0.8973
 1090SOL    HW214730   3.229   2.609   3.559 -1.7927 -0.8372  0.2155
 1091SOL     OW14731   1.553   2.431   4.644 -0.0435 -0.7490 -0.4769
 1091SOL    HW114732   1.631   2.416   4.696  0.5599 -1.7752 -1.6513
 1091SOL    HW214733   1.575   2.522   4.623  0.6906 -0.9660 -0.6553
 1092SOL     OW14734   3.102   2.522   6.289 -0.2034  0.1862  0.7213
 1092SOL    HW114735   3.117   2.439   6.334 -1.6936  0.2021  1.2711
 1092SOL    HW214736   3.059   2.564   6.364 -1.4174  0.0164  0.1207
 1093SOL     OW14737   4.605   3.747   8.547 -0.0004 -0.3071 -0.2991
 1093SOL    HW114738   4.539   3.797   8.498  1.4588 -1.6004 -3.6244
 1093SOL    HW214739   4.656   3.732   8.467  0.4414  2.7951 -0.6021
 1094SOL     OW14740   0.010   1.748  12.714 -0.4171  0.2746  0.6718
 1094SOL    HW114741   4.649   1.799  12.706 -0.2390  0.6885  1.3893
 1094SOL    HW214742   0.062   1.815  12.758 -0.6523  2.1041 -1.8280
 1095SOL     OW14743   1.248   4.697   0.249  0.1319 -0.2872 -0.5072
 1095SOL    HW114744   1.310   4.678   0.319  0.5024 -0.1409 -0.7997
 1095SOL    HW214745   1.292   0.037   0.190  0.0937  0.4498  0.2372
 1096SOL     OW14746   2.713   2.373  14.254 -0.0751  0.0308  0.5626
 1096SOL    HW114747   2.729   2.464  14.277  1.0735 -0.1075  0.3261
 1096SOL    HW214748   2.730   2.321  14.333 -0.1891  1.2120  1.3707
 1097SOL     OW14749   3.105   1.033   7.200 -0.0809 -0.1507  0.2170
 1097SOL    HW114750   3.047   0.964   7.232  0.2111  0.0476  1.1548
 1097SOL    HW214751   3.175   1.025   7.264 -0.4059 -0.4140  0.5425
 1098SOL     OW14752   1.743   1.595   7.243 -0.2056 -0.0580  0.2843
 1098SOL    HW114753   1.719   1.549   7.163 -1.4152  1.6416 -0.3226
 1098SOL    HW214754   1.707   1.677   7.209  1.3067  0.9051  0.9878
 1099SOL     OW14755   1.855   0.334   2.287  0.2800 -0.0940  0.6564
 1099SOL    HW114756   1.869   0.277   2.362  2.8251  1.4099  1.3498
 1099SOL    HW214757   1.912   0.408   2.308 -0.8505  0.8355  0.3874
 1100SOL     OW14758   4.680   0.162   5.692  0.5517  0.4731 -0.8074
 1100SOL    HW114759   4.657   0.252   5.715 -2.4663  0.2624 -2.8424
 1100SOL    HW214760   4.593   0.121   5.701  1.5833 -1.2534  1.1751
 1101SOL     OW14761   3.015   3.021   6.167  0.1691  0.4345 -0.1722
 1101SOL    HW114762   3.011   2.982   6.254 -0.4264  2.1469  0.5645
 1101SOL    HW214763   3.083   2.963   6.134 -0.5430  0.6001 -1.9415
 1102SOL     OW14764   2.344   4.266  15.200  0.2101 -0.6991 -0.2303
 1102SOL    HW114765   2.264   4.219  15.177 -0.3435 -0.8892  2.1483
 1102SOL    HW214766   2.353   4.333  15.132 -0.3302 -0.7658 -0.3668
 1103SOL     OW14767   4.115   0.037   2.506 -0.2656  0.4484 -0.6046
 1103SOL    HW114768   4.059   0.018   2.581 -1.1223  2.9347 -0.6096
 1103SOL    HW214769   4.061   0.004   2.434 -0.3374  1.0941 -0.8529
 1104SOL     OW14770   1.284   2.374   6.724  0.4192  0.2543  0.1719
 1104SOL    HW114771   1.288   2.469   6.733  1.2115  0.2644 -0.2757
 1104SOL    HW214772   1.224   2.360   6.797 -1.3754  0.7588 -1.2113
 1105SOL     OW14773   4.131   2.411  11.737  0.0716  0.2988  0.4413
 1105SOL    HW114774   4.210   2.396  11.788 -0.3257 -1.3773  0.5760
 1105SOL    HW214775   4.122   2.324  11.697 -0.5857  0.1198  0.9792
 1106SOL     OW14776   3.641   1.571   5.151 -0.7601 -0.7306 -0.3811
 1106SOL    HW114777   3.627   1.529   5.236  0.3537 -0.2190  0.0547
 1106SOL    HW214778   3.583   1.513   5.102 -2.2640  0.5903 -0.1820
 1107SOL     OW14779   2.515   3.863   4.762  0.0345  0.0105 -0.1751
 1107SOL    HW114780   2.476   3.887   4.846 -0.2449 -2.0110  0.2720
 1107SOL    HW214781   2.525   3.768   4.772 -0.9584 -0.0885 -0.0363
 1108SOL     OW14782   1.597   2.202  13.862  0.0840  0.1002  0.3370
 1108SOL    HW114783   1.661   2.251  13.810 -1.2492  0.9508 -0.5210
 1108SOL    HW214784   1.650   2.136  13.906 -0.6988 -0.3649  0.5842
 1109SOL     OW14785   1.214   0.596   5.860  0.0738  0.2555 -0.3297
 1109SOL    HW114786   1.201   0.683   5.899 -0.0991 -0.0452  0.2859
 1109SOL    HW214787   1.131   0.595   5.813 -0.0988  1.2105 -0.0410
 1110SOL     OW14788   2.524   0.885   8.750  0.5286  0.3192 -0.1967
 1110SOL    HW114789   2.546   0.943   8.823 -2.5274  0.9524  0.2243
 1110SOL    HW214790   2.444   0.933   8.732  1.2526  1.5058 -0.2398
 1111SOL     OW14791   1.534   3.696  11.171  0.2400 -0.1055  0.0931
 1111SOL    HW114792   1.546   3.662  11.259  1.5072 -0.8047 -0.3437
 1111SOL    HW214793   1.601   3.765  11.172  0.2932 -0.1275 -1.9092
 1112SOL     OW14794   3.369   3.189   8.110 -0.7548  0.2696  0.6144
 1112SOL    HW114795   3.413   3.116   8.153 -0.7629  0.4923  0.9976
 1112SOL    HW214796   3.413   3.264   8.150 -1.8948  0.5642  1.3021
 1113SOL     OW14797   4.176   0.743   3.989  0.1949  0.4868  0.1057
 1113SOL    HW114798   4.155   0.739   4.082 -1.8156  0.1157 -0.3718
 1113SOL    HW214799   4.256   0.795   3.992 -0.5430  1.5434  1.1215
 1114SOL     OW14800   2.122   2.869  11.402 -0.3198 -0.0725 -0.5538
 1114SOL    HW114801   2.207   2.892  11.364 -0.2701  0.2411 -0.2555
 1114SOL    HW214802   2.130   2.775  11.417  0.8948 -0.4136 -3.4517
 1115SOL     OW14803   0.802   2.804  11.530 -0.5265 -0.1862  0.2402
 1115SOL    HW114804   0.798   2.794  11.435  0.1692 -2.3846  0.4378
 1115SOL    HW214805   0.776   2.895  11.542 -0.6486 -0.3740  1.4484
 1116SOL     OW14806   2.007   1.836   8.039  0.1814  0.5938 -0.3669
 1116SOL    HW114807   1.984   1.796   8.123  3.4237  1.4749  0.9256
 1116SOL    HW214808   2.005   1.929   8.065  0.6636  0.2387  0.9590
 1117SOL     OW14809   3.856   4.180   1.011 -0.3187 -0.6214  0.1646
 1117SOL    HW114810   3.871   4.243   1.081 -0.8412 -3.0765  2.4819
 1117SOL    HW214811   3.776   4.131   1.029  0.4464 -1.7936  0.3662
 1118SOL     OW14812   1.896   3.377   1.648 -0.3331 -0.2352 -0.0331
 1118SOL    HW114813   1.808   3.389   1.685 -0.8126 -0.4881 -1.1013
 1118SOL    HW214814   1.891   3.425   1.565 -2.2452  0.4016  0.4441
 1119SOL     OW14815   1.900   4.405  12.063 -0.0369  0.3413  0.0700
 1119SOL    HW114816   1.838   4.475  12.042 -0.6955 -0.3995 -0.4568
 1119SOL    HW214817   1.908   4.422  12.157  3.5138 -0.3909 -0.0982
 1120SOL     OW14818   1.015   1.058   4.386  0.1878 -0.2397  0.1597
 1120SOL    HW114819   0.997   0.989   4.451 -0.1168  0.3066  0.6554
 1120SOL    HW214820   0.981   1.015   4.307  0.2047  0.5144 -0.2538
 1121SOL     OW14821   4.602   3.411  11.628  0.2288 -0.4410 -0.4520
 1121SOL    HW114822   4.556   3.335  11.662  1.0432 -1.1428 -0.9367
 1121SOL    HW214823   4.541   3.485  11.629  0.4498 -0.2525 -0.7326
 1122SOL     OW14824   0.867   1.540   5.788  0.3726  0.0568 -0.4112
 1122SOL    HW114825   0.960   1.559   5.775  0.4790 -0.2878 -0.1315
 1122SOL    HW214826   0.877   1.447   5.807 -0.7653 -0.0337 -0.2448
 1123SOL     OW14827   3.031   0.310  16.378 -0.2865 -0.1663  0.4661
 1123SOL    HW114828   3.072   0.393  16.403 -2.5609  0.9171  0.6267
 1123SOL    HW214829   3.012   0.325  16.285  0.7950  0.9509  0.4201
 1124SOL     OW14830   1.669   3.903   3.237 -0.2320 -1.1521 -0.4161
 1124SOL    HW114831   1.620   3.979   3.205  3.1050  0.8795 -0.7280
 1124SOL    HW214832   1.734   3.908   3.167 -1.9457  0.6068 -1.8968
 1125SOL     OW14833   0.848   0.448   5.097  0.4823  0.2688 -0.0742
 1125SOL    HW114834   0.882   0.516   5.039 -0.9276  0.7266 -0.3775
 1125SOL    HW214835   0.758   0.481   5.104  1.0426  1.8581 -0.3128
 1126SOL     OW14836   3.051   2.319  15.023  0.3959  0.0901  0.3521
 1126SOL    HW114837   3.084   2.230  15.008  1.8945  0.6971  0.0242
 1126SOL    HW214838   3.070   2.360  14.939 -0.1376  0.0075  0.1899
 1127SOL     OW14839   4.080   2.211   2.589  0.2101  0.2361 -0.0288
 1127SOL    HW114840   4.114   2.211   2.499  2.3521  0.0080  0.7866
 1127SOL    HW214841   4.101   2.296   2.627  0.8919  0.6823 -1.3992
 1128SOL     OW14842   3.820   0.593  12.788 -0.2782  0.4525 -0.0566
 1128SOL    HW114843   3.803   0.508  12.828 -1.1816  1.3760  1.5198
 1128SOL    HW214844   3.769   0.585  12.708  1.0907 -0.8335 -0.8072
 1129SOL     OW14845   0.558   1.645  13.164 -0.7348  0.3022 -0.0108
 1129SOL    HW114846   0.567   1.728  13.117 -1.4637  0.9491  1.0061
 1129SOL    HW214847   0.465   1.653  13.184 -0.6876  1.6163 -0.3408
 1130SOL     OW14848   0.128   0.431   5.490  0.2523  0.1448 -0.0071
 1130SOL    HW114849   0.184   0.475   5.553 -0.4327 -0.9798  1.3919
 1130SOL    HW214850   0.172   0.453   5.407  3.9488 -0.4847  1.7776
 1131SOL     OW14851   1.587   0.851   7.592  0.6422  0.0254  0.1975
 1131SOL    HW114852   1.524   0.778   7.595 -2.0359  2.2436 -1.4224
 1131SOL    HW214853   1.647   0.842   7.666 -0.4962 -3.6993  0.6823
 1132SOL     OW14854   3.419   4.473  11.242 -0.8222 -0.0865  0.0963
 1132SOL    HW114855   3.357   4.467  11.170 -1.4073 -0.4719  0.6338
 1132SOL    HW214856   3.369   4.414  11.299  1.4252 -0.5310  1.6140
 1133SOL     OW14857   0.998   4.521   0.147 -0.0038  0.0033  0.1135
 1133SOL    HW114858   1.045   4.515   0.065 -1.2406 -0.1628 -0.5836
 1133SOL    HW214859   1.060   4.567   0.204  1.6706 -1.6596 -0.3630
 1134SOL     OW14860   1.481   4.067   7.706 -0.0277 -0.1860 -0.1296
 1134SOL    HW114861   1.458   4.127   7.635 -3.8244 -0.1577  1.1231
 1134SOL    HW214862   1.408   4.075   7.768 -0.8997 -2.4872 -0.8601
 1135SOL     OW14863   0.108   3.416  16.476 -0.5458  0.2765 -0.3705
 1135SOL    HW114864   0.132   3.325  16.491  2.3749  0.9207 -1.2437
 1135SOL    HW214865   0.147   3.465  16.549 -1.2370 -1.6889  1.3035
 1136SOL     OW14866   0.831   3.083  11.810 -0.4342 -0.0280  0.2299
 1136SOL    HW114867   0.768   3.071  11.738 -0.0492 -0.7577  0.0091
 1136SOL    HW214868   0.807   3.174  11.827  2.2991  0.7042  0.1478
 1137SOL     OW14869   3.270   2.664   2.781  0.1064  0.5741  0.4258
 1137SOL    HW114870   3.225   2.748   2.777  0.7447  0.8652 -0.6148
 1137SOL    HW214871   3.363   2.684   2.791 -0.3682  2.9191  0.0921
 1138SOL     OW14872   0.051   2.805   1.285 -0.1551 -0.1845 -0.5965
 1138SOL    HW114873   0.116   2.874   1.295 -0.5880  0.1616 -0.2343
 1138SOL    HW214874   0.097   2.728   1.250  2.4467  0.3392  1.6448
 1139SOL     OW14875   0.369   1.755   2.249  0.3070  0.0807  0.4338
 1139SOL    HW114876   0.317   1.716   2.179  0.4842  1.6006 -0.5621
 1139SOL    HW214877   0.412   1.681   2.291 -1.3784 -0.0227  1.9696
 1140SOL     OW14878   1.291   2.633   8.115  0.4780 -0.2404  0.1693
 1140SOL    HW114879   1.349   2.637   8.191  1.0099  0.9228 -0.2948
 1140SOL    HW214880   1.210   2.667   8.153 -0.3318 -3.0496  0.9218
 1141SOL     OW14881   3.113   0.385   2.749  0.2937  0.3878 -0.4599
 1141SOL    HW114882   3.162   0.367   2.669  1.3008 -1.4537  0.5589
 1141SOL    HW214883   3.177   0.387   2.820 -0.4589 -0.8599  0.2630
 1142SOL     OW14884   1.609   4.138   2.727 -0.7239  0.1257  0.2094
 1142SOL    HW114885   1.560   4.170   2.803 -1.2989  1.1336 -0.5759
 1142SOL    HW214886   1.537   4.098   2.678  0.7142  1.8739 -3.3742
 1143SOL     OW14887   2.625   3.605   4.772  0.0062 -0.6024  0.3599
 1143SOL    HW114888   2.614   3.545   4.845 -1.5326  1.0674  1.5121
 1143SOL    HW214889   2.611   3.549   4.695  0.8398 -0.9064  0.4356
 1144SOL     OW14890   0.742   0.188   4.059 -0.2479  0.0294  0.9723
 1144SOL    HW114891   0.805   0.257   4.035 -1.7151  1.1188  0.2640
 1144SOL    HW214892   0.805   0.122   4.088  0.8557  0.6884  0.1350
 1145SOL     OW14893   3.801   2.938   4.368  0.0282 -0.3235  0.6186
 1145SOL    HW114894   3.833   3.019   4.329 -0.0896 -0.4855  0.1793
 1145SOL    HW214895   3.750   2.902   4.294  0.5616  0.0995  0.0482
 1146SOL     OW14896   4.672   1.789  12.403 -0.1583  0.0581  0.4274
 1146SOL    HW114897   4.650   1.748  12.487 -0.0591  2.6644  1.7322
 1146SOL    HW214898   0.027   1.739  12.374 -0.4182 -0.2935  0.3559
 1147SOL     OW14899   0.215   2.983   4.644  0.2102  0.0203  0.1450
 1147SOL    HW114900   0.234   3.029   4.726 -0.0590 -4.0512  2.4882
 1147SOL    HW214901   0.281   2.914   4.640 -0.7310 -0.7525 -1.8851
 1148SOL     OW14902   0.378   3.640   6.829 -0.1637 -0.1659  0.3778
 1148SOL    HW114903   0.426   3.558   6.822 -1.1984 -0.6030 -1.5762
 1148SOL    HW214904   0.293   3.613   6.795 -0.1355  0.8620 -0.5293
 1149SOL     OW14905   0.935   1.080   3.035  0.3119 -0.5543  0.5409
 1149SOL    HW114906   0.851   1.035   3.045 -0.0370  0.3539  1.6521
 1149SOL    HW214907   0.996   1.006   3.038  0.0823 -0.8317 -1.6179
 1150SOL     OW14908   1.542   4.307   9.873  0.2592 -0.0592 -0.4306
 1150SOL    HW114909   1.497   4.353   9.802 -1.0305 -1.2634 -0.3922
 1150SOL    HW214910   1.529   4.219   9.838  0.3671  0.3351 -1.4413
 1151SOL     OW14911   0.752   0.897   4.578 -0.4811 -0.2469 -0.3803
 1151SOL    HW114912   0.835   0.853   4.561 -0.5241 -0.5457  0.1624
 1151SOL    HW214913   0.726   0.925   4.491  0.2174 -0.7354 -0.7413
 1152SOL     OW14914   0.826   1.432  12.509  0.1653  0.4567  0.1382
 1152SOL    HW114915   0.901   1.476  12.548  1.0688 -2.7958  2.0015
 1152SOL    HW214916   0.774   1.509  12.486 -0.5802  0.6437  2.4440
 1153SOL     OW14917   0.862   4.300   1.715 -0.0955  0.3011 -0.1229
 1153SOL    HW114918   0.944   4.340   1.683  0.7503 -1.5870 -0.2811
 1153SOL    HW214919   0.814   4.284   1.634 -2.0771  1.8421  0.7333
 1154SOL     OW14920   4.166   2.110   0.600 -0.0231  0.3296  0.7033
 1154SOL    HW114921   4.076   2.145   0.599 -0.0015  0.3621 -1.1151
 1154SOL    HW214922   4.161   2.072   0.687  0.9123 -4.5183 -1.3636
 1155SOL     OW14923   0.218   2.049   4.806 -0.6878  0.5332 -0.1750
 1155SOL    HW114924   0.295   1.995   4.823 -1.6310 -0.4677  0.9674
 1155SOL    HW214925   0.150   1.981   4.807 -1.3232  1.1781  0.5127
 1156SOL     OW14926   0.453   0.668   5.846 -1.4263 -0.3473 -0.0873
 1156SOL    HW114927   0.486   0.744   5.797 -0.9061  0.4654  1.5088
 1156SOL    HW214928   0.443   0.707   5.933  0.6726  1.0253 -0.4426
 1157SOL     OW14929   4.192   3.958   4.530 -0.6301  0.1164 -0.3185
 1157SOL    HW114930   4.251   3.939   4.604  0.5116  0.5018 -1.1204
 1157SOL    HW214931   4.194   4.053   4.524 -0.0650  0.0347 -1.4636
 1158SOL     OW14932   3.191   1.138   3.951  0.1164  0.2357 -0.1308
 1158SOL    HW114933   3.245   1.188   3.890  2.1685 -2.5341 -0.6344
 1158SOL    HW214934   3.257   1.087   3.999 -0.2607 -0.9387 -0.8481
 1159SOL     OW14935   1.169   2.078  13.542  0.2999 -0.1004 -0.0960
 1159SOL    HW114936   1.192   2.062  13.450  0.1115  2.0780 -0.5098
 1159SOL    HW214937   1.257   2.078  13.580  0.1699 -0.3189  0.2055
 1160SOL     OW14938   0.224   3.947   8.919  0.1502  0.0476 -0.4723
 1160SOL    HW114939   0.182   3.966   8.835  0.4524  0.1334 -0.6017
 1160SOL    HW214940   0.241   3.853   8.907 -0.2108  0.0563 -1.0918
 1161SOL     OW14941   0.790   0.329  12.481  0.6194  0.3251  0.0567
 1161SOL    HW114942   0.734   0.264  12.524 -0.3300  0.4833 -0.9644
 1161SOL    HW214943   0.734   0.346  12.406 -0.1401  0.9071  0.7556
 1162SOL     OW14944   2.409   4.153   4.967 -0.3970 -0.0826  0.1265
 1162SOL    HW114945   2.390   4.060   4.980 -0.7469 -0.2158 -1.3063
 1162SOL    HW214946   2.502   4.151   4.946 -0.3975  0.2547  0.0841
 1163SOL     OW14947   0.714   3.230   6.428  0.3483 -0.2480  0.1689
 1163SOL    HW114948   0.741   3.316   6.461  0.4613 -0.6470  1.1029
 1163SOL    HW214949   0.730   3.236   6.333  0.0261  1.7964  0.2489
 1164SOL     OW14950   2.364   0.776   8.246 -0.2417 -0.0333  0.4195
 1164SOL    HW114951   2.437   0.808   8.298 -0.7280  3.7640 -1.1408
 1164SOL    HW214952   2.402   0.761   8.159 -2.8549 -2.6200 -0.2894
 1165SOL     OW14953   2.029   2.371   0.666  0.2303  0.2473  0.2427
 1165SOL    HW114954   2.063   2.288   0.631 -1.3623 -0.0192 -0.6655
 1165SOL    HW214955   2.084   2.429   0.613 -2.0237  0.2551 -2.0943
 1166SOL     OW14956   4.386   1.506   2.583  0.3818 -0.5964  0.3773
 1166SOL    HW114957   4.481   1.517   2.587  0.2552  0.3084  0.9738
 1166SOL    HW214958   4.366   1.583   2.531  0.5934  0.2960  1.6184
 1167SOL     OW14959   0.930   4.548   2.735 -0.7868 -0.5582 -0.9785
 1167SOL    HW114960   0.837   4.542   2.711 -1.2804 -0.2954  0.8213
 1167SOL    HW214961   0.961   4.623   2.684 -1.2293 -0.4408 -1.0750
 1168SOL     OW14962   4.474   2.435   0.821 -0.3173  0.3709  0.7271
 1168SOL    HW114963   4.446   2.371   0.756  0.5916  1.4536 -0.7267
 1168SOL    HW214964   4.474   2.515   0.768  0.5888  0.0005  0.1550
 1169SOL     OW14965   1.772   2.057   1.391  0.0488 -0.5451 -0.0855
 1169SOL    HW114966   1.794   2.064   1.298 -0.7000 -0.1343 -0.2292
 1169SOL    HW214967   1.855   2.095   1.419  1.0108 -1.5741 -1.5096
 1170SOL     OW14968   0.533   3.346   3.350 -0.1657  0.5050 -0.5025
 1170SOL    HW114969   0.504   3.429   3.388  0.7991  1.0072 -0.8697
 1170SOL    HW214970   0.502   3.280   3.413 -1.2351  0.6153 -0.9081
 1171SOL     OW14971   2.949   3.294   7.438 -0.0838 -0.1556 -0.6611
 1171SOL    HW114972   2.994   3.255   7.364 -1.9807  0.1085 -1.9552
 1171SOL    HW214973   2.859   3.263   7.428 -0.7751  2.1718 -1.7382
 1172SOL     OW14974   4.164   1.560   6.676  0.5774 -0.8726  0.7045
 1172SOL    HW114975   4.180   1.469   6.701  0.8364 -1.1538 -0.4834
 1172SOL    HW214976   4.152   1.590   6.767 -1.8511 -0.9665  0.4033
 1173SOL     OW14977   4.491   4.211   5.869  0.1779  0.2488  0.2578
 1173SOL    HW114978   4.573   4.239   5.828 -0.0791 -0.6256 -0.8359
 1173SOL    HW214979   4.492   4.120   5.840 -1.5536  0.4858 -0.5485
 1174SOL     OW14980   0.015   0.162   5.202 -0.0361 -0.0660  0.1169
 1174SOL    HW114981   0.060   0.168   5.118 -0.3889 -0.6542 -0.1112
 1174SOL    HW214982   4.659   0.113   5.175 -0.9665  1.1654  0.5026
 1175SOL     OW14983   0.054   1.524   6.664  0.0622 -0.1117 -0.0049
 1175SOL    HW114984   0.122   1.478   6.713 -2.5443 -2.3521  1.5643
 1175SOL    HW214985   4.712   1.535   6.735 -0.2868 -1.1476 -0.1454
 1176SOL     OW14986   2.165   1.956  11.874  0.1724 -0.1145 -0.0544
 1176SOL    HW114987   2.239   1.974  11.816  0.9641 -0.0385  0.9861
 1176SOL    HW214988   2.174   1.861  11.882 -0.1519 -0.2416 -1.2077
 1177SOL     OW14989   2.541   1.357   2.816  0.6659  0.1883  0.0270
 1177SOL    HW114990   2.587   1.382   2.736 -0.9028  0.7921 -0.7010
 1177SOL    HW214991   2.607   1.379   2.881 -1.9838  1.5953  2.2638
 1178SOL     OW14992   0.381   1.774   3.264  0.0763  0.1030 -0.0243
 1178SOL    HW114993   0.439   1.738   3.197  2.0710  0.9200  1.2699
 1178SOL    HW214994   0.383   1.868   3.246  0.6552  0.5026  2.1086
 1179SOL     OW14995   3.921   3.397   4.616  0.1283  0.1942  0.1683
 1179SOL    HW114996   3.970   3.476   4.640 -2.3636  2.5456 -2.5768
 1179SOL    HW214997   3.987   3.331   4.637  0.6977 -0.1334 -2.7191
 1180SOL     OW14998   0.678   3.306   8.223 -0.2472  0.1527  0.2974
 1180SOL    HW114999   0.742   3.298   8.294  1.3775 -0.3791 -1.2279
 1180SOL    HW215000   0.621   3.230   8.236  0.1223 -0.1446  0.1785
 1181SOL     OW15001   0.898   1.155   8.947 -0.3245  0.3666 -0.2811
 1181SOL    HW115002   0.901   1.236   8.897 -0.4970 -0.5592 -1.7883
 1181SOL    HW215003   0.906   1.184   9.038  0.4063  2.1355 -0.9017
 1182SOL     OW15004   3.478   0.869  15.915 -0.4963  0.3050 -0.0487
 1182SOL    HW115005   3.562   0.910  15.935  1.0292 -2.6215 -0.4264
 1182SOL    HW215006   3.498   0.786  15.872  1.3470 -0.0855  1.5476
 1183SOL     OW15007   2.394   1.333   8.585  0.5667  0.1996 -0.4466
 1183SOL    HW115008   2.323   1.329   8.649 -0.0502 -1.0601 -1.2143
 1183SOL    HW215009   2.349   1.280   8.519 -0.4463 -2.2580  2.1885
 1184SOL     OW15010   4.362   0.925  13.218 -0.1226 -0.2196 -0.5778
 1184SOL    HW115011   4.347   0.834  13.192  2.2973 -1.0973  1.1363
 1184SOL    HW215012   4.437   0.960  13.171  0.8344  0.7197  1.6637
 1185SOL     OW15013   0.819   1.460   8.460  0.1929  0.5110  0.4080
 1185SOL    HW115014   0.834   1.461   8.554  2.5720  0.2673  0.0400
 1185SOL    HW215015   0.754   1.390   8.451 -0.0464  0.7866  0.0187
 1186SOL     OW15016   0.271   2.751  12.557 -0.2630 -0.6531 -0.1058
 1186SOL    HW115017   0.265   2.708  12.642  0.3240  0.9751  0.7774
 1186SOL    HW215018   0.366   2.758  12.544 -0.8492 -0.5498 -4.4446
 1187SOL     OW15019   0.062   2.467   2.411  0.0034  0.2542  0.2242
 1187SOL    HW115020   0.125   2.417   2.463 -1.5577 -0.1336  1.7030
 1187SOL    HW215021   0.063   2.552   2.455  1.5059  0.2635  0.2026
 1188SOL     OW15022   4.629   1.996   4.628 -0.6348  0.4466  0.1121
 1188SOL    HW115023   4.679   1.914   4.628  0.5221  1.1549 -0.9685
 1188SOL    HW215024   4.677   2.038   4.699 -1.5387  2.6391 -0.5812
 1189SOL     OW15025   1.720   2.584   4.248  0.1891  0.5634 -0.5319
 1189SOL    HW115026   1.648   2.643   4.270  0.3160  0.1204  1.0647
 1189SOL    HW215027   1.677   2.499   4.258  0.7231  0.3993  0.4052
 1190SOL     OW15028   3.719   1.027   3.662  0.9865  0.0772 -0.6831
 1190SOL    HW115029   3.708   1.117   3.693 -1.3118 -0.9368  1.4657
 1190SOL    HW215030   3.814   1.022   3.648  0.9991  0.7606 -0.8358
 1191SOL     OW15031   0.679   1.553   9.343 -0.5206  0.1222 -0.1284
 1191SOL    HW115032   0.583   1.556   9.338 -0.4505  1.3473 -0.7775
 1191SOL    HW215033   0.691   1.474   9.395 -0.5551 -0.0575 -0.3909
 1192SOL     OW15034   0.971   4.288   5.007 -0.0970  0.2348 -0.0145
 1192SOL    HW115035   0.889   4.332   5.030 -0.2980  0.7113 -1.6029
 1192SOL    HW215036   1.027   4.361   4.983  1.2317 -0.8001 -0.0728
 1193SOL     OW15037   1.347   0.168  15.005  0.4256 -0.2366  0.0704
 1193SOL    HW115038   1.291   0.101  14.966  1.5660  0.4561 -2.7447
 1193SOL    HW215039   1.314   0.253  14.977 -1.0734 -1.4014 -1.6136
 1194SOL     OW15040   1.263   0.237  10.398  0.0985 -0.1230 -0.1804
 1194SOL    HW115041   1.173   0.254  10.371 -0.3504 -2.6242 -0.2363
 1194SOL    HW215042   1.258   0.248  10.493 -0.1578 -0.1700 -0.1887
 1195SOL     OW15043   3.320   1.927   1.609 -0.5190  0.2747  0.1041
 1195SOL    HW115044   3.338   1.848   1.558 -0.9075 -0.2327  0.7602
 1195SOL    HW215045   3.358   1.996   1.555  0.8627 -2.5799 -2.5649
 1196SOL     OW15046   4.381   3.500   1.578 -0.1013 -0.3616 -0.4312
 1196SOL    HW115047   4.442   3.572   1.562 -0.4651  0.2082  0.7373
 1196SOL    HW215048   4.405   3.461   1.662  1.1728 -0.6354 -0.9261
 1197SOL     OW15049   4.579   0.706   4.096 -0.5447 -0.8482 -0.1975
 1197SOL    HW115050   4.566   0.724   4.189  1.4099  2.6798 -0.6097
 1197SOL    HW215051   4.641   0.776   4.077 -2.6450  0.7593 -1.1422
 1198SOL     OW15052   4.561   0.828   8.353  0.3757  0.5836 -0.0241
 1198SOL    HW115053   4.624   0.900   8.348  0.8279  0.2337  0.5332
 1198SOL    HW215054   4.619   0.755   8.374 -0.6110 -0.6721 -1.6558
 1199SOL     OW15055   1.913   3.238   0.231  0.3361  0.2307 -0.2898
 1199SOL    HW115056   1.877   3.304   0.172  1.4009  3.5840  2.8480
 1199SOL    HW215057   1.851   3.235   0.303  0.1726  1.6051 -0.3694
 1200SOL     OW15058   0.703   3.681   8.213 -0.5922 -0.3525  0.3159
 1200SOL    HW115059   0.745   3.644   8.135 -1.9224 -0.4361 -0.3685
 1200SOL    HW215060   0.662   3.761   8.179 -0.6641 -0.2570  0.6301
 1201SOL     OW15061   2.683   0.561  15.279 -0.1008 -0.6967  0.1834
 1201SOL    HW115062   2.640   0.479  15.303  0.9251 -1.5387 -0.8467
 1201SOL    HW215063   2.760   0.546  15.333  0.8537  2.3093 -0.2987
 1202SOL     OW15064   3.506   4.219  15.223  0.1484  0.0896 -0.5562
 1202SOL    HW115065   3.415   4.191  15.211  0.3216 -0.7097 -0.0197
 1202SOL    HW215066   3.490   4.312  15.241 -0.0208 -0.6532  3.2180
 1203SOL     OW15067   3.177   0.517   8.241  0.1828 -0.0746 -0.3287
 1203SOL    HW115068   3.261   0.512   8.288 -0.5711  0.1542  1.0553
 1203SOL    HW215069   3.147   0.607   8.249 -2.2531 -1.2377  3.6828
 1204SOL     OW15070   0.339   3.429   4.746  0.3984  0.4353 -0.5733
 1204SOL    HW115071   0.249   3.399   4.756  0.6120 -0.2863 -0.8519
 1204SOL    HW215072   0.350   3.505   4.804 -1.9633 -0.1191  0.6212
 1205SOL     OW15073   4.007   3.815   1.627  0.4124  0.3612  0.5106
 1205SOL    HW115074   4.055   3.893   1.657  0.1365  0.9638 -0.5905
 1205SOL    HW215075   4.015   3.829   1.532  1.7126  1.0877  0.7190
 1206SOL     OW15076   4.428   3.746   3.202 -0.0464 -0.0481 -0.3986
 1206SOL    HW115077   4.378   3.673   3.165 -1.0274 -0.3432  1.5572
 1206SOL    HW215078   4.436   3.802   3.124  0.3890 -0.9296 -0.9918
 1207SOL     OW15079   4.367   3.749   5.933 -0.3145 -0.3831  0.2739
 1207SOL    HW115080   4.424   3.679   5.902  0.2531  1.1913 -2.2792
 1207SOL    HW215081   4.418   3.826   5.906  0.2946 -0.7676  0.3232
 1208SOL     OW15082   2.898   1.802  10.899  0.1748  0.6160 -0.7046
 1208SOL    HW115083   2.832   1.733  10.913  2.0909 -0.7820  1.3833
 1208SOL    HW215084   2.919   1.820  10.990 -1.5601 -1.0815  0.0409
 1209SOL     OW15085   2.037   0.571   5.867  0.4545 -0.6702  0.5598
 1209SOL    HW115086   2.115   0.624   5.877 -2.3075  2.8556  3.4525
 1209SOL    HW215087   2.060   0.508   5.798 -2.4055 -2.1519  0.9078
 1210SOL     OW15088   4.254   0.494  13.723  0.2128 -0.3055  0.4582
 1210SOL    HW115089   4.309   0.555  13.673  0.6800  0.8081  2.3556
 1210SOL    HW215090   4.186   0.466  13.661 -1.0079  0.9597  1.2182
 1211SOL     OW15091   4.151   4.619   5.316 -0.1586  0.1668  0.1810
 1211SOL    HW115092   4.172   4.526   5.317 -1.0543 -0.0564 -1.0147
 1211SOL    HW215093   4.236   4.663   5.328  0.5430 -0.7949 -1.2663
 1212SOL     OW15094   1.341   1.946  16.812 -0.2301  0.0064 -0.5386
 1212SOL    HW115095   1.280   1.929  16.740 -0.8220 -0.5392  0.0888
 1212SOL    HW215096   1.321   1.876  16.874 -0.4221  0.3045 -0.2646
 1213SOL     OW15097   4.013   3.747  15.519  0.8801 -0.0718  0.6645
 1213SOL    HW115098   3.930   3.783  15.486  1.8540  2.1923  0.7137
 1213SOL    HW215099   4.003   3.652  15.514 -3.7599  0.4020  0.9341
 1214SOL     OW15100   2.088   3.430   7.202  0.7737 -0.2029 -0.8382
 1214SOL    HW115101   2.024   3.389   7.144 -0.0729 -1.0418  0.6606
 1214SOL    HW215102   2.170   3.430   7.154  0.8671  2.2641 -0.6805
 1215SOL     OW15103   4.601   1.449   0.204 -0.1126 -0.0152  0.1167
 1215SOL    HW115104   4.649   1.527   0.230  0.3817  0.5144 -2.4179
 1215SOL    HW215105   4.546   1.491   0.137 -0.6971  2.0417  1.8706
 1216SOL     OW15106   4.304   1.285   5.774  0.2079 -0.6702 -0.1925
 1216SOL    HW115107   4.329   1.218   5.711  3.1703  0.1819  0.0813
 1216SOL    HW215108   4.244   1.231   5.827 -0.2422  0.0605  0.0482
 1217SOL     OW15109   1.316   0.823  11.733 -0.6149  0.5354  0.0259
 1217SOL    HW115110   1.224   0.850  11.736 -0.5342  0.8267 -0.0625
 1217SOL    HW215111   1.329   0.805  11.826  1.5851  2.3925  0.0883
 1218SOL     OW15112   2.025   4.147  11.107 -0.3617  0.1451  0.5500
 1218SOL    HW115113   1.995   4.067  11.148  1.8010 -0.3554  1.1753
 1218SOL    HW215114   1.999   4.125  11.017 -0.5575 -0.8911  0.8615
 1219SOL     OW15115   1.056   2.163  12.728 -1.1944  0.4410  0.1523
 1219SOL    HW115116   1.036   2.156  12.634  4.2693 -0.8897 -0.8905
 1219SOL    HW215117   1.144   2.201  12.722 -1.0805  0.3589  1.2771
 1220SOL     OW15118   0.979   4.249  15.678 -0.1557  0.0325 -0.0542
 1220SOL    HW115119   0.904   4.306  15.694  0.0555 -0.2565  1.9432
 1220SOL    HW215120   1.028   4.301  15.615  1.7019  1.1840  2.3523
 1221SOL     OW15121   1.945   2.691   6.909 -0.0855  0.1262  0.0679
 1221SOL    HW115122   1.885   2.741   6.853  2.0354  2.2397 -0.2930
 1221SOL    HW215123   2.032   2.705   6.872  0.1532  0.9888  0.9801
 1222SOL     OW15124   0.411   2.197  10.304 -0.4162 -0.1736  0.3114
 1222SOL    HW115125   0.446   2.244  10.380  0.2620  0.8778 -0.6585
 1222SOL    HW215126   0.483   2.137  10.284 -0.4540 -0.3563  0.7154
 1223SOL     OW15127   0.835   1.678   3.016 -0.3280  0.4854 -1.4130
 1223SOL    HW115128   0.846   1.584   3.000 -3.0779  0.0924 -0.9604
 1223SOL    HW215129   0.894   1.717   2.952  2.4532  0.3081  1.0945
 1224SOL     OW15130   4.354   3.652   8.711  0.3038 -0.8200 -0.8754
 1224SOL    HW115131   4.300   3.711   8.658  0.4129  0.7446  0.7945
 1224SOL    HW215132   4.417   3.713   8.750 -3.6513  2.3358  0.5766
 1225SOL     OW15133   0.981   1.199  12.490  0.6133 -1.3339 -0.2060
 1225SOL    HW115134   0.928   1.278  12.480  0.9258 -1.2933 -1.5791
 1225SOL    HW215135   1.025   1.207  12.405 -0.9001  0.1827 -0.8403
 1226SOL     OW15136   0.903   1.106   9.558  0.0264  0.5273 -0.0177
 1226SOL    HW115137   0.903   1.197   9.527  1.9705  0.3936 -0.3971
 1226SOL    HW215138   0.845   1.118   9.633  0.1539 -1.9968  0.4683
 1227SOL     OW15139   3.303   3.774   6.953 -0.2879 -0.3276 -0.1079
 1227SOL    HW115140   3.220   3.797   6.911  1.3851 -0.3302 -3.3927
 1227SOL    HW215141   3.280   3.724   7.031  0.2791  0.9136  0.8513
 1228SOL     OW15142   0.146   3.426   1.272  0.1640  0.3180  0.0248
 1228SOL    HW115143   0.180   3.478   1.344 -0.5491 -0.3533  0.8502
 1228SOL    HW215144   0.073   3.387   1.320  1.5809 -0.8815  1.2070
 1229SOL     OW15145   3.574   0.434   2.368  0.2827 -0.4055  0.8002
 1229SOL    HW115146   3.629   0.364   2.332 -0.8835 -0.3617 -1.0526
 1229SOL    HW215147   3.634   0.507   2.384 -0.7399  0.4400  0.7670
 1230SOL     OW15148   2.925   1.331  13.138  0.0468 -0.1740  0.3624
 1230SOL    HW115149   2.970   1.264  13.087  0.7570  0.0154  0.7372
 1230SOL    HW215150   2.966   1.409  13.101  1.7391 -2.2442 -2.0952
 1231SOL     OW15151   3.626   3.948   3.202  0.2498  0.8488  0.4686
 1231SOL    HW115152   3.630   4.014   3.132  0.1126 -1.6744 -1.9477
 1231SOL    HW215153   3.540   3.915   3.175  0.6078  0.8144 -0.6267
 1232SOL     OW15154   4.263   0.995   6.639 -0.0076 -0.2071 -0.2376
 1232SOL    HW115155   4.303   0.992   6.726  1.4008  0.9903 -0.8472
 1232SOL    HW215156   4.259   0.900   6.626  2.4040 -0.1954 -0.9369
 1233SOL     OW15157   2.982   3.344  16.691  0.3027  0.5921 -0.3745
 1233SOL    HW115158   2.915   3.275  16.689  1.9649 -1.0422  0.1106
 1233SOL    HW215159   3.061   3.296  16.665 -1.6178 -2.4718 -0.5314
 1234SOL     OW15160   0.830   0.827  12.639  0.0121  0.1751  0.4517
 1234SOL    HW115161   0.847   0.743  12.597 -2.2970 -0.0610 -0.0179
 1234SOL    HW215162   0.806   0.799  12.727 -3.4069  3.4523  0.5442
 1235SOL     OW15163   3.179   3.465   6.813  0.6531  0.4110 -0.0973
 1235SOL    HW115164   3.118   3.481   6.885 -1.1254 -2.6818 -0.8931
 1235SOL    HW215165   3.126   3.482   6.735 -0.5707 -2.6601  0.0469
 1236SOL     OW15166   2.972   2.723   8.529  0.0334 -0.0951 -0.4226
 1236SOL    HW115167   2.985   2.638   8.569 -2.0559 -0.7006 -1.0192
 1236SOL    HW215168   2.877   2.724   8.516 -0.2511  1.1097  1.6685
 1237SOL     OW15169   1.435   3.971  14.028 -0.5192  0.1866  0.0659
 1237SOL    HW115170   1.393   3.962  13.943 -0.9505  0.4488  0.2512
 1237SOL    HW215171   1.490   3.893  14.029 -0.0468  0.5543  3.5007
 1238SOL     OW15172   4.081   3.749  11.362 -0.4673 -0.6981  0.5395
 1238SOL    HW115173   4.060   3.842  11.367  2.2747  0.0648 -1.8447
 1238SOL    HW215174   4.014   3.716  11.423  1.7512 -0.5501  3.0734
 1239SOL     OW15175   3.657   2.394   3.242  0.2222 -0.0612  0.2198
 1239SOL    HW115176   3.605   2.314   3.237 -0.6945  0.5942 -0.5542
 1239SOL    HW215177   3.631   2.437   3.161  2.1828  0.2535 -0.2611
 1240SOL     OW15178   4.077   0.913   2.730 -0.1323 -0.6459  0.0483
 1240SOL    HW115179   4.025   0.834   2.742 -0.5418 -0.1164  1.7706
 1240SOL    HW215180   4.166   0.880   2.721 -0.2277 -0.3856 -1.8733
 1241SOL     OW15181   3.303   4.442   5.112  0.2149 -0.4230 -0.0198
 1241SOL    HW115182   3.289   4.502   5.038  0.9216 -1.5242 -1.0470
 1241SOL    HW215183   3.243   4.486   5.172  1.6364  0.6593  0.6219
 1242SOL     OW15184   0.365   1.551   4.317  0.3706  0.5639  0.1067
 1242SOL    HW115185   0.327   1.529   4.232  0.3242 -1.0293  0.5427
 1242SOL    HW215186   0.452   1.513   4.305  0.0010  0.1760 -1.3354
 1243SOL     OW15187   3.344   1.511   5.653  0.3990  0.5709  0.2965
 1243SOL    HW115188   3.368   1.518   5.746  1.8970  0.8195 -0.1121
 1243SOL    HW215189   3.296   1.429   5.658 -0.4331  0.9946 -0.7008
 1244SOL     OW15190   4.258   0.626  10.731 -0.2375 -0.5142  0.0054
 1244SOL    HW115191   4.224   0.645  10.819  0.3687  0.8257 -0.0448
 1244SOL    HW215192   4.348   0.656  10.725  0.0290 -1.4311 -0.4963
 1245SOL     OW15193   4.499   0.767   7.724  0.5948 -0.1312 -0.2546
 1245SOL    HW115194   4.449   0.822   7.664 -0.7059  1.1207  1.9546
 1245SOL    HW215195   4.430   0.708   7.756  0.9792 -0.1946  0.4616
 1246SOL     OW15196   3.804   2.985   3.259  0.1785  0.0693 -0.1131
 1246SOL    HW115197   3.819   3.036   3.339 -0.6150 -0.4100  0.3487
 1246SOL    HW215198   3.809   3.055   3.194  1.5777  1.1732  1.1994
 1247SOL     OW15199   3.063   4.013  10.545  0.2377 -0.2132 -0.1627
 1247SOL    HW115200   2.997   4.060  10.596  1.5125 -0.4488  1.7060
 1247SOL    HW215201   3.100   3.951  10.608 -0.0845 -2.7403 -2.4355
 1248SOL     OW15202   0.562   0.042   0.735  0.2942 -1.1819 -0.3800
 1248SOL    HW115203   0.575   4.713   0.815  2.6192 -0.6082 -0.3790
 1248SOL    HW215204   0.467   0.049   0.725  0.2126 -2.0688 -0.1893
 1249SOL     OW15205   1.413   3.301   8.486  0.2128  0.4312 -0.3120
 1249SOL    HW115206   1.434   3.291   8.578  1.6208 -2.2420 -0.9273
 1249SOL    HW215207   1.325   3.338   8.500  1.1641  2.2161  0.9492
 1250SOL     OW15208   1.669   3.603   5.968 -0.2919  0.1644  0.3691
 1250SOL    HW115209   1.594   3.555   6.005  0.0634  0.6838  1.7671
 1250SOL    HW215210   1.715   3.523   5.943 -0.0339  0.4878 -0.1733
 1251SOL     OW15211   0.538   0.615  12.050 -0.4040 -0.1705 -0.3667
 1251SOL    HW115212   0.628   0.628  12.079 -0.7564 -2.2792  1.6613
 1251SOL    HW215213   0.510   0.698  12.089  1.5912 -1.1214  3.0753
 1252SOL     OW15214   1.963   4.561  11.081 -0.3410  1.0245 -0.0509
 1252SOL    HW115215   1.888   4.618  11.063 -1.9873 -1.5792 -1.4196
 1252SOL    HW215216   1.968   4.492  11.014  2.2085  2.3177 -1.2026
 1253SOL     OW15217   0.855   2.201   9.551 -0.3297 -0.1313  0.1170
 1253SOL    HW115218   0.934   2.162   9.513 -1.3179 -0.7756 -1.3033
 1253SOL    HW215219   0.829   2.259   9.479  1.8694  0.2641 -0.3533
 1254SOL     OW15220   3.643   0.447   5.120 -0.2572  0.1168  0.3618
 1254SOL    HW115221   3.628   0.356   5.145  0.8152  0.7576  3.3147
 1254SOL    HW215222   3.632   0.443   5.025  0.7352  2.1315  0.1746
 1255SOL     OW15223   3.529   3.894  15.494 -0.7832 -0.2883 -0.5431
 1255SOL    HW115224   3.590   3.928  15.559  0.9763 -1.9500 -1.3213
 1255SOL    HW215225   3.587   3.876  15.420  1.0642 -1.3549  1.1991
 1256SOL     OW15226   1.948   1.799  16.120 -0.2558  0.6949 -0.3169
 1256SOL    HW115227   1.909   1.759  16.198 -0.1386 -0.0542 -0.6424
 1256SOL    HW215228   2.007   1.730  16.090  0.0779  1.3296 -1.1142
 1257SOL     OW15229   1.432   1.305   4.556 -0.4775 -0.6948  0.2223
 1257SOL    HW115230   1.421   1.275   4.466  0.7772  0.9263 -0.4729
 1257SOL    HW215231   1.365   1.373   4.561 -0.7005 -0.8778 -0.3005
 1258SOL     OW15232   2.022   2.728   7.753 -1.1319 -0.8402  0.5150
 1258SOL    HW115233   1.965   2.651   7.753 -2.0308 -0.1471 -4.2883
 1258SOL    HW215234   1.967   2.796   7.716  0.4689  1.4364  2.3072
 1259SOL     OW15235   3.778   2.505  16.125  0.2579 -0.5942 -0.7075
 1259SOL    HW115236   3.861   2.547  16.150 -1.3104  1.9205  0.2830
 1259SOL    HW215237   3.721   2.573  16.160  0.3836 -1.6666  1.5323
 1260SOL     OW15238   1.811   0.018   3.127  0.0501 -0.0255 -0.2221
 1260SOL    HW115239   1.777   0.105   3.147 -1.0990 -0.3575 -0.7553
 1260SOL    HW215240   1.902   0.015   3.156  0.1301  0.5721 -0.3994
 1261SOL     OW15241   4.191   2.327   9.763 -0.1865  0.3939  0.3556
 1261SOL    HW115242   4.216   2.248   9.715 -2.6881 -0.3033  0.1834
 1261SOL    HW215243   4.194   2.387   9.689  3.3221 -0.5598 -0.2768
 1262SOL     OW15244   3.761   4.392   8.411 -0.0442  0.1460  0.1911
 1262SOL    HW115245   3.749   4.481   8.377 -1.0964 -0.7369 -1.7238
 1262SOL    HW215246   3.856   4.382   8.418  0.0994 -0.0068 -2.0169
 1263SOL     OW15247   1.237   0.658  14.762  0.4033  0.2531 -0.4989
 1263SOL    HW115248   1.257   0.751  14.764 -0.0800  0.3673 -1.0820
 1263SOL    HW215249   1.297   0.617  14.700  2.2057  0.7092  0.9361
 1264SOL     OW15250   3.986   1.128  10.009  0.2655  0.2608 -0.2001
 1264SOL    HW115251   3.958   1.172  10.089  0.1988  0.3309 -0.2625
 1264SOL    HW215252   3.920   1.059  10.015 -1.6853  2.1747  0.4471
 1265SOL     OW15253   3.687   2.554   7.732 -0.3599 -0.5979 -0.2535
 1265SOL    HW115254   3.655   2.514   7.812 -0.9848 -1.1001 -0.7491
 1265SOL    HW215255   3.608   2.581   7.685 -1.4914 -1.3452  1.2535
 1266SOL     OW15256   1.447   0.788  14.024 -0.2051  0.3747 -0.7821
 1266SOL    HW115257   1.359   0.791  14.060  0.0992  3.6587 -0.3486
 1266SOL    HW215258   1.437   0.714  13.964 -1.6137  1.9260 -2.4284
 1267SOL     OW15259   3.526   2.123   7.649  0.0252 -0.0854  0.0256
 1267SOL    HW115260   3.557   2.213   7.641  0.9785 -0.3206  1.1128
 1267SOL    HW215261   3.557   2.097   7.736  2.8421  2.3445 -0.2518
 1268SOL     OW15262   3.998   3.456   7.772 -0.7829 -0.1635  0.2803
 1268SOL    HW115263   3.904   3.450   7.757 -0.5498  0.7383 -1.6481
 1268SOL    HW215264   4.047   3.459   7.689  1.6375 -0.1972  1.7092
 1269SOL     OW15265   4.573   2.030   6.715  0.5176  0.0073 -0.3103
 1269SOL    HW115266   4.661   2.066   6.704  0.3588  0.0097 -1.6345
 1269SOL    HW215267   4.590   1.957   6.774  1.9461 -0.8179 -1.7259
 1270SOL     OW15268   1.550   3.673   9.388 -0.2822  0.5368  0.5152
 1270SOL    HW115269   1.551   3.726   9.308  1.9400 -0.7454 -0.2959
 1270SOL    HW215270   1.507   3.736   9.446  1.5454  2.0607  0.2217
 1271SOL     OW15271   1.291   1.769   6.293  0.0678 -0.0978  0.3935
 1271SOL    HW115272   1.294   1.865   6.297 -1.4186 -0.0469  0.0681
 1271SOL    HW215273   1.198   1.748   6.304  0.2508 -0.9575  0.2668
 1272SOL     OW15274   4.184   2.521  14.597 -0.3940 -0.0651  0.0223
 1272SOL    HW115275   4.237   2.455  14.641 -2.1968 -0.2056  1.9563
 1272SOL    HW215276   4.144   2.454  14.541 -1.8091 -1.6843  2.9822
 1273SOL     OW15277   1.803   0.581   7.974 -0.4434  0.5898 -0.3474
 1273SOL    HW115278   1.814   0.504   8.030  0.9981  1.7302  0.9346
 1273SOL    HW215279   1.757   0.544   7.899  0.4429 -2.4336  0.5722
 1274SOL     OW15280   0.927   3.283  10.059 -0.5180  0.0609  0.4348
 1274SOL    HW115281   0.942   3.198  10.019  0.9693  1.0809 -1.2220
 1274SOL    HW215282   0.872   3.267  10.135  0.6649  1.1765  1.5305
 1275SOL     OW15283   1.176   4.698   2.246  0.8308 -0.1347 -0.4144
 1275SOL    HW115284   1.204   4.633   2.182  0.3185 -1.1207  0.3537
 1275SOL    HW215285   1.082   4.680   2.253  1.1768 -1.6146  0.5130
 1276SOL     OW15286   3.048   3.297   8.218 -0.5407 -0.3093 -0.2026
 1276SOL    HW115287   2.965   3.335   8.248 -0.0897 -0.5923  1.3673
 1276SOL    HW215288   3.032   3.277   8.126  0.5462  0.4373 -0.5533
 1277SOL     OW15289   2.930   2.653   6.504 -0.3628  0.3861  0.7776
 1277SOL    HW115290   2.949   2.628   6.594  1.2951  0.3832  0.4275
 1277SOL    HW215291   2.857   2.596   6.481  0.2588 -1.0888  2.5097
 1278SOL     OW15292   1.842   3.990   3.028  0.1495  0.1846  0.4743
 1278SOL    HW115293   1.923   4.039   3.011  0.6445 -1.1763 -1.0574
 1278SOL    HW215294   1.780   4.063   3.030  2.9411  2.5759 -0.5556
 1279SOL     OW15295   4.135   2.474   6.726 -0.4928 -0.0351  0.1237
 1279SOL    HW115296   4.180   2.559   6.730 -0.8051  0.0316  2.1784
 1279SOL    HW215297   4.100   2.480   6.637 -2.2777  0.7442  0.8732
 1280SOL     OW15298   0.758   2.965   3.647 -0.2023 -0.3033  0.0745
 1280SOL    HW115299   0.784   2.981   3.556  1.3377  0.9708  0.7417
 1280SOL    HW215300   0.775   3.055   3.678  0.3632 -0.9461  1.6299
 1281SOL     OW15301   0.097   4.572   6.467 -0.6101  0.1013  0.0958
 1281SOL    HW115302   0.134   4.600   6.551 -1.0038  0.9758 -0.0214
 1281SOL    HW215303   0.073   4.659   6.434  1.2401 -0.0435 -1.6029
 1282SOL     OW15304   4.665   0.757  15.393 -0.1575 -0.2789 -0.1648
 1282SOL    HW115305   0.001   0.808  15.450  0.4405 -0.1772 -0.8571
 1282SOL    HW215306   4.661   0.671  15.436 -1.9208 -0.4758 -0.7262
 1283SOL     OW15307   2.109   1.152   4.755 -0.3535  0.2104 -0.3694
 1283SOL    HW115308   2.201   1.177   4.747 -0.1662 -0.5459 -0.6150
 1283SOL    HW215309   2.076   1.142   4.665  1.8470 -1.6649 -0.9915
 1284SOL     OW15310   3.476   2.145  17.101 -0.4921 -0.1912  0.1491
 1284SOL    HW115311   3.435   2.096  17.172  0.5903  2.5426  2.6715
 1284SOL    HW215312   3.533   2.200  17.155  0.3339 -0.8629 -0.0291
 1285SOL     OW15313   3.038   3.006   5.088  0.3379 -0.1268 -0.0541
 1285SOL    HW115314   3.089   2.986   5.010  0.8287 -1.0581  0.5060
 1285SOL    HW215315   3.035   2.918   5.126 -0.6061 -0.7200 -1.5197
 1286SOL     OW15316   4.478   0.939   7.371 -0.6787  0.1046 -0.3897
 1286SOL    HW115317   4.488   0.873   7.302  0.4073  0.3475 -0.4551
 1286SOL    HW215318   4.490   0.885   7.449 -0.6170 -0.8596 -1.0704
 1287SOL     OW15319   2.116   2.882   7.042  0.2504 -0.2326 -0.1100
 1287SOL    HW115320   2.125   2.946   6.971 -1.1625 -0.4403 -0.4805
 1287SOL    HW215321   2.036   2.834   7.020 -0.6425  0.8702  0.7136
 1288SOL     OW15322   0.507   0.825   6.940 -0.0274  0.5380 -0.4273
 1288SOL    HW115323   0.489   0.733   6.926 -0.1852  0.5360 -0.2217
 1288SOL    HW215324   0.459   0.840   7.022  1.8347  2.5045  0.3192
 1289SOL     OW15325   0.603   2.627   1.810  0.1854  0.1488  0.0656
 1289SOL    HW115326   0.633   2.639   1.719  1.1879 -1.1709  0.2216
 1289SOL    HW215327   0.689   2.646   1.848  0.6784 -1.4342 -0.2593
 1290SOL     OW15328   4.512   3.219   6.172 -0.0588 -0.8373 -0.3605
 1290SOL    HW115329   4.513   3.150   6.104 -0.5702 -0.7343 -0.4715
 1290SOL    HW215330   4.498   3.300   6.124  0.5508  0.7652  2.1813
 1291SOL     OW15331   4.645   0.091   6.537 -0.4107  0.2501  0.2033
 1291SOL    HW115332   4.667   0.184   6.548 -2.4107  0.2959  3.8357
 1291SOL    HW215333   4.630   0.067   6.628  1.3433 -0.7967  0.2024
 1292SOL     OW15334   2.095   2.080   5.614  0.4005  0.0753 -0.4894
 1292SOL    HW115335   2.064   2.170   5.606 -0.2808  0.0331  1.7384
 1292SOL    HW215336   2.019   2.027   5.590  1.6157 -2.3147  0.8819
 1293SOL     OW15337   1.040   3.926  10.191 -0.3362 -0.3347  0.1186
 1293SOL    HW115338   1.015   3.924  10.099 -1.7322  1.4933  0.4618
 1293SOL    HW215339   1.057   4.020  10.202 -2.3490  0.3040 -2.2246
 1294SOL     OW15340   3.620   3.945  15.240 -0.1878 -0.0315 -0.0494
 1294SOL    HW115341   3.609   4.040  15.246  2.7076  0.2301  0.9758
 1294SOL    HW215342   3.662   3.944  15.154  2.9964 -2.6384  1.5352
 1295SOL     OW15343   2.705   1.393  13.936 -0.0325  0.1790  1.1359
 1295SOL    HW115344   2.671   1.323  13.991 -0.7551  0.4327  1.0041
 1295SOL    HW215345   2.746   1.446  14.005  1.0264 -1.4139  1.7161
 1296SOL     OW15346   2.541   3.624   7.133 -0.0905  0.0884  0.3270
 1296SOL    HW115347   2.494   3.550   7.171  1.1872  0.0575  1.8438
 1296SOL    HW215348   2.536   3.600   7.041 -0.9238  1.3920  0.0351
 1297SOL     OW15349   3.469   0.081   2.653 -0.1945 -0.1119 -0.4579
 1297SOL    HW115350   3.388   0.063   2.606 -0.7220 -1.3745  0.9196
 1297SOL    HW215351   3.463   0.176   2.646 -1.1176 -0.2342 -1.1815
 1298SOL     OW15352   2.767   2.194  11.013 -0.3470 -0.3458 -0.1714
 1298SOL    HW115353   2.737   2.283  11.029  0.9137  0.7321 -3.6345
 1298SOL    HW215354   2.811   2.183  11.097  1.1523  1.1149 -0.7762
 1299SOL     OW15355   0.491   1.809  11.087  0.2133  0.4966  0.1884
 1299SOL    HW115356   0.564   1.865  11.114  1.4502 -1.0165 -0.0249
 1299SOL    HW215357   0.425   1.852  11.141 -0.8672  0.1295 -0.8289
 1300SOL     OW15358   4.358   0.489  11.382 -0.0445  0.5777 -0.5174
 1300SOL    HW115359   4.339   0.533  11.465 -0.4402 -0.5110 -0.0305
 1300SOL    HW215360   4.353   0.398  11.413 -1.4521  1.2330  1.1648
 1301SOL     OW15361   3.343   3.253   7.381  0.4375 -0.0191  0.1027
 1301SOL    HW115362   3.328   3.345   7.405  1.7146 -0.0012  0.8366
 1301SOL    HW215363   3.392   3.215   7.454 -0.7987 -1.1346  0.3491
 1302SOL     OW15364   2.335   2.363   0.279 -0.3114 -0.5406 -0.2727
 1302SOL    HW115365   2.380   2.320   0.352  0.8549  4.4327  1.9370
 1302SOL    HW215366   2.244   2.373   0.307 -0.8843 -1.2436 -1.8803
 1303SOL     OW15367   1.806   1.996   9.422 -0.0502 -0.2066 -0.0314
 1303SOL    HW115368   1.871   2.046   9.471 -1.9776 -0.3365  2.6501
 1303SOL    HW215369   1.727   2.050   9.416  1.1188  1.8048  2.4884
 1304SOL     OW15370   2.021   3.700  13.495  0.4718  0.6268  0.1283
 1304SOL    HW115371   2.044   3.671  13.407  2.2104  0.9186  0.4920
 1304SOL    HW215372   1.992   3.790  13.475 -0.4445  0.0308 -1.2246
 1305SOL     OW15373   4.458   3.644   5.489 -0.2506 -0.0443 -0.2206
 1305SOL    HW115374   4.389   3.654   5.423 -1.6972  1.9678  1.6082
 1305SOL    HW215375   4.408   3.621   5.567  1.1890  0.1522  0.7659
 1306SOL     OW15376   0.960   1.111   7.668  0.2434  0.1695 -0.2987
 1306SOL    HW115377   0.952   1.065   7.585 -3.0142 -0.1967  0.2494
 1306SOL    HW215378   1.003   1.190   7.634 -1.8888  0.4523 -2.2738
 1307SOL     OW15379   4.358   1.263   7.006  0.6223  0.2132  0.2271
 1307SOL    HW115380   4.408   1.343   7.026 -1.7325  1.6547  0.2720
 1307SOL    HW215381   4.284   1.267   7.066 -0.9833 -0.6582 -1.7203
 1308SOL     OW15382   3.175   1.935   5.092  1.1414 -0.1728  0.1856
 1308SOL    HW115383   3.261   1.894   5.101  0.7784 -1.1356 -0.6257
 1308SOL    HW215384   3.207   2.024   5.077  1.2000 -0.0050  1.3607
 1309SOL     OW15385   2.734   4.263  15.063 -0.3212  0.1587  0.2368
 1309SOL    HW115386   2.766   4.180  15.097 -3.1091  0.2283  2.9371
 1309SOL    HW215387   2.685   4.299  15.137 -1.0588 -2.2455  0.8843
 1310SOL     OW15388   2.066   1.276  13.503 -0.4680  0.4665 -0.2390
 1310SOL    HW115389   2.150   1.322  13.513  0.3310 -0.9338 -0.4493
 1310SOL    HW215390   2.003   1.347  13.504 -2.5823 -1.4454  1.0944
 1311SOL     OW15391   4.035   0.964   8.605 -0.0684 -0.6731 -0.7596
 1311SOL    HW115392   3.964   0.906   8.578 -0.6513 -0.2949 -0.0441
 1311SOL    HW215393   4.111   0.909   8.627  0.6642  0.3276 -0.7699
 1312SOL     OW15394   2.277   3.122   4.834  0.1737 -0.0534  0.5327
 1312SOL    HW115395   2.348   3.107   4.897  0.6921  1.0457  0.2189
 1312SOL    HW215396   2.222   3.163   4.901 -0.5221  2.6402 -1.6711
 1313SOL     OW15397   0.104   3.238   2.628  0.0457  0.1365  0.0381
 1313SOL    HW115398   0.058   3.227   2.544  0.3546 -1.0539  0.0244
 1313SOL    HW215399   0.195   3.236   2.599 -0.1290 -0.6654 -0.4744
 1314SOL     OW15400   1.377   0.853   6.824 -0.7666 -0.2334  0.6237
 1314SOL    HW115401   1.421   0.804   6.755 -1.3104  0.7634 -0.4541
 1314SOL    HW215402   1.438   0.926   6.834 -1.3201  0.4993 -1.3775
 1315SOL     OW15403   0.528   3.935   1.385 -0.2234  0.5812  0.1070
 1315SOL    HW115404   0.479   3.870   1.436  1.3255 -0.6934 -0.0601
 1315SOL    HW215405   0.504   3.906   1.297 -0.7957  1.7860 -0.1495
 1316SOL     OW15406   1.516   2.985   3.373  0.7784 -0.0834 -0.8869
 1316SOL    HW115407   1.606   2.974   3.406  0.8892  0.8221 -0.8859
 1316SOL    HW215408   1.531   3.060   3.316  0.8304  0.3408 -0.3202
 1317SOL     OW15409   1.348   1.328   1.574  0.2640 -0.1407 -0.6761
 1317SOL    HW115410   1.355   1.418   1.607  1.3035 -1.0799  1.6971
 1317SOL    HW215411   1.336   1.289   1.660  0.2606 -1.9718 -1.5102
 1318SOL     OW15412   2.015   3.857   9.790  0.1131  0.0507 -0.6694
 1318SOL    HW115413   2.046   3.944   9.764 -3.6021  1.4846 -0.3940
 1318SOL    HW215414   1.990   3.873   9.881 -1.9845 -2.1378 -0.8790
 1319SOL     OW15415   2.405   3.983   5.969 -0.1394 -0.3034  0.0273
 1319SOL    HW115416   2.325   4.029   5.997  0.4790  0.3814  0.6825
 1319SOL    HW215417   2.467   4.028   6.026  0.1689 -0.9027  0.1538
 1320SOL     OW15418   1.758   0.924   0.207 -0.2623  0.1875  0.1156
 1320SOL    HW115419   1.719   0.886   0.285 -0.1654 -1.9703 -0.9019
 1320SOL    HW215420   1.842   0.878   0.206  0.3872  1.4085 -1.6018
 1321SOL     OW15421   0.510   0.105   6.918 -0.0941 -0.3367  0.0405
 1321SOL    HW115422   0.447   0.119   6.847 -0.8981  0.9289  0.9779
 1321SOL    HW215423   0.460   0.089   6.998 -2.7663 -1.1845 -1.7866
 1322SOL     OW15424   3.219   0.621   0.007 -0.5606 -0.3286 -1.0582
 1322SOL    HW115425   3.209   0.612   0.102  2.8038 -0.8111 -0.7547
 1322SOL    HW215426   3.195   0.537  17.655 -0.1433 -0.1496 -1.7088
 1323SOL     OW15427   3.801   1.973   6.175  0.1281 -0.1713  0.2985
 1323SOL    HW115428   3.768   1.883   6.181  0.0425 -0.1084  0.7724
 1323SOL    HW215429   3.752   2.004   6.099  0.2485  0.7374  0.5904
 1324SOL     OW15430   2.486   1.407   7.890 -0.0522 -0.0073  0.2930
 1324SOL    HW115431   2.506   1.324   7.933  2.1176  1.1756  1.5618
 1324SOL    HW215432   2.567   1.440   7.850 -0.9985  0.2661 -1.4026
 1325SOL     OW15433   1.660   2.932   9.268  1.0427  0.7874 -0.1422
 1325SOL    HW115434   1.699   2.849   9.238 -0.5334  0.2899 -0.7944
 1325SOL    HW215435   1.714   3.002   9.230  1.1294  0.6655 -0.2436
 1326SOL     OW15436   4.016   3.180   6.288  0.1697  0.6918 -0.7340
 1326SOL    HW115437   4.110   3.183   6.303  0.0177 -0.0979  0.3445
 1326SOL    HW215438   3.984   3.210   6.373 -2.0857 -0.4424 -1.1866
 1327SOL     OW15439   0.129   1.789   8.924 -0.0181 -0.1157  0.8693
 1327SOL    HW115440   0.129   1.766   8.831  1.2321  1.8932  0.3578
 1327SOL    HW215441   0.043   1.757   8.948 -0.1220  1.5133  2.6591
 1328SOL     OW15442   2.391   4.438   5.282 -0.0380 -0.2072  0.6128
 1328SOL    HW115443   2.443   4.358   5.291  1.6673  0.7915 -0.4682
 1328SOL    HW215444   2.363   4.441   5.190  1.3693  1.8662  0.2557
 1329SOL     OW15445   3.705   2.418  11.450 -0.4823  0.1171 -0.7170
 1329SOL    HW115446   3.726   2.429  11.357  1.3842  2.3840 -0.0180
 1329SOL    HW215447   3.781   2.366  11.474 -1.6084 -1.3127 -0.2070
 1330SOL     OW15448   1.384   0.184   0.151 -0.5512 -0.0948  0.0235
 1330SOL    HW115449   1.344   0.270   0.164  1.9942  1.1388 -0.1742
 1330SOL    HW215450   1.441   0.194   0.074  0.4083 -0.0194  0.7434
 1331SOL     OW15451   2.679   2.419   8.368  0.0700 -0.0475  0.0642
 1331SOL    HW115452   2.724   2.398   8.450  0.3826 -2.8877 -0.8410
 1331SOL    HW215453   2.698   2.349   8.305 -0.0715  3.3030 -3.6756
 1332SOL     OW15454   4.423   4.351   3.339  0.1028 -0.4716 -0.0975
 1332SOL    HW115455   4.378   4.268   3.351 -0.3331 -0.8606 -4.5872
 1332SOL    HW215456   4.497   4.328   3.396 -0.3440 -2.2021 -0.2408
 1333SOL     OW15457   0.435   2.972   4.847  0.4230  0.1601 -0.4751
 1333SOL    HW115458   0.437   2.903   4.781  0.9481  0.0014 -0.2904
 1333SOL    HW215459   0.527   2.997   4.854 -0.1805  2.1624  0.3682
 1334SOL     OW15460   3.518   1.997   5.079 -0.4199 -0.1179  0.6062
 1334SOL    HW115461   3.487   1.996   4.988 -0.8467  1.4038  0.7289
 1334SOL    HW215462   3.602   1.952   5.071  0.6558  2.0380 -0.2770
 1335SOL     OW15463   4.154   0.792   5.188  0.2427 -0.5220 -0.1038
 1335SOL    HW115464   4.093   0.845   5.239  0.9003 -0.7945  0.9466
 1335SOL    HW215465   4.114   0.774   5.102 -2.6665 -1.3702  1.4218
 1336SOL     OW15466   3.330   4.440  10.436  0.3930  0.5823 -0.2672
 1336SOL    HW115467   3.268   4.377  10.401  0.5890 -0.0458  0.5294
 1336SOL    HW215468   3.312   4.429  10.529 -1.1253 -1.5229 -0.8251
 1337SOL     OW15469   3.740   1.624   6.666  0.4862 -0.2736  0.3852
 1337SOL    HW115470   3.734   1.620   6.761 -0.2929 -0.5452  0.3214
 1337SOL    HW215471   3.828   1.660   6.659  1.3479 -2.5361 -0.2173
 1338SOL     OW15472   2.191   3.209   0.003 -0.1922  0.1409  0.0897
 1338SOL    HW115473   2.206   3.301  17.667  1.2665 -0.0654  0.2428
 1338SOL    HW215474   2.181   3.171  17.601 -1.9295  2.1273 -0.5684
 1339SOL     OW15475   1.547   1.568   9.376  0.2039 -0.2687 -0.4372
 1339SOL    HW115476   1.607   1.569   9.301  1.9248 -0.5204  0.9265
 1339SOL    HW215477   1.485   1.634   9.345  0.2608 -0.2319 -0.4736
 1340SOL     OW15478   2.120   1.779   9.643 -0.0818 -0.3240 -0.0619
 1340SOL    HW115479   2.152   1.794   9.554  4.5080 -1.4265  1.3964
 1340SOL    HW215480   2.041   1.734   9.615 -0.5210 -0.4533  1.3924
 1341SOL     OW15481   2.035   4.391  13.207  0.3340 -0.6773  0.5962
 1341SOL    HW115482   1.969   4.322  13.203 -0.6303  0.3120 -0.6098
 1341SOL    HW215483   2.115   4.352  13.172 -0.9685 -3.0885  0.2518
 1342SOL     OW15484   0.971   1.405   8.819  0.4612  0.1369 -0.1933
 1342SOL    HW115485   0.894   1.456   8.795 -0.5174 -1.5596 -0.6612
 1342SOL    HW215486   1.021   1.475   8.863  2.7212 -1.8388  0.3963
 1343SOL     OW15487   2.239   0.964   6.086  0.5222 -0.8612  0.1227
 1343SOL    HW115488   2.190   0.941   6.007  1.1729 -0.2996 -0.4447
 1343SOL    HW215489   2.328   0.942   6.060  0.8540  1.4524 -0.6779
 1344SOL     OW15490   2.601   1.197   8.677 -0.3251  0.2073 -0.0173
 1344SOL    HW115491   2.625   1.140   8.604 -1.3724 -0.2783  0.0168
 1344SOL    HW215492   2.529   1.251   8.644  0.0693  0.7745  0.0501
 1345SOL     OW15493   0.525   1.824  10.822  0.1796  0.0331 -0.4898
 1345SOL    HW115494   0.443   1.799  10.778 -0.3206  0.6912  0.0591
 1345SOL    HW215495   0.500   1.849  10.911  0.8332 -0.3598 -0.2018
 1346SOL     OW15496   0.913   0.091   3.103  0.5287 -0.0020  0.0663
 1346SOL    HW115497   0.879   0.118   3.017  0.1987  2.0616  0.8349
 1346SOL    HW215498   0.980   0.028   3.079 -0.0956 -1.6870  2.7017
 1347SOL     OW15499   4.171   0.427   9.032 -0.1039 -0.0910 -0.1228
 1347SOL    HW115500   4.229   0.470   8.969  0.9086 -0.0758  0.8449
 1347SOL    HW215501   4.153   0.340   8.994 -0.9943  0.6428 -1.4063
 1348SOL     OW15502   0.444   3.596  12.182  0.3124 -0.1386  0.4119
 1348SOL    HW115503   0.455   3.665  12.248  1.0964  0.8704 -0.7772
 1348SOL    HW215504   0.353   3.618  12.165  0.8715  1.1924 -0.8590
 1349SOL     OW15505   1.774   3.856   5.384  0.2164  0.0340 -0.1659
 1349SOL    HW115506   1.799   3.769   5.353 -0.0724 -0.6637  1.5104
 1349SOL    HW215507   1.681   3.834   5.391  0.6861 -2.0589 -0.4043
 1350SOL     OW15508   1.768   4.012  12.656  0.3710 -0.1806  0.1533
 1350SOL    HW115509   1.820   4.019  12.736 -3.1575  0.5154  2.4214
 1350SOL    HW215510   1.754   3.917  12.651  0.1641 -0.2064  1.0813
 1351SOL     OW15511   3.879   2.823   5.799 -0.1294  0.5224 -0.3810
 1351SOL    HW115512   3.953   2.884   5.809  1.5405 -1.3093 -1.5352
 1351SOL    HW215513   3.867   2.798   5.891 -3.6270  0.1337 -0.9532
 1352SOL     OW15514   1.723   4.681   1.454 -0.0517  0.3878 -0.4224
 1352SOL    HW115515   1.678   4.603   1.422  0.2518  0.4674 -1.0393
 1352SOL    HW215516   1.781   4.692   1.379  1.8193 -1.0664  0.8113
 1353SOL     OW15517   0.209   0.614   8.585 -0.6537  0.5263  0.3176
 1353SOL    HW115518   0.197   0.520   8.571 -0.5671  0.3148  1.6723
 1353SOL    HW215519   0.289   0.607   8.636 -0.6553  1.0515  0.3964
 1354SOL     OW15520   3.427   0.329  15.723 -0.0655  0.1788  0.0739
 1354SOL    HW115521   3.440   0.241  15.689  0.7136  0.8870 -1.5113
 1354SOL    HW215522   3.473   0.378  15.655  3.1958  0.4879  2.5443
 1355SOL     OW15523   1.744   2.746   3.020 -0.4668  0.3810 -0.0848
 1355SOL    HW115524   1.801   2.800   2.966 -1.0672  1.5829  0.4886
 1355SOL    HW215525   1.656   2.777   3.000 -1.1959 -1.1509  0.7265
 1356SOL     OW15526   0.923   4.405  10.957  0.8370  0.8659  0.4343
 1356SOL    HW115527   0.922   4.341  10.885 -1.7677 -0.9517  2.0862
 1356SOL    HW215528   1.014   4.433  10.963  1.2824 -0.1276 -1.5586
 1357SOL     OW15529   4.668   3.805   8.096 -0.2142 -0.1145 -1.1354
 1357SOL    HW115530   4.664   3.737   8.028 -0.2114 -1.4380  0.1938
 1357SOL    HW215531   4.707   3.760   8.171 -1.5171  1.3759  0.4375
 1358SOL     OW15532   4.649   3.079  10.163 -0.2779  0.3627 -0.1092
 1358SOL    HW115533   4.579   3.063  10.100 -0.0659  0.8556 -0.4770
 1358SOL    HW215534   4.687   3.155  10.119  0.4385 -0.3343 -0.6795
 1359SOL     OW15535   3.329   0.851   0.872 -0.3581 -0.4702  0.4629
 1359SOL    HW115536   3.251   0.819   0.919 -0.5342  0.2665  0.6670
 1359SOL    HW215537   3.286   0.857   0.787 -0.1807 -0.5990  0.3660
 1360SOL     OW15538   2.712   3.581  16.787 -0.5834  0.6812  0.4189
 1360SOL    HW115539   2.740   3.661  16.742  0.2545  1.3936  2.2080
 1360SOL    HW215540   2.754   3.595  16.872  1.2432 -0.1809 -0.3602
 1361SOL     OW15541   3.470   0.760  12.215 -0.2968 -0.7257 -0.1670
 1361SOL    HW115542   3.381   0.770  12.183 -0.7523 -0.7417  1.0821
 1361SOL    HW215543   3.519   0.705  12.154 -2.0474 -2.8253  0.3374
 1362SOL     OW15544   1.099   2.733   8.779 -0.3764  0.2970  0.0733
 1362SOL    HW115545   1.134   2.812   8.819 -0.4006  1.0873 -1.4779
 1362SOL    HW215546   1.066   2.689   8.858 -2.8491  1.1360 -0.5112
 1363SOL     OW15547   0.438   4.209  16.009  0.2503  0.3684  0.5836
 1363SOL    HW115548   0.523   4.253  16.001  0.7141 -0.7783 -0.8528
 1363SOL    HW215549   0.449   4.178  16.098 -2.4018  1.5967  1.3266
 1364SOL     OW15550   2.052   0.473   3.244 -0.0961  0.5172 -0.0674
 1364SOL    HW115551   2.130   0.526   3.227  0.1537 -0.0969 -0.8308
 1364SOL    HW215552   2.000   0.492   3.166  3.6354 -1.7582 -3.1537
 1365SOL     OW15553   2.178   3.089  17.464 -0.2527 -0.1377 -0.7790
 1365SOL    HW115554   2.102   3.032  17.449 -1.3559  0.9615  0.6613
 1365SOL    HW215555   2.169   3.156  17.396  1.0938 -1.3767 -2.1875
 1366SOL     OW15556   2.100   2.448   5.396 -0.0709 -0.0913 -0.5453
 1366SOL    HW115557   2.171   2.392   5.365 -1.4940 -1.9272 -0.5185
 1366SOL    HW215558   2.065   2.397   5.468  1.3543 -1.4854 -0.8491
 1367SOL     OW15559   0.825   1.581  17.505  0.2396 -0.0524  0.3421
 1367SOL    HW115560   0.823   1.609  17.413  0.3670  0.6609  0.5541
 1367SOL    HW215561   0.886   1.507  17.504  0.2804 -0.0035 -0.8717
 1368SOL     OW15562   1.203   2.517   5.141  0.2098  0.3421  0.5866
 1368SOL    HW115563   1.280   2.574   5.135 -0.5239  1.1746 -0.7628
 1368SOL    HW215564   1.131   2.579   5.149  1.1433  1.6013 -0.8263
 1369SOL     OW15565   0.575   1.586   8.376  0.0872  0.1120  0.3180
 1369SOL    HW115566   0.645   1.522   8.394  0.2337  0.2394  0.2004
 1369SOL    HW215567   0.554   1.613   8.465  0.1830 -0.8375  0.6309
 1370SOL     OW15568   2.340   3.409   8.946 -0.7177  0.0051  0.1729
 1370SOL    HW115569   2.385   3.327   8.927  0.3014  0.8712 -1.2219
 1370SOL    HW215570   2.300   3.384   9.029 -3.8467 -0.1201 -1.3586
 1371SOL     OW15571   3.431   3.623   3.200 -0.3427  0.5218 -0.5371
 1371SOL    HW115572   3.508   3.610   3.256  0.9145  3.3246 -1.5654
 1371SOL    HW215573   3.447   3.558   3.132  3.1400  0.6036  0.1805
 1372SOL     OW15574   2.828   3.785   4.864 -0.2863  0.0920 -0.4532
 1372SOL    HW115575   2.742   3.750   4.887  0.7853 -1.7008  0.8145
 1372SOL    HW215576   2.816   3.796   4.770  0.4202  1.9506 -0.3255
 1373SOL     OW15577   4.210   0.225   5.278 -0.3439  0.4794  0.3704
 1373SOL    HW115578   4.127   0.240   5.233 -0.9033  0.5505  1.4283
 1373SOL    HW215579   4.216   0.305   5.331 -0.3093  0.4426  0.4220
 1374SOL     OW15580   4.362   4.409   8.433 -0.2121  0.2210  0.1989
 1374SOL    HW115581   4.416   4.350   8.380 -1.1634 -1.7721  1.4313
 1374SOL    HW215582   4.310   4.462   8.372 -2.2213  0.1234  1.8147
 1375SOL     OW15583   1.059   3.094   6.752  0.1245 -0.6339 -0.6943
 1375SOL    HW115584   1.152   3.119   6.745  1.0900 -3.8731  0.3033
 1375SOL    HW215585   1.043   3.084   6.658  0.9230  0.0906 -0.9116
 1376SOL     OW15586   4.107   2.145  10.176  0.4407  0.3623  0.4130
 1376SOL    HW115587   4.053   2.136  10.255  0.2779  2.1393  0.5189
 1376SOL    HW215588   4.091   2.063  10.129 -2.7169  0.8073  0.6887
 1377SOL     OW15589   4.159   0.949  17.643 -0.0811  0.6701  0.2616
 1377SOL    HW115590   4.127   0.859  17.640 -1.0977  1.0186  0.3066
 1377SOL    HW215591   4.247   0.940  17.678 -0.1117 -2.4459 -0.5258
 1378SOL     OW15592   4.631   1.036  15.221  0.4479  0.2254  0.0117
 1378SOL    HW115593   4.660   0.959  15.270  0.7175  0.1801 -0.2191
 1378SOL    HW215594   4.650   1.007  15.132  1.7839  0.2564  0.2925
 1379SOL     OW15595   0.900   2.732   2.465 -0.0566  0.0799  0.2601
 1379SOL    HW115596   0.825   2.782   2.433  0.1502  0.5104  0.4605
 1379SOL    HW215597   0.901   2.669   2.392  1.0846 -0.0158  0.3560
 1380SOL     OW15598   3.198   1.691   0.522 -0.3426  0.6547  0.4750
 1380SOL    HW115599   3.157   1.774   0.546  0.1236  1.6027 -2.0541
 1380SOL    HW215600   3.274   1.715   0.469  0.2598 -2.6103 -0.1957
 1381SOL     OW15601   3.566   2.792   8.684  0.2558 -0.9506 -0.8569
 1381SOL    HW115602   3.483   2.806   8.728  1.0739  3.7425 -0.7969
 1381SOL    HW215603   3.620   2.857   8.729 -3.0495 -0.2056  2.0334
 1382SOL     OW15604   2.525   0.487   5.500 -0.3815 -0.1092 -0.0065
 1382SOL    HW115605   2.482   0.491   5.415  0.6139 -0.5158 -0.5279
 1382SOL    HW215606   2.479   0.417   5.547 -0.5959 -1.6309 -2.5101
 1383SOL     OW15607   2.454   1.066   3.634  0.1367 -0.4286 -0.0263
 1383SOL    HW115608   2.436   0.975   3.608 -2.5594 -0.1762  0.9540
 1383SOL    HW215609   2.392   1.079   3.706  2.6156 -0.5915  2.1641
 1384SOL     OW15610   0.501   3.715   1.922 -0.1680  0.0002 -0.1114
 1384SOL    HW115611   0.416   3.740   1.885 -0.7727 -1.6361  0.1953
 1384SOL    HW215612   0.507   3.762   2.005 -1.3450 -0.6910  0.3521
 1385SOL     OW15613   2.642   4.210   1.244  0.4442  0.0883 -0.1168
 1385SOL    HW115614   2.592   4.151   1.188  1.4045 -1.1321  0.3269
 1385SOL    HW215615   2.696   4.150   1.294  0.4025  0.6754  0.6346
 1386SOL     OW15616   4.343   2.739   4.848  0.0952  0.3917  0.2209
 1386SOL    HW115617   4.400   2.782   4.784  2.5693 -0.7351  1.6599
 1386SOL    HW215618   4.340   2.803   4.919 -1.8089  0.1225  0.3811
 1387SOL     OW15619   4.404   2.784   8.753 -0.7438  0.3010  0.1760
 1387SOL    HW115620   4.487   2.831   8.745  0.3305 -1.4259  0.9962
 1387SOL    HW215621   4.339   2.852   8.738 -0.3270  0.5756 -0.3919
 1388SOL     OW15622   2.593   0.684  11.657  0.1982  0.7550 -1.1025
 1388SOL    HW115623   2.498   0.685  11.666  0.4125 -1.0403  1.3369
 1388SOL    HW215624   2.603   0.777  11.637 -0.6367  0.8355 -1.1479
 1389SOL     OW15625   0.537   1.577  17.575 -0.7548  0.5054 -0.1356
 1389SOL    HW115626   0.593   1.507  17.542 -1.9990  0.2159 -1.6077
 1389SOL    HW215627   0.489   1.525  17.640  0.7275  0.9333  1.3216
 1390SOL     OW15628   0.753   0.526   8.468  0.8597  0.2130  0.0535
 1390SOL    HW115629   0.802   0.479   8.535  1.6417 -0.1854 -0.7842
 1390SOL    HW215630   0.819   0.553   8.404 -0.8130 -1.5800 -2.4426
 1391SOL     OW15631   2.421   1.129   4.782  0.1483 -0.1240  0.4924
 1391SOL    HW115632   2.473   1.174   4.715 -0.2085  1.1780  1.0886
 1391SOL    HW215633   2.488   1.083   4.832  1.0091  1.5804  0.9317
 1392SOL     OW15634   1.072   1.470  12.853  0.0092 -0.3374 -0.5473
 1392SOL    HW115635   1.119   1.515  12.923 -0.2733 -2.4399  0.9925
 1392SOL    HW215636   0.987   1.444  12.887 -0.2046  1.7937  0.5400
 1393SOL     OW15637   1.320   3.093   2.416  0.0140  0.1097  0.7327
 1393SOL    HW115638   1.248   3.031   2.430  0.8621 -1.7062 -2.9976
 1393SOL    HW215639   1.376   3.039   2.361 -0.1263  1.3952 -0.6565
 1394SOL     OW15640   3.190   2.728   4.101  0.3280 -0.4138 -0.1739
 1394SOL    HW115641   3.273   2.696   4.065  0.3815 -0.6270  0.1341
 1394SOL    HW215642   3.120   2.676   4.061  1.2042 -1.2233 -0.6517
 1395SOL     OW15643   2.761   3.594  14.258 -0.2668  0.1610 -0.2334
 1395SOL    HW115644   2.686   3.539  14.235  0.5127  0.4753 -3.4492
 1395SOL    HW215645   2.836   3.544  14.225 -1.7502  0.1901 -3.6392
 1396SOL     OW15646   0.673   3.382   4.388  0.3342 -0.2278 -0.0885
 1396SOL    HW115647   0.600   3.363   4.447 -0.4483 -2.1080 -1.6790
 1396SOL    HW215648   0.698   3.467   4.424  2.2276 -2.1675  3.1278
 1397SOL     OW15649   3.233   2.606   0.745  0.2202 -0.6157 -0.6408
 1397SOL    HW115650   3.301   2.557   0.699  0.0820 -0.8216 -0.6287
 1397SOL    HW215651   3.164   2.540   0.755 -0.4798  0.0575 -1.0097
 1398SOL     OW15652   2.449   3.948   6.438  0.0424 -0.1081  0.0494
 1398SOL    HW115653   2.466   3.854   6.443 -1.7194 -0.4791 -0.9107
 1398SOL    HW215654   2.353   3.942   6.434  0.0280  1.1545 -2.1406
 1399SOL     OW15655   1.064   2.258  14.812  0.3257 -0.5956 -0.2310
 1399SOL    HW115656   1.050   2.321  14.882 -0.9543 -1.5438  0.3741
 1399SOL    HW215657   1.154   2.227  14.826 -0.3147 -2.4327 -0.0967
 1400SOL     OW15658   0.719   2.628   6.607 -0.3942  0.5581  0.3711
 1400SOL    HW115659   0.742   2.568   6.678 -0.8733  1.1624  1.0336
 1400SOL    HW215660   0.693   2.705   6.658 -0.8263  2.1209 -2.2013
 1401SOL     OW15661   3.231   2.706   1.045 -0.0389 -0.2492  0.0479
 1401SOL    HW115662   3.265   2.689   0.958  0.4302  0.1118  0.1580
 1401SOL    HW215663   3.289   2.772   1.083 -2.5102  1.5637  0.6521
 1402SOL     OW15664   0.123   2.081  12.796 -0.5519 -0.3565  0.4267
 1402SOL    HW115665   0.166   2.166  12.812  0.0612 -0.0875 -2.6671
 1402SOL    HW215666   0.038   2.114  12.768 -0.2867  0.1062  0.1729
 1403SOL     OW15667   2.313   0.733   1.065 -0.3641  0.3446  0.6207
 1403SOL    HW115668   2.260   0.723   0.986  0.2500 -0.9275  0.3709
 1403SOL    HW215669   2.402   0.725   1.030 -0.8704  0.4256 -0.6806
 1404SOL     OW15670   4.050   4.315   8.709  0.5046  0.0121 -0.2165
 1404SOL    HW115671   4.075   4.362   8.789 -3.7016 -2.1411  2.4174
 1404SOL    HW215672   4.068   4.223   8.731  1.2113  0.2100  0.0411
 1405SOL     OW15673   4.174   2.730   6.634 -0.0367 -0.0383  0.1566
 1405SOL    HW115674   4.190   2.819   6.604 -1.2824  0.1057 -0.0764
 1405SOL    HW215675   4.083   2.743   6.658  0.0337  1.6855 -0.5314
 1406SOL     OW15676   2.274   2.371   3.144 -0.2553  0.0720  0.5319
 1406SOL    HW115677   2.357   2.408   3.112  1.2538 -2.0480  2.0014
 1406SOL    HW215678   2.294   2.368   3.237  1.3197  0.1158  0.2079
 1407SOL     OW15679   4.629   0.988  12.880  0.6195  0.2344  0.0793
 1407SOL    HW115680   4.665   1.028  12.800 -1.9854 -1.0461 -1.7086
 1407SOL    HW215681   4.570   1.057  12.909 -0.7011  0.2887 -2.7225
 1408SOL     OW15682   4.699   4.533  11.538 -0.2549 -0.0508 -0.0451
 1408SOL    HW115683   4.680   4.608  11.481 -1.3007  0.5266  1.0609
 1408SOL    HW215684   0.026   4.566  11.614  3.1354 -1.1929 -1.6814
 1409SOL     OW15685   3.883   3.592  14.149  0.2522  0.5082  0.1404
 1409SOL    HW115686   3.825   3.578  14.225  2.7804 -1.2972  1.7226
 1409SOL    HW215687   3.919   3.506  14.131  0.0579  0.3279  0.5872
 1410SOL     OW15688   3.725   0.384   6.337  0.2587 -0.1616 -0.3693
 1410SOL    HW115689   3.681   0.397   6.421  0.4419 -1.4946 -0.0596
 1410SOL    HW215690   3.799   0.327   6.361  1.3425  1.6210  0.4809
 1411SOL     OW15691   1.418   3.914  12.186  0.2903 -0.5806  0.1527
 1411SOL    HW115692   1.327   3.883  12.192  0.2451 -0.3752  0.5649
 1411SOL    HW215693   1.445   3.908  12.278  1.2052  2.1642  0.0778
 1412SOL     OW15694   3.635   0.966   8.435  0.4791 -0.3003 -0.3531
 1412SOL    HW115695   3.648   1.004   8.348 -0.7599 -1.0679 -0.8663
 1412SOL    HW215696   3.572   1.022   8.480 -0.8177 -1.9873 -0.0663
 1413SOL     OW15697   4.293   2.246  10.016  0.1408 -0.3492 -0.2540
 1413SOL    HW115698   4.267   2.275   9.929  0.5602 -1.4452 -0.7437
 1413SOL    HW215699   4.210   2.232  10.062 -0.5139  2.8327 -0.4790
 1414SOL     OW15700   4.553   3.250   7.601 -0.3547 -0.3813  0.3030
 1414SOL    HW115701   4.458   3.258   7.605 -0.2481 -1.1445  4.8612
 1414SOL    HW215702   4.581   3.302   7.526  2.1258 -2.2438 -0.0705
 1415SOL     OW15703   2.161   2.175   7.230  0.1065 -0.1146  0.7852
 1415SOL    HW115704   2.153   2.130   7.314  1.9162  0.4006  1.2434
 1415SOL    HW215705   2.239   2.129   7.198 -1.8512 -2.5875 -0.4076
 1416SOL     OW15706   3.308   0.659  16.777  0.0566 -0.5127 -0.2855
 1416SOL    HW115707   3.378   0.717  16.807  0.2986  0.4377 -2.7134
 1416SOL    HW215708   3.352   0.589  16.730  0.3368 -0.5013 -0.0422
 1417SOL     OW15709   2.473   0.830  13.419  0.2507  0.1629 -0.2900
 1417SOL    HW115710   2.451   0.771  13.347  0.8661 -0.2498 -0.1378
 1417SOL    HW215711   2.562   0.812  13.448  0.2262  2.7164  1.3880
 1418SOL     OW15712   1.168   2.949   7.423 -0.1692  0.1415 -0.2643
 1418SOL    HW115713   1.149   2.884   7.491 -0.7749 -0.7719 -1.3208
 1418SOL    HW215714   1.099   3.009   7.449 -0.0958  0.4890 -0.8828
 1419SOL     OW15715   0.052   3.231   3.966  0.2003 -0.0232  0.0591
 1419SOL    HW115716   4.693   3.242   4.018 -0.2554 -1.0308 -0.4299
 1419SOL    HW215717   0.063   3.311   3.915  2.3042 -0.2682  0.1369
 1420SOL     OW15718   0.551   3.880   8.111  0.5095 -0.2876  1.0282
 1420SOL    HW115719   0.458   3.872   8.133  0.1872  1.4547  0.2718
 1420SOL    HW215720   0.562   3.973   8.130 -2.5812  0.0729  1.0608
 1421SOL     OW15721   0.246   0.653   3.883 -0.2010  0.1636 -0.1779
 1421SOL    HW115722   0.238   0.569   3.929 -4.6482 -0.3101 -1.8226
 1421SOL    HW215723   0.318   0.693   3.932  0.5989 -1.6870  0.1486
 1422SOL     OW15724   3.012   3.816  17.596 -0.3447 -0.5376 -0.3739
 1422SOL    HW115725   3.034   3.907  17.614 -0.2310 -0.7200  0.3832
 1422SOL    HW215726   3.083   3.773  17.642  0.3478  0.1489 -0.7948
 1423SOL     OW15727   4.180   3.954   6.836 -0.0345  0.3880  0.1259
 1423SOL    HW115728   4.187   4.039   6.878  2.2068  0.5547 -0.5932
 1423SOL    HW215729   4.274   3.935   6.827 -0.6206 -2.0192 -0.8045
 1424SOL     OW15730   0.337   2.280   5.963  0.3582  0.8826 -0.4824
 1424SOL    HW115731   0.250   2.281   6.002  0.3507  1.0026 -0.5020
 1424SOL    HW215732   0.335   2.352   5.900 -1.5409  0.1227 -1.2740
 1425SOL     OW15733   1.530   3.908   5.994 -0.1930 -0.3479 -0.2231
 1425SOL    HW115734   1.584   3.839   5.954 -0.3514 -0.5698 -0.0599
 1425SOL    HW215735   1.534   3.981   5.933  2.5967  0.8933  1.3958
 1426SOL     OW15736   3.780   2.784   4.031  0.4917  0.2049  0.3035
 1426SOL    HW115737   3.724   2.770   4.106  0.6775 -1.0516  0.2037
 1426SOL    HW215738   3.840   2.709   4.034  0.8894  0.4732 -0.8409
 1427SOL     OW15739   0.779   0.558   3.192  0.2851  0.1200  0.5575
 1427SOL    HW115740   0.775   0.465   3.170  2.5467 -0.0491  0.8770
 1427SOL    HW215741   0.780   0.597   3.105  1.1461 -1.0622  0.0390
 1428SOL     OW15742   2.518   2.506   3.128 -0.1913 -0.4837  0.0388
 1428SOL    HW115743   2.607   2.539   3.138 -0.3768 -0.0577  0.2740
 1428SOL    HW215744   2.506   2.460   3.211  2.3246 -0.2130  0.5367
 1429SOL     OW15745   0.946   1.287   6.840 -0.2656  0.0595 -0.1315
 1429SOL    HW115746   0.923   1.358   6.779  0.9799 -0.2928 -1.0209
 1429SOL    HW215747   0.967   1.224   6.771  0.5409  1.1804 -0.9116
 1430SOL     OW15748   3.186   0.359  11.524  0.1336  0.9895 -0.3218
 1430SOL    HW115749   3.148   0.295  11.583  0.0051  0.6680 -0.7515
 1430SOL    HW215750   3.247   0.410  11.577  2.3292 -2.0917  0.0990
 1431SOL     OW15751   0.399   2.744   5.263  0.4179 -0.0846  0.0722
 1431SOL    HW115752   0.386   2.828   5.221 -1.5797 -0.7918 -0.7148
 1431SOL    HW215753   0.450   2.763   5.342  0.7080  0.9463 -0.3636
 1432SOL     OW15754   0.247   1.873   8.091 -0.7634  0.0370  0.6308
 1432SOL    HW115755   0.194   1.952   8.094  0.1775  0.6939 -0.1304
 1432SOL    HW215756   0.269   1.852   8.182 -1.0826 -0.0779  0.6810
 1433SOL     OW15757   2.298   1.044   3.178 -0.0908 -0.0453 -0.2449
 1433SOL    HW115758   2.385   1.020   3.208 -0.0179 -1.0117 -1.2385
 1433SOL    HW215759   2.315   1.125   3.129 -2.6642  2.0365  2.2394
 1434SOL     OW15760   1.143   2.605   8.536  0.3456  0.0144 -0.3380
 1434SOL    HW115761   1.142   2.652   8.619  1.6399 -1.3629  0.4532
 1434SOL    HW215762   1.236   2.594   8.519  0.7880  2.4989  0.4500
 1435SOL     OW15763   0.546   2.866  10.778 -0.1163 -0.0598  0.0045
 1435SOL    HW115764   0.542   2.823  10.693 -0.9656  1.0381 -0.5076
 1435SOL    HW215765   0.533   2.954  10.743 -0.4490 -0.5219 -1.0173
 1436SOL     OW15766   4.619   0.452  14.604 -0.5088 -0.1182 -0.4359
 1436SOL    HW115767   4.576   0.375  14.642 -0.5590  0.7696  1.2783
 1436SOL    HW215768   4.571   0.525  14.643  1.8919  0.1998  1.9019
 1437SOL     OW15769   0.686   1.955   9.658  0.0234  0.1747 -0.1937
 1437SOL    HW115770   0.738   2.035   9.651 -3.0347  2.4753  2.6479
 1437SOL    HW215771   0.698   1.919   9.571 -0.4838 -0.0197 -0.1862
 1438SOL     OW15772   3.887   3.910  11.118  0.3099  0.0604 -0.2999
 1438SOL    HW115773   3.802   3.878  11.086  0.2122 -0.2943  0.3151
 1438SOL    HW215774   3.911   3.840  11.179 -1.4928 -0.3525 -0.0512
 1439SOL     OW15775   3.347   2.969   7.636  0.1727 -0.8266 -0.3320
 1439SOL    HW115776   3.289   2.916   7.690 -1.4330  0.6646 -0.5832
 1439SOL    HW215777   3.355   3.041   7.699  0.5415 -0.1128 -1.1994
 1440SOL     OW15778   0.342   1.032   5.058  1.0013 -0.1797 -0.7179
 1440SOL    HW115779   0.299   0.957   5.016 -2.0968 -0.4317  2.8770
 1440SOL    HW215780   0.335   1.104   4.996 -0.4812  0.1522 -0.1483
 1441SOL     OW15781   3.594   1.162   4.427 -0.0464 -0.2793  0.7182
 1441SOL    HW115782   3.587   1.254   4.451  2.5503  0.8204 -2.7993
 1441SOL    HW215783   3.505   1.133   4.446 -0.2397 -1.2607 -1.7052
 1442SOL     OW15784   3.763   3.923  17.012 -0.6093  0.1944 -0.6808
 1442SOL    HW115785   3.797   3.988  16.951  0.0154 -0.8854 -1.4721
 1442SOL    HW215786   3.696   3.979  17.052 -0.1590 -0.6176  1.1917
 1443SOL     OW15787   1.850   0.221   6.741 -0.1824 -0.1429  0.4752
 1443SOL    HW115788   1.880   0.224   6.832 -0.7018  0.8997  0.6143
 1443SOL    HW215789   1.865   0.132   6.708 -0.9028  0.9061 -2.7316
 1444SOL     OW15790   2.302   0.841   4.591  0.0607 -0.7467 -0.3148
 1444SOL    HW115791   2.247   0.837   4.670 -0.4200  0.4741 -0.5994
 1444SOL    HW215792   2.296   0.748   4.567  2.0255 -0.8660 -0.3279
 1445SOL     OW15793   2.837   4.203   9.921 -0.2310  0.4467  0.0350
 1445SOL    HW115794   2.911   4.260   9.942  0.5399  0.2626 -2.2313
 1445SOL    HW215795   2.873   4.116   9.937 -0.2425  0.3958 -0.2185
 1446SOL     OW15796   3.900   1.567  14.251 -0.4330  0.3083  0.3880
 1446SOL    HW115797   3.931   1.492  14.302 -0.5902 -0.0297 -0.0151
 1446SOL    HW215798   3.975   1.626  14.262 -0.3234  0.2505 -0.0380
 1447SOL     OW15799   3.701   0.986   3.372  0.3282 -0.4723  0.1502
 1447SOL    HW115800   3.623   1.033   3.344  0.1531 -2.2915 -2.4062
 1447SOL    HW215801   3.682   0.989   3.466 -0.6625  1.9226 -0.1210
 1448SOL     OW15802   3.829   2.713   3.184 -0.7377  0.0098  0.3216
 1448SOL    HW115803   3.885   2.706   3.107 -1.4123 -0.1773 -0.1377
 1448SOL    HW215804   3.859   2.801   3.209  0.0978 -0.6779  1.7803
 1449SOL     OW15805   0.386   2.010   7.712  0.2762 -0.3177  0.0117
 1449SOL    HW115806   0.449   2.003   7.784  1.1043 -1.1123 -0.7836
 1449SOL    HW215807   0.435   2.047   7.639 -1.5567 -0.0664 -1.0698
 1450SOL     OW15808   1.308   3.968   8.038 -0.3270  0.0572  0.2598
 1450SOL    HW115809   1.308   4.062   8.017  0.4011  0.1087  0.4801
 1450SOL    HW215810   1.400   3.950   8.018  0.6942  1.9101  3.1623
 1451SOL     OW15811   0.768   4.373  10.235  0.3786  0.0650 -0.1047
 1451SOL    HW115812   0.692   4.416  10.196  1.6655  0.9638 -1.5841
 1451SOL    HW215813   0.841   4.424  10.200  1.1504 -1.0229 -0.1034
 1452SOL     OW15814   2.470   1.024   2.452 -0.1121 -0.1367 -0.0711
 1452SOL    HW115815   2.548   1.045   2.504  1.6941 -0.2283 -2.7237
 1452SOL    HW215816   2.475   0.929   2.452 -0.7890 -0.1632 -0.5252
 1453SOL     OW15817   2.547   4.006   0.774  0.3457 -0.4122  0.1836
 1453SOL    HW115818   2.508   3.922   0.800 -1.0311  0.2071  0.1284
 1453SOL    HW215819   2.626   3.966   0.739 -1.1573 -0.8765 -2.7453
 1454SOL     OW15820   4.456   0.017   7.406  0.1795 -0.3177  0.4471
 1454SOL    HW115821   4.380   0.075   7.403  0.3149 -0.2253 -0.8604
 1454SOL    HW215822   4.529   0.075   7.429 -0.3013 -0.5579  2.5901
 1455SOL     OW15823   3.514   3.146   9.052 -0.0369 -0.0535 -0.3368
 1455SOL    HW115824   3.561   3.187   8.980  1.0472  0.6332  0.7544
 1455SOL    HW215825   3.482   3.227   9.092 -0.8075 -0.1163 -0.8296
 1456SOL     OW15826   0.690   1.159   7.316 -0.5585 -0.2878 -0.5677
 1456SOL    HW115827   0.745   1.197   7.384 -0.3615 -1.7181  0.0635
 1456SOL    HW215828   0.717   1.211   7.240 -0.9769  0.4445 -0.2103
 1457SOL     OW15829   3.407   0.888   3.553 -0.0674  0.2353  0.1414
 1457SOL    HW115830   3.393   0.902   3.460 -0.5797 -0.4559  0.1094
 1457SOL    HW215831   3.430   0.795   3.563 -2.9592 -0.7203 -2.2386
 1458SOL     OW15832   2.968   1.968   4.082  0.0245  0.5534 -0.3054
 1458SOL    HW115833   2.893   1.916   4.054  0.8579  0.3791 -2.1866
 1458SOL    HW215834   2.970   1.967   4.178  1.3702 -1.6974 -0.3765
 1459SOL     OW15835   4.611   0.814   4.359  0.2730 -0.2053 -0.6337
 1459SOL    HW115836   4.693   0.860   4.339 -1.4170  1.4640 -3.5908
 1459SOL    HW215837   4.559   0.891   4.382 -1.6575 -2.2143  1.7284
 1460SOL     OW15838   0.192   4.002   2.884 -0.5550  0.6322  0.3887
 1460SOL    HW115839   0.281   3.980   2.857 -0.7263  0.7622 -0.2800
 1460SOL    HW215840   0.174   3.934   2.949 -1.2172 -0.7842 -1.2798
 1461SOL     OW15841   3.739   0.849   5.109 -0.3996  0.2411  0.0068
 1461SOL    HW115842   3.777   0.927   5.068 -0.5541  0.2130 -0.1875
 1461SOL    HW215843   3.753   0.776   5.049 -2.0721  0.2176 -0.3321
 1462SOL     OW15844   4.431   2.873   5.353 -0.5394  0.2868  0.0446
 1462SOL    HW115845   4.448   2.810   5.283 -1.9405  1.1113 -1.0349
 1462SOL    HW215846   4.458   2.957   5.316 -3.0962  0.4650 -1.4223
 1463SOL     OW15847   3.552   4.433   8.860  0.1475 -0.4706 -0.8888
 1463SOL    HW115848   3.478   4.387   8.821 -0.8378  1.6684 -1.5830
 1463SOL    HW215849   3.615   4.407   8.793  0.1336  0.1547 -1.1481
 1464SOL     OW15850   0.280   3.317   2.220  0.4956  0.1789  0.1675
 1464SOL    HW115851   0.375   3.318   2.229  0.4745  2.2437  0.1672
 1464SOL    HW215852   0.260   3.256   2.290 -2.4987 -1.6054 -2.2542
 1465SOL     OW15853   1.364   2.540   4.829  0.1424  0.0657  0.7730
 1465SOL    HW115854   1.396   2.535   4.739 -1.2599 -2.4025  0.4175
 1465SOL    HW215855   1.296   2.606   4.822 -1.0796 -1.3019 -0.3709
 1466SOL     OW15856   2.307   2.853   7.247  0.2108 -0.2652 -0.2818
 1466SOL    HW115857   2.242   2.864   7.178  1.6406 -1.2176 -1.8056
 1466SOL    HW215858   2.257   2.791   7.299 -0.8634 -0.2640 -1.3077
 1467SOL     OW15859   3.523   2.554   1.450 -0.1151 -0.3863 -0.2275
 1467SOL    HW115860   3.471   2.507   1.516 -1.0616  0.3909 -0.4303
 1467SOL    HW215861   3.448   2.595   1.407 -0.3849  1.4196  1.9979
 1468SOL     OW15862   3.085   3.531   1.356  0.1533  0.1222  0.2631
 1468SOL    HW115863   3.113   3.594   1.422  0.0148 -0.8917  1.2922
 1468SOL    HW215864   3.169   3.489   1.339  1.0661  3.6622 -4.0106
 1469SOL     OW15865   0.374   2.484   7.006  0.0046  0.1082 -0.6376
 1469SOL    HW115866   0.425   2.410   7.040 -0.2631 -0.1453 -0.7864
 1469SOL    HW215867   0.351   2.439   6.925 -1.7678 -0.1710  0.0259
 1470SOL     OW15868   1.193   2.458  14.041 -0.4301 -0.2092  0.4834
 1470SOL    HW115869   1.178   2.537  13.990  0.0640  0.5017  1.4528
 1470SOL    HW215870   1.251   2.403  13.988 -1.9368  0.0679 -1.4493
 1471SOL     OW15871   3.702   0.153   4.785 -0.6104 -0.1897  0.1692
 1471SOL    HW115872   3.632   0.089   4.796 -1.6968  1.0854  0.6011
 1471SOL    HW215873   3.769   0.090   4.759  1.3310  2.8746 -2.3536
 1472SOL     OW15874   0.840   4.209   7.726 -0.2114 -0.0605 -0.6357
 1472SOL    HW115875   0.913   4.151   7.747 -0.8699 -0.4786  0.5135
 1472SOL    HW215876   0.872   4.290   7.766 -0.8590 -0.4105  0.5805
 1473SOL     OW15877   4.216   0.880  15.373  0.1033  0.4761 -0.9263
 1473SOL    HW115878   4.162   0.908  15.448  0.1161 -0.4742 -0.5554
 1473SOL    HW215879   4.284   0.946  15.377  0.1267  0.3332  1.1271
 1474SOL     OW15880   0.281   0.920   7.693  0.0265 -0.1009  0.4635
 1474SOL    HW115881   0.324   1.001   7.669  0.1743 -0.3702 -0.1843
 1474SOL    HW215882   0.334   0.863   7.638  0.0028 -0.8289  1.1877
 1475SOL     OW15883   4.474   1.736   8.558 -0.1170  0.1790  0.8853
 1475SOL    HW115884   4.428   1.784   8.628 -2.6093 -0.5527 -0.2538
 1475SOL    HW215885   4.511   1.809   8.510 -1.8044  1.1074  0.9955
 1476SOL     OW15886   0.773   2.230   7.576 -0.2661 -0.0154  0.0138
 1476SOL    HW115887   0.763   2.161   7.642  0.1582 -0.7033 -0.6366
 1476SOL    HW215888   0.843   2.185   7.527 -0.7415  0.3252 -0.9687
 1477SOL     OW15889   3.528   3.352  12.166 -0.0585 -0.2320  0.5503
 1477SOL    HW115890   3.581   3.312  12.234 -1.4538  1.7171  2.7702
 1477SOL    HW215891   3.589   3.352  12.093  0.3996 -2.1014  0.9282
 1478SOL     OW15892   2.806   0.523   5.534  0.1319  0.4640  0.0759
 1478SOL    HW115893   2.812   0.588   5.465  0.0045 -0.1357 -0.4975
 1478SOL    HW215894   2.712   0.536   5.551  0.2152  0.4879  0.5282
 1479SOL     OW15895   0.414   2.774  14.443 -0.3944 -0.1880  0.2769
 1479SOL    HW115896   0.454   2.771  14.530 -1.5667 -1.6653  0.7732
 1479SOL    HW215897   0.462   2.716  14.385  0.4020 -0.2562  1.0036
 1480SOL     OW15898   1.947   3.196   3.058 -0.3039 -0.6509  0.7578
 1480SOL    HW115899   1.887   3.122   3.059 -0.6785 -0.3308  1.5896
 1480SOL    HW215900   1.892   3.269   3.087 -0.0217  0.4818 -1.5063
 1481SOL     OW15901   3.874   2.762   7.207  0.0748  0.4745 -0.1013
 1481SOL    HW115902   3.858   2.749   7.300 -0.5279  0.3689 -0.2211
 1481SOL    HW215903   3.788   2.774   7.166 -1.3229 -0.0446  2.6975
 1482SOL     OW15904   3.556   4.374   9.156  0.5166  0.1889 -0.3146
 1482SOL    HW115905   3.522   4.461   9.177 -2.3338 -1.4757  1.9456
 1482SOL    HW215906   3.544   4.375   9.061 -1.8298 -1.4654 -0.0548
 1483SOL     OW15907   3.284   2.157  17.315  0.0289 -0.5027  0.1820
 1483SOL    HW115908   3.272   2.252  17.321  2.3170 -0.1594 -0.8105
 1483SOL    HW215909   3.196   2.126  17.336  0.6827  0.8529  5.0401
 1484SOL     OW15910   3.186   0.871   1.675 -0.1666  0.4320  0.5642
 1484SOL    HW115911   3.103   0.906   1.709  0.6673  0.3575  2.6843
 1484SOL    HW215912   3.154   0.788   1.642 -0.3376  0.6706  0.1303
 1485SOL     OW15913   1.651   3.752   6.357  0.0984  0.5798 -0.1144
 1485SOL    HW115914   1.614   3.837   6.377  1.7450  1.0242  1.0716
 1485SOL    HW215915   1.653   3.707   6.442  1.6594 -1.3919 -1.1790
 1486SOL     OW15916   3.658   2.001   7.849 -0.3316 -0.0869 -0.7327
 1486SOL    HW115917   3.751   2.021   7.847 -0.4890  0.6085 -1.5119
 1486SOL    HW215918   3.662   1.911   7.817  0.3274  0.2838 -1.6642
 1487SOL     OW15919   0.155   1.652   1.694  0.3725 -0.8915  0.3553
 1487SOL    HW115920   0.080   1.711   1.708  2.0853  1.2211  0.6594
 1487SOL    HW215921   0.174   1.656   1.601  0.0360 -1.5716  0.2600
 1488SOL     OW15922   1.174   1.252   4.295  0.1085  0.5014  0.4714
 1488SOL    HW115923   1.131   1.183   4.345  2.3648  0.4636  2.3827
 1488SOL    HW215924   1.221   1.198   4.232 -1.7327  0.4306 -0.8292
 1489SOL     OW15925   1.743   4.029   7.427 -0.2185  0.2603 -0.0381
 1489SOL    HW115926   1.837   4.024   7.444 -0.3781  0.4258  0.8805
 1489SOL    HW215927   1.741   4.030   7.331 -1.0947  0.7544 -0.0129
 1490SOL     OW15928   2.525   3.113  10.690  0.1322  0.1052 -0.9313
 1490SOL    HW115929   2.601   3.119  10.633 -0.2959 -1.6204 -1.6787
 1490SOL    HW215930   2.551   3.046  10.753 -0.2272 -0.3218 -1.2394
 1491SOL     OW15931   4.589   3.391  10.857  0.0172  0.3659  0.2193
 1491SOL    HW115932   4.665   3.353  10.813  0.6378  1.1711  0.5890
 1491SOL    HW215933   4.620   3.482  10.852 -2.6622  1.2395 -0.4927
 1492SOL     OW15934   3.781   1.870   8.138 -0.7658 -0.2878  0.5494
 1492SOL    HW115935   3.721   1.870   8.064  0.5573  0.2334 -0.5100
 1492SOL    HW215936   3.855   1.925   8.114 -2.9585  2.4492  0.0874
 1493SOL     OW15937   0.799   3.231   7.987 -0.1691  0.0831 -0.2948
 1493SOL    HW115938   0.822   3.147   8.027 -0.6858  2.1463  4.3726
 1493SOL    HW215939   0.753   3.272   8.060 -0.8569  0.4404 -0.9281
 1494SOL     OW15940   4.381   4.646   6.665  0.3243 -0.0126 -0.2557
 1494SOL    HW115941   4.465   4.652   6.710  0.2736  0.8200 -0.2645
 1494SOL    HW215942   4.323   4.689   6.728 -1.2878 -0.8739 -1.1542
 1495SOL     OW15943   3.396   2.014  16.012 -0.6497 -0.2501  0.1744
 1495SOL    HW115944   3.476   2.057  16.042 -0.4176 -0.8308  0.3891
 1495SOL    HW215945   3.421   1.987  15.923 -0.1793  1.6888 -0.2827
 1496SOL     OW15946   4.412   4.238   1.491  0.2047  0.4254  0.5721
 1496SOL    HW115947   4.460   4.176   1.546  2.1304  0.4033 -1.1318
 1496SOL    HW215948   4.437   4.208   1.404 -0.7259 -0.3973  0.5939
 1497SOL     OW15949   3.235   4.252   8.470  0.0847 -0.3311  0.4996
 1497SOL    HW115950   3.152   4.286   8.503 -0.6945 -0.5813 -1.1859
 1497SOL    HW215951   3.262   4.182   8.529  0.7299  2.2151  3.2580
 1498SOL     OW15952   3.047   3.820   6.807  0.6556  0.1251 -0.3476
 1498SOL    HW115953   2.983   3.774   6.753  1.3852 -0.2881 -0.8606
 1498SOL    HW215954   2.981   3.862   6.863 -2.2219 -1.5187 -2.5085
 1499SOL     OW15955   0.110   0.659   8.042 -0.2026  0.2002  0.2876
 1499SOL    HW115956   0.060   0.602   8.100  0.6186 -0.1389  0.6499
 1499SOL    HW215957   0.052   0.723   8.001 -1.8541 -0.6881  1.2485
 1500SOL     OW15958   3.094   0.736   4.238  0.3645 -0.1092  0.2910
 1500SOL    HW115959   3.129   0.729   4.149 -1.5381  1.0312 -0.5306
 1500SOL    HW215960   3.005   0.760   4.215 -0.3700 -1.2507  1.8989
 1501SOL     OW15961   3.141   1.519   2.125 -0.1225 -0.5667 -0.3393
 1501SOL    HW115962   3.236   1.522   2.136 -0.2031 -3.6479  1.2790
 1501SOL    HW215963   3.120   1.613   2.128 -2.2328 -1.0263 -0.2194
 1502SOL     OW15964   0.952   4.523  10.139  0.1899  0.4278  0.4976
 1502SOL    HW115965   1.037   4.498  10.175  0.2197 -0.5084 -0.2234
 1502SOL    HW215966   0.959   4.529  10.044 -0.0767  0.3145  0.4727
 1503SOL     OW15967   2.462   3.246  17.531 -0.0067  0.0841  0.1389
 1503SOL    HW115968   2.386   3.249  17.590  0.1589  0.0811  0.3546
 1503SOL    HW215969   2.513   3.185  17.585 -1.2798 -0.9602  0.1897
 1504SOL     OW15970   1.661   0.314   2.087  0.2177 -0.4489 -0.7522
 1504SOL    HW115971   1.703   0.305   2.172 -1.8066 -0.5592  0.2573
 1504SOL    HW215972   1.589   0.376   2.101  1.0865  0.6939 -1.3685
 1505SOL     OW15973   4.484   1.183  13.019  0.5373  0.1317 -0.8576
 1505SOL    HW115974   4.474   1.273  12.988  1.8101 -0.1103 -1.9363
 1505SOL    HW215975   4.508   1.189  13.111  0.5450  0.0549 -0.8552
 1506SOL     OW15976   3.308   1.201   7.097 -0.6272 -0.1717 -0.3312
 1506SOL    HW115977   3.220   1.173   7.118 -0.4012  0.3331  1.2714
 1506SOL    HW215978   3.341   1.141   7.030  2.2187  1.0077  0.0162
 1507SOL     OW15979   4.493   1.173  16.213 -0.1589 -0.0007  0.0925
 1507SOL    HW115980   4.549   1.245  16.181 -1.5221 -0.0136 -2.3055
 1507SOL    HW215981   4.535   1.162  16.298  1.2478 -0.0151 -0.6017
 1508SOL     OW15982   1.835   2.827  12.990  0.0593  0.5283  0.1424
 1508SOL    HW115983   1.775   2.774  13.042  1.5592 -0.6916  0.6261
 1508SOL    HW215984   1.907   2.839  13.052  0.7115  0.2746 -0.5684
 1509SOL     OW15985   3.627   1.541   9.560 -0.3817 -0.2162 -0.0158
 1509SOL    HW115986   3.579   1.623   9.572  0.1469  0.2042 -0.7623
 1509SOL    HW215987   3.551   1.484   9.550  0.4398 -1.1417 -0.9413
 1510SOL     OW15988   1.508   2.249  17.424  0.2187 -0.0498  0.0785
 1510SOL    HW115989   1.483   2.341  17.432  0.8623  0.3133 -2.1059
 1510SOL    HW215990   1.586   2.253  17.479  0.4732 -1.1280 -0.2034
 1511SOL     OW15991   4.129   2.913   4.148 -0.1587  0.0571  0.0505
 1511SOL    HW115992   4.203   2.967   4.122  0.0061 -0.5841 -0.8173
 1511SOL    HW215993   4.079   2.930   4.068 -1.5267 -3.0121  0.2273
 1512SOL     OW15994   1.638   3.427   7.879 -0.6641  0.1434  0.1487
 1512SOL    HW115995   1.585   3.402   7.955 -0.0393  1.9995  1.1909
 1512SOL    HW215996   1.578   3.402   7.809 -2.3399  3.3306  0.4402
 1513SOL     OW15997   3.050   3.077   3.953 -0.0431 -0.4304  0.2378
 1513SOL    HW115998   3.084   3.087   3.864  1.1127 -0.3350  0.6972
 1513SOL    HW215999   3.125   3.101   4.008  1.1380  0.3488 -1.7057
 1514SOL     OW16000   2.653   0.738   4.186 -0.1570 -0.1767 -0.4340
 1514SOL    HW116001   2.597   0.809   4.219  1.6376  1.2661 -0.5358
 1514SOL    HW216002   2.589   0.671   4.165  0.6042 -1.7558  2.2223
 1515SOL     OW16003   0.601   4.604   3.173 -0.0384 -0.0625  0.0266
 1515SOL    HW116004   0.525   4.639   3.219 -0.3460  0.0053 -0.5285
 1515SOL    HW216005   0.602   4.648   3.088  1.8403 -2.5422 -1.2552
 1516SOL     OW16006   4.651   2.476   7.157 -0.5750  0.0791  0.2446
 1516SOL    HW116007   0.006   2.512   7.112 -1.7261  0.4801 -1.3869
 1516SOL    HW216008   4.609   2.422   7.090  0.0524 -0.2804  0.1436
 1517SOL     OW16009   1.399   3.234   1.107  0.5246 -0.2646 -0.5162
 1517SOL    HW116010   1.424   3.230   1.015  0.1177 -0.5301 -0.6105
 1517SOL    HW216011   1.447   3.307   1.147 -0.7640 -0.9476  2.3158
 1518SOL     OW16012   0.467   3.394   5.094 -0.3424 -0.1281 -0.1623
 1518SOL    HW116013   0.480   3.378   5.001  1.1802 -0.3580  0.0804
 1518SOL    HW216014   0.444   3.309   5.132 -1.7235  0.5035  0.4109
 1519SOL     OW16015   2.241   3.318   0.738  0.2986  0.9179  0.2122
 1519SOL    HW116016   2.308   3.382   0.713  1.8059 -0.7284 -0.0169
 1519SOL    HW216017   2.291   3.237   0.747 -0.7331  0.2133 -0.3044
 1520SOL     OW16018   3.081   0.651   6.196 -0.3295  0.0996 -0.1571
 1520SOL    HW116019   3.176   0.660   6.186 -0.3844  1.6104  0.7146
 1520SOL    HW216020   3.064   0.634   6.104 -1.1101 -1.7830  0.3265
 1521SOL     OW16021   4.388   4.227   8.665  0.1819  0.3402 -0.0853
 1521SOL    HW116022   4.373   4.142   8.623 -0.0229 -0.2499  1.2089
 1521SOL    HW216023   4.363   4.278   8.587  0.6769 -2.1606 -1.8723
 1522SOL     OW16024   4.093   1.888  10.072  0.0910 -0.3409  0.3853
 1522SOL    HW116025   4.130   1.863   9.987 -0.0534  2.4322 -0.4809
 1522SOL    HW216026   4.174   1.871  10.120  1.7933 -1.3700 -2.9000
 1523SOL     OW16027   4.653   3.462  12.225 -0.2701  0.4179 -0.1491
 1523SOL    HW116028   4.644   3.446  12.319  0.7630  1.3124  0.1058
 1523SOL    HW216029   4.594   3.397  12.187  0.4570 -0.2763 -0.1124
 1524SOL     OW16030   1.225   1.097   0.991  0.0392  0.0521 -0.3884
 1524SOL    HW116031   1.244   1.187   0.965  3.6968 -1.0154 -1.4279
 1524SOL    HW216032   1.216   1.105   1.086  0.2000  1.3186 -0.4756
 1525SOL     OW16033   3.668   0.239   0.864  0.3197  0.9861  0.4784
 1525SOL    HW116034   3.627   0.314   0.821 -1.6021 -0.4804 -0.3135
 1525SOL    HW216035   3.754   0.274   0.887  1.0647 -1.4588  1.4122
 1526SOL     OW16036   1.381   2.500   8.663  0.4602  0.0359  0.1822
 1526SOL    HW116037   1.358   2.510   8.756 -1.5226  0.5123 -0.3620
 1526SOL    HW216038   1.398   2.406   8.657  0.6540  0.3025 -3.2809
 1527SOL     OW16039   2.351   3.030   2.676  0.4892  0.0025 -0.0960
 1527SOL    HW116040   2.326   3.112   2.634 -1.3518  0.7024  2.3869
 1527SOL    HW216041   2.373   2.976   2.600  2.0707 -0.1384  0.4716
 1528SOL     OW16042   4.194   0.952   7.288  0.3199 -0.4584 -0.0980
 1528SOL    HW116043   4.232   0.966   7.374  0.7929  2.8551 -0.8326
 1528SOL    HW216044   4.193   0.856   7.289 -1.9904 -0.4113  0.9137
 1529SOL     OW16045   3.967   1.841   2.180  0.1329 -0.5542  0.0421
 1529SOL    HW116046   4.032   1.890   2.130 -0.3569 -0.1278 -0.1753
 1529SOL    HW216047   3.978   1.881   2.266  0.1689 -2.5023  0.9499
 1530SOL     OW16048   0.784   3.711   3.702  0.2472  0.3541  0.3434
 1530SOL    HW116049   0.738   3.704   3.618 -0.8160 -0.7519  1.0273
 1530SOL    HW216050   0.869   3.752   3.685 -0.5007  1.1913 -1.3604
 1531SOL     OW16051   2.830   1.841   3.876 -0.1102  0.0285  0.1727
 1531SOL    HW116052   2.802   1.925   3.839 -1.0270 -0.6458 -0.6587
 1531SOL    HW216053   2.798   1.786   3.805 -0.3337 -1.2099  1.2471
 1532SOL     OW16054   2.867   3.680   3.796 -0.1706 -0.1181 -0.2101
 1532SOL    HW116055   2.902   3.601   3.756  0.4464 -0.8511  1.7675
 1532SOL    HW216056   2.832   3.657   3.882  0.3319 -1.3330 -0.3356
 1533SOL     OW16057   4.680   2.926  10.359  0.4769 -0.0640 -0.4249
 1533SOL    HW116058   4.639   2.848  10.320  0.2526  0.0111 -0.3428
 1533SOL    HW216059   4.672   2.982  10.282 -0.3513 -1.5680 -1.4424
 1534SOL     OW16060   3.946   0.260   4.903 -0.2772 -0.0355 -0.7040
 1534SOL    HW116061   3.855   0.233   4.896 -0.4065  0.1958  0.1061
 1534SOL    HW216062   3.997   0.198   4.849 -0.1656 -0.7019  0.1600
 1535SOL     OW16063   2.107   0.850   0.885  0.1956  0.4074 -0.2962
 1535SOL    HW116064   2.111   0.757   0.860 -2.7695 -0.0891  1.1554
 1535SOL    HW216065   2.013   0.863   0.893 -0.0443 -0.9979 -0.8432
 1536SOL     OW16066   3.340   1.009   4.149  0.0668  0.0783 -0.3125
 1536SOL    HW116067   3.334   1.011   4.245 -0.5838  1.1179 -0.3767
 1536SOL    HW216068   3.429   0.974   4.151  1.4584  3.5797  0.6677
 1537SOL     OW16069   1.426   1.675   3.218  0.2802  0.6466 -0.1108
 1537SOL    HW116070   1.432   1.581   3.200 -0.5281  0.6175 -0.2222
 1537SOL    HW216071   1.519   1.691   3.237 -0.0849  0.2310  2.0626
 1538SOL     OW16072   2.395   4.038   3.881  0.0981  0.4633 -0.5504
 1538SOL    HW116073   2.439   3.994   3.953 -1.8761 -0.3353  0.1464
 1538SOL    HW216074   2.433   4.000   3.802 -1.3927  2.5616 -2.2832
 1539SOL     OW16075   2.074   1.298   8.811  0.1650  0.0894  0.1697
 1539SOL    HW116076   2.052   1.209   8.782 -0.7435 -0.6893  3.1901
 1539SOL    HW216077   2.169   1.290   8.801 -0.1478 -1.2741 -1.6679
 1540SOL     OW16078   3.705   0.767   7.868 -0.1258  0.4847 -0.3052
 1540SOL    HW116079   3.691   0.858   7.892 -1.4933 -0.4182  2.3009
 1540SOL    HW216080   3.676   0.768   7.777 -0.1934 -1.0334 -0.3006
 1541SOL     OW16081   2.255   4.051   5.302 -0.1671  0.1068  0.3258
 1541SOL    HW116082   2.316   3.978   5.307 -0.6060 -0.3046 -0.3475
 1541SOL    HW216083   2.253   4.076   5.210  1.9877 -0.2388  0.1859
 1542SOL     OW16084   1.221   0.476   1.662 -0.3880 -0.2024 -0.2937
 1542SOL    HW116085   1.316   0.477   1.674 -0.5637 -2.1473  1.1680
 1542SOL    HW216086   1.218   0.524   1.579  1.0864  3.2996  1.6964
 1543SOL     OW16087   1.073   2.204  15.420  0.5517  0.2740 -0.0806
 1543SOL    HW116088   1.075   2.142  15.493 -1.7708 -1.4136 -1.4685
 1543SOL    HW216089   1.156   2.179  15.378  0.9389 -0.2178  0.9651
 1544SOL     OW16090   2.549   1.286   4.577  0.2300 -0.4960  0.2488
 1544SOL    HW116091   2.543   1.265   4.484 -0.6714  0.8838 -0.0130
 1544SOL    HW216092   2.641   1.270   4.596  0.0331 -1.8706  0.0607
 1545SOL     OW16093   4.719   2.708   2.948 -0.1096  0.3971 -0.3110
 1545SOL    HW116094   0.077   2.685   2.897 -1.6752 -2.1860 -1.6099
 1545SOL    HW216095   4.670   2.758   2.883 -2.3626 -1.5199 -0.0907
 1546SOL     OW16096   0.526   2.286   9.603  0.4640 -0.3278 -0.6542
 1546SOL    HW116097   0.585   2.360   9.613 -0.4443  0.4842 -1.3342
 1546SOL    HW216098   0.579   2.226   9.550 -1.9140 -1.4319 -1.8271
 1547SOL     OW16099   2.806   3.179   3.094  0.7668 -0.6270 -0.4338
 1547SOL    HW116100   2.712   3.169   3.105  0.9851 -2.0160  0.0635
 1547SOL    HW216101   2.820   3.244   3.164 -1.5445  0.1180 -0.6615
 1548SOL     OW16102   1.755   3.003   3.489  0.7884  0.2234  0.2880
 1548SOL    HW116103   1.838   2.959   3.473  0.2464  0.4285 -3.2724
 1548SOL    HW216104   1.739   2.982   3.581  2.1791  0.0171  0.4773
 1549SOL     OW16105   3.079   0.751   4.540 -0.1162  0.2985  0.0155
 1549SOL    HW116106   3.127   0.759   4.457  0.4457  3.3417  0.6159
 1549SOL    HW216107   3.019   0.825   4.531  1.6896  1.7945  0.2098
 1550SOL     OW16108   0.258   4.521  14.905  0.5362 -0.0260 -0.2432
 1550SOL    HW116109   0.247   4.608  14.867 -1.5314 -0.7420 -1.2441
 1550SOL    HW216110   0.326   4.472  14.859 -1.9782 -1.0689 -2.7891
 1551SOL     OW16111   2.386   1.752   7.304  0.1872 -0.1076 -0.3416
 1551SOL    HW116112   2.345   1.667   7.317 -1.9694  0.9141 -0.5242
 1551SOL    HW216113   2.467   1.720   7.264  0.1031  0.6928 -1.1511
 1552SOL     OW16114   1.518   1.185   3.994 -0.0097  0.1184 -0.1754
 1552SOL    HW116115   1.597   1.167   3.944 -0.6562  1.5024 -1.6823
 1552SOL    HW216116   1.515   1.280   3.982  1.3124 -0.0132 -1.5499
 1553SOL     OW16117   2.885   4.254   2.616  0.3224 -0.4410  0.7372
 1553SOL    HW116118   2.946   4.237   2.688  0.5331  0.6669  0.8210
 1553SOL    HW216119   2.952   4.288   2.556  1.4291 -2.1067  1.0434
 1554SOL     OW16120   3.687   4.331   8.658 -0.2494  0.5773  0.1523
 1554SOL    HW116121   3.776   4.298   8.649  0.6789  3.8029 -2.1454
 1554SOL    HW216122   3.667   4.348   8.566  0.6083  3.0177  0.4428
 1555SOL     OW16123   2.544   3.086   5.961 -0.0076  0.2077  0.1126
 1555SOL    HW116124   2.538   3.007   5.907  0.1681  0.4505 -0.2546
 1555SOL    HW216125   2.629   3.119   5.932  0.6137  0.5615  2.2825
 1556SOL     OW16126   1.481   0.015  15.179  0.2143  0.4316 -0.1859
 1556SOL    HW116127   1.452   0.082  15.117 -2.2398 -0.6954 -0.2684
 1556SOL    HW216128   1.399   4.694  15.204 -0.1648  1.3344  0.0744
 1557SOL     OW16129   0.396   4.377   8.419  0.3557  0.1543 -0.1850
 1557SOL    HW116130   0.459   4.314   8.454 -0.0504  0.0533  0.3581
 1557SOL    HW216131   0.319   4.323   8.404  1.0859 -0.5795 -1.3339
 1558SOL     OW16132   1.362   4.166   4.104 -0.1945  0.4059 -0.1067
 1558SOL    HW116133   1.401   4.196   4.186  0.5840 -0.5418 -0.1349
 1558SOL    HW216134   1.366   4.076   4.135 -0.7724  0.2078 -0.6241
 1559SOL     OW16135   3.678   3.851  12.793  0.0213  0.3730 -0.1113
 1559SOL    HW116136   3.741   3.811  12.852  1.2352  2.2874 -0.0869
 1559SOL    HW216137   3.678   3.941  12.826  0.6411  0.4094 -0.2073
 1560SOL     OW16138   2.248   3.545   2.922 -0.3402  0.2909  0.0757
 1560SOL    HW116139   2.289   3.461   2.944  0.7519  0.7812 -0.0879
 1560SOL    HW216140   2.253   3.603   2.998 -0.9984  0.4647 -0.0095
 1561SOL     OW16141   1.483   1.987  15.686  0.2248 -0.6217 -0.2100
 1561SOL    HW116142   1.575   1.980  15.712  0.0833 -0.5621  0.3193
 1561SOL    HW216143   1.488   1.953  15.597  2.7475  0.9696 -0.6659
 1562SOL     OW16144   2.181   1.165   6.472 -0.1162 -0.0078  0.1498
 1562SOL    HW116145   2.162   1.081   6.429  0.2191  0.0112 -0.0301
 1562SOL    HW216146   2.269   1.177   6.437 -0.3003 -0.2932 -0.4188
 1563SOL     OW16147   0.546   3.278   8.560 -0.3340 -0.0528 -0.2863
 1563SOL    HW116148   0.460   3.302   8.595 -0.6986  0.4801 -1.5477
 1563SOL    HW216149   0.595   3.266   8.642 -0.6915  1.4196  0.1383
 1564SOL     OW16150   1.804   0.952   8.270 -0.1908  0.4134 -0.1852
 1564SOL    HW116151   1.828   0.969   8.178  1.7227 -1.8658 -0.1014
 1564SOL    HW216152   1.724   1.006   8.275  0.5993  1.5471  0.2142
 1565SOL     OW16153   3.347   1.127   3.697  0.2953 -0.5589  0.3105
 1565SOL    HW116154   3.426   1.176   3.718  0.5001 -1.2496  1.1865
 1565SOL    HW216155   3.383   1.047   3.658  0.4959 -1.2223  1.8269
 1566SOL     OW16156   1.899   0.412   9.014 -0.1997  0.0498 -0.2259
 1566SOL    HW116157   1.858   0.366   9.087  0.7706  1.3925  1.1726
 1566SOL    HW216158   1.985   0.370   9.016  0.1082  0.7389  1.1859
 1567SOL     OW16159   0.900   2.866   4.606 -0.3448 -0.2841 -0.4244
 1567SOL    HW116160   0.966   2.931   4.632 -0.1751 -0.3804 -0.6105
 1567SOL    HW216161   0.887   2.815   4.685  0.6376 -1.8186 -1.2477
 1568SOL     OW16162   1.359   3.309   7.081  0.2646 -0.0028  0.4355
 1568SOL    HW116163   1.324   3.221   7.089  0.2147  0.1580  1.8392
 1568SOL    HW216164   1.305   3.350   7.013  0.8772 -0.7205 -0.4869
 1569SOL     OW16165   2.980   0.358   7.951  0.8457  0.4030 -0.1330
 1569SOL    HW116166   2.931   0.370   8.033 -0.0085  0.9803 -0.7332
 1569SOL    HW216167   3.033   0.438   7.952  0.3985  0.6983 -0.1675
 1570SOL     OW16168   3.027   1.897   6.855  0.3953  0.0749 -0.2630
 1570SOL    HW116169   3.085   1.966   6.824  1.6060 -1.7532 -2.1581
 1570SOL    HW216170   2.944   1.923   6.817  0.1215  0.0838  0.3470
 1571SOL     OW16171   1.770   3.146  16.458 -0.8387  0.5989  0.4101
 1571SOL    HW116172   1.816   3.145  16.374 -1.8896  3.0991 -0.2176
 1571SOL    HW216173   1.680   3.141  16.427 -0.2189 -0.5769 -1.1911
 1572SOL     OW16174   4.237   1.298   2.451  0.5371  0.2340  0.3794
 1572SOL    HW116175   4.230   1.233   2.521  0.3966 -1.4019 -1.1486
 1572SOL    HW216176   4.281   1.371   2.493 -1.0949  1.0407  0.6740
 1573SOL     OW16177   1.177   2.378   3.195  0.2340 -1.0538  0.2077
 1573SOL    HW116178   1.155   2.424   3.115 -1.5453 -0.7015  0.8924
 1573SOL    HW216179   1.182   2.451   3.257  1.6598  1.6743 -3.1683
 1574SOL     OW16180   0.157   1.246  14.042 -0.0703 -0.5322 -0.4892
 1574SOL    HW116181   0.152   1.277  13.951 -0.5022 -2.1437 -1.0242
 1574SOL    HW216182   0.067   1.249  14.072  0.2233  1.4183  0.1936
 1575SOL     OW16183   3.225   3.365  16.392 -0.7055  0.8283  0.4419
 1575SOL    HW116184   3.169   3.417  16.335 -0.5116  1.4789  0.8434
 1575SOL    HW216185   3.277   3.439  16.424 -2.1845  1.5710  1.1232
 1576SOL     OW16186   0.620   3.608  11.931 -0.0952 -0.0523 -0.0891
 1576SOL    HW116187   0.666   3.661  11.996 -0.4953 -0.0338  0.1813
 1576SOL    HW216188   0.559   3.565  11.991  0.7942  0.9609  1.5582
 1577SOL     OW16189   0.171   1.444  10.288 -0.4673 -0.3043  0.0632
 1577SOL    HW116190   0.228   1.419  10.215 -2.0774 -2.2848 -0.5109
 1577SOL    HW216191   0.185   1.371  10.348 -0.0960 -1.0078 -0.8820
 1578SOL     OW16192   1.496   0.908   6.184  0.0206  0.9986 -0.1425
 1578SOL    HW116193   1.493   0.837   6.120  0.8222  2.1968 -1.5046
 1578SOL    HW216194   1.462   0.986   6.141  3.1441  0.9491 -2.7069
 1579SOL     OW16195   1.508   3.850  12.457  0.1141 -0.1949  0.0942
 1579SOL    HW116196   1.460   3.928  12.483 -1.4114 -0.8443 -0.7927
 1579SOL    HW216197   1.566   3.858  12.533  0.7757 -1.2101 -0.2960
 1580SOL     OW16198   0.303   3.896  15.988  0.5100  0.2940 -0.4909
 1580SOL    HW116199   0.273   3.859  15.905 -1.8834  2.0504 -0.4090
 1580SOL    HW216200   0.252   3.837  16.043 -0.4583  1.8664  0.3146
 1581SOL     OW16201   2.490   0.826   6.163  0.2659  0.0750 -0.3949
 1581SOL    HW116202   2.564   0.871   6.123  0.0420 -0.2426 -1.1727
 1581SOL    HW216203   2.525   0.794   6.246 -0.8367  0.5672  0.2745
 1582SOL     OW16204   0.904   3.650   1.682 -0.2880 -0.1348 -0.4027
 1582SOL    HW116205   0.839   3.700   1.731  1.4501  0.6574  1.0774
 1582SOL    HW216206   0.926   3.582   1.745  0.0179 -0.7605 -1.1872
 1583SOL     OW16207   2.896   3.654   2.758  0.1941 -0.0854 -0.7113
 1583SOL    HW116208   2.822   3.610   2.800 -0.5485  0.6336 -1.2833
 1583SOL    HW216209   2.859   3.735   2.725  0.5303  0.5835  0.5758
 1584SOL     OW16210   4.208   3.880   1.951 -0.1048 -1.1566  0.1015
 1584SOL    HW116211   4.284   3.914   1.904  1.0111 -2.2345  1.1444
 1584SOL    HW216212   4.189   3.808   1.890 -0.8672 -2.0046  1.3430
 1585SOL     OW16213   4.128   4.638  10.205 -0.2110  0.1241 -0.2475
 1585SOL    HW116214   4.078   4.594  10.137  1.1290 -3.1854  0.8863
 1585SOL    HW216215   4.112   0.010  10.194 -1.7735 -0.2978 -1.4401
 1586SOL     OW16216   1.785   0.828  10.242  0.1136  0.0411 -0.4146
 1586SOL    HW116217   1.871   0.863  10.218  1.2210 -2.0368  0.5334
 1586SOL    HW216218   1.813   0.768  10.311 -1.2012  1.4264  1.3214
 1587SOL     OW16219   1.762   0.951   2.942  0.9710 -0.4951 -0.3665
 1587SOL    HW116220   1.840   0.944   2.998  0.2540 -2.2784  0.4064
 1587SOL    HW216221   1.797   0.951   2.853  0.4992  1.6634 -0.5355
 1588SOL     OW16222   3.433   0.501   8.341  0.2725 -0.2562 -0.5275
 1588SOL    HW116223   3.507   0.545   8.299  1.2171 -0.1549  1.2351
 1588SOL    HW216224   3.471   0.502   8.429 -1.5409 -1.0219  0.2565
 1589SOL     OW16225   1.693   3.629   8.999  0.5359 -0.5041  0.2361
 1589SOL    HW116226   1.616   3.684   8.987  0.9664  0.4784  2.0013
 1589SOL    HW216227   1.675   3.573   9.075 -0.2066 -0.4413  0.1031
 1590SOL     OW16228   3.814   2.532   6.194  0.0201  0.2817 -0.0484
 1590SOL    HW116229   3.811   2.502   6.103  0.7618 -0.1293  0.0692
 1590SOL    HW216230   3.817   2.627   6.178 -0.0485  0.3356  0.2722
 1591SOL     OW16231   3.035   4.131   3.206  0.0627 -0.1843  0.7477
 1591SOL    HW116232   3.097   4.060   3.222  1.4855  1.1564  1.1892
 1591SOL    HW216233   2.996   4.106   3.122  1.6416 -2.5202  0.7004
 1592SOL     OW16234   3.235   2.707  15.167 -0.0176 -0.3509 -0.0526
 1592SOL    HW116235   3.220   2.740  15.256 -0.8311  1.9785 -1.0469
 1592SOL    HW216236   3.329   2.687  15.167  0.2526  0.9408 -0.1286
 1593SOL     OW16237   2.763   2.499  16.782  0.2068  0.2178 -0.1880
 1593SOL    HW116238   2.768   2.422  16.726 -0.9320  0.6103 -0.8406
 1593SOL    HW216239   2.788   2.568  16.721 -1.9404  1.6582  0.5576
 1594SOL     OW16240   4.132   3.308   2.116  0.1950  0.0408 -0.0083
 1594SOL    HW116241   4.058   3.262   2.156  0.3972  0.0767  0.4085
 1594SOL    HW216242   4.109   3.316   2.024  1.6060  0.2286 -0.3417
 1595SOL     OW16243   2.813   3.728   6.318 -0.5196  0.2148  0.4377
 1595SOL    HW116244   2.852   3.700   6.236  0.2036  0.9838  0.5240
 1595SOL    HW216245   2.833   3.821   6.332  3.6477 -0.4271 -1.6096
 1596SOL     OW16246   2.072   4.222   5.041  0.3794 -0.1078 -0.0278
 1596SOL    HW116247   2.042   4.137   5.074 -0.4715  0.5615  0.9009
 1596SOL    HW216248   2.002   4.252   4.983 -0.9694 -4.3902 -0.6247
 1597SOL     OW16249   0.618   2.813  14.651 -0.5800 -0.2466 -0.0250
 1597SOL    HW116250   0.673   2.810  14.729 -0.9270  0.7078  0.2549
 1597SOL    HW216251   0.672   2.874  14.601 -1.4375  0.3219 -0.2554
 1598SOL     OW16252   2.187   3.120  16.126  0.3023  0.6248 -0.3396
 1598SOL    HW116253   2.256   3.144  16.064  1.0742 -2.8105 -0.7875
 1598SOL    HW216254   2.121   3.189  16.116  1.5675  1.8010 -0.4697
 1599SOL     OW16255   0.199   1.160   1.395  0.8798  0.4424  0.4009
 1599SOL    HW116256   0.229   1.117   1.475  0.4209 -1.5582 -0.5126
 1599SOL    HW216257   0.287   1.175   1.360  1.2487  1.7581  1.8813
 1600SOL     OW16258   2.093   4.110   5.845  0.4875  0.6121 -0.4239
 1600SOL    HW116259   2.046   4.176   5.794  0.0655  0.5214 -0.1549
 1600SOL    HW216260   2.137   4.167   5.908  0.5870 -0.5492  0.5655
 1601SOL     OW16261   4.610   2.036   1.607 -0.4575  0.3152  0.3082
 1601SOL    HW116262   4.658   2.071   1.682 -1.4944  0.1043  1.0724
 1601SOL    HW216263   4.614   1.942   1.624 -0.7969  0.4931  1.3385
 1602SOL     OW16264   0.623   0.409  12.258  0.2694  0.7807 -0.0583
 1602SOL    HW116265   0.546   0.352  12.262 -0.6998  2.0390 -1.1110
 1602SOL    HW216266   0.617   0.455  12.174  1.4783  1.2581  0.1189
 1603SOL     OW16267   2.713   2.539   6.313 -0.2549 -0.3956  0.1922
 1603SOL    HW116268   2.625   2.565   6.283 -0.3941 -2.5874 -1.3821
 1603SOL    HW216269   2.772   2.571   6.245  0.0846 -0.1232  0.6167
 1604SOL     OW16270   2.744   4.139  16.046  0.1915 -0.0063  0.4819
 1604SOL    HW116271   2.765   4.231  16.035  2.0839 -0.6956 -1.5291
 1604SOL    HW216272   2.656   4.125  16.011 -0.8384  0.4579  2.8451
 1605SOL     OW16273   1.993   1.007   5.945 -0.0236  0.4846 -0.0810
 1605SOL    HW116274   2.038   1.056   5.877  0.8201  0.0712  0.1849
 1605SOL    HW216275   1.960   0.937   5.889 -0.9059  0.5463  0.3537
 1606SOL     OW16276   0.902   3.155  17.514  0.0497 -0.0329 -0.0882
 1606SOL    HW116277   0.975   3.216  17.528 -0.8585  0.3816  2.7774
 1606SOL    HW216278   0.949   3.079  17.479 -0.6893  0.4231 -2.0657
 1607SOL     OW16279   3.319   3.174   7.820  0.1112 -0.1541  0.4815
 1607SOL    HW116280   3.336   3.258   7.779 -0.2078  0.3918  1.4530
 1607SOL    HW216281   3.335   3.195   7.912 -0.0614  1.8628  0.0429
 1608SOL     OW16282   3.976   1.597   1.025  0.1270 -0.0978 -0.0630
 1608SOL    HW116283   3.980   1.659   1.098  2.7664 -1.0937  0.6609
 1608SOL    HW216284   4.057   1.629   0.984 -0.3360  2.6300  1.1992
 1609SOL     OW16285   3.986   1.849   4.122  0.0430 -0.3773 -0.5053
 1609SOL    HW116286   3.930   1.871   4.048 -2.6768 -0.1835  1.6116
 1609SOL    HW216287   4.069   1.892   4.102  0.0549 -0.2801 -0.2479
 1610SOL     OW16288   0.190   2.133   0.324 -0.2887  0.2618  0.2528
 1610SOL    HW116289   0.200   2.223   0.353 -3.3329  0.8680 -0.5269
 1610SOL    HW216290   0.240   2.085   0.391  1.9185 -0.0307 -1.6007
 1611SOL     OW16291   0.830   3.869   6.897  0.1098  0.5821 -0.0056
 1611SOL    HW116292   0.799   3.838   6.983 -0.9707  0.8443 -0.3001
 1611SOL    HW216293   0.752   3.864   6.841  0.2848  0.8821 -0.2721
 1612SOL     OW16294   2.310   0.532   6.201 -0.4280  0.4573  0.0503
 1612SOL    HW116295   2.238   0.557   6.259 -0.4068  0.5997  0.0163
 1612SOL    HW216296   2.372   0.604   6.215  3.2524 -2.2829 -2.1629
 1613SOL     OW16297   3.400   2.285   3.072  0.0437 -0.1957 -0.6742
 1613SOL    HW116298   3.383   2.191   3.082  1.4929 -0.3290  0.6458
 1613SOL    HW216299   3.464   2.278   3.001 -0.0061 -0.6007 -0.6823
 1614SOL     OW16300   0.896   1.540   1.613 -0.2872  1.1227  0.2724
 1614SOL    HW116301   0.938   1.524   1.698 -0.9822 -2.4302 -0.0644
 1614SOL    HW216302   0.917   1.462   1.561  0.4752  2.2498 -1.1052
 1615SOL     OW16303   2.159   4.634   9.805 -0.1271 -0.3179  0.2141
 1615SOL    HW116304   2.145   4.542   9.785 -0.1027 -0.2043 -0.3221
 1615SOL    HW216305   2.168   4.687   9.726 -0.0777  1.9584  1.7333
 1616SOL     OW16306   2.296   0.617  12.683 -0.0612  0.0643  0.1617
 1616SOL    HW116307   2.345   0.677  12.628  1.2866  0.5182  1.8532
 1616SOL    HW216308   2.226   0.674  12.716 -0.4526  0.4784 -1.3868
 1617SOL     OW16309   3.263   0.646  13.404 -0.5407  0.3819  0.0496
 1617SOL    HW116310   3.193   0.603  13.353  0.5582 -0.9646 -0.3244
 1617SOL    HW216311   3.330   0.648  13.336  0.8005  0.7722  1.3825
 1618SOL     OW16312   0.756   3.965   2.687  0.7922  0.0672  0.2095
 1618SOL    HW116313   0.785   3.882   2.649 -1.4321 -1.1090  1.1163
 1618SOL    HW216314   0.833   4.020   2.671  2.3867 -1.3206  3.1356
 1619SOL     OW16315   2.446   4.329  17.557 -0.0982 -0.0030 -0.4473
 1619SOL    HW116316   2.498   4.302  17.482  0.0354  0.2198 -0.4360
 1619SOL    HW216317   2.488   4.273  17.622 -0.3913  1.1975  0.7779
 1620SOL     OW16318   0.769   4.175   0.679  0.4664 -0.3528 -0.5461
 1620SOL    HW116319   0.845   4.133   0.720  1.3658  0.6711 -1.1417
 1620SOL    HW216320   0.705   4.188   0.749 -0.3247 -2.2447 -0.9284
 1621SOL     OW16321   1.673   1.060   9.040  0.6710  0.1159  0.2063
 1621SOL    HW116322   1.590   1.098   9.009  0.1096 -0.0197  1.5245
 1621SOL    HW216323   1.696   1.008   8.964  1.2491  0.0156  0.4529
 1622SOL     OW16324   3.596   2.138   1.716 -0.2214 -0.3002  0.2486
 1622SOL    HW116325   3.566   2.125   1.626  0.3032 -0.2086  0.0628
 1622SOL    HW216326   3.613   2.232   1.722 -0.0585 -0.3030 -0.2347
 1623SOL     OW16327   1.359   0.436   0.336  0.6643  0.5931  0.5063
 1623SOL    HW116328   1.455   0.443   0.333  0.8362 -1.6443  1.1474
 1623SOL    HW216329   1.333   0.478   0.417  1.3260  1.9754  0.0111
 1624SOL     OW16330   4.083   4.668   7.157  0.3508  0.4784  0.1180
 1624SOL    HW116331   4.026   4.600   7.121 -0.1758  0.0387  1.7723
 1624SOL    HW216332   4.044   0.023   7.116 -0.3757  0.6119  1.0557
 1625SOL     OW16333   4.085   1.512   8.752  0.4949 -0.1827  0.8864
 1625SOL    HW116334   4.118   1.481   8.668 -1.4549  0.4883 -0.1306
 1625SOL    HW216335   4.026   1.443   8.782  1.1772 -1.5202 -0.8278
 1626SOL     OW16336   2.598   3.339   2.550 -0.2853  0.5644  0.2594
 1626SOL    HW116337   2.646   3.346   2.633  0.1423 -1.5739  0.1823
 1626SOL    HW216338   2.641   3.414   2.509  1.1127 -0.8859 -0.9448
 1627SOL     OW16339   0.428   2.992   3.850 -0.8510  0.1787 -0.5589
 1627SOL    HW116340   0.504   3.041   3.819  0.9504 -2.9741 -1.0958
 1627SOL    HW216341   0.454   2.913   3.803 -2.8916 -0.6699 -0.2185
 1628SOL     OW16342   1.335   1.701  14.970 -0.1598  0.2713 -0.0102
 1628SOL    HW116343   1.247   1.702  14.933  0.3056 -0.8339 -1.1630
 1628SOL    HW216344   1.371   1.621  14.932  1.2766  1.6702 -1.6218
 1629SOL     OW16345   3.336   3.504   2.891  0.4890 -0.0122 -0.0140
 1629SOL    HW116346   3.332   3.555   2.810  2.8719  0.4846  0.1935
 1629SOL    HW216347   3.245   3.507   2.920  0.5681  0.6152  0.1753
 1630SOL     OW16348   1.153   4.549   7.951 -0.0754 -0.2706 -0.1238
 1630SOL    HW116349   1.247   4.556   7.970  0.3404 -0.7069 -2.0432
 1630SOL    HW216350   1.158   4.603   7.872 -0.8842 -1.0937 -0.7326
 1631SOL     OW16351   2.929   2.856  15.214  0.0543  1.0831 -0.0924
 1631SOL    HW116352   2.882   2.775  15.197  0.7565  0.6217  0.1269
 1631SOL    HW216353   3.018   2.830  15.190 -1.4439 -3.8396 -0.2951
 1632SOL     OW16354   1.465   0.501   5.859 -0.1937 -0.3425  0.0299
 1632SOL    HW116355   1.377   0.536   5.847 -0.2208 -0.8835 -1.4168
 1632SOL    HW216356   1.457   0.433   5.793 -0.8768 -0.2560  0.0315
 1633SOL     OW16357   2.241   0.074   4.042 -0.2161  0.0770 -0.3216
 1633SOL    HW116358   2.324   0.027   4.045 -0.0580  0.3207 -0.7962
 1633SOL    HW216359   2.215   0.059   3.952 -0.3433  1.8359 -0.5930
 1634SOL     OW16360   0.889   4.345  17.021 -0.2574  0.4273  0.3690
 1634SOL    HW116361   0.798   4.326  17.045 -1.1655  2.6353 -1.3365
 1634SOL    HW216362   0.893   4.436  17.052 -0.4812  0.1603  1.1690
 1635SOL     OW16363   3.738   3.693   5.121  0.1192  0.2516  0.4997
 1635SOL    HW116364   3.708   3.603   5.109  0.9040  0.3586 -2.2280
 1635SOL    HW216365   3.669   3.723   5.181  1.9025  2.0639  1.6635
 1636SOL     OW16366   4.661   2.747   0.702  0.1623 -0.0708  0.2991
 1636SOL    HW116367   4.571   2.727   0.728 -0.3317  0.5154 -0.9893
 1636SOL    HW216368   4.719   2.694   0.757 -2.1446 -1.5369  1.3207
 1637SOL     OW16369   0.029   0.993   7.598  0.1796 -0.8793  0.6237
 1637SOL    HW116370   0.071   1.012   7.514  1.7080 -0.9471  1.3808
 1637SOL    HW216371   0.106   0.961   7.644  0.8872  0.1312  0.1341
 1638SOL     OW16372   0.183   3.951   1.502 -0.0104 -0.1731 -0.0996
 1638SOL    HW116373   0.162   4.021   1.563 -0.0840 -0.4223  0.1606
 1638SOL    HW216374   0.129   3.972   1.426 -0.1661  1.9203  0.5981
 1639SOL     OW16375   0.431   2.652   2.507  0.4898 -0.2512  0.5591
 1639SOL    HW116376   0.517   2.691   2.526 -0.0624  0.3579  1.8164
 1639SOL    HW216377   0.467   2.564   2.493 -0.6366 -1.1464  3.1636
 1640SOL     OW16378   4.114   1.532  15.412 -0.3207  0.6067 -1.2300
 1640SOL    HW116379   4.151   1.459  15.361  0.6508  0.0735  0.2528
 1640SOL    HW216380   4.117   1.604  15.349  0.0375  1.6092 -0.0514
 1641SOL     OW16381   0.935   2.779   3.508  0.0435  0.3427 -0.2761
 1641SOL    HW116382   0.879   2.803   3.582  0.2006 -1.0064  0.2858
 1641SOL    HW216383   0.914   2.854   3.452  0.9894 -0.6011 -1.8661
 1642SOL     OW16384   0.703   1.727   1.689  0.7044  0.1302  0.0150
 1642SOL    HW116385   0.772   1.789   1.715 -0.2119  0.8665  0.6809
 1642SOL    HW216386   0.753   1.656   1.648 -0.4208 -0.2073 -0.7872
 1643SOL     OW16387   3.580   0.732   9.034 -0.7368  0.2508  0.0652
 1643SOL    HW116388   3.622   0.746   9.119  0.9055  0.5796 -0.8200
 1643SOL    HW216389   3.510   0.797   9.026 -0.7833  0.1275 -0.4967
 1644SOL     OW16390   3.492   3.070   5.651  0.4921 -0.4187 -0.0046
 1644SOL    HW116391   3.413   3.017   5.642 -0.3258  0.6265  1.0488
 1644SOL    HW216392   3.463   3.129   5.720 -0.2884 -0.1259 -0.5874
 1645SOL     OW16393   2.189   3.409  16.387 -0.2418  0.8381  0.1320
 1645SOL    HW116394   2.234   3.482  16.429  0.2477  0.1931  0.7473
 1645SOL    HW216395   2.213   3.330  16.436  0.2792  0.0851 -1.3443
 1646SOL     OW16396   1.365   4.535   4.187 -0.1591 -0.0001  0.1935
 1646SOL    HW116397   1.428   4.598   4.154 -1.1933  0.8200 -0.2107
 1646SOL    HW216398   1.345   4.492   4.104 -0.1060  0.1590  0.0987
 1647SOL     OW16399   2.236   4.264   2.080 -0.4435 -0.3621  0.4541
 1647SOL    HW116400   2.258   4.338   2.023  2.0329 -0.2751  1.5111
 1647SOL    HW216401   2.316   4.273   2.132  1.2896 -2.4666 -1.8181
 1648SOL     OW16402   3.784   4.001   0.283 -0.0463  0.4827  0.0341
 1648SOL    HW116403   3.834   3.955   0.350  2.9596  1.8802 -1.1951
 1648SOL    HW216404   3.857   4.022   0.223  0.3134  2.7809  1.2756
 1649SOL     OW16405   2.591   4.115   1.618 -0.0104 -0.0129  0.3851
 1649SOL    HW116406   2.618   4.205   1.637  1.5175  0.0584 -2.0852
 1649SOL    HW216407   2.521   4.098   1.681 -0.5534 -0.1158 -0.2580
 1650SOL     OW16408   0.963   3.971   5.683  0.1458 -0.2597  0.0086
 1650SOL    HW116409   0.968   4.034   5.755 -0.9146  1.4940 -1.4273
 1650SOL    HW216410   0.995   4.024   5.610 -0.7912 -0.8234 -0.8085
 1651SOL     OW16411   3.704   0.540  12.549 -0.1313 -0.0986 -0.0965
 1651SOL    HW116412   3.616   0.569  12.573 -1.1160 -1.1230 -2.4847
 1651SOL    HW216413   3.682   0.508  12.461  1.3912 -1.6030  0.0590
 1652SOL     OW16414   1.048   0.488   0.716 -0.6320  0.2296 -0.3051
 1652SOL    HW116415   1.063   0.461   0.806  1.2797  0.8673 -0.4410
 1652SOL    HW216416   1.044   0.403   0.672  2.8314 -0.1553  0.1499
 1653SOL     OW16417   2.426   2.402   5.579 -0.5400 -0.1861 -0.8045
 1653SOL    HW116418   2.517   2.386   5.606 -1.3415 -0.6274  1.6829
 1653SOL    HW216419   2.396   2.324   5.532 -1.5327  0.9500 -2.0571
 1654SOL     OW16420   0.095   4.053   3.652  0.4713  0.2225 -0.6914
 1654SOL    HW116421   0.077   4.015   3.738  0.8893  1.1037 -0.2210
 1654SOL    HW216422   0.083   3.979   3.592 -1.3107 -1.5134  1.7861
 1655SOL     OW16423   3.262   2.223   5.595 -0.1829  0.1520  0.4871
 1655SOL    HW116424   3.226   2.143   5.634  0.5267  0.1150  1.0770
 1655SOL    HW216425   3.185   2.271   5.566 -0.1918 -0.6583 -0.8349
 1656SOL     OW16426   1.780   2.932   7.178 -0.0013 -0.5211 -0.3392
 1656SOL    HW116427   1.844   2.870   7.211  0.8792  1.5703  1.9295
 1656SOL    HW216428   1.705   2.900   7.227 -1.2244  1.4968 -0.8528
 1657SOL     OW16429   0.394   1.022   3.172  0.0382  0.1883  0.0019
 1657SOL    HW116430   0.340   1.091   3.133 -1.2720 -1.2610 -0.7772
 1657SOL    HW216431   0.321   0.965   3.195  0.9845 -0.3491  1.6471
 1658SOL     OW16432   4.628   2.060   2.419  0.1188  0.3190 -0.2658
 1658SOL    HW116433   4.605   2.006   2.343 -1.1879  1.9748 -1.0600
 1658SOL    HW216434   4.539   2.089   2.441  0.6332  1.3865  0.3828
 1659SOL     OW16435   4.318   1.764  16.085  0.0346 -0.0965 -0.0657
 1659SOL    HW116436   4.282   1.835  16.031  1.3801  0.4133 -0.2828
 1659SOL    HW216437   4.303   1.797  16.174 -0.2443 -1.4591  0.3933
 1660SOL     OW16438   3.745   4.343   9.819 -0.0423  0.5262 -0.6001
 1660SOL    HW116439   3.780   4.263   9.779  0.9168 -0.6955  2.6471
 1660SOL    HW216440   3.703   4.370   9.738  1.7729  0.2271 -1.6560
 1661SOL     OW16441   0.249   1.934  11.220  0.4223 -0.2632  0.1759
 1661SOL    HW116442   0.241   1.966  11.130  0.3557  1.1110  0.6665
 1661SOL    HW216443   0.176   1.871  11.221  2.1994 -2.3277 -0.0642
 1662SOL     OW16444   0.818   2.548   3.177 -0.0824  0.0472  0.3781
 1662SOL    HW116445   0.858   2.464   3.200  1.7219  0.6057 -0.7486
 1662SOL    HW216446   0.731   2.542   3.218 -0.9323  1.8549 -1.1580
 1663SOL     OW16447   0.752   3.632   4.495 -0.5253 -0.2642  0.3410
 1663SOL    HW116448   0.666   3.667   4.519  0.2768  1.9604 -0.0660
 1663SOL    HW216449   0.803   3.711   4.510  1.2511 -0.9955 -1.7928
 1664SOL     OW16450   2.440   1.983  13.050  0.6814  0.5721 -0.1346
 1664SOL    HW116451   2.418   1.896  13.019  1.7409  0.5245 -0.7456
 1664SOL    HW216452   2.466   1.972  13.142  4.3777 -0.4773 -1.3181
 1665SOL     OW16453   4.048   0.053   6.677  0.1302  0.3334 -0.6323
 1665SOL    HW116454   3.955   0.034   6.688  0.3887 -0.0193  0.9639
 1665SOL    HW216455   4.079   4.686   6.655  0.2301 -0.1742  1.5873
 1666SOL     OW16456   2.704   3.300  15.898  0.2476  0.0887 -0.1731
 1666SOL    HW116457   2.724   3.249  15.819  0.9602 -2.1112  1.4209
 1666SOL    HW216458   2.725   3.391  15.877 -2.6462  0.7861 -0.0905
 1667SOL     OW16459   0.849   2.209   9.056 -0.1855  0.0971 -0.2723
 1667SOL    HW116460   0.891   2.252   8.982 -1.1510  1.5756  0.0231
 1667SOL    HW216461   0.758   2.197   9.029 -0.7091  1.8015  0.6937
 1668SOL     OW16462   0.201   1.958  13.018 -0.1439 -0.4880 -0.2641
 1668SOL    HW116463   0.174   1.995  12.934 -0.1473 -2.0440 -0.9531
 1668SOL    HW216464   0.161   2.019  13.080 -0.5666 -0.7276 -0.3023
 1669SOL     OW16465   2.426   0.408  10.728 -0.0049  0.4987  0.2892
 1669SOL    HW116466   2.377   0.339  10.773 -0.9929 -0.6506 -2.5412
 1669SOL    HW216467   2.503   0.358  10.702 -2.0413 -3.4922  1.9081
 1670SOL     OW16468   3.193   2.508  16.597  0.3302  0.0234  0.1266
 1670SOL    HW116469   3.249   2.442  16.639  0.3856  0.8377  1.3594
 1670SOL    HW216470   3.143   2.538  16.673 -1.3417  1.7272 -1.6592
 1671SOL     OW16471   1.666   3.491   0.498 -0.2842  0.2293 -0.3622
 1671SOL    HW116472   1.688   3.413   0.548  0.2760  1.9201  1.9956
 1671SOL    HW216473   1.585   3.524   0.538 -1.0447 -0.3280 -1.4215
 1672SOL     OW16474   4.379   2.035   6.902  0.3171  0.0697  0.1300
 1672SOL    HW116475   4.430   2.034   6.821 -0.1849  1.7652 -0.1917
 1672SOL    HW216476   4.363   2.128   6.891 -2.4373 -0.6872 -2.3002
 1673SOL     OW16477   3.025   2.613   6.766 -0.0483 -0.3504  0.3819
 1673SOL    HW116478   3.076   2.640   6.842 -0.6153  0.7406  0.3779
 1673SOL    HW216479   2.959   2.558   6.808 -0.7644 -0.1129 -0.4359
 1674SOL     OW16480   3.044   1.488   3.868 -0.3183 -0.1314 -0.0633
 1674SOL    HW116481   3.124   1.436   3.861  0.2681  0.9992 -1.7801
 1674SOL    HW216482   2.984   1.415   3.855 -1.5455  0.5409  1.7510
 1675SOL     OW16483   1.139   0.569   4.190 -0.0669  0.6852  0.5432
 1675SOL    HW116484   1.050   0.570   4.223 -0.9045 -2.0772 -1.6505
 1675SOL    HW216485   1.170   0.658   4.207 -0.5299  0.8476  0.5341
 1676SOL     OW16486   4.132   4.087   8.812 -0.9937  0.6800  0.0833
 1676SOL    HW116487   4.099   4.013   8.862 -0.0914 -0.6831 -1.3331
 1676SOL    HW216488   4.208   4.121   8.859 -0.3420  3.0961 -2.7146
 1677SOL     OW16489   3.426   4.107   5.964 -0.2982  0.7397  0.8632
 1677SOL    HW116490   3.375   4.178   6.002 -2.6453 -1.9885  2.8058
 1677SOL    HW216491   3.458   4.074   6.048  0.0569  0.3009  0.5596
 1678SOL     OW16492   3.210   1.455   8.404  0.3519  0.4124 -0.6989
 1678SOL    HW116493   3.187   1.502   8.324  1.1142  1.3442 -0.3715
 1678SOL    HW216494   3.136   1.489   8.454  0.4757 -3.7708  2.4133
 1679SOL     OW16495   4.055   0.798   7.066  0.2524  0.6707 -0.4208
 1679SOL    HW116496   3.965   0.820   7.091 -0.4304 -1.4645 -0.9880
 1679SOL    HW216497   4.113   0.862   7.107  1.0326  0.6274 -1.4650
 1680SOL     OW16498   3.341   1.562   9.262  0.1466 -0.5914 -0.5896
 1680SOL    HW116499   3.320   1.640   9.211  1.5563  0.7662  0.9092
 1680SOL    HW216500   3.324   1.587   9.353  0.8226  1.4016 -1.0111
 1681SOL     OW16501   3.992   0.853   6.245  0.3395  0.1826  0.0078
 1681SOL    HW116502   3.917   0.822   6.193  0.9428 -0.5141 -0.4487
 1681SOL    HW216503   4.050   0.890   6.178  0.3768 -0.6342 -0.4146
 1682SOL     OW16504   3.647   3.747  14.998  0.1716 -0.9628 -0.0405
 1682SOL    HW116505   3.731   3.701  15.002  1.0177  0.6965  1.0342
 1682SOL    HW216506   3.663   3.783  14.911  0.2744 -0.0677  0.3550
 1683SOL     OW16507   2.444   3.015  12.559  0.3458 -0.4757  0.2780
 1683SOL    HW116508   2.513   3.022  12.493 -0.0517  0.2817 -0.0575
 1683SOL    HW216509   2.359   3.028  12.517 -0.7335 -0.4818  2.4863
 1684SOL     OW16510   1.910   1.268   5.987  0.2168 -0.0595  0.7712
 1684SOL    HW116511   1.948   1.181   5.999  1.3798  0.4540  0.7675
 1684SOL    HW216512   1.945   1.292   5.901 -0.2062  0.2521  0.6857
 1685SOL     OW16513   0.940   0.053   8.036  0.3479 -0.2236 -0.2185
 1685SOL    HW116514   1.017   0.106   8.015  1.5473 -1.9974 -0.3136
 1685SOL    HW216515   0.975   0.006   8.111 -1.0104  0.4487  0.8379
 1686SOL     OW16516   4.358   0.795   5.753 -0.3714 -0.0301  0.6110
 1686SOL    HW116517   4.396   0.753   5.675 -1.7627  3.0869 -1.7365
 1686SOL    HW216518   4.340   0.883   5.720  0.9044 -1.0080 -2.7790
 1687SOL     OW16519   4.114   2.919   8.101  0.0061 -0.2164 -0.1634
 1687SOL    HW116520   4.101   2.828   8.126  1.1827 -0.1551  0.6633
 1687SOL    HW216521   4.041   2.937   8.041 -1.2600  1.0198  1.7218
 1688SOL     OW16522   4.326   1.926  14.940 -0.0248 -0.4627  0.0144
 1688SOL    HW116523   4.289   1.908  15.026 -0.5728 -0.4679 -0.2243
 1688SOL    HW216524   4.246   1.957  14.898 -0.6222 -1.0269  0.7363
 1689SOL     OW16525   0.048   3.875   6.249 -0.4064 -0.3519  0.2976
 1689SOL    HW116526   0.039   3.940   6.319  0.3577 -1.4939  1.4749
 1689SOL    HW216527   0.105   3.809   6.291  2.5863  0.3652 -2.6037
 1690SOL     OW16528   3.719   3.598   8.515  0.0255 -0.5044  0.1727
 1690SOL    HW116529   3.791   3.551   8.557 -1.4764 -0.7813  2.4839
 1690SOL    HW216530   3.692   3.663   8.581  1.5193  1.2977 -0.9974
 1691SOL     OW16531   0.244   0.641   1.966 -0.1841 -0.3531 -0.0164
 1691SOL    HW116532   0.238   0.571   1.901 -1.1604 -0.7131  0.4575
 1691SOL    HW216533   0.152   0.667   1.955  0.1816  0.1929 -1.8348
 1692SOL     OW16534   2.191   1.046   2.578 -0.1435  0.0916  0.4125
 1692SOL    HW116535   2.125   1.085   2.520  0.0292 -2.2865 -1.3836
 1692SOL    HW216536   2.265   1.034   2.520 -0.1192 -4.0151  1.3161
 1693SOL     OW16537   2.074   3.822   7.997  0.0646  0.2026 -0.3482
 1693SOL    HW116538   2.017   3.898   8.005  1.2195  0.8896  1.3837
 1693SOL    HW216539   2.019   3.760   8.047 -1.0619  0.8130 -0.8398
 1694SOL     OW16540   2.073   2.602   4.695 -0.0250  0.4674 -0.5358
 1694SOL    HW116541   2.112   2.515   4.682 -1.9946 -0.9103  2.5171
 1694SOL    HW216542   2.144   2.634   4.750  1.1612 -2.0485 -0.5783
 1695SOL     OW16543   1.689   0.670  13.505  0.4965  0.2962 -0.0534
 1695SOL    HW116544   1.608   0.647  13.460  0.1438 -1.0146  1.2542
 1695SOL    HW216545   1.673   0.629  13.590 -0.1679  0.2085 -0.2210
 1696SOL     OW16546   0.250   3.938   8.408 -0.0018 -0.9153  0.3668
 1696SOL    HW116547   0.329   3.885   8.413  0.0669 -0.7299  1.3594
 1696SOL    HW216548   0.274   4.006   8.346  1.0772  0.4898  2.3309
 1697SOL     OW16549   1.789   1.091   7.754  0.3883 -0.0844 -0.8871
 1697SOL    HW116550   1.857   1.134   7.702  1.2151 -0.9183 -0.4778
 1697SOL    HW216551   1.718   1.151   7.728  0.4611  0.3016 -0.1768
 1698SOL     OW16552   0.182   1.301   2.304 -0.5905 -0.2097  0.3580
 1698SOL    HW116553   0.186   1.314   2.209  0.2408  2.4136  0.7400
 1698SOL    HW216554   0.104   1.246   2.306 -0.7994 -0.0002 -1.4770
 1699SOL     OW16555   4.493   2.303   1.843 -0.1414  0.3147  0.2615
 1699SOL    HW116556   4.408   2.342   1.827 -1.3839 -1.7139  1.8487
 1699SOL    HW216557   4.548   2.365   1.797  0.4873 -0.9159 -0.6533
 1700SOL     OW16558   3.212   1.102   1.418 -0.3699  0.3703  0.2097
 1700SOL    HW116559   3.265   1.166   1.371 -3.1979  1.8375 -0.9961
 1700SOL    HW216560   3.138   1.156   1.445 -0.5164  1.1681 -1.8270
 1701SOL     OW16561   4.355   1.031   6.358 -0.0333  0.0742 -0.0140
 1701SOL    HW116562   4.351   0.937   6.339  1.9490  0.0749 -0.4021
 1701SOL    HW216563   4.321   1.037   6.447  0.4922 -2.2261  0.3518
 1702SOL     OW16564   2.191   3.168   2.927 -0.0735  0.0191  0.9022
 1702SOL    HW116565   2.165   3.078   2.906 -2.6757  0.2283  3.2353
 1702SOL    HW216566   2.109   3.187   2.973  0.1965  0.5121  1.1784
 1703SOL     OW16567   1.047   2.535   9.289 -0.3560  0.3198 -0.3190
 1703SOL    HW116568   1.117   2.476   9.318 -1.7527 -0.4915  1.3897
 1703SOL    HW216569   1.052   2.599   9.360  0.4819  1.6118 -1.5416
 1704SOL     OW16570   4.601   2.081   4.945  0.2897  0.2838 -0.1111
 1704SOL    HW116571   4.684   2.043   4.974 -0.8996 -1.8412  0.5406
 1704SOL    HW216572   4.632   2.142   4.878 -1.4749  0.5695 -0.6825
 1705SOL     OW16573   3.019   0.119   8.401 -0.1209 -0.1704  0.0507
 1705SOL    HW116574   3.044   0.045   8.345  0.2156  0.6065 -0.8090
 1705SOL    HW216575   3.088   0.110   8.468  0.0692  0.1768 -0.0977
 1706SOL     OW16576   2.166   2.741   8.703  0.2565 -0.2737 -0.1867
 1706SOL    HW116577   2.227   2.730   8.776  1.4159  2.5759 -0.7518
 1706SOL    HW216578   2.196   2.671   8.645  0.9177  0.6512 -0.9482
 1707SOL     OW16579   3.073   1.145   2.528  0.0394  0.0168 -0.4009
 1707SOL    HW116580   3.026   1.113   2.605 -0.0439 -1.1226 -0.9195
 1707SOL    HW216581   3.037   1.232   2.512  1.5384  0.5411 -0.9386
 1708SOL     OW16582   1.943   1.832   3.695 -0.1207 -0.3670  0.2514
 1708SOL    HW116583   1.919   1.914   3.651  1.2188 -0.1320 -0.0423
 1708SOL    HW216584   1.942   1.861   3.787 -0.0271  0.2290  0.0626
 1709SOL     OW16585   2.686   0.235   6.274 -0.3162  0.1253  0.1974
 1709SOL    HW116586   2.599   0.264   6.248 -0.2774  0.4211  0.3949
 1709SOL    HW216587   2.705   0.285   6.354 -1.0263  1.7562 -0.6490
 1710SOL     OW16588   1.990   2.494   2.629  0.3682 -0.2170 -0.0899
 1710SOL    HW116589   2.013   2.578   2.589 -3.1559  0.3480 -0.9528
 1710SOL    HW216590   2.074   2.451   2.612  0.4532 -0.4477  0.9333
 1711SOL     OW16591   0.862   3.222   6.888 -0.5115  0.7149  0.6768
 1711SOL    HW116592   0.921   3.163   6.842 -1.0851 -0.2788  1.2053
 1711SOL    HW216593   0.888   3.308   6.853 -0.7158  0.2876 -0.5258
 1712SOL     OW16594   3.786   0.890   6.054  0.1920 -0.2738 -0.7474
 1712SOL    HW116595   3.710   0.913   6.001  0.4588  1.9452 -0.1527
 1712SOL    HW216596   3.766   0.802   6.085 -2.0836  0.9341  1.1547
 1713SOL     OW16597   2.606   0.364  10.251  0.4366 -0.4531  0.2423
 1713SOL    HW116598   2.670   0.297  10.229  0.1572  1.3386 -5.9057
 1713SOL    HW216599   2.649   0.449  10.242  1.1098 -0.4510  3.4753
 1714SOL     OW16600   4.024   0.243   4.299 -0.4437 -0.0291 -0.2887
 1714SOL    HW116601   3.958   0.266   4.234  0.6816  0.5863 -1.2234
 1714SOL    HW216602   4.077   0.186   4.243  0.4827  0.3657  0.1893
 1715SOL     OW16603   1.709   2.322   8.577  0.6552 -0.4380 -0.2573
 1715SOL    HW116604   1.732   2.232   8.554  2.0081 -0.4045  0.9498
 1715SOL    HW216605   1.657   2.351   8.503  1.7906  2.9229  0.2570
 1716SOL     OW16606   1.295   1.247   7.906 -0.0277  0.1994  0.1555
 1716SOL    HW116607   1.217   1.210   7.948  0.7749 -1.8010 -0.0983
 1716SOL    HW216608   1.316   1.168   7.856 -1.2267  0.1014 -0.2010
 1717SOL     OW16609   0.433   3.149  13.738  0.0754  0.5247  0.3461
 1717SOL    HW116610   0.452   3.081  13.803 -0.1841  1.7173  1.6646
 1717SOL    HW216611   0.501   3.210  13.766  0.9906  0.1329 -1.0204
 1718SOL     OW16612   2.711   1.949   9.436 -0.0667  0.3177 -0.1108
 1718SOL    HW116613   2.744   2.039   9.434 -1.5825  0.8437 -1.2411
 1718SOL    HW216614   2.633   1.956   9.490 -1.4494  0.0045 -2.0643
 1719SOL     OW16615   3.735   0.732   4.645 -0.3209 -0.4010  0.4311
 1719SOL    HW116616   3.642   0.756   4.647 -0.0404  0.5738  1.5847
 1719SOL    HW216617   3.732   0.665   4.577 -2.1117 -0.8370  0.9432
 1720SOL     OW16618   3.169   0.744   5.417  0.0427  0.2429  0.1750
 1720SOL    HW116619   3.152   0.675   5.481  0.7049  0.3815  0.5035
 1720SOL    HW216620   3.263   0.759   5.422  0.4912 -1.5525 -3.3581
 1721SOL     OW16621   2.222   0.883  11.869  0.0859 -0.2645 -0.1704
 1721SOL    HW116622   2.277   0.841  11.803 -0.8291  0.0573 -1.1195
 1721SOL    HW216623   2.216   0.813  11.934 -3.5451 -0.8461 -1.1770
 1722SOL     OW16624   0.145   2.741   4.954  0.3901 -0.0308  0.4004
 1722SOL    HW116625   0.116   2.829   4.928 -0.5423 -0.7859 -1.1014
 1722SOL    HW216626   0.220   2.727   4.896 -0.1759 -1.0067 -0.1036
 1723SOL     OW16627   3.873   0.451   9.532  0.8318  0.5029  0.4931
 1723SOL    HW116628   3.933   0.448   9.606  0.9023  2.3305  0.5021
 1723SOL    HW216629   3.796   0.411   9.574  0.6537 -0.0184 -0.3195
 1724SOL     OW16630   4.323   3.607  11.399  0.4426  0.4803  0.3324
 1724SOL    HW116631   4.233   3.638  11.394  0.2635  0.2206  2.0608
 1724SOL    HW216632   4.312   3.515  11.377  1.1203  0.0876  1.6417
 1725SOL     OW16633   4.081   0.949  15.623 -0.5712 -0.0641 -0.4151
 1725SOL    HW116634   4.166   0.973  15.658  0.3226 -1.5941 -1.5097
 1725SOL    HW216635   4.036   0.931  15.706 -0.1428  0.5341 -0.0600
 1726SOL     OW16636   1.825   0.709   6.421 -0.1263  0.0316 -0.2839
 1726SOL    HW116637   1.786   0.673   6.342  2.2616 -0.9459 -1.0251
 1726SOL    HW216638   1.914   0.725   6.390  0.4930  0.6874  1.8496
 1727SOL     OW16639   1.505   2.335  15.159  0.0052  0.1749 -0.3962
 1727SOL    HW116640   1.478   2.355  15.069 -1.3024  0.0028 -0.0318
 1727SOL    HW216641   1.562   2.260  15.140 -3.1726 -2.3546  0.0410
 1728SOL     OW16642   1.767   3.916   3.872 -0.0573  0.7017 -0.5254
 1728SOL    HW116643   1.733   3.921   3.961  0.2541  1.4753 -0.4558
 1728SOL    HW216644   1.729   3.833   3.841  0.5061 -0.0266  0.7325
 1729SOL     OW16645   2.354   1.616  17.063 -0.0066  0.4710  0.4802
 1729SOL    HW116646   2.407   1.639  17.139 -1.1622  0.0001  1.4365
 1729SOL    HW216647   2.318   1.700  17.035 -2.6438 -1.0553 -0.6697
 1730SOL     OW16648   2.910   0.368   6.569 -0.5732  0.5461  0.8216
 1730SOL    HW116649   2.925   0.380   6.663 -1.6257 -0.8390  1.1652
 1730SOL    HW216650   2.884   0.458   6.551 -1.1784  0.2622  0.2928
 1731SOL     OW16651   2.282   2.321   4.670  0.2034 -0.1897  0.5140
 1731SOL    HW116652   2.337   2.259   4.623  2.9151  1.8373  1.0266
 1731SOL    HW216653   2.265   2.274   4.751 -1.9164 -0.6507 -0.1889
 1732SOL     OW16654   0.706   4.278  16.010 -0.1063 -0.3679 -0.0407
 1732SOL    HW116655   0.748   4.198  15.980 -4.2942 -2.6128  0.1354
 1732SOL    HW216656   0.752   4.297  16.092  0.5397  0.8456 -0.6784
 1733SOL     OW16657   0.623   1.055   7.894  0.5599  0.0987  0.2502
 1733SOL    HW116658   0.644   1.079   7.804 -2.9109 -1.8572 -1.0591
 1733SOL    HW216659   0.608   1.147   7.917  1.2262  0.0411  0.9258
 1734SOL     OW16660   2.046   3.138   0.844 -0.0456 -0.2982 -0.7382
 1734SOL    HW116661   2.100   3.164   0.770 -0.1855  4.0988  0.6755
 1734SOL    HW216662   2.093   3.168   0.922  1.3762  2.2228 -2.5747
 1735SOL     OW16663   2.324   3.632   6.693 -0.0097 -0.7540 -0.3129
 1735SOL    HW116664   2.362   3.655   6.608  0.2841  1.1469  0.3339
 1735SOL    HW216665   2.229   3.638   6.678  0.0284  0.0600 -0.2203
 1736SOL     OW16666   4.308   1.344   9.921  0.1482 -0.0553 -0.1322
 1736SOL    HW116667   4.249   1.269   9.918  0.5138 -0.3641  0.3686
 1736SOL    HW216668   4.397   1.316   9.943 -0.1757 -0.5225  0.5854
 1737SOL     OW16669   2.681   3.064  12.392  0.4209 -0.2692 -0.2367
 1737SOL    HW116670   2.756   3.020  12.432  1.3453  0.6886 -0.9231
 1737SOL    HW216671   2.686   3.015  12.310  1.5280 -1.9685  0.8397
 1738SOL     OW16672   2.043   2.993  11.640  0.1567  0.1402  0.1172
 1738SOL    HW116673   1.949   3.006  11.654  0.0097 -1.0512  0.2746
 1738SOL    HW216674   2.049   2.944  11.558  0.4172 -1.3100  1.0034
 1739SOL     OW16675   0.307   4.048   4.155 -0.3201  0.2806 -0.5014
 1739SOL    HW116676   0.320   4.057   4.061  0.9655 -1.2159 -0.4710
 1739SOL    HW216677   0.217   4.020   4.172 -0.0035 -0.6581 -0.3649
 1740SOL     OW16678   3.427   1.134   2.548  0.1815  0.5015 -0.0466
 1740SOL    HW116679   3.516   1.108   2.523  0.7161  2.0770  0.2698
 1740SOL    HW216680   3.437   1.162   2.638 -1.7978  1.7343 -0.2262
 1741SOL     OW16681   2.348   4.697   6.219  0.0847  0.2624  0.1029
 1741SOL    HW116682   2.295   0.055   6.206 -0.6216  0.0752  1.7848
 1741SOL    HW216683   2.385   4.712   6.306  1.5709  2.1056 -0.8517
 1742SOL     OW16684   0.990   2.895   6.300  0.7481 -0.5411  0.3273
 1742SOL    HW116685   0.967   2.809   6.264 -1.6775  1.1190 -2.1167
 1742SOL    HW216686   0.993   2.946   6.219 -1.4852 -0.0973  0.5023
 1743SOL     OW16687   3.933   2.190   5.770 -0.0804  0.9160 -0.3123
 1743SOL    HW116688   3.839   2.177   5.756  0.0829  0.7196 -1.2297
 1743SOL    HW216689   3.970   2.155   5.689  1.1462 -2.3777  1.6905
 1744SOL     OW16690   2.644   1.026   8.445 -0.6413 -0.0606 -0.5308
 1744SOL    HW116691   2.549   1.016   8.443 -0.5077 -1.2657 -0.5315
 1744SOL    HW216692   2.670   0.975   8.368 -0.5306 -0.2836 -0.3459
 1745SOL     OW16693   1.624   2.221   9.154  0.2401 -0.7720  0.5133
 1745SOL    HW116694   1.703   2.235   9.102 -0.5593 -0.2207 -0.5510
 1745SOL    HW216695   1.660   2.150   9.207  2.4952  0.2173  0.3031
 1746SOL     OW16696   2.552   1.893  11.681 -0.3966  0.3309 -0.4267
 1746SOL    HW116697   2.539   1.987  11.679  2.1727  0.6477 -2.7480
 1746SOL    HW216698   2.643   1.884  11.653  0.2846  0.8106  1.6356
 1747SOL     OW16699   1.113   1.451   5.708 -0.2687 -0.2975 -0.8713
 1747SOL    HW116700   1.160   1.433   5.627  1.0607 -1.2482  0.0908
 1747SOL    HW216701   1.185   1.452   5.772  0.8160 -2.4371 -2.0710
 1748SOL     OW16702   3.096   3.880   2.991 -0.6058 -0.0821 -0.3676
 1748SOL    HW116703   3.173   3.863   2.937  0.0682 -1.2417  0.9546
 1748SOL    HW216704   3.115   3.805   3.047  1.9239  1.6225  1.0518
 1749SOL     OW16705   2.939   1.393   8.070 -0.1586 -0.3914  0.0182
 1749SOL    HW116706   2.941   1.298   8.064  1.5511 -0.3733  0.1482
 1749SOL    HW216707   2.903   1.419   7.985  0.6398 -1.3134 -0.6072
 1750SOL     OW16708   3.538   1.781   4.545  0.6113 -0.2639 -0.0722
 1750SOL    HW116709   3.542   1.783   4.450 -0.6761  0.0369 -0.1173
 1750SOL    HW216710   3.577   1.865   4.568 -0.5700 -0.1712  1.6126
 1751SOL     OW16711   3.626   2.031   7.383  0.0021  0.7689 -0.7589
 1751SOL    HW116712   3.608   2.073   7.467 -2.1072  0.5407 -1.1102
 1751SOL    HW216713   3.670   2.096   7.328 -1.3509  2.4533  0.1543
 1752SOL     OW16714   4.093   0.013   6.262 -0.1726  0.2041  0.3582
 1752SOL    HW116715   4.164   4.679   6.297 -2.6964 -3.8813 -0.9377
 1752SOL    HW216716   4.130   0.012   6.174  1.1068 -0.1955  0.9002
 1753SOL     OW16717   3.614   1.220   1.160  0.7327 -0.5089  0.0681
 1753SOL    HW116718   3.571   1.151   1.110  0.8464 -0.8671  0.4620
 1753SOL    HW216719   3.676   1.253   1.095  0.5445 -0.4185 -0.0650
 1754SOL     OW16720   1.630   2.005   2.238 -0.3165 -0.2038 -0.5402
 1754SOL    HW116721   1.623   2.031   2.330 -0.0877  0.6604 -0.7696
 1754SOL    HW216722   1.720   2.032   2.219  0.2229 -0.4526  1.6358
 1755SOL     OW16723   4.079   1.804  13.296  0.3417 -0.1940 -0.3958
 1755SOL    HW116724   4.015   1.753  13.244 -0.5228 -0.3166  0.7970
 1755SOL    HW216725   4.114   1.870  13.236 -2.4594  2.9220  1.3996
 1756SOL     OW16726   3.244   0.108  10.780  0.2489 -0.1010  0.1305
 1756SOL    HW116727   3.329   0.107  10.736  1.3930 -0.0242  2.3471
 1756SOL    HW216728   3.183   0.112  10.706 -2.9470 -0.5581  2.7232
 1757SOL     OW16729   0.732   0.134   5.005 -0.4910 -0.3816  0.2716
 1757SOL    HW116730   0.681   0.141   4.924 -1.2369 -0.5080  0.7281
 1757SOL    HW216731   0.725   0.227   5.027 -0.2846 -0.8176  2.1810
 1758SOL     OW16732   3.955   2.623   5.408  0.0930  0.2858 -0.4353
 1758SOL    HW116733   4.022   2.687   5.433 -0.1833  0.3051  0.2622
 1758SOL    HW216734   3.999   2.574   5.338  0.2649 -1.3885  0.8266
 1759SOL     OW16735   2.395   3.657  13.656 -0.2758 -0.2760  0.4091
 1759SOL    HW116736   2.393   3.743  13.613  3.0410 -1.1936 -1.5390
 1759SOL    HW216737   2.457   3.608  13.603 -0.7655 -2.2020  1.6091
 1760SOL     OW16738   1.380   3.744   8.615 -0.0048 -0.3087 -0.3180
 1760SOL    HW116739   1.324   3.786   8.550  0.7235 -0.7249 -1.2172
 1760SOL    HW216740   1.456   3.797   8.591  0.4066  0.3969  2.4930
 1761SOL     OW16741   2.813   0.273  12.588  0.1970  0.1022 -0.3150
 1761SOL    HW116742   2.800   0.179  12.579 -1.2922  0.6023 -3.4648
 1761SOL    HW216743   2.907   0.283  12.602 -0.3673  3.0393  1.3746
 1762SOL     OW16744   0.604   1.975   5.959  0.4380 -0.1226 -0.1765
 1762SOL    HW116745   0.542   1.920   5.911 -1.5754  1.5762  0.4654
 1762SOL    HW216746   0.654   1.904   5.999  2.8495  1.0470 -1.1746
 1763SOL     OW16747   0.573   4.421   7.783 -0.2798 -0.0726 -0.5298
 1763SOL    HW116748   0.614   4.404   7.868  0.0431  1.6177 -0.3387
 1763SOL    HW216749   0.574   4.328   7.759  1.1265 -0.1942 -0.0080
 1764SOL     OW16750   2.874   0.260  11.861  0.6662  0.6007 -0.4395
 1764SOL    HW116751   2.815   0.279  11.788  0.3979  0.5613 -0.2312
 1764SOL    HW216752   2.843   0.324  11.925 -0.1147 -0.8724  0.6457
 1765SOL     OW16753   4.614   0.829   2.739 -0.2013 -0.3900 -0.0443
 1765SOL    HW116754   4.664   0.760   2.781  0.1849 -0.3770 -0.4828
 1765SOL    HW216755   4.553   0.845   2.811 -0.6778  1.7147 -0.9164
 1766SOL     OW16756   0.950   1.414   3.558  0.6353  0.0343  0.4369
 1766SOL    HW116757   0.962   1.341   3.619  1.0309  0.8332  1.3153
 1766SOL    HW216758   1.036   1.413   3.517  0.4935  0.4220  0.1357
 1767SOL     OW16759   3.586   2.309  15.908 -0.3157 -0.3921  0.0901
 1767SOL    HW116760   3.565   2.222  15.875 -2.3540 -0.3748  1.3228
 1767SOL    HW216761   3.675   2.296  15.941 -0.7750 -0.3943  1.3282
 1768SOL     OW16762   4.127   2.350  16.385 -0.2791 -0.2281  0.0855
 1768SOL    HW116763   4.052   2.367  16.443  0.9648  1.2648  1.2543
 1768SOL    HW216764   4.082   2.310  16.310  0.9238  1.0685 -1.3147
 1769SOL     OW16765   0.996   3.472   3.691  0.0834  0.1305  0.1824
 1769SOL    HW116766   0.962   3.558   3.664 -0.8069 -0.6256 -1.1425
 1769SOL    HW216767   1.075   3.467   3.637 -0.4000  1.4940 -0.6593
 1770SOL     OW16768   1.443   1.777   0.529 -0.0869  0.1641  0.0640
 1770SOL    HW116769   1.496   1.819   0.462  0.6163 -1.0575 -0.1478
 1770SOL    HW216770   1.367   1.833   0.519 -1.2786 -1.4051  0.2153
 1771SOL     OW16771   2.441   1.368   6.906 -0.2423 -0.6358 -0.1531
 1771SOL    HW116772   2.385   1.298   6.872 -1.4147 -0.7821  2.0313
 1771SOL    HW216773   2.433   1.346   6.999 -0.1714 -0.1807 -0.0396
 1772SOL     OW16774   1.571   3.527   8.350 -1.0834 -0.0356  0.1676
 1772SOL    HW116775   1.528   3.531   8.265 -3.4873 -0.6932  1.3450
 1772SOL    HW216776   1.525   3.450   8.383 -0.9738 -0.4929 -0.7621
 1773SOL     OW16777   0.815   4.034  15.959 -0.0153 -0.5645  0.3361
 1773SOL    HW116778   0.870   3.980  15.902 -2.1477 -0.4106 -1.8522
 1773SOL    HW216779   0.751   3.965  15.977 -1.7074  0.8328 -0.2918
 1774SOL     OW16780   3.507   2.081   4.084  0.3078 -0.3567  0.0223
 1774SOL    HW116781   3.431   2.133   4.060  0.0896  0.7932  3.2398
 1774SOL    HW216782   3.520   2.107   4.175  0.7480 -0.2011 -0.0841
 1775SOL     OW16783   1.108   2.886   3.797  0.3478  0.2700 -0.7730
 1775SOL    HW116784   1.103   2.806   3.744 -0.0130 -1.2590  1.5826
 1775SOL    HW216785   1.049   2.876   3.871  0.6352  1.4704 -0.3809
 1776SOL     OW16786   0.369   0.593   1.484 -0.2187  0.1670  0.3269
 1776SOL    HW116787   0.441   0.620   1.541  1.4136 -1.0797 -1.1369
 1776SOL    HW216788   0.410   0.615   1.400 -0.5255 -3.3592 -0.7553
 1777SOL     OW16789   2.739   2.789  14.011 -0.0923  0.6989 -0.3176
 1777SOL    HW116790   2.712   2.846  13.938  0.0745  0.5502 -0.4960
 1777SOL    HW216791   2.656   2.747  14.034  0.6546 -1.0615 -0.7930
 1778SOL     OW16792   3.440   2.197   6.862 -0.9049 -0.0105 -0.3885
 1778SOL    HW116793   3.374   2.132   6.888 -1.2134 -0.1594 -1.5493
 1778SOL    HW216794   3.436   2.190   6.766 -2.1998 -0.7610 -0.2886
 1779SOL     OW16795   1.745   1.029  17.647 -0.0333 -0.0925 -0.5738
 1779SOL    HW116796   1.776   0.947  17.609 -0.0763  0.2731 -1.4139
 1779SOL    HW216797   1.764   1.009   0.052 -0.5177  0.0374 -0.4412
 1780SOL     OW16798   1.711   3.024  13.225  0.1833  0.4230  0.5463
 1780SOL    HW116799   1.653   2.997  13.296  1.4265  0.1786  1.4724
 1780SOL    HW216800   1.765   2.945  13.218  0.0525  0.5158 -1.5401
 1781SOL     OW16801   4.516   1.492   8.459  0.2288  0.2228 -0.0077
 1781SOL    HW116802   4.515   1.459   8.549  3.1326  1.4648  0.4922
 1781SOL    HW216803   4.472   1.574   8.480 -1.2895 -0.8615  1.0243
 1782SOL     OW16804   2.802   2.459   6.873 -0.2191  0.6400  0.2248
 1782SOL    HW116805   2.808   2.377   6.921  1.1176  1.8124  2.0712
 1782SOL    HW216806   2.717   2.488   6.906 -0.5235 -1.1734  1.0036
 1783SOL     OW16807   0.508   2.122   8.188 -0.6453 -0.3329 -0.3661
 1783SOL    HW116808   0.555   2.074   8.257  1.5176  2.0811 -0.1512
 1783SOL    HW216809   0.448   2.173   8.243  0.4112  2.1825 -1.5376
 1784SOL     OW16810   2.052   1.517   1.966  0.2271 -0.3021 -0.2245
 1784SOL    HW116811   2.041   1.590   1.904  2.1109 -1.6901 -2.1716
 1784SOL    HW216812   1.966   1.475   1.957 -0.3993  0.5283  1.9062
 1785SOL     OW16813   0.917   2.592  10.489 -0.1837 -0.7153  0.1051
 1785SOL    HW116814   0.891   2.582  10.581 -0.1329 -0.3133  0.1624
 1785SOL    HW216815   1.012   2.604  10.493 -0.1541 -0.5549 -1.1790
 1786SOL     OW16816   1.144   4.040  16.684 -0.5346 -0.4942  0.1889
 1786SOL    HW116817   1.169   4.093  16.609  3.4137 -0.5091  1.5244
 1786SOL    HW216818   1.152   4.100  16.758  0.1889 -0.7538  0.3122
 1787SOL     OW16819   3.253   4.193   1.711  0.1380  0.7699 -0.4913
 1787SOL    HW116820   3.315   4.241   1.766 -1.3717 -1.6440  3.3344
 1787SOL    HW216821   3.261   4.241   1.629  1.8537 -0.3394 -0.9648
 1788SOL     OW16822   4.697   4.715  11.128 -0.0890  0.0556 -0.2255
 1788SOL    HW116823   4.627   0.018  11.067  1.2834  4.0631 -0.2232
 1788SOL    HW216824   4.711   0.080  11.166 -0.8873 -0.6267  1.6178
 1789SOL     OW16825   4.279   3.822  12.517  0.5841 -0.4755 -0.3994
 1789SOL    HW116826   4.256   3.832  12.425 -2.1344  0.8397  0.4103
 1789SOL    HW216827   4.343   3.752  12.503  0.4018 -0.7679  0.2314
 1790SOL     OW16828   2.039   4.196  12.602  0.0481  0.0562 -0.4080
 1790SOL    HW116829   2.079   4.259  12.661  0.3301 -0.5838  0.0886
 1790SOL    HW216830   1.994   4.139  12.664  0.5330  0.1570  0.0369
 1791SOL     OW16831   1.569   3.424   5.672 -0.3435  0.0846  0.6532
 1791SOL    HW116832   1.581   3.354   5.608  0.6260  1.2821 -0.4751
 1791SOL    HW216833   1.642   3.406   5.731 -0.1596  1.9397  0.9815
 1792SOL     OW16834   0.204   2.139   7.062 -0.3298 -0.2497  0.1053
 1792SOL    HW116835   0.228   2.112   7.151  0.4831 -0.9170 -0.3157
 1792SOL    HW216836   0.291   2.130   7.023 -1.0750  0.9165 -1.8309
 1793SOL     OW16837   0.263   0.076   5.018 -0.1304 -0.0994  0.2490
 1793SOL    HW116838   0.337   0.017   5.033 -1.0119 -0.8545  1.6832
 1793SOL    HW216839   0.220   0.034   4.943 -0.5620  1.3071 -0.2964
 1794SOL     OW16840   2.127   2.458   4.314 -0.3565  0.2528 -0.7038
 1794SOL    HW116841   2.093   2.395   4.251  0.4032 -0.9391  0.0800
 1794SOL    HW216842   2.085   2.540   4.287 -1.1245 -0.1061 -0.5760
 1795SOL     OW16843   3.894   3.367   1.914  0.0164 -0.3371  0.3339
 1795SOL    HW116844   3.960   3.392   1.848 -0.1096  0.3064  0.4549
 1795SOL    HW216845   3.860   3.286   1.876  0.9366 -0.3281 -0.5181
 1796SOL     OW16846   1.254   4.314   4.424 -0.2233 -0.3400  0.3408
 1796SOL    HW116847   1.230   4.378   4.358 -0.3290  1.1002  1.7934
 1796SOL    HW216848   1.349   4.309   4.418 -0.0587  1.1185  1.7902
 1797SOL     OW16849   2.914   0.012   7.622 -0.3300 -0.2759  0.5230
 1797SOL    HW116850   2.980   0.062   7.670  0.0886  0.0604 -0.4066
 1797SOL    HW216851   2.833   0.045   7.660  0.8757  1.5112  1.4965
 1798SOL     OW16852   0.501   3.285  11.337  0.1049  0.1070 -0.0650
 1798SOL    HW116853   0.417   3.330  11.331 -0.5459 -1.0943  0.2131
 1798SOL    HW216854   0.557   3.360  11.317  1.5529  0.2002  4.2086
 1799SOL     OW16855   2.037   3.609   6.614  0.5196  0.7170 -0.3176
 1799SOL    HW116856   2.000   3.686   6.657 -1.5194 -0.0626 -0.6603
 1799SOL    HW216857   2.009   3.626   6.524 -1.2188 -3.1784 -0.5346
 1800SOL     OW16858   1.206   0.331  12.331 -0.6851 -0.0324 -0.4498
 1800SOL    HW116859   1.255   0.404  12.293 -0.6099  0.5645  0.7821
 1800SOL    HW216860   1.215   0.268  12.260  0.0013 -0.0446 -0.3529
 1801SOL     OW16861   4.694   2.061   2.961 -0.2057 -0.2479 -0.3721
 1801SOL    HW116862   4.692   1.977   2.916 -0.6801  0.8597 -2.4125
 1801SOL    HW216863   4.707   2.129   2.895  0.0509  1.1329  1.0842
 1802SOL     OW16864   1.028   0.709   7.098  0.0745  0.6444  0.2240
 1802SOL    HW116865   0.995   0.796   7.120  0.9401  0.5503  1.9114
 1802SOL    HW216866   1.088   0.686   7.170 -0.4663 -0.5154  0.2965
 1803SOL     OW16867   2.338   1.788   2.746 -0.1900  0.0679  0.0423
 1803SOL    HW116868   2.281   1.719   2.714 -0.9100  0.6632  0.0421
 1803SOL    HW216869   2.344   1.856   2.679  1.2075 -0.4436 -0.3536
 1804SOL     OW16870   0.287   2.629   6.632 -0.1017  0.4124 -0.3808
 1804SOL    HW116871   0.194   2.607   6.643 -0.1336  2.2451  2.9960
 1804SOL    HW216872   0.280   2.723   6.617 -3.1930 -0.1824 -2.7594
 1805SOL     OW16873   0.583   1.884   6.694  0.2808 -0.1942  0.0554
 1805SOL    HW116874   0.563   1.970   6.731 -2.7081 -1.1132  0.5728
 1805SOL    HW216875   0.503   1.846   6.657  0.2918 -0.4534  0.2939
 1806SOL     OW16876   0.951   3.915   0.255 -0.0721  0.3558 -0.2943
 1806SOL    HW116877   0.914   3.834   0.291  0.3837  1.1928  2.0179
 1806SOL    HW216878   1.027   3.939   0.308  0.2412 -0.0897 -0.5418
 1807SOL     OW16879   1.195   3.404   8.634  0.6779 -0.1251  0.3456
 1807SOL    HW116880   1.199   3.464   8.708  0.7980 -0.0336  0.2668
 1807SOL    HW216881   1.142   3.460   8.576  0.3463 -2.8989 -2.0115
 1808SOL     OW16882   0.603   1.556   6.775  0.0246  0.2209  0.5163
 1808SOL    HW116883   0.616   1.643   6.813 -1.2439  0.0789  1.2694
 1808SOL    HW216884   0.678   1.556   6.715 -0.5533  1.1325 -0.2195
 1809SOL     OW16885   1.823   4.522  12.600 -0.3236  0.3059  0.3493
 1809SOL    HW116886   1.786   4.434  12.590  0.8050 -0.1249 -0.0825
 1809SOL    HW216887   1.856   4.509  12.689 -1.7449  1.0634  0.9923
 1810SOL     OW16888   1.909   3.193   7.106  0.1085  0.0032 -0.4015
 1810SOL    HW116889   1.966   3.191   7.030  1.2207  1.7137  0.3802
 1810SOL    HW216890   1.887   3.100   7.111 -0.6070  0.1779 -0.3446
 1811SOL     OW16891   4.204   0.108   7.662 -0.0171  0.0730  0.2831
 1811SOL    HW116892   4.252   0.036   7.622  0.0732 -0.4781  1.3859
 1811SOL    HW216893   4.112   0.082   7.656 -0.0456 -0.0693  1.2549
 1812SOL     OW16894   1.655   3.986   3.539 -0.5397  0.2343  0.0090
 1812SOL    HW116895   1.677   4.079   3.533  0.2492 -0.0921 -1.9640
 1812SOL    HW216896   1.662   3.960   3.447 -0.8843  1.8563 -0.4660
 1813SOL     OW16897   4.293   0.295   2.488  0.1804 -0.5807 -0.1116
 1813SOL    HW116898   4.345   0.293   2.408  0.4652  0.8721  0.0428
 1813SOL    HW216899   4.241   0.214   2.488  1.3510 -1.3368  0.3888
 1814SOL     OW16900   0.751   3.815   1.861  0.5490  0.1388  0.3077
 1814SOL    HW116901   0.733   3.908   1.874 -0.6581  0.0093 -0.4865
 1814SOL    HW216902   0.668   3.772   1.880  0.9357 -0.4388  0.6925
 1815SOL     OW16903   3.492   3.684   3.780  0.3284  0.4736 -0.2593
 1815SOL    HW116904   3.411   3.719   3.816  1.0756  0.5019  1.4258
 1815SOL    HW216905   3.487   3.732   3.698 -0.9746  0.8516  0.0526
 1816SOL     OW16906   3.278   2.590   6.099  0.0841  0.2752  0.0767
 1816SOL    HW116907   3.201   2.556   6.145 -0.1801  1.2628  0.3657
 1816SOL    HW216908   3.341   2.518   6.114  0.4874  0.1951 -2.0444
 1817SOL     OW16909   1.719   3.827   1.604  0.3304 -0.0279 -0.4960
 1817SOL    HW116910   1.707   3.917   1.635 -1.6202 -0.3632 -0.2909
 1817SOL    HW216911   1.796   3.835   1.547  1.4846  2.4315  1.4128
 1818SOL     OW16912   0.467   0.490  11.661  0.0009 -0.4922  0.0074
 1818SOL    HW116913   0.426   0.450  11.738  0.6290 -1.4649 -0.1768
 1818SOL    HW216914   0.461   0.417  11.600  0.0317 -2.1472  1.9717
 1819SOL     OW16915   0.777   1.656   4.973 -0.1921 -0.4066  0.1496
 1819SOL    HW116916   0.734   1.604   4.906 -0.4941 -0.7697  0.6189
 1819SOL    HW216917   0.817   1.730   4.928 -0.2248  0.3345  1.3348
 1820SOL     OW16918   4.123   3.486   3.781 -0.2852  0.0863 -0.1626
 1820SOL    HW116919   4.067   3.451   3.850 -0.9516  1.8265  0.1928
 1820SOL    HW216920   4.203   3.434   3.788 -0.9668 -0.7417  1.4002
 1821SOL     OW16921   3.509   2.730  11.968 -0.2051  0.1929  0.1207
 1821SOL    HW116922   3.475   2.704  11.883  0.8674 -1.0874  0.0987
 1821SOL    HW216923   3.437   2.692  12.018  0.5058  1.5134  2.1449
 1822SOL     OW16924   0.480   4.243   1.734  0.2311 -0.5547 -0.2067
 1822SOL    HW116925   0.397   4.212   1.770  0.7455 -0.4653  1.0741
 1822SOL    HW216926   0.482   4.198   1.649  2.9770  0.1432 -0.5059
 1823SOL     OW16927   0.792   2.880  11.010 -0.5759 -0.2805  0.0568
 1823SOL    HW116928   0.871   2.933  11.001 -1.2205  0.1969 -2.5655
 1823SOL    HW216929   0.729   2.948  10.984  1.1134  0.8066 -1.1730
 1824SOL     OW16930   1.880   4.632   8.927 -0.6483  0.4276 -0.4522
 1824SOL    HW116931   1.947   4.618   8.861 -0.0392  0.1270  0.2264
 1824SOL    HW216932   1.928   4.663   9.004 -0.7388 -0.3986 -0.0654
 1825SOL     OW16933   1.530   3.159   3.154  0.1729  0.0223 -0.6051
 1825SOL    HW116934   1.483   3.121   3.080 -0.8974  0.3592 -0.0943
 1825SOL    HW216935   1.509   3.251   3.141 -0.6139 -0.2483 -1.2159
 1826SOL     OW16936   1.453   1.338   8.935 -0.0315  0.0019 -0.7311
 1826SOL    HW116937   1.415   1.312   9.019  0.5517 -1.1989 -0.8425
 1826SOL    HW216938   1.396   1.291   8.875 -0.2393 -3.0747  1.8726
 1827SOL     OW16939   3.400   2.756   8.417  0.0106 -0.5196  0.3644
 1827SOL    HW116940   3.493   2.771   8.432 -0.3374 -0.3377  2.4047
 1827SOL    HW216941   3.369   2.769   8.507 -0.7326 -2.3763  0.3668
 1828SOL     OW16942   0.499   3.447   8.056  0.3564 -0.2009 -0.2519
 1828SOL    HW116943   0.473   3.368   8.010 -0.4362 -0.5256  0.7438
 1828SOL    HW216944   0.553   3.408   8.125 -0.0726 -1.2287 -0.5033
 1829SOL     OW16945   3.225   1.777   9.170 -0.2072 -0.4747  0.4845
 1829SOL    HW116946   3.147   1.730   9.201  0.7029 -0.2151  3.1685
 1829SOL    HW216947   3.211   1.853   9.226  1.5003 -1.3631  2.0957
 1830SOL     OW16948   1.631   1.942   3.576 -0.1114 -0.4068 -0.4012
 1830SOL    HW116949   1.718   1.979   3.591 -0.5479  0.6707 -0.5289
 1830SOL    HW216950   1.629   1.904   3.488  0.9263 -0.0920 -0.5694
 1831SOL     OW16951   0.915   3.841   7.839  0.9680  0.2815 -0.3031
 1831SOL    HW116952   0.923   3.783   7.763  0.7577 -1.2999  0.9064
 1831SOL    HW216953   0.971   3.791   7.897  0.2885  0.6503  0.6588
 1832SOL     OW16954   3.215   0.595   6.762  0.5621  0.9682  0.4829
 1832SOL    HW116955   3.262   0.657   6.706 -0.1658  0.5427 -0.6065
 1832SOL    HW216956   3.129   0.637   6.768 -0.1186 -0.1441 -1.5689
 1833SOL     OW16957   4.607   1.034   2.014  0.6749 -0.4095  0.0561
 1833SOL    HW116958   4.591   1.010   1.922 -0.8145 -0.2847  0.2691
 1833SOL    HW216959   4.598   1.129   2.017 -1.3276 -0.6057  0.3853
 1834SOL     OW16960   3.872   4.522   4.323 -0.6572 -0.2728  0.2875
 1834SOL    HW116961   3.927   4.524   4.244 -1.3053  0.5481 -0.1327
 1834SOL    HW216962   3.923   4.464   4.379  0.6674  0.5195 -0.0844
 1835SOL     OW16963   0.922   2.578   7.720  0.3416  0.1211  0.5372
 1835SOL    HW116964   0.829   2.566   7.701  0.3614 -1.1986  1.2519
 1835SOL    HW216965   0.936   2.667   7.687 -0.1310 -0.6534 -1.7151
 1836SOL     OW16966   0.683   2.637   2.656  0.2514 -0.0153  0.1900
 1836SOL    HW116967   0.763   2.682   2.628  1.2297 -2.1983 -0.4855
 1836SOL    HW216968   0.698   2.628   2.750  0.1234 -0.2247  0.1890
 1837SOL     OW16969   4.219   1.716   4.276  0.3617  0.6532  0.3910
 1837SOL    HW116970   4.256   1.726   4.188  1.0790 -1.9422  0.4003
 1837SOL    HW216971   4.294   1.719   4.335  1.3219  0.5501 -0.8223
 1838SOL     OW16972   3.171   0.566   7.964  0.0416 -0.1446  0.4584
 1838SOL    HW116973   3.196   0.534   8.051  2.4079 -2.0577 -0.9180
 1838SOL    HW216974   3.249   0.539   7.915 -0.9580 -2.0108 -0.1172
 1839SOL     OW16975   0.736   4.261   6.047 -0.6713  0.0828 -0.5488
 1839SOL    HW116976   0.641   4.267   6.035 -0.3934  2.0204 -1.7476
 1839SOL    HW216977   0.723   4.181   6.097  1.9010  0.2313  0.3325
 1840SOL     OW16978   4.255   2.320   8.725 -0.4521 -0.8146 -0.3089
 1840SOL    HW116979   4.171   2.277   8.708 -1.5318  0.6523  1.3369
 1840SOL    HW216980   4.245   2.405   8.681 -0.9411 -0.5118  0.3864
 1841SOL     OW16981   1.573   0.116  15.834 -0.0425 -0.2572 -0.0058
 1841SOL    HW116982   1.554   0.105  15.741 -0.6548 -1.7353  0.3016
 1841SOL    HW216983   1.485   0.136  15.866  0.7166  1.9932  0.7139
 1842SOL     OW16984   3.635   1.236   2.244 -0.1560 -0.5508  0.1869
 1842SOL    HW116985   3.665   1.211   2.156 -1.1400  0.7407 -0.5116
 1842SOL    HW216986   3.662   1.156   2.289 -1.2408 -0.3308  1.2185
 1843SOL     OW16987   4.377   2.190   2.428  0.3638 -0.4628 -0.1057
 1843SOL    HW116988   4.309   2.166   2.365  1.3168  0.0237 -1.3210
 1843SOL    HW216989   4.364   2.120   2.492  0.9460 -1.0503 -0.6254
 1844SOL     OW16990   4.002   2.194   7.083 -0.8537  0.4243  0.3692
 1844SOL    HW116991   3.974   2.252   7.153 -0.2916  1.2741 -0.1130
 1844SOL    HW216992   4.032   2.123   7.141  0.4835 -0.0127 -0.8442
 1845SOL     OW16993   1.179   1.738   9.692 -0.0958  0.2033 -0.6244
 1845SOL    HW116994   1.274   1.746   9.698 -0.0101 -0.6959 -0.8459
 1845SOL    HW216995   1.161   1.672   9.759  1.3650  0.1978 -0.2335
 1846SOL     OW16996   3.032   4.384   3.232 -0.9894 -0.8417 -0.4523
 1846SOL    HW116997   3.102   4.403   3.170 -1.5198  0.3299 -0.7131
 1846SOL    HW216998   3.025   4.289   3.222  1.3431 -0.8413 -1.9914
 1847SOL     OW16999   2.574   1.231   4.315 -0.3084  0.4214  0.3234
 1847SOL    HW117000   2.544   1.288   4.244 -1.7187 -0.2043  0.4396
 1847SOL    HW217001   2.666   1.233   4.287  0.0016  0.3960  1.3461
 1848SOL     OW17002   2.801   1.483   9.834  0.3337 -0.8776  0.1177
 1848SOL    HW117003   2.867   1.545   9.866 -1.1417  1.4932 -1.4564
 1848SOL    HW217004   2.721   1.507   9.881  0.5305  2.7022 -1.4233
 1849SOL     OW17005   4.184   3.072  10.277 -0.6341  0.0817  0.1064
 1849SOL    HW117006   4.157   3.164  10.277  0.0824  0.2960  2.0660
 1849SOL    HW217007   4.249   3.075  10.347  2.2382 -0.9305 -2.5410
 1850SOL     OW17008   1.459   0.511   9.384 -0.3735 -0.2494 -0.1315
 1850SOL    HW117009   1.531   0.465   9.341  0.2196  1.2751 -0.7718
 1850SOL    HW217010   1.498   0.533   9.469  0.7151 -0.1014 -0.6611
 1851SOL     OW17011   1.614   3.690   0.142  0.6136 -0.1326  0.6569
 1851SOL    HW117012   1.681   3.721   0.204 -0.1826 -0.2985  1.6081
 1851SOL    HW217013   1.611   3.599   0.170 -1.2034  0.5527  2.7543
 1852SOL     OW17014   1.159   0.844  17.681 -0.2733 -0.5894 -0.6519
 1852SOL    HW117015   1.242   0.809   0.028  1.1021  2.0541 -1.3251
 1852SOL    HW217016   1.190   0.919  17.630  0.9343  0.6843  1.9177
 1853SOL     OW17017   3.706   0.458  14.954  0.2692 -0.4447  0.0834
 1853SOL    HW117018   3.678   0.544  14.987  1.5675  0.3832 -0.9590
 1853SOL    HW217019   3.615   0.430  14.949  0.0519  0.1958  0.4064
 1854SOL     OW17020   1.832   1.518   6.116 -0.8965 -0.0491  0.1109
 1854SOL    HW117021   1.923   1.538   6.094 -0.0259 -1.1656  2.6755
 1854SOL    HW217022   1.828   1.432   6.074  0.4895 -1.0530  2.0463
 1855SOL     OW17023   4.612   3.560  16.402  0.1518  0.6910 -0.4611
 1855SOL    HW117024   4.604   3.619  16.476  0.0367 -1.1960  1.0363
 1855SOL    HW217025   4.691   3.511  16.425 -0.8941 -1.1360 -0.7794
 1856SOL     OW17026   3.089   2.182   8.494 -0.5898  0.1924 -0.0072
 1856SOL    HW117027   3.075   2.140   8.578 -0.2724 -1.5340 -0.8079
 1856SOL    HW217028   3.184   2.169   8.487 -0.9626 -2.0933 -1.0025
 1857SOL     OW17029   3.230   2.119  13.344  0.0278  0.3671 -0.0377
 1857SOL    HW117030   3.163   2.090  13.406 -0.1679 -1.6587 -1.1706
 1857SOL    HW217031   3.272   2.036  13.320  1.1492  1.4025 -1.6320
 1858SOL     OW17032   1.758   3.891  10.246 -0.5859 -0.5148  0.3180
 1858SOL    HW117033   1.818   3.856  10.312 -1.1705  1.3887  1.8583
 1858SOL    HW217034   1.708   3.813  10.223 -2.7214  0.7522  0.6674
 1859SOL     OW17035   2.878   3.303   6.313  0.2694  0.4423 -0.1599
 1859SOL    HW117036   2.932   3.292   6.235  0.5213 -0.8978  0.2057
 1859SOL    HW217037   2.802   3.263   6.270 -0.1059  0.7785  0.1870
 1860SOL     OW17038   1.599   3.071   0.902  0.6704  0.3488 -0.0421
 1860SOL    HW117039   1.518   3.022   0.917  0.5841  1.0177  1.7525
 1860SOL    HW217040   1.578   3.124   0.825  4.4947 -0.0541 -1.3618
 1861SOL     OW17041   3.017   4.630  10.974 -0.4068  0.0066 -0.6763
 1861SOL    HW117042   3.107   4.654  10.995  0.1868 -1.8173 -1.1426
 1861SOL    HW217043   3.030   4.594  10.886 -1.8104 -0.4838 -0.6890
 1862SOL     OW17044   1.185   2.203   8.945 -0.9977  0.2172  0.2007
 1862SOL    HW117045   1.169   2.122   8.993 -2.6188  1.4300  1.7131
 1862SOL    HW217046   1.278   2.216   8.961 -0.8090 -2.1136  0.9840
 1863SOL     OW17047   1.935   2.748   7.286  0.1381  0.5113  0.2102
 1863SOL    HW117048   1.884   2.689   7.341  1.2328 -1.1186 -0.5172
 1863SOL    HW217049   2.023   2.713   7.299  0.7196  2.4845  1.4825
 1864SOL     OW17050   3.390   0.086   4.673  0.2243 -0.3259 -0.4007
 1864SOL    HW117051   3.413   0.074   4.765 -1.8852 -0.1517  0.1404
 1864SOL    HW217052   3.297   0.108   4.680  0.5961  1.2786 -0.6444
 1865SOL     OW17053   3.597   2.094  10.291  0.3510  0.1412 -0.2665
 1865SOL    HW117054   3.661   2.076  10.360 -1.5172 -0.6770  1.2550
 1865SOL    HW217055   3.644   2.061  10.214 -0.0260 -1.0105 -0.0066
 1866SOL     OW17056   0.718   2.222   6.980  0.4367  0.3978 -0.1488
 1866SOL    HW117057   0.775   2.212   7.057 -0.1979  0.9177  0.3942
 1866SOL    HW217058   0.780   2.176   6.924  3.0996  0.2892  2.9142
 1867SOL     OW17059   1.240   1.863   3.662  0.4090 -0.1169  0.0229
 1867SOL    HW117060   1.183   1.938   3.649 -0.6786 -0.8962  0.2244
 1867SOL    HW217061   1.214   1.816   3.582 -0.8051  1.2607 -0.3863
 1868SOL     OW17062   2.684   1.111   4.906 -0.1869 -0.1709  0.4292
 1868SOL    HW117063   2.726   1.194   4.882 -0.0754 -0.6816 -1.1455
 1868SOL    HW217064   2.682   1.112   5.002 -1.6183  1.1539  0.3866
 1869SOL     OW17065   2.167   4.524   6.104 -0.5575  0.7615 -0.2286
 1869SOL    HW117066   2.109   4.599   6.093 -0.6555  0.7482  0.2217
 1869SOL    HW217067   2.237   4.567   6.153  0.8764  0.7047 -2.2141
 1870SOL     OW17068   4.527   3.002   3.423  0.2237 -0.2809  0.0026
 1870SOL    HW117069   4.594   2.985   3.490 -0.1905 -0.4012  0.3877
 1870SOL    HW217070   4.453   3.021   3.481  0.2556 -0.0926 -0.0188
 1871SOL     OW17071   2.657   3.132  11.244  0.3033  0.8201  0.1474
 1871SOL    HW117072   2.594   3.192  11.283 -1.6741 -1.4211  0.3390
 1871SOL    HW217073   2.657   3.060  11.306  1.5816  0.2032 -0.5547
 1872SOL     OW17074   0.114   4.548   7.374  0.3907  0.1856  0.3049
 1872SOL    HW117075   0.086   4.573   7.286  0.8033 -0.6614 -0.0690
 1872SOL    HW217076   0.194   4.497   7.368 -1.7397 -3.3587  2.0234
 1873SOL     OW17077   1.478   0.781   1.969  0.1322 -0.4512 -0.0042
 1873SOL    HW117078   1.485   0.721   1.895 -2.1154 -0.3827 -0.2896
 1873SOL    HW217079   1.392   0.746   1.990 -0.6097  1.2172 -0.1922
 1874SOL     OW17080   0.536   1.201   5.298  0.2460  0.1303  0.0012
 1874SOL    HW117081   0.538   1.272   5.233 -0.2259  0.1928  0.0586
 1874SOL    HW217082   0.460   1.221   5.352 -1.4430 -0.0350 -2.3303
 1875SOL     OW17083   2.459   0.353   5.796 -0.5805  0.4670 -0.1207
 1875SOL    HW117084   2.468   0.284   5.861 -0.1733  2.3779  1.8788
 1875SOL    HW217085   2.366   0.363   5.773  0.2797  1.0782 -3.2913
 1876SOL     OW17086   4.085   3.303   1.010  0.0832  0.1014  0.0451
 1876SOL    HW117087   4.093   3.262   1.096  1.3617 -1.0617 -0.6280
 1876SOL    HW217088   4.160   3.362   1.002  0.6605 -0.4225  1.6538
 1877SOL     OW17089   4.076   0.351   2.260 -0.0996  0.9041  0.1394
 1877SOL    HW117090   4.091   0.266   2.218  2.3041  0.9680  0.8765
 1877SOL    HW217091   4.027   0.322   2.336  2.4657 -0.7499  1.1679
 1878SOL     OW17092   2.312   3.392   6.312  0.3679 -0.0362  0.3626
 1878SOL    HW117093   2.230   3.344   6.313  1.8000 -2.4858  1.0889
 1878SOL    HW217094   2.325   3.429   6.225 -0.3980 -1.9089 -0.5227
 1879SOL     OW17095   1.292   4.393  10.009 -0.1431  0.7379  0.2885
 1879SOL    HW117096   1.361   4.357   9.954 -0.0186 -0.2140  1.0616
 1879SOL    HW217097   1.321   4.483  10.021 -1.6858  1.2399  0.2412
 1880SOL     OW17098   4.578   3.403   4.582  0.6068  0.1613 -0.2864
 1880SOL    HW117099   4.507   3.464   4.562  1.7692  1.5167 -0.3131
 1880SOL    HW217100   4.630   3.396   4.502 -0.2576 -1.5400 -0.6870
 1881SOL     OW17101   1.358   4.105   2.866  0.0719  0.1195  0.4048
 1881SOL    HW117102   1.262   4.104   2.871  0.0709 -2.0412 -0.0601
 1881SOL    HW217103   1.378   4.045   2.795 -2.3325  0.6101 -0.7043
 1882SOL     OW17104   2.274   3.728   8.125  0.1903  0.4102 -0.5284
 1882SOL    HW117105   2.265   3.637   8.095  3.0784 -0.2976  0.7524
 1882SOL    HW217106   2.207   3.776   8.077  1.7584  0.7417 -2.3335
 1883SOL     OW17107   0.314   3.657   3.298 -0.1513  0.6536  0.7743
 1883SOL    HW117108   0.370   3.611   3.360 -0.8979  0.3756  1.2332
 1883SOL    HW217109   0.334   3.750   3.311 -3.1625  1.2808  0.8314
 1884SOL     OW17110   1.432   0.048   1.543 -0.1877 -0.7831  0.0403
 1884SOL    HW117111   1.521   0.033   1.511  0.2216 -1.2341  1.3729
 1884SOL    HW217112   1.454   0.056   1.636  0.9733  1.5346 -0.4195
 1885SOL     OW17113   2.065   2.048  16.259 -0.1329  0.5981 -0.0053
 1885SOL    HW117114   2.126   2.108  16.217 -0.2278  2.7289  2.8762
 1885SOL    HW217115   2.108   1.964  16.240  0.9985  0.9791  0.8627
 1886SOL     OW17116   4.268   0.599   0.139 -0.3327  0.4913 -0.3885
 1886SOL    HW117117   4.300   0.528   0.084  1.9019 -0.7913  2.5296
 1886SOL    HW217118   4.331   0.667   0.114  1.7432 -1.2940 -0.0384
 1887SOL     OW17119   0.098   2.669  17.330  0.5133  0.0692  0.0090
 1887SOL    HW117120   0.168   2.626  17.380  0.6932 -0.9676 -1.1248
 1887SOL    HW217121   0.142   2.738  17.280 -0.5577  1.2884  0.7523
 1888SOL     OW17122   3.663   3.308   8.886  0.2219  0.3083  0.0439
 1888SOL    HW117123   3.703   3.393   8.907 -0.2607  0.5266  0.0814
 1888SOL    HW217124   3.612   3.348   8.815 -1.0039  0.4345  0.9969
 1889SOL     OW17125   4.559   4.591   4.297  0.1777  0.0700  0.3087
 1889SOL    HW117126   4.524   4.623   4.214 -0.0257 -3.0046 -0.7886
 1889SOL    HW217127   4.652   4.583   4.276 -0.2404 -2.9618 -0.4138
 1890SOL     OW17128   2.976   2.280  13.661  0.1456  0.1732 -0.7690
 1890SOL    HW117129   2.959   2.199  13.614 -1.7132 -0.3699  0.8545
 1890SOL    HW217130   2.922   2.339  13.609 -1.3964  0.7250  1.4578
 1891SOL     OW17131   4.022   1.354   2.306  0.0329  0.5311  0.4603
 1891SOL    HW117132   4.089   1.328   2.368 -0.1992  0.1749  0.5670
 1891SOL    HW217133   3.976   1.274   2.279 -1.6847  2.0687 -1.2014
 1892SOL     OW17134   0.038   0.594   3.164  0.1307  0.0554  0.0658
 1892SOL    HW117135   0.110   0.610   3.225 -0.1317 -1.9893  0.9175
 1892SOL    HW217136   4.678   0.576   3.212  0.6880  0.5397  1.1920
 1893SOL     OW17137   1.021   4.487   6.343 -0.1294  0.4498 -0.5484
 1893SOL    HW117138   1.115   4.476   6.356 -0.2506  0.5354  0.3930
 1893SOL    HW217139   0.992   4.454   6.428  2.3290  0.2464  0.1971
 1894SOL     OW17140   1.135   4.594   8.946  0.1922 -0.7780 -1.0631
 1894SOL    HW117141   1.084   4.669   8.916  1.6925  0.7345  0.1846
 1894SOL    HW217142   1.108   4.592   9.038 -1.9248 -1.3397 -1.6785
 1895SOL     OW17143   0.314   0.600  11.154 -0.5244 -0.3280 -0.2118
 1895SOL    HW117144   0.287   0.535  11.220  0.9481 -0.3274  0.4002
 1895SOL    HW217145   0.238   0.616  11.099 -0.3129  1.9017  0.1714
 1896SOL     OW17146   4.343   3.922   4.791 -0.5716 -0.4357  0.3129
 1896SOL    HW117147   4.384   3.959   4.869 -1.8460  1.4826  0.0724
 1896SOL    HW217148   4.257   3.904   4.830 -0.9319 -0.1654 -0.3562
 1897SOL     OW17149   2.646   0.360   4.778 -0.3414  0.1598  0.3778
 1897SOL    HW117150   2.650   0.450   4.810  0.9306  0.0729  0.4351
 1897SOL    HW217151   2.595   0.376   4.698  2.7430 -1.9506 -2.0205
 1898SOL     OW17152   3.418   0.114   5.928 -0.4345 -0.2344  0.3886
 1898SOL    HW117153   3.469   0.141   6.005  1.3358 -0.9795 -0.5206
 1898SOL    HW217154   3.439   0.021   5.923 -0.1323 -0.2214  1.3690
 1899SOL     OW17155   1.938   0.956   6.766 -0.3142  0.1233 -0.5605
 1899SOL    HW117156   1.973   1.045   6.758  1.3793 -0.5202 -0.4750
 1899SOL    HW217157   1.877   0.968   6.693 -0.6526 -1.4534 -0.5349
 1900SOL     OW17158   1.839   2.047  13.551  0.1734  0.2620 -0.2848
 1900SOL    HW117159   1.746   2.066  13.561  0.4918  1.0763  1.1686
 1900SOL    HW217160   1.876   2.121  13.503 -1.1137  1.0438 -0.0722
 1901SOL     OW17161   4.320   3.595   2.165 -0.4318 -0.5552  0.2680
 1901SOL    HW117162   4.237   3.620   2.124 -1.0632  1.1994  2.5725
 1901SOL    HW217163   4.316   3.500   2.156 -2.0927 -0.5251  0.5290
 1902SOL     OW17164   0.440   3.967  15.716 -0.0846 -0.2789  0.2118
 1902SOL    HW117165   0.360   3.927  15.681  0.5632  0.1555 -1.7365
 1902SOL    HW217166   0.501   3.900  15.684 -0.7808 -0.4348 -0.7955
 1903SOL     OW17167   4.165   4.031  16.363  0.2560 -0.0792  0.1852
 1903SOL    HW117168   4.138   3.944  16.395 -0.1606 -0.5342 -1.4154
 1903SOL    HW217169   4.234   4.004  16.302 -0.6458 -1.5584 -0.1890
 1904SOL     OW17170   1.554   0.185   0.373 -0.5312 -0.7998  0.0519
 1904SOL    HW117171   1.579   0.276   0.357 -1.9161 -0.4674 -0.2843
 1904SOL    HW217172   1.492   0.172   0.301 -0.9041 -0.2428  0.2768
 1905SOL     OW17173   0.044   0.441  15.441 -0.0949 -0.1350 -0.4440
 1905SOL    HW117174   0.134   0.411  15.451  0.2098  0.4984 -1.3048
 1905SOL    HW217175   0.050   0.481  15.354 -0.2731 -0.8443 -0.7810
 1906SOL     OW17176   4.286   0.464   5.399 -0.0497 -0.1420  0.1352
 1906SOL    HW117177   4.332   0.506   5.326 -1.3992 -0.4987 -0.9009
 1906SOL    HW217178   4.250   0.545   5.434 -1.6470 -0.5059 -0.7074
 1907SOL     OW17179   2.221   4.352   4.508 -0.0951  0.2997  0.2589
 1907SOL    HW117180   2.235   4.268   4.553  0.3682  0.5537  0.5931
 1907SOL    HW217181   2.126   4.354   4.493 -0.0815  2.3563  0.4312
 1908SOL     OW17182   2.039   0.471   7.757 -0.2139 -0.1184  0.1630
 1908SOL    HW117183   1.995   0.391   7.787  1.0103 -0.8647 -0.0148
 1908SOL    HW217184   2.077   0.435   7.676 -1.0023 -0.7931  0.0980
 1909SOL     OW17185   2.663   1.208   7.948  0.6628 -0.3661 -0.0395
 1909SOL    HW117186   2.606   1.132   7.933 -0.5984  0.2494  1.6581
 1909SOL    HW217187   2.724   1.207   7.874 -1.0836  1.3608 -1.5265
 1910SOL     OW17188   1.991   2.555   9.738 -0.0092 -0.7754  0.3193
 1910SOL    HW117189   1.930   2.485   9.714  1.8472 -2.4057  0.3599
 1910SOL    HW217190   2.071   2.505   9.754 -0.5510 -1.1898  1.8078
 1911SOL     OW17191   0.369   1.352   6.760  0.3678 -0.0427  0.0253
 1911SOL    HW117192   0.370   1.431   6.706  0.2192 -1.7783 -2.5307
 1911SOL    HW217193   0.463   1.333   6.758  0.7552  2.1045 -2.2194
 1912SOL     OW17194   0.253   1.570   2.714 -0.8826 -0.3168  0.1961
 1912SOL    HW117195   0.276   1.655   2.676  1.9594 -1.6267 -1.0057
 1912SOL    HW217196   0.332   1.516   2.704 -0.4525 -0.1187  2.5251
 1913SOL     OW17197   0.427   3.819   9.342  0.1788  0.5794  0.3797
 1913SOL    HW117198   0.375   3.739   9.332 -0.2598  0.9582 -0.4351
 1913SOL    HW217199   0.511   3.797   9.301 -0.5397 -2.8581  0.7632
 1914SOL     OW17200   0.241   1.659  13.017 -0.2772  0.1598 -0.2333
 1914SOL    HW117201   0.157   1.636  13.058  0.2725 -0.0488  0.7594
 1914SOL    HW217202   0.237   1.755  13.013 -2.6500  0.1529  2.2648
 1915SOL     OW17203   2.280   3.075   6.691  0.6318 -0.3003 -0.3655
 1915SOL    HW117204   2.285   3.010   6.621  0.4057  1.4072 -1.9663
 1915SOL    HW217205   2.274   3.152   6.635 -1.7535  1.5962  2.4708
 1916SOL     OW17206   0.366   3.003  13.510  0.5959  0.2666  0.0837
 1916SOL    HW117207   0.398   3.031  13.424 -1.3066 -1.0361 -1.0512
 1916SOL    HW217208   0.399   3.063  13.576  0.9620 -0.0060  0.1504
 1917SOL     OW17209   3.313   1.542   7.969 -0.0790 -0.2620  0.2382
 1917SOL    HW117210   3.374   1.510   7.903  0.8685 -0.6047  1.2885
 1917SOL    HW217211   3.336   1.635   7.967  3.1291 -1.0577  0.9414
 1918SOL     OW17212   2.049   0.301   7.327  0.2533 -0.0926 -0.2111
 1918SOL    HW117213   2.027   0.393   7.314 -0.2244 -0.0740  0.7979
 1918SOL    HW217214   1.973   0.256   7.291 -0.3777  0.9205 -0.1127
 1919SOL     OW17215   2.697   4.601   9.151  1.1377 -0.1758  0.3215
 1919SOL    HW117216   2.673   4.541   9.221  0.2504  0.3250  0.4444
 1919SOL    HW217217   2.630   4.667   9.169  0.0199 -1.2140 -0.0367
 1920SOL     OW17218   2.069   2.117   7.543 -0.4431  0.4304 -0.2385
 1920SOL    HW117219   2.069   2.196   7.597 -1.2368 -0.0622  0.4677
 1920SOL    HW217220   2.163   2.108   7.522 -0.4185 -0.5760  0.3164
 1921SOL     OW17221   4.513   4.111  10.514  0.3395 -0.0761  0.0993
 1921SOL    HW117222   4.505   4.076  10.425 -0.0240 -0.4062  0.2631
 1921SOL    HW217223   4.436   4.168  10.511  0.4438 -0.0316 -1.5470
 1922SOL     OW17224   0.796   0.384   2.299 -0.4587  0.1916  0.0812
 1922SOL    HW117225   0.723   0.383   2.237 -0.9452  0.6222  0.6474
 1922SOL    HW217226   0.734   0.416   2.364  2.4717 -0.3492  3.0994
 1923SOL     OW17227   3.408   1.669  11.973 -0.1659  0.4768  0.1231
 1923SOL    HW117228   3.367   1.584  11.958  1.8467 -0.7363  1.4829
 1923SOL    HW217229   3.329   1.714  12.002  0.2032  0.0297  1.8458
 1924SOL     OW17230   3.719   2.597   5.519 -0.4522  0.4868 -0.7584
 1924SOL    HW117231   3.795   2.640   5.480 -0.6281  0.7011 -0.8641
 1924SOL    HW217232   3.676   2.672   5.560 -0.8955 -1.3311  2.0912
 1925SOL     OW17233   1.663   3.618   2.221  0.6024  0.6951 -0.3973
 1925SOL    HW117234   1.584   3.653   2.260 -0.2514  0.2788 -1.7406
 1925SOL    HW217235   1.650   3.615   2.126 -2.6425 -0.2283  0.1077
 1926SOL     OW17236   4.379   0.766   6.307  0.5437 -0.5262 -0.2656
 1926SOL    HW117237   4.428   0.732   6.232 -1.1805 -1.0429 -1.1349
 1926SOL    HW217238   4.421   0.716   6.378 -3.8484 -0.5928  2.3012
 1927SOL     OW17239   2.264   4.660   8.223  0.5654 -0.2830  0.4444
 1927SOL    HW117240   2.350   4.677   8.262  0.1291 -0.6256  1.5517
 1927SOL    HW217241   2.247   0.032   8.208 -1.6701 -1.0181 -1.5650
 1928SOL     OW17242   2.008   0.707   2.782  0.2832  0.4901  0.0962
 1928SOL    HW117243   1.992   0.800   2.767 -0.0380 -0.0843 -3.0799
 1928SOL    HW217244   1.917   0.679   2.790 -0.1738  1.8920 -0.3055
 1929SOL     OW17245   4.129   1.692  17.591  0.3278 -0.2701  0.0686
 1929SOL    HW117246   4.050   1.686  17.537  1.2055  0.2395 -1.2900
 1929SOL    HW217247   4.161   1.602  17.588 -0.9710 -0.7078 -0.8145
 1930SOL     OW17248   1.203   2.087   8.702 -0.4261  0.9384  0.0173
 1930SOL    HW117249   1.177   1.997   8.723  1.7096  0.4577  0.5941
 1930SOL    HW217250   1.179   2.139   8.778 -0.8241  1.3365 -0.3838
 1931SOL     OW17251   3.666   0.422   4.844 -0.7821  0.6467 -0.0391
 1931SOL    HW117252   3.677   0.331   4.815 -2.9982 -0.4192  2.5500
 1931SOL    HW217253   3.637   0.465   4.763 -3.3213 -1.1602 -0.0657
 1932SOL     OW17254   2.469   2.616   6.229  0.7125 -0.0029 -0.2782
 1932SOL    HW117255   2.391   2.659   6.262  0.7878  0.1446 -0.2949
 1932SOL    HW217256   2.453   2.521   6.225 -1.1608  0.3458 -0.8723
 1933SOL     OW17257   1.092   1.342   4.018 -0.3527  0.0053  0.1631
 1933SOL    HW117258   1.162   1.313   4.077  0.4735 -2.4228 -1.9737
 1933SOL    HW217259   1.079   1.436   4.027  2.5530  0.5266 -1.1549
 1934SOL     OW17260   0.961   1.961   6.721 -0.5442 -0.5671  0.2950
 1934SOL    HW117261   1.056   1.969   6.712 -0.6736  0.9684  0.1822
 1934SOL    HW217262   0.931   2.034   6.666  0.2725  1.2674  2.2829
 1935SOL     OW17263   1.180   1.099   6.118 -0.0160 -0.4050 -0.4222
 1935SOL    HW117264   1.163   1.161   6.189 -0.1429  0.3263 -1.0834
 1935SOL    HW217265   1.262   1.065   6.152  1.0180  1.6408 -0.8957
 1936SOL     OW17266   4.556   2.038  15.827 -0.3044 -0.0322  0.3745
 1936SOL    HW117267   4.594   2.044  15.915 -0.9871 -0.8110  0.7200
 1936SOL    HW217268   4.509   2.121  15.819  2.4603  1.6149  1.2837
 1937SOL     OW17269   4.709   0.064   4.534 -0.1137 -0.1909  0.3998
 1937SOL    HW117270   4.695   0.021   4.450 -2.3433  2.6964 -0.7056
 1937SOL    HW217271   0.012   0.152   4.503 -5.2614  1.1142  0.0898
 1938SOL     OW17272   2.924   0.450  11.334  0.1767  0.1009 -0.4317
 1938SOL    HW117273   2.902   0.500  11.413 -1.1594  0.0162 -0.7421
 1938SOL    HW217274   2.855   0.384  11.327 -0.9210  1.1391  0.4413
 1939SOL     OW17275   4.689   1.658   4.162  0.4906 -0.3014 -0.1226
 1939SOL    HW117276   0.022   1.652   4.083  0.9689 -0.6536  0.2292
 1939SOL    HW217277   4.668   1.750   4.180  0.7107 -0.2935  0.0975
 1940SOL     OW17278   4.492   0.958   0.430  0.0071 -0.2726 -0.0500
 1940SOL    HW117279   4.538   0.915   0.357  0.2979 -0.0446  0.0020
 1940SOL    HW217280   4.523   1.047   0.413  4.5904 -1.6101  1.2322
 1941SOL     OW17281   2.276   3.192   8.612 -0.0136  0.0874  0.1203
 1941SOL    HW117282   2.258   3.135   8.537  0.8827  0.6221 -0.5080
 1941SOL    HW217283   2.187   3.204   8.645 -1.2143 -0.4184 -2.9128
 1942SOL     OW17284   2.182   3.914   6.420 -0.4140  0.2959  0.0310
 1942SOL    HW117285   2.120   3.841   6.428  0.7303 -0.8384 -1.4694
 1942SOL    HW217286   2.175   3.953   6.507  2.1360  0.6129  0.0756
 1943SOL     OW17287   3.295   2.743   5.267 -0.0922  0.0790  0.0118
 1943SOL    HW117288   3.353   2.786   5.331 -2.5595  0.5761  1.9047
 1943SOL    HW217289   3.350   2.671   5.238 -0.9875  1.2247 -4.5034
 1944SOL     OW17290   1.002   1.098   2.040  0.5384 -0.3375 -0.1107
 1944SOL    HW117291   1.004   1.065   1.950 -1.3568  0.9945 -0.6420
 1944SOL    HW217292   1.072   1.163   2.032  0.2299 -0.3109 -2.5241
 1945SOL     OW17293   3.529   1.576   8.412  0.1677  0.4005 -0.3051
 1945SOL    HW117294   3.476   1.497   8.405 -3.9336  3.2618 -2.1426
 1945SOL    HW217295   3.513   1.616   8.497 -3.9003  0.0635 -0.9210
 1946SOL     OW17296   1.898   1.170   6.323  0.1889  0.3463 -0.1036
 1946SOL    HW117297   1.875   1.100   6.262  1.2122 -1.2125  1.2919
 1946SOL    HW217298   1.990   1.184   6.304 -0.7643  2.3564 -3.1707
 1947SOL     OW17299   2.200   4.318  13.421 -0.1256  0.0062  0.0416
 1947SOL    HW117300   2.126   4.359  13.377 -0.4380  0.3419  0.8814
 1947SOL    HW217301   2.201   4.378  13.497 -1.1495 -1.9257  1.5699
 1948SOL     OW17302   4.410   2.147   5.751  0.2270 -0.7289 -0.4094
 1948SOL    HW117303   4.360   2.126   5.830  0.9528 -4.7358 -1.0206
 1948SOL    HW217304   4.492   2.189   5.776  1.1694 -0.6421 -3.6516
 1949SOL     OW17305   4.443   1.966  12.355  0.3900  0.4079 -0.1902
 1949SOL    HW117306   4.472   1.976  12.264  1.4657 -0.3438  0.0707
 1949SOL    HW217307   4.513   1.913  12.392 -1.7314 -0.3621  2.6993
 1950SOL     OW17308   3.582   4.159  11.135 -0.0251 -0.4767  0.1817
 1950SOL    HW117309   3.656   4.220  11.135 -0.8401  0.5421 -1.4818
 1950SOL    HW217310   3.574   4.141  11.041  0.6375 -2.1319  0.4583
 1951SOL     OW17311   2.375   4.377   6.925  0.2770  0.0384  0.0642
 1951SOL    HW117312   2.355   4.416   6.839  1.8297  0.0112 -0.3210
 1951SOL    HW217313   2.436   4.313   6.888  1.1246  1.0686 -0.3559
 1952SOL     OW17314   1.382   3.311   2.770 -0.5095  0.2611  0.0904
 1952SOL    HW117315   1.401   3.259   2.848  0.8776  1.7798  0.7694
 1952SOL    HW217316   1.465   3.358   2.758 -1.2769  1.4027 -0.7775
 1953SOL     OW17317   0.921   1.477  14.337  0.0701 -0.3030  0.4056
 1953SOL    HW117318   0.948   1.512  14.252  0.9795 -1.4446  0.2237
 1953SOL    HW217319   0.855   1.544  14.356 -1.6762 -2.1368  0.9246
 1954SOL     OW17320   0.754   0.936  15.033 -0.2739  0.3607  0.5998
 1954SOL    HW117321   0.836   0.905  14.995 -0.9548 -0.2542 -0.3881
 1954SOL    HW217322   0.706   0.954  14.951  0.1333 -2.1009 -0.1707
 1955SOL     OW17323   3.720   0.532   7.440 -0.2005 -0.5900  0.0561
 1955SOL    HW117324   3.785   0.548   7.508  0.7583  1.4971 -1.3777
 1955SOL    HW217325   3.743   0.444   7.410 -1.1608 -1.1029  0.8388
 1956SOL     OW17326   1.455   3.532   5.176 -0.0383 -0.1165 -0.1462
 1956SOL    HW117327   1.382   3.475   5.203  0.8977 -1.5589 -0.6620
 1956SOL    HW217328   1.518   3.462   5.157  1.7883  1.5400 -0.1551
 1957SOL     OW17329   2.688   3.440   0.634  0.0879 -0.0241  0.1504
 1957SOL    HW117330   2.682   3.484   0.719  2.2953  0.9387 -0.1886
 1957SOL    HW217331   2.683   3.346   0.650 -2.7756  0.4318  2.0416
 1958SOL     OW17332   3.048   0.230   3.911  0.1549  0.0835  0.4850
 1958SOL    HW117333   3.092   0.168   3.969  1.5453 -1.5204 -2.2562
 1958SOL    HW217334   3.122   0.284   3.883  1.1605 -0.9398  1.1786
 1959SOL     OW17335   4.441   0.926  16.351 -0.3516 -0.1018  0.4814
 1959SOL    HW117336   4.518   0.962  16.395 -0.9698 -0.9913  2.3216
 1959SOL    HW217337   4.435   0.986  16.277 -1.7159 -1.1589 -0.2578
 1960SOL     OW17338   3.673   2.839   8.423  0.0732  0.1784  0.1064
 1960SOL    HW117339   3.687   2.835   8.517  0.3857 -0.7006  0.0211
 1960SOL    HW217340   3.760   2.835   8.385  1.3571  1.4925  2.9152
 1961SOL     OW17341   3.099   3.497   3.973  0.2313 -0.2658  0.2153
 1961SOL    HW117342   3.142   3.467   4.054  0.9701  0.6018  0.1365
 1961SOL    HW217343   3.014   3.452   3.976  0.4213 -0.5567  1.4733
 1962SOL     OW17344   0.609   1.582   5.456  0.2149  0.0142  0.4991
 1962SOL    HW117345   0.640   1.632   5.531 -2.7962  2.1131  0.3291
 1962SOL    HW217346   0.651   1.613   5.375 -0.1826 -1.4272 -0.2725
 1963SOL     OW17347   4.706   3.385   3.416  0.8696  1.1589  0.0320
 1963SOL    HW117348   4.681   3.330   3.342  0.8848 -0.7239  1.3971
 1963SOL    HW217349   0.049   3.336   3.468  0.0753  0.3341  0.2267
 1964SOL     OW17350   2.314   1.112   6.859 -0.6239  0.3221  0.1963
 1964SOL    HW117351   2.276   1.106   6.947 -1.5714 -0.9810 -0.2985
 1964SOL    HW217352   2.235   1.155   6.825  1.2656  2.7997 -1.0296
 1965SOL     OW17353   1.985   3.865   1.485 -0.2655  0.2311 -0.3450
 1965SOL    HW117354   2.006   3.774   1.465  0.5924  0.0616  1.2928
 1965SOL    HW217355   1.997   3.912   1.403  0.7355  0.1580 -0.2446
 1966SOL     OW17356   2.435   3.668   6.450 -0.2987  0.3770  0.2177
 1966SOL    HW117357   2.361   3.612   6.424  1.6110 -1.1865 -1.8518
 1966SOL    HW217358   2.506   3.634   6.395  0.8382 -1.5198  2.8278
 1967SOL     OW17359   0.435   0.714   2.502  0.1018  0.2576  0.5187
 1967SOL    HW117360   0.411   0.675   2.417  1.9046 -0.1102  0.1873
 1967SOL    HW217361   0.445   0.807   2.484  0.1286 -0.1635 -1.6363
 1968SOL     OW17362   0.961   0.917   4.153 -0.4408 -0.6866  0.0768
 1968SOL    HW117363   0.939   0.828   4.183 -0.3983  0.0057  2.1456
 1968SOL    HW217364   0.995   0.897   4.066 -1.0684  0.6249 -0.4606
 1969SOL     OW17365   3.180   0.439  16.875 -0.0011  0.3344 -0.3118
 1969SOL    HW117366   3.226   0.510  16.830  0.7472 -0.1422 -0.2999
 1969SOL    HW217367   3.164   0.486  16.958 -1.3750 -0.0697 -0.3512
 1970SOL     OW17368   4.719   2.882   3.915  0.1396 -0.4307 -0.2283
 1970SOL    HW117369   0.031   2.964   3.877 -0.9560 -0.4357 -1.1837
 1970SOL    HW217370   4.669   2.914   3.990  1.1057  0.3620  0.0678
 1971SOL     OW17371   1.588   3.625   1.306  0.5793 -0.1935  0.0038
 1971SOL    HW117372   1.598   3.607   1.400  0.6647  1.7934  0.3659
 1971SOL    HW217373   1.514   3.684   1.295  0.2808 -0.7249 -0.8147
 1972SOL     OW17374   0.080   0.582  16.160 -0.2705 -0.1122  0.2274
 1972SOL    HW117375   0.156   0.585  16.102  0.2801  0.8796  0.9988
 1972SOL    HW217376   0.005   0.555  16.107 -1.3967 -3.0273  3.2390
 1973SOL     OW17377   3.986   3.543   6.262  0.6131  0.4469  0.0419
 1973SOL    HW117378   3.892   3.528   6.273  0.8427 -2.2400 -1.5525
 1973SOL    HW217379   4.017   3.458   6.231 -0.0373  0.9738 -2.0161
 1974SOL     OW17380   2.852   0.029  10.723  0.3270  0.6526 -0.5265
 1974SOL    HW117381   2.915   4.678  10.717  0.8383  1.2172 -1.7649
 1974SOL    HW217382   2.915   0.095  10.753 -0.0565  0.2368  1.2427
 1975SOL     OW17383   3.283   3.107   2.024 -0.6212  0.0355 -0.1656
 1975SOL    HW117384   3.350   3.166   1.989 -0.0237  0.5138  1.8094
 1975SOL    HW217385   3.308   3.089   2.114 -2.2889  0.6291  0.4101
 1976SOL     OW17386   0.765   2.320   0.337  0.0008 -0.5168  0.2318
 1976SOL    HW117387   0.858   2.328   0.317 -0.5400 -0.5052 -2.3646
 1976SOL    HW217388   0.767   2.225   0.326 -0.6391 -0.7306  1.9854
 1977SOL     OW17389   4.327   0.130   7.105 -0.1770  0.5196 -0.6894
 1977SOL    HW117390   4.331   0.161   7.014 -1.6403  1.7688 -0.3104
 1977SOL    HW217391   4.267   0.056   7.097 -0.8363  1.1026 -1.1150
 1978SOL     OW17392   3.183   4.209  10.380 -0.2598 -0.3439 -0.2835
 1978SOL    HW117393   3.165   4.205  10.286  1.2070  0.0767 -0.5731
 1978SOL    HW217394   3.133   4.136  10.417  1.0455 -0.5119  1.1362
 1979SOL     OW17395   4.393   3.755   6.315 -0.2047  0.2107 -0.1864
 1979SOL    HW117396   4.464   3.737   6.254  1.2678  1.1627  1.2325
 1979SOL    HW217397   4.369   3.845   6.293  1.3847  0.9220  0.9980
 1980SOL     OW17398   4.709   3.132   5.649  0.3114  0.3795 -0.1713
 1980SOL    HW117399   0.068   3.147   5.700  0.2732 -0.1871  0.0494
 1980SOL    HW217400   4.683   3.042   5.666 -0.6973  0.5812 -0.6664
 1981SOL     OW17401   3.123   2.823   3.767 -0.5241  0.7439 -0.1373
 1981SOL    HW117402   3.110   2.907   3.724 -0.3310  0.4236 -0.8251
 1981SOL    HW217403   3.077   2.845   3.848 -0.8280  1.3747 -0.4816
 1982SOL     OW17404   0.423   0.149   2.099  0.3011 -0.5224  0.1326
 1982SOL    HW117405   0.370   0.080   2.138  0.0980 -0.6838 -0.4215
 1982SOL    HW217406   0.411   0.120   2.008 -0.1458  0.0376  0.0114
 1983SOL     OW17407   1.657   4.248   4.652 -0.1130 -0.2253  0.7809
 1983SOL    HW117408   1.589   4.204   4.704 -1.5307  1.6584  0.4939
 1983SOL    HW217409   1.610   4.325   4.621 -1.2191 -1.1970  0.0342
 1984SOL     OW17410   3.396   4.312   4.672 -0.3045  0.0817 -0.3621
 1984SOL    HW117411   3.452   4.334   4.598  0.4836 -2.2708 -0.4699
 1984SOL    HW217412   3.356   4.396   4.695 -1.7031 -1.5000  2.9751
 1985SOL     OW17413   1.176   2.580   5.434 -0.0958  0.0890 -0.5298
 1985SOL    HW117414   1.152   2.640   5.364 -1.8391 -1.8069 -1.5410
 1985SOL    HW217415   1.099   2.523   5.437  1.4672 -1.8759  2.7591
 1986SOL     OW17416   1.225   1.318   8.739 -0.6260 -0.0484  0.1365
 1986SOL    HW117417   1.223   1.391   8.677  0.6528 -1.1223 -1.1727
 1986SOL    HW217418   1.141   1.334   8.782  0.6367  1.4714  2.0816
 1987SOL     OW17419   4.429   0.312   8.663 -0.2534 -0.0882  0.0240
 1987SOL    HW117420   4.402   0.403   8.674  0.1466 -0.0369  0.5922
 1987SOL    HW217421   4.518   0.321   8.696 -0.8574 -2.0960  2.2292
 1988SOL     OW17422   2.286   2.597   1.740 -0.3665  0.0257 -0.3938
 1988SOL    HW117423   2.297   2.503   1.747 -0.3909  0.0941  0.5071
 1988SOL    HW217424   2.276   2.613   1.646 -2.1267  0.3997 -0.1518
 1989SOL     OW17425   2.006   0.936   3.061  0.0045 -0.1093  0.3535
 1989SOL    HW117426   2.075   0.894   3.009 -1.3471 -2.2954  0.3681
 1989SOL    HW217427   2.047   1.015   3.098 -0.4521  0.5155 -0.4859
 1990SOL     OW17428   2.174   2.909   4.058  0.2818  0.3491 -0.3650
 1990SOL    HW117429   2.178   2.991   4.107 -3.2119  0.5574 -0.4469
 1990SOL    HW217430   2.087   2.873   4.075  1.6333 -2.5786  0.2970
 1991SOL     OW17431   1.417   3.700   2.313 -0.1468  0.1024 -0.7619
 1991SOL    HW117432   1.415   3.647   2.392  0.6383  0.0189 -0.8016
 1991SOL    HW217433   1.391   3.785   2.350 -1.3044 -0.3358 -0.5731
 1992SOL     OW17434   3.778   4.203   1.646 -0.3768 -0.0261 -0.2518
 1992SOL    HW117435   3.741   4.161   1.568  1.5968  0.1039 -1.2546
 1992SOL    HW217436   3.752   4.295   1.639 -0.3651 -0.1453 -1.8175
 1993SOL     OW17437   1.449   4.342   1.915 -0.3802  0.4659 -0.3668
 1993SOL    HW117438   1.499   4.352   1.834 -1.5253 -2.6821 -1.4576
 1993SOL    HW217439   1.363   4.311   1.885 -0.7972 -0.3546  1.6998
 1994SOL     OW17440   3.198   0.455   4.220  0.3242  0.0485 -0.2577
 1994SOL    HW117441   3.109   0.466   4.187 -0.0769  0.1968  0.9000
 1994SOL    HW217442   3.199   0.501   4.304  0.0465 -0.8357  0.2336
 1995SOL     OW17443   0.536   2.865   8.784  0.3225  0.2055  0.4890
 1995SOL    HW117444   0.475   2.933   8.754 -0.5928 -1.3403 -1.1634
 1995SOL    HW217445   0.528   2.805   8.710  0.3737  0.4145  0.3144
 1996SOL     OW17446   1.670   2.695   4.707 -0.5020 -0.1576  0.4905
 1996SOL    HW117447   1.744   2.685   4.648 -0.3983 -0.0694  0.6056
 1996SOL    HW217448   1.713   2.691   4.793  1.7088 -1.0189 -0.6759
 1997SOL     OW17449   3.843   3.436   8.135 -0.0099  0.9246  0.1914
 1997SOL    HW117450   3.934   3.409   8.144  0.0425  1.4038  1.1401
 1997SOL    HW217451   3.846   3.524   8.172 -0.3334  0.2140  1.9337
 1998SOL     OW17452   2.746   2.689  14.318  0.6078 -0.1920 -0.3967
 1998SOL    HW117453   2.731   2.749  14.246  1.8265  1.4370  0.7072
 1998SOL    HW217454   2.695   2.725  14.390  0.2030 -2.0925  0.2854
 1999SOL     OW17455   2.829   0.338   9.312 -0.3323 -0.2618  0.1323
 1999SOL    HW117456   2.893   0.409   9.319 -1.2307  0.8239 -2.5996
 1999SOL    HW217457   2.881   0.259   9.297 -3.3834 -2.1016 -0.8075
 2000SOL     OW17458   0.051   1.872  15.813 -0.2690  0.3173 -0.4587
 2000SOL    HW117459   4.680   1.893  15.796  0.3140  2.5469 -0.7982
 2000SOL    HW217460   0.084   1.872  15.723  0.6164 -1.4274 -0.1414
 2001SOL     OW17461   2.932   3.960   0.213 -0.3799  0.1714  0.3153
 2001SOL    HW117462   2.947   3.888   0.274 -1.1870  0.8709  1.3494
 2001SOL    HW217463   2.915   4.033   0.273 -0.1335  0.3108  0.2158
 2002SOL     OW17464   3.942   3.863   1.342  0.3700  0.2335  0.1411
 2002SOL    HW117465   3.857   3.887   1.306  0.3313 -1.1590 -0.6729
 2002SOL    HW217466   3.989   3.944   1.318 -1.8282  0.9888 -1.6398
 2003SOL     OW17467   4.645   1.997  16.083  0.0042  0.0304  0.2100
 2003SOL    HW117468   4.713   1.972  16.146 -2.0064 -0.6220  2.1456
 2003SOL    HW217469   4.614   1.908  16.066 -1.7971  0.4090  1.5499
 2004SOL     OW17470   0.304   4.038   6.545 -0.1879  0.0186 -0.1191
 2004SOL    HW117471   0.241   4.108   6.561  1.4510  2.0824 -2.7694
 2004SOL    HW217472   0.237   3.969   6.539 -0.1211  0.1588 -2.2918
 2005SOL     OW17473   4.296   2.977   7.106 -0.3106 -0.3327  0.2061
 2005SOL    HW117474   4.373   2.953   7.054 -0.2008  0.1900  0.1303
 2005SOL    HW217475   4.338   3.022   7.179 -0.3940  1.2031 -0.6850
 2006SOL     OW17476   4.243   2.681   7.018 -0.1222 -0.3992 -0.0469
 2006SOL    HW117477   4.327   2.637   7.027 -0.2908 -0.2472  2.1844
 2006SOL    HW217478   4.224   2.667   6.925  2.0955 -0.4724 -0.4748
 2007SOL     OW17479   0.965   2.301   4.151  0.2051  0.0501  0.0231
 2007SOL    HW117480   0.884   2.259   4.180  0.2223  0.2844  0.3979
 2007SOL    HW217481   0.940   2.392   4.167  0.9012  0.3780 -0.7444
 2008SOL     OW17482   1.623   3.395   0.245  0.3545  0.5441 -0.2623
 2008SOL    HW117483   1.630   3.437   0.331  2.1146  1.5613 -0.9004
 2008SOL    HW217484   1.635   3.302   0.267 -2.4051  0.4403  0.8385
 2009SOL     OW17485   0.910   2.340  16.166 -0.1110  0.1818 -0.2807
 2009SOL    HW117486   0.909   2.429  16.202  0.6795  0.2313 -0.3662
 2009SOL    HW217487   0.840   2.302  16.219 -0.4753  0.1491 -0.7931
 2010SOL     OW17488   2.499   2.825   5.793  0.7976  0.0117  0.1438
 2010SOL    HW117489   2.475   2.788   5.708 -0.4488 -0.7239  0.8156
 2010SOL    HW217490   2.489   2.748   5.850  0.0700 -0.0891 -0.1118
 2011SOL     OW17491   2.841   3.397   4.962  1.1156 -0.2666 -0.3809
 2011SOL    HW117492   2.851   3.352   4.878 -0.7694  1.4041 -1.5297
 2011SOL    HW217493   2.919   3.363   5.004  0.8811  0.2830  0.4962
 2012SOL     OW17494   1.481   0.754   8.903  0.1570  0.2820 -1.2451
 2012SOL    HW117495   1.543   0.827   8.897 -1.4038  1.5795 -1.4575
 2012SOL    HW217496   1.543   0.681   8.910 -1.1792 -0.5436  1.5447
 2013SOL     OW17497   1.547   1.348   3.202  0.4609 -0.0396  0.4643
 2013SOL    HW117498   1.618   1.307   3.153 -1.9546 -3.3538 -0.2574
 2013SOL    HW217499   1.575   1.346   3.293  1.2703 -0.3662  0.2081
 2014SOL     OW17500   4.290   3.073  17.431  0.5335  0.7352  0.0429
 2014SOL    HW117501   4.338   3.072  17.349 -0.4347  1.0576 -0.5334
 2014SOL    HW217502   4.307   2.991  17.478 -0.7187 -0.6362 -1.8787
 2015SOL     OW17503   0.584   1.418   4.209 -0.1072  0.1825  0.1224
 2015SOL    HW117504   0.670   1.384   4.183  0.1321 -0.6403  1.9922
 2015SOL    HW217505   0.542   1.365   4.142  1.0673 -1.0744  0.3868
 2016SOL     OW17506   2.439   0.694   0.032  0.0880  0.7136 -0.0195
 2016SOL    HW117507   2.365   0.738   0.074 -0.4239  0.2819 -0.4651
 2016SOL    HW217508   2.412   0.606   0.005  0.2247  0.3611  0.9696
 2017SOL     OW17509   0.536   0.973  16.616 -0.3123 -0.2101  0.3724
 2017SOL    HW117510   0.519   0.879  16.613  2.7811 -0.7390 -0.8934
 2017SOL    HW217511   0.507   0.998  16.704  0.1731  3.1067 -0.4311
 2018SOL     OW17512   0.985   2.976   7.174 -0.0876  0.0156 -0.9316
 2018SOL    HW117513   0.974   3.025   7.255  1.7483 -1.5005  0.2050
 2018SOL    HW217514   1.080   2.970   7.171  0.0454  0.2628  3.6833
 2019SOL     OW17515   1.502   1.931   5.967 -0.1261 -0.1018  0.4539
 2019SOL    HW117516   1.554   1.887   5.900 -0.2898  0.9962 -0.3789
 2019SOL    HW217517   1.429   1.870   5.975  0.9167 -1.3494  0.3539
 2020SOL     OW17518   4.592   2.505   4.441 -0.1719  0.3949 -0.0061
 2020SOL    HW117519   4.559   2.430   4.391 -2.8625  1.3138  0.4512
 2020SOL    HW217520   4.579   2.572   4.374 -1.1383  0.1747 -0.0366
 2021SOL     OW17521   0.524   3.778   3.841 -0.0565  0.2743 -0.1396
 2021SOL    HW117522   0.607   3.767   3.794 -0.4996  0.4043 -0.9479
 2021SOL    HW217523   0.474   3.850   3.804  0.0444 -0.5230 -1.8239
 2022SOL     OW17524   4.266   4.181   2.797  0.3108 -0.8687  0.0378
 2022SOL    HW117525   4.257   4.168   2.702  1.7173 -2.4362  0.1398
 2022SOL    HW217526   4.351   4.223   2.811 -0.1619 -0.1266  0.7034
 2023SOL     OW17527   0.693   4.576   9.904 -0.1032  0.0757  0.3564
 2023SOL    HW117528   0.720   4.667   9.889 -1.2525  0.2073 -0.9060
 2023SOL    HW217529   0.781   4.539   9.898 -0.1599  0.1060 -0.7539
 2024SOL     OW17530   2.465   1.203   6.448 -0.0292  0.4515  0.3615
 2024SOL    HW117531   2.515   1.125   6.470  0.6520  0.4793 -1.0679
 2024SOL    HW217532   2.496   1.269   6.510 -1.6556  1.1555  0.4118
 2025SOL     OW17533   4.491   4.120   1.275 -0.1710 -0.0858 -0.1853
 2025SOL    HW117534   4.470   4.125   1.182 -3.2179  1.3119  0.5859
 2025SOL    HW217535   4.587   4.127   1.274 -0.0257 -1.8911 -0.0089
 2026SOL     OW17536   0.503   0.772   7.934  0.3730  0.0119  0.6074
 2026SOL    HW117537   0.547   0.851   7.901 -3.1256  1.2789 -1.0843
 2026SOL    HW217538   0.467   0.810   8.014 -3.1817  1.2164 -1.5822
 2027SOL     OW17539   4.102   1.357  16.336 -0.2528  0.5369 -0.1604
 2027SOL    HW117540   4.185   1.389  16.299 -0.3579 -0.0962 -0.9510
 2027SOL    HW217541   4.031   1.406  16.295 -1.1668 -1.2163 -0.6724
 2028SOL     OW17542   1.032   2.502   2.071  0.1188 -0.4431  0.0153
 2028SOL    HW117543   1.050   2.462   1.986  1.2997 -0.0913  0.0982
 2028SOL    HW217544   1.106   2.475   2.124 -0.8947  0.5304  1.9344
 2029SOL     OW17545   2.483   3.770   2.295  0.1879  0.2978  0.0613
 2029SOL    HW117546   2.517   3.686   2.262 -0.4226 -0.3088  0.9670
 2029SOL    HW217547   2.388   3.758   2.287 -0.1110  3.1690 -0.4698
 2030SOL     OW17548   0.281   4.663  12.829  0.1574  0.4437  0.3988
 2030SOL    HW117549   0.200   4.611  12.833 -0.3276  1.0730 -1.1303
 2030SOL    HW217550   0.249   0.029  12.852 -4.9523 -1.7355  1.6006
 2031SOL     OW17551   4.344   0.619   5.183 -0.1504 -0.6218  0.0324
 2031SOL    HW117552   4.281   0.689   5.168  0.0226 -0.5473 -0.3260
 2031SOL    HW217553   4.367   0.590   5.095  2.2835 -1.6104  0.9740
 2032SOL     OW17554   0.817   1.403   2.905  0.2247  0.2073  0.1338
 2032SOL    HW117555   0.733   1.358   2.910  1.3391 -1.7209  1.4540
 2032SOL    HW217556   0.815   1.452   2.822 -0.1687 -1.8571 -1.0869
 2033SOL     OW17557   3.187   3.994   9.870  0.8411  0.0713  1.1398
 2033SOL    HW117558   3.272   4.029   9.895  1.4856 -0.1997 -0.6631
 2033SOL    HW217559   3.150   4.008   9.957 -1.0683 -1.9000  0.6611
 2034SOL     OW17560   2.186   1.040  15.906  0.0563 -0.3697  0.1312
 2034SOL    HW117561   2.222   1.090  15.833 -0.1150 -0.2076  0.1588
 2034SOL    HW217562   2.105   1.010  15.865  2.6173 -2.4585 -3.3476
 2035SOL     OW17563   0.487   2.127   6.155  0.1026  0.2467  0.2600
 2035SOL    HW117564   0.432   2.171   6.090  1.3678  0.4555 -0.6841
 2035SOL    HW217565   0.541   2.067   6.103 -0.0855  1.1746 -1.0066
 2036SOL     OW17566   4.247   0.890   1.742  0.1326  0.0752 -0.1813
 2036SOL    HW117567   4.234   0.813   1.687 -0.2397  0.2503 -0.3344
 2036SOL    HW217568   4.251   0.848   1.829  0.2509  0.5629  0.0486
 2037SOL     OW17569   3.087   0.632   8.539  1.0516 -0.1771 -0.1925
 2037SOL    HW117570   3.019   0.634   8.606  1.0411  1.0659 -0.2428
 2037SOL    HW217571   3.107   0.539   8.544  1.4162 -0.2465 -2.9893
 2038SOL     OW17572   3.610   1.242   6.948  0.2979  0.1057  0.9874
 2038SOL    HW117573   3.662   1.188   6.889  0.6531 -0.7090  2.0357
 2038SOL    HW217574   3.520   1.224   6.921  0.8823 -0.0455 -0.8349
 2039SOL     OW17575   3.308   0.355   0.387 -0.2323  0.4121  0.3916
 2039SOL    HW117576   3.368   0.378   0.315 -0.9599  3.4026  0.7202
 2039SOL    HW217577   3.257   0.290   0.339  1.9358 -2.6626  2.2641
 2040SOL     OW17578   4.710   1.092   4.836  0.1401 -0.0819 -0.7498
 2040SOL    HW117579   0.005   1.184   4.856 -0.7989 -0.1604  0.3652
 2040SOL    HW217580   4.621   1.076   4.868  0.3085 -0.9058 -0.6844
 2041SOL     OW17581   1.533   3.902   7.954 -1.0545  0.7000  0.4071
 2041SOL    HW117582   1.547   3.973   7.891  1.7148 -0.1803  0.0167
 2041SOL    HW217583   1.612   3.900   8.008 -0.1936  0.5221 -0.8601
 2042SOL     OW17584   0.913   0.511   6.306 -0.1089 -0.0482  0.1052
 2042SOL    HW117585   0.998   0.487   6.269  0.4922  0.4191  1.1572
 2042SOL    HW217586   0.855   0.467   6.245 -0.6779 -2.1104  2.1322
 2043SOL     OW17587   1.054   4.077   0.818 -0.6499 -0.3713 -0.0322
 2043SOL    HW117588   1.104   4.132   0.877 -1.4248  1.4408 -1.0482
 2043SOL    HW217589   1.013   4.018   0.881 -1.1754 -2.1035 -1.9698
 2044SOL     OW17590   2.699   2.074   4.179  0.3306  0.1084 -0.6554
 2044SOL    HW117591   2.651   2.043   4.256  1.5215 -0.3695 -0.1067
 2044SOL    HW217592   2.747   2.149   4.212  0.1950 -0.6523  1.2275
 2045SOL     OW17593   2.748   3.683  12.061  0.5305 -0.4687  0.4129
 2045SOL    HW117594   2.694   3.605  12.046 -0.4530  0.1558  0.7169
 2045SOL    HW217595   2.806   3.682  11.985 -0.0827  3.7427 -0.0887
 2046SOL     OW17596   1.052   0.602  10.426  0.0735 -0.2064 -0.0742
 2046SOL    HW117597   1.046   0.518  10.381  0.7216 -0.3110  0.0352
 2046SOL    HW217598   0.962   0.632  10.431 -0.5617 -2.4515  1.6060
 2047SOL     OW17599   2.885   2.695   0.766 -0.0966  0.4727 -0.3802
 2047SOL    HW117600   2.909   2.712   0.857 -0.3429  1.2277 -0.4504
 2047SOL    HW217601   2.930   2.765   0.719 -1.1797  0.5113 -1.3718
 2048SOL     OW17602   3.323   4.608   4.295  0.2481 -0.2182  0.2801
 2048SOL    HW117603   3.304   4.571   4.382 -1.1828  1.7733  0.8082
 2048SOL    HW217604   3.396   4.670   4.308  1.6786 -2.1069  1.3423
 2049SOL     OW17605   2.895   2.500  13.512  0.3918  0.0748 -0.0504
 2049SOL    HW117606   2.868   2.561  13.581 -0.0947 -0.2305  0.0303
 2049SOL    HW217607   2.976   2.541  13.482 -0.1819  0.0389 -1.6531
 2050SOL     OW17608   3.952   4.459  14.923 -0.4042 -0.0647  0.4724
 2050SOL    HW117609   4.022   4.415  14.874 -1.5580 -2.1802  0.7359
 2050SOL    HW217610   3.963   4.550  14.895  0.3634 -0.4093 -0.3417
 2051SOL     OW17611   3.505   0.091  12.718  0.1160  0.1822  0.3485
 2051SOL    HW117612   3.590   0.135  12.724 -0.3890  0.8529  2.7528
 2051SOL    HW217613   3.481   0.125  12.632 -3.4520  0.4223  1.4140
 2052SOL     OW17614   4.701   2.940   6.520  0.0296 -0.0092  0.3519
 2052SOL    HW117615   4.670   3.014   6.571 -0.3059  0.3991 -0.4339
 2052SOL    HW217616   4.636   2.874   6.547  0.9858 -1.0215  0.1782
 2053SOL     OW17617   3.478   3.340   3.061 -0.3057  1.5745 -0.3799
 2053SOL    HW117618   3.404   3.283   3.080  1.5735 -0.9900 -0.7849
 2053SOL    HW217619   3.451   3.393   2.986 -3.2090 -2.2983 -2.0416
 2054SOL     OW17620   4.113   0.224   8.367  0.3457  0.0433  0.1334
 2054SOL    HW117621   4.043   0.226   8.431 -1.4903 -0.1401 -1.8762
 2054SOL    HW217622   4.185   0.189   8.419  0.6964  1.4863  0.6267
 2055SOL     OW17623   1.593   0.595   9.637  0.1100 -0.1601 -0.1537
 2055SOL    HW117624   1.591   0.686   9.666  0.7562  0.1129 -0.9580
 2055SOL    HW217625   1.683   0.597   9.605 -0.4318 -1.0733 -1.7449
 2056SOL     OW17626   2.103   2.311   3.814 -0.1427 -0.1734 -0.5052
 2056SOL    HW117627   2.131   2.400   3.798 -1.8026  0.1804 -1.4644
 2056SOL    HW217628   2.105   2.308   3.910  1.0591 -1.4021 -0.5704
 2057SOL     OW17629   2.263   4.613   8.927 -0.1736 -0.4788  0.4647
 2057SOL    HW117630   2.223   4.530   8.898 -1.3578  0.7152 -1.3247
 2057SOL    HW217631   2.353   4.604   8.896 -1.0311 -2.0033 -1.5603
 2058SOL     OW17632   3.194   0.844   7.020 -0.2743 -0.7447  0.6846
 2058SOL    HW117633   3.172   0.871   6.931  0.9758  1.8198  1.1476
 2058SOL    HW217634   3.166   0.918   7.074  1.1315 -0.1084  0.5514
 2059SOL     OW17635   1.052   1.794   2.220 -0.5727  0.4872 -0.2715
 2059SOL    HW117636   1.108   1.779   2.296 -0.3953  2.7682  0.0488
 2059SOL    HW217637   0.981   1.845   2.258  0.0541  2.4648 -1.7240
 2060SOL     OW17638   3.120   2.788   9.531 -0.2811 -0.2612 -0.3769
 2060SOL    HW117639   3.025   2.796   9.530 -0.4340 -2.3484 -1.2596
 2060SOL    HW217640   3.137   2.805   9.438 -0.3969 -1.7744 -0.6742
 2061SOL     OW17641   1.472   1.701   2.167  0.0170  0.1948  0.3331
 2061SOL    HW117642   1.551   1.729   2.120 -0.1468 -1.4747 -0.9344
 2061SOL    HW217643   1.409   1.751   2.115  1.5328  2.2358  0.4260
 2062SOL     OW17644   4.093   3.685   9.950 -0.7557  0.5418  0.0422
 2062SOL    HW117645   4.002   3.696   9.921 -0.4587 -2.4423 -2.0125
 2062SOL    HW217646   4.135   3.694   9.865 -1.2308 -0.0479 -0.2583
 2063SOL     OW17647   0.357   3.621  10.140 -0.0689 -0.0944  0.3069
 2063SOL    HW117648   0.413   3.562  10.090  1.4379 -1.0156  3.1377
 2063SOL    HW217649   0.390   3.597  10.226 -0.7703  1.7043  1.0908
 2064SOL     OW17650   1.866   2.162   4.618 -0.4649 -0.0394 -0.0589
 2064SOL    HW117651   1.809   2.204   4.682 -2.7775  0.0188 -2.1639
 2064SOL    HW217652   1.877   2.237   4.560 -3.3031 -0.7447 -1.5055
 2065SOL     OW17653   3.979   4.718  12.681 -0.3329 -0.6157  0.4926
 2065SOL    HW117654   3.993   4.629  12.715  2.8205 -0.3279 -0.0035
 2065SOL    HW217655   4.063   0.021  12.641 -0.2072  0.2709  1.2893
 2066SOL     OW17656   2.547   2.249  11.348 -0.3600 -0.6384 -0.0757
 2066SOL    HW117657   2.498   2.256  11.266 -1.2167  1.7411  0.6471
 2066SOL    HW217658   2.594   2.332  11.359 -0.4139 -0.8350  1.5852
 2067SOL     OW17659   2.213   1.240   4.373  0.6774  0.1861  0.2127
 2067SOL    HW117660   2.162   1.276   4.446 -0.7003 -0.1580 -0.5766
 2067SOL    HW217661   2.254   1.314   4.329 -0.0774 -0.3322 -1.3729
 2068SOL     OW17662   1.994   0.214   4.694  0.6381  0.1739  0.7591
 2068SOL    HW117663   1.974   0.121   4.686  0.8370  0.2511 -0.6543
 2068SOL    HW217664   1.904   0.244   4.706  0.5725 -0.7749  2.5704
 2069SOL     OW17665   1.923   2.964  17.386 -0.2771 -0.3835 -0.2090
 2069SOL    HW117666   1.842   2.943  17.431 -0.4833  1.8781  0.4609
 2069SOL    HW217667   1.883   3.014  17.315  1.3708  1.5731  0.2413
 2070SOL     OW17668   4.420   4.649   4.088 -0.2182  0.0063 -0.5002
 2070SOL    HW117669   4.411   4.642   3.993 -2.7582 -0.4657 -0.2303
 2070SOL    HW217670   4.341   4.698   4.112  1.6891  1.2879  3.2070
 2071SOL     OW17671   2.656   2.470  11.054 -0.6910  0.1613  0.0650
 2071SOL    HW117672   2.666   2.557  11.093  0.1754  0.7436 -1.4503
 2071SOL    HW217673   2.570   2.445  11.087 -0.4444 -0.4471  0.2440
 2072SOL     OW17674   0.318   1.142  16.712 -0.2016  0.1551  0.0151
 2072SOL    HW117675   0.281   1.199  16.779  0.3604 -1.0336  1.3349
 2072SOL    HW217676   0.351   1.211  16.655  1.2327  0.2918  1.0041
 2073SOL     OW17677   2.967   0.047  16.431 -0.1154  0.2905  0.4148
 2073SOL    HW117678   2.889   0.061  16.378  0.5118 -0.5693 -0.7618
 2073SOL    HW217679   2.990   0.137  16.452  0.0223  0.1366  0.9273
 2074SOL     OW17680   1.699   4.023  17.149 -0.2452 -0.0641 -0.2841
 2074SOL    HW117681   1.682   3.948  17.206 -0.7159 -0.6267 -1.1737
 2074SOL    HW217682   1.719   4.091  17.213  0.3614 -1.0022  0.5176
 2075SOL     OW17683   1.042   4.229   7.082  0.0559  0.7445 -0.1101
 2075SOL    HW117684   1.037   4.154   7.141  0.3032 -1.5530 -3.0343
 2075SOL    HW217685   1.137   4.235   7.082  0.1805 -1.2123 -1.0764
 2076SOL     OW17686   3.552   4.285  10.529  0.1846  0.0827 -0.0429
 2076SOL    HW117687   3.498   4.362  10.516 -0.1066  0.1153  1.4128
 2076SOL    HW217688   3.579   4.271  10.438 -0.1725 -0.7989 -0.0180
 2077SOL     OW17689   2.797   1.334  17.588  0.0858  0.4407 -0.3175
 2077SOL    HW117690   2.830   1.270  17.650 -0.7414  1.6819  1.4119
 2077SOL    HW217691   2.716   1.285  17.573  0.7355 -0.0993 -2.0817
 2078SOL     OW17692   0.315   0.771   6.498 -0.1460  0.2788 -0.4031
 2078SOL    HW117693   0.350   0.787   6.410 -0.6725  1.0249 -0.4805
 2078SOL    HW217694   0.379   0.706   6.527 -0.9037 -0.7122 -0.9250
 2079SOL     OW17695   1.396   4.076   2.246 -0.1854 -0.4173 -0.1662
 2079SOL    HW117696   1.457   4.149   2.240  0.3145 -0.9736 -1.7867
 2079SOL    HW217697   1.397   4.049   2.154 -1.8307  0.8735 -0.5818
 2080SOL     OW17698   2.216   4.485   3.671 -0.0929 -0.4287 -0.3665
 2080SOL    HW117699   2.278   4.447   3.609 -0.4498 -0.3472 -0.7673
 2080SOL    HW217700   2.263   4.440   3.741  0.6406  2.1870  0.8221
 2081SOL     OW17701   2.613   1.412   1.807 -0.2350  0.6242 -0.6089
 2081SOL    HW117702   2.706   1.391   1.814 -1.1361 -3.1710  0.0780
 2081SOL    HW217703   2.572   1.369   1.882 -0.0399  2.4572  0.5609
 2082SOL     OW17704   0.507   2.896   3.499 -0.0024 -0.1123 -0.0546
 2082SOL    HW117705   0.462   2.979   3.482  1.1769  0.4818 -0.3229
 2082SOL    HW217706   0.596   2.926   3.520  0.0944 -0.2124 -0.3200
 2083SOL     OW17707   3.091   0.557   5.583  0.1361  0.3571 -0.3579
 2083SOL    HW117708   3.001   0.564   5.551 -1.0954  2.2128  3.4783
 2083SOL    HW217709   3.085   0.467   5.614 -3.5426 -0.1966 -2.7049
 2084SOL     OW17710   0.495   2.708  15.892  0.6653  0.7122 -0.4835
 2084SOL    HW117711   0.509   2.738  15.982 -2.3570  1.7960 -0.3896
 2084SOL    HW217712   0.446   2.627  15.907  1.7300  0.0214 -0.6921
 2085SOL     OW17713   3.153   1.085   3.321 -0.6148  0.3424 -0.6691
 2085SOL    HW117714   3.082   1.037   3.279  0.8150 -1.4701 -1.0490
 2085SOL    HW217715   3.134   1.080   3.414  0.8634 -0.6601 -0.4247
 2086SOL     OW17716   2.626   3.145   4.054 -0.0765  0.0513 -0.1145
 2086SOL    HW117717   2.589   3.067   4.095 -1.1235  1.0866  0.8886
 2086SOL    HW217718   2.603   3.130   3.963 -0.8795  0.5983  0.0045
 2087SOL     OW17719   1.538   2.658   7.773  0.2020  0.4771  0.5775
 2087SOL    HW117720   1.551   2.657   7.678  0.3193  1.8371  0.5769
 2087SOL    HW217721   1.567   2.745   7.802  1.8636  0.6072 -1.4735
 2088SOL     OW17722   3.500   1.773   2.689 -0.1492 -0.2773  0.4031
 2088SOL    HW117723   3.587   1.765   2.728  0.5937 -0.3089 -1.2724
 2088SOL    HW217724   3.513   1.834   2.617 -0.0481  1.2253  1.7021
 2089SOL     OW17725   3.482   2.981   5.114  0.1000 -0.2009  0.7923
 2089SOL    HW117726   3.460   2.891   5.135 -1.0108 -0.1765 -0.2706
 2089SOL    HW217727   3.487   2.970   5.019 -1.4016  0.8592  0.5878
 2090SOL     OW17728   3.437   0.203   9.333  0.5139 -0.9577  0.8628
 2090SOL    HW117729   3.414   0.241   9.248  0.2456 -0.4886  1.1482
 2090SOL    HW217730   3.510   0.149   9.302  1.6983  1.0012  0.2390
 2091SOL     OW17731   3.710   2.104  17.681 -0.2882 -0.4734  0.0572
 2091SOL    HW117732   3.650   2.099   0.069  0.7631  1.3702  1.0401
 2091SOL    HW217733   3.796   2.113   0.036 -0.1673  0.8922 -0.4814
 2092SOL     OW17734   2.630   3.145   8.654 -0.0153  0.0852  0.1248
 2092SOL    HW117735   2.612   3.230   8.615 -0.3880  0.8862  2.0272
 2092SOL    HW217736   2.619   3.093   8.575 -2.2772  0.5965  0.1166
 2093SOL     OW17737   0.488   0.745   1.939  0.8873 -0.3950 -0.3136
 2093SOL    HW117738   0.395   0.726   1.948  0.9049 -0.3138  0.0287
 2093SOL    HW217739   0.516   0.708   2.022 -1.8960 -0.5214  0.5501
 2094SOL     OW17740   2.178   0.026  16.576 -1.0459 -0.2760  0.2288
 2094SOL    HW117741   2.239   4.708  16.514  0.6260 -0.2842  1.8781
 2094SOL    HW217742   2.101   4.695  16.557 -0.6814  0.4989 -3.3045
 2095SOL     OW17743   2.290   3.064   5.380 -0.3558  0.0670 -0.0473
 2095SOL    HW117744   2.270   3.155   5.356  0.6499  0.0563 -0.9209
 2095SOL    HW217745   2.366   3.074   5.438  1.4245  0.5294 -2.4678
 2096SOL     OW17746   0.173   0.815  11.394  0.5582  0.0252  0.0011
 2096SOL    HW117747   0.221   0.897  11.403 -1.9854  1.5172 -0.1491
 2096SOL    HW217748   0.229   0.764  11.453 -0.4196  0.6188  1.4319
 2097SOL     OW17749   3.482   2.919  12.251 -0.6546  0.0414 -0.2224
 2097SOL    HW117750   3.559   2.962  12.286 -1.0286  1.0150 -0.6009
 2097SOL    HW217751   3.453   2.854  12.316 -0.9559 -0.2513 -0.6434
 2098SOL     OW17752   3.629   4.275   7.988  0.2358  0.0699 -0.1106
 2098SOL    HW117753   3.561   4.342   7.979  0.5570  0.2085 -1.4823
 2098SOL    HW217754   3.696   4.326   7.944 -3.3952  1.9124 -3.5524
 2099SOL     OW17755   2.837   3.511   7.843  0.8297 -0.4540  0.0799
 2099SOL    HW117756   2.782   3.532   7.768  0.8137 -1.7657 -0.2676
 2099SOL    HW217757   2.769   3.473   7.899  0.0447  0.2197 -0.4221
 2100SOL     OW17758   0.258   1.251  10.459 -0.0174 -0.4083  0.0055
 2100SOL    HW117759   0.276   1.306  10.535  0.2193 -1.5049  0.7394
 2100SOL    HW217760   0.201   1.187  10.501  1.6370 -0.8347  1.6091
 2101SOL     OW17761   2.427   2.096   5.912 -0.1842  0.6355 -0.3564
 2101SOL    HW117762   2.359   2.072   5.975  1.1995 -1.2837  0.4036
 2101SOL    HW217763   2.498   2.035   5.930  0.8266  1.6304 -0.9550
 2102SOL     OW17764   1.166   2.106   3.279  0.3224  0.3528  0.2998
 2102SOL    HW117765   1.203   2.178   3.228 -0.8843 -0.3605 -1.6160
 2102SOL    HW217766   1.238   2.047   3.257  1.9013  3.4335 -2.8616
 2103SOL     OW17767   0.144   0.622  11.736  0.3097  0.3936  0.8582
 2103SOL    HW117768   0.156   0.550  11.675 -2.8690  1.0781 -0.5637
 2103SOL    HW217769   0.062   0.646  11.693 -0.5833 -0.8509  1.8443
 2104SOL     OW17770   3.990   1.064   2.181 -0.4108  0.2191  0.3795
 2104SOL    HW117771   3.957   1.061   2.271 -1.3465 -0.7975  0.0057
 2104SOL    HW217772   3.951   0.982   2.148  1.2095 -0.4574  0.1252
 2105SOL     OW17773   3.776   2.126   9.470  0.1432 -0.1571  0.4836
 2105SOL    HW117774   3.706   2.064   9.450  2.3574 -1.9697 -1.6357
 2105SOL    HW217775   3.719   2.188   9.516  0.5166  1.1402 -0.8190
 2106SOL     OW17776   1.158   2.527   2.964  0.3829  0.3333  0.6744
 2106SOL    HW117777   1.152   2.618   2.994 -1.0351  0.0746  1.1481
 2106SOL    HW217778   1.240   2.525   2.915  0.7613 -0.1367  1.3214
 2107SOL     OW17779   1.979   2.466   7.412 -0.0088  0.4536 -0.0153
 2107SOL    HW117780   2.049   2.457   7.478  1.0088  2.5892 -0.7908
 2107SOL    HW217781   1.897   2.446   7.456  0.0454  0.6816  0.1894
 2108SOL     OW17782   4.133   2.199  10.813  0.0692 -0.3461 -0.7845
 2108SOL    HW117783   4.218   2.217  10.773  0.4829  0.4233  0.4466
 2108SOL    HW217784   4.122   2.105  10.801  1.0631 -0.6375  0.7205
 2109SOL     OW17785   1.548   1.781   8.825 -0.1941 -0.5409  0.0248
 2109SOL    HW117786   1.610   1.715   8.796  1.0494  0.2232  0.9419
 2109SOL    HW217787   1.528   1.748   8.913 -1.4865 -0.1577 -0.1254
 2110SOL     OW17788   4.598   0.704   0.298  0.2492  0.0299 -0.5817
 2110SOL    HW117789   4.574   0.614   0.321  3.4006 -0.6829 -0.0614
 2110SOL    HW217790   4.615   0.687   0.205 -1.0201  1.6371 -1.0879
 2111SOL     OW17791   3.088   1.823  14.769  0.2874  0.0758  0.4594
 2111SOL    HW117792   3.077   1.808  14.863  1.2312  0.1450  0.5843
 2111SOL    HW217793   3.163   1.882  14.762  1.2524 -1.0602  1.1311
 2112SOL     OW17794   2.364   3.979  11.511 -0.0852 -0.0557  0.0462
 2112SOL    HW117795   2.291   4.037  11.490  2.5003  1.9056 -3.4594
 2112SOL    HW217796   2.417   4.033  11.569  0.9387  0.5086 -1.4451
 2113SOL     OW17797   2.617   1.537  13.701  0.3027  0.4963  0.3213
 2113SOL    HW117798   2.646   1.464  13.646  0.9201 -0.7222  2.2731
 2113SOL    HW217799   2.649   1.508  13.786 -1.7728 -0.3723  0.8087
 2114SOL     OW17800   2.190   1.760   3.911  0.3237  0.1996  0.5056
 2114SOL    HW117801   2.116   1.819   3.925  1.1428  1.2144  0.4975
 2114SOL    HW217802   2.183   1.720   3.998  1.3850 -1.0219  0.0361
 2115SOL     OW17803   3.186   2.705  16.368  0.5158  0.0371 -0.3734
 2115SOL    HW117804   3.196   2.645  16.442 -0.4216  0.8338  0.4005
 2115SOL    HW217805   3.180   2.644  16.294 -2.1899  1.8603 -1.6525
 2116SOL     OW17806   3.894   1.577   3.583 -0.3405 -0.2672  0.3165
 2116SOL    HW117807   3.904   1.646   3.649  4.0834  0.6669 -1.2895
 2116SOL    HW217808   3.973   1.531   3.611  1.7200  1.8165 -2.0464
 2117SOL     OW17809   1.197   0.115   2.745 -0.2035 -0.0088 -0.0195
 2117SOL    HW117810   1.280   0.156   2.724 -1.2079  1.6163 -0.7659
 2117SOL    HW217811   1.168   0.080   2.660 -1.0414 -1.0649  0.6998
 2118SOL     OW17812   3.615   4.663   7.812 -0.0798  0.1299  0.3503
 2118SOL    HW117813   3.607   4.569   7.828 -0.1133  0.2540  1.0379
 2118SOL    HW217814   3.705   4.686   7.835  1.0850 -3.2135 -0.8691
 2119SOL     OW17815   0.528   0.474   2.657  0.5565  0.7255  0.2135
 2119SOL    HW117816   0.509   0.506   2.569  0.5215 -0.3894 -0.1763
 2119SOL    HW217817   0.569   0.549   2.701 -0.7727  0.8631  1.2253
 2120SOL     OW17818   4.532   1.387   8.728  0.3264  0.0997 -0.2582
 2120SOL    HW117819   4.492   1.470   8.757  1.4142 -0.0027  1.5028
 2120SOL    HW217820   4.463   1.322   8.739 -0.6971  1.0537 -1.0644
 2121SOL     OW17821   1.394   1.644  10.834 -0.6788 -0.2328 -0.3740
 2121SOL    HW117822   1.362   1.568  10.785 -0.3527 -0.8296  0.3243
 2121SOL    HW217823   1.381   1.715  10.772  1.3762  0.6318  0.1687
 2122SOL     OW17824   1.382   3.762   5.037 -0.0137 -0.5669  0.1283
 2122SOL    HW117825   1.411   3.681   5.078  0.7818  0.1878  1.0599
 2122SOL    HW217826   1.394   3.825   5.108 -0.6782 -0.6671  0.3268
 2123SOL     OW17827   0.320   4.269   3.825  0.0443 -0.3115 -0.0546
 2123SOL    HW117828   0.261   4.304   3.892  0.1969  1.8140 -1.0336
 2123SOL    HW217829   0.396   4.324   3.842 -0.0154 -0.2571  0.0337
 2124SOL     OW17830   0.874   1.155  15.365  0.6360 -0.0506 -0.0447
 2124SOL    HW117831   0.821   1.231  15.392 -0.4057 -1.4524  1.8065
 2124SOL    HW217832   0.838   1.086  15.420  0.1589 -0.9474 -1.4759
 2125SOL     OW17833   1.195   2.836   2.050 -0.0861 -0.1640  0.5398
 2125SOL    HW117834   1.099   2.832   2.051 -0.0159 -1.8805  0.3380
 2125SOL    HW217835   1.212   2.775   1.978 -1.8562  0.0303 -0.0320
 2126SOL     OW17836   0.706   0.518   7.634 -0.1155  0.4869 -0.1518
 2126SOL    HW117837   0.616   0.486   7.620 -0.5629  1.7187 -0.1075
 2126SOL    HW217838   0.744   0.443   7.681 -0.1348  0.4373 -0.2155
 2127SOL     OW17839   1.728   1.040  12.676  0.1203  0.1922  0.1825
 2127SOL    HW117840   1.665   1.071  12.611 -0.9443 -3.0835 -0.3666
 2127SOL    HW217841   1.738   1.119  12.729  1.8328  0.0306  0.0735
 2128SOL     OW17842   1.920   1.288   5.604 -0.3275  0.4454  0.4970
 2128SOL    HW117843   1.928   1.236   5.523  2.2674  2.0258 -0.2617
 2128SOL    HW217844   1.864   1.359   5.571  1.0066  1.9575  1.4790
 2129SOL     OW17845   0.546   0.031   8.650 -0.1712  0.3641  0.2260
 2129SOL    HW117846   0.505   4.699   8.582 -0.8816  4.0239 -2.1535
 2129SOL    HW217847   0.529   0.120   8.619 -0.5212  0.4805  0.7571
 2130SOL     OW17848   3.776   4.550   7.356  0.4765 -0.7067  0.2384
 2130SOL    HW117849   3.719   4.627   7.358 -1.0258 -1.8467  2.1238
 2130SOL    HW217850   3.738   4.507   7.279 -0.9426  0.2591  0.3791
 2131SOL     OW17851   2.819   0.545   7.329  0.5016  0.6867 -0.0940
 2131SOL    HW117852   2.767   0.475   7.290 -1.3555  1.8114  0.3653
 2131SOL    HW217853   2.824   0.523   7.421 -0.4427 -0.6423 -0.3676
 2132SOL     OW17854   2.938   2.820  12.409 -0.0176 -0.1953 -0.2038
 2132SOL    HW117855   2.950   2.911  12.437  1.6712 -0.8371  1.1713
 2132SOL    HW217856   3.028   2.796  12.434  1.0764  0.6714 -3.2453
 2133SOL     OW17857   0.731   1.942   1.426  0.0600  0.0450 -0.3403
 2133SOL    HW117858   0.711   1.895   1.346  2.6535 -1.5161 -0.0762
 2133SOL    HW217859   0.641   1.941   1.460 -0.1449 -1.2772 -0.9349
 2134SOL     OW17860   2.886   1.523  14.108 -0.3937  0.0792  0.1450
 2134SOL    HW117861   2.968   1.547  14.066 -1.4466 -0.9571 -2.4707
 2134SOL    HW217862   2.914   1.553  14.195 -0.5787 -2.1816  0.9867
 2135SOL     OW17863   3.093   0.268   4.521  0.3144 -0.1734 -0.4761
 2135SOL    HW117864   2.997   0.268   4.521  0.3224  0.9851  0.8432
 2135SOL    HW217865   3.101   0.173   4.532  0.0084  0.1602  2.5088
 2136SOL     OW17866   0.641   3.649   3.174  0.3900  0.4162  0.2840
 2136SOL    HW117867   0.569   3.586   3.185  0.6461  0.0133 -0.3448
 2136SOL    HW217868   0.612   3.711   3.106 -0.7298 -0.9297 -0.4920
 2137SOL     OW17869   4.661   2.661   4.189 -0.0085 -0.4474  0.4443
 2137SOL    HW117870   0.019   2.715   4.192 -0.5590  0.4770 -1.6453
 2137SOL    HW217871   4.595   2.730   4.180  0.0199 -0.4617  0.1468
 2138SOL     OW17872   0.878   2.884   2.822 -0.2190  0.3146  0.1247
 2138SOL    HW117873   0.822   2.812   2.851 -1.4168 -0.4143 -4.0090
 2138SOL    HW217874   0.854   2.936   2.899  0.5354  3.9392 -2.0537
 2139SOL     OW17875   3.605   3.529   3.418 -0.0963  0.2130  0.4551
 2139SOL    HW117876   3.552   3.465   3.467  1.0602 -1.4712 -0.5105
 2139SOL    HW217877   3.579   3.609   3.464 -0.4232  0.6347 -0.4696
 2140SOL     OW17878   0.655   4.255   2.566  0.1231  0.2448 -0.2211
 2140SOL    HW117879   0.588   4.214   2.511 -1.6581 -0.3587  2.3828
 2140SOL    HW217880   0.740   4.234   2.527  0.0233 -0.4810 -0.0567
 2141SOL     OW17881   3.191   2.955  16.187 -0.0344  0.4774 -0.2597
 2141SOL    HW117882   3.218   2.863  16.188  0.8201  0.6898 -2.1678
 2141SOL    HW217883   3.167   2.974  16.277 -0.1761 -1.1493  0.0427
 2142SOL     OW17884   2.841   3.678   9.045  0.0264 -0.3522  0.3901
 2142SOL    HW117885   2.851   3.734   8.968  1.2556 -0.3122  0.5834
 2142SOL    HW217886   2.781   3.736   9.092 -0.0623 -0.5650  0.5408
 2143SOL     OW17887   4.246   0.622   1.617  0.0046  0.0485  0.6342
 2143SOL    HW117888   4.331   0.578   1.612 -0.4581 -0.5310 -2.3118
 2143SOL    HW217889   4.187   0.548   1.601  0.9572 -0.7717  0.9216
 2144SOL     OW17890   2.857   2.038   2.102  0.0058  0.3659 -0.0628
 2144SOL    HW117891   2.778   1.990   2.077 -0.1468  0.7376 -0.2976
 2144SOL    HW217892   2.923   1.991   2.052 -1.3695 -0.7338 -0.8671
 2145SOL     OW17893   2.468   0.540   3.002  0.3933 -0.3900 -0.1074
 2145SOL    HW117894   2.377   0.549   2.972  0.1572  3.2767  1.6281
 2145SOL    HW217895   2.521   0.526   2.924  1.0443  1.3119  0.0244
 2146SOL     OW17896   1.871   3.656   5.589 -0.2943  0.4327 -0.7746
 2146SOL    HW117897   1.779   3.636   5.608  0.0918 -0.4280  0.2146
 2146SOL    HW217898   1.876   3.663   5.494 -1.0774  1.5678 -0.7393
 2147SOL     OW17899   0.009   1.392   9.002  0.0129  0.0065 -0.3057
 2147SOL    HW117900   4.715   1.396   8.907 -0.1540  1.0266 -0.2417
 2147SOL    HW217901   4.648   1.429   9.035 -0.3443  0.0203 -1.1970
 2148SOL     OW17902   0.572   0.616   5.409  0.1965 -0.5634 -0.4133
 2148SOL    HW117903   0.534   0.589   5.326  1.1023  0.9759 -1.3355
 2148SOL    HW217904   0.548   0.551   5.475 -1.0811 -0.8802 -1.1856
 2149SOL     OW17905   0.607   4.035   3.757  0.1882  0.3652  0.3052
 2149SOL    HW117906   0.628   4.042   3.850  0.2999  0.1526  0.2964
 2149SOL    HW217907   0.688   4.004   3.716 -1.4163 -1.8446 -1.1644
 2150SOL     OW17908   1.642   1.751   0.947 -0.0655  0.0157 -0.6484
 2150SOL    HW117909   1.649   1.787   1.035 -0.3593 -1.1359 -0.1640
 2150SOL    HW217910   1.664   1.660   0.962  0.0105  0.2603  0.7473
 2151SOL     OW17911   1.437   3.467   4.049  0.1467 -0.0582 -0.3575
 2151SOL    HW117912   1.396   3.429   3.971 -3.4436  1.7641  0.6338
 2151SOL    HW217913   1.497   3.534   4.016 -1.2457  2.0291  1.3783
 2152SOL     OW17914   0.104   2.366   6.053  0.0918 -0.2212 -0.2686
 2152SOL    HW117915   0.083   2.428   5.983 -0.4948  1.0641  1.0576
 2152SOL    HW217916   0.126   2.432   6.119 -0.9764  0.0491 -0.1806
 2153SOL     OW17917   1.615   3.708   5.732  0.4775 -0.0648 -0.0045
 2153SOL    HW117918   1.627   3.660   5.813  3.2565  1.1623  0.3035
 2153SOL    HW217919   1.670   3.785   5.745  1.9591 -1.4761  1.9319
 2154SOL     OW17920   0.159   3.505   6.712 -0.6879 -0.0308  0.2229
 2154SOL    HW117921   0.220   3.439   6.680 -1.5235 -0.4375 -0.5302
 2154SOL    HW217922   0.109   3.526   6.633  0.8839  2.2062 -0.1872
 2155SOL     OW17923   0.882   4.140  16.694  0.2418  0.4097 -0.1482
 2155SOL    HW117924   0.913   4.218  16.647 -1.8705  1.5922  0.4137
 2155SOL    HW217925   0.959   4.083  16.700 -1.0270 -1.1717  0.8851
 2156SOL     OW17926   3.724   3.595   0.190  0.3897 -0.1697  0.2861
 2156SOL    HW117927   3.719   3.514   0.241  1.9648  0.5369  1.5495
 2156SOL    HW217928   3.813   3.628   0.184  0.3580 -0.0499  0.4676
 2157SOL     OW17929   1.172   2.427   7.171  0.4913 -0.3760 -0.4017
 2157SOL    HW117930   1.178   2.483   7.248  0.0899 -0.6941 -0.1368
 2157SOL    HW217931   1.212   2.348   7.208  1.7523  0.1593 -0.6300
 2158SOL     OW17932   0.005   1.515   3.535  0.0048  0.0850 -0.5947
 2158SOL    HW117933   0.016   1.444   3.472  2.0529  1.5782 -1.9170
 2158SOL    HW217934   4.654   1.562   3.493 -0.5966  0.0292  0.3668
 2159SOL     OW17935   2.898   1.538   4.139 -0.1654 -0.3723  0.1965
 2159SOL    HW117936   2.936   1.519   4.053 -0.7795  0.6670 -0.3120
 2159SOL    HW217937   2.892   1.633   4.138 -1.1968 -0.4179  2.0421
 2160SOL     OW17938   1.477   4.302  10.422  0.0499 -0.1149  0.3892
 2160SOL    HW117939   1.391   4.266  10.400  0.3500  1.1712 -2.8740
 2160SOL    HW217940   1.532   4.246  10.367  1.6013 -0.3018  2.1240
 2161SOL     OW17941   4.017   1.217   3.396 -0.3365  0.2255  0.5769
 2161SOL    HW117942   3.989   1.215   3.487  0.0837 -1.5494  0.6805
 2161SOL    HW217943   4.094   1.273   3.388  0.3930 -0.7067  1.0062
 2162SOL     OW17944   2.710   2.405  13.023  0.5865  0.2468 -0.2512
 2162SOL    HW117945   2.776   2.345  12.988  2.1966  2.8735 -1.7497
 2162SOL    HW217946   2.684   2.454  12.945  1.2863  0.8372 -0.1150
 2163SOL     OW17947   0.826   4.601  17.176 -0.2862  0.6950 -0.7760
 2163SOL    HW117948   0.781   4.632  17.098  0.9569 -0.8785 -2.0930
 2163SOL    HW217949   0.752   4.607  17.237  3.2568  0.1095  3.5975
 2164SOL     OW17950   0.951   1.593   5.413  0.6321  0.5536  0.2057
 2164SOL    HW117951   0.883   1.563   5.474  1.2189  1.6590  1.4095
 2164SOL    HW217952   0.941   1.540   5.334  1.3507 -2.8956  2.4593
 2165SOL     OW17953   4.027   4.347   7.469  0.2948  0.0347  0.2733
 2165SOL    HW117954   4.061   4.436   7.467 -0.3883  0.2647 -0.6875
 2165SOL    HW217955   3.948   4.355   7.521  0.7128  2.0298  0.5912
 2166SOL     OW17956   2.423   1.761   6.159 -0.2779  0.2667 -0.2434
 2166SOL    HW117957   2.464   1.770   6.245  0.7180  1.4058 -0.8427
 2166SOL    HW217958   2.335   1.799   6.160  0.5141  2.0520  2.2532
 2167SOL     OW17959   4.661   2.391  11.988  0.1882 -0.4302 -0.1252
 2167SOL    HW117960   4.610   2.310  11.984  1.3409 -1.1546 -0.3547
 2167SOL    HW217961   4.692   2.399  11.897  0.0657 -0.0025 -0.1252
 2168SOL     OW17962   1.588   4.327  12.799 -0.1010  0.0060 -0.0173
 2168SOL    HW117963   1.550   4.414  12.782  0.0796  0.6655  2.9216
 2168SOL    HW217964   1.515   4.274  12.831  1.1048 -0.9962  1.0452
 2169SOL     OW17965   2.163   0.071   9.097  0.5471  0.2194  0.1188
 2169SOL    HW117966   2.178   0.018   9.176 -0.2886  0.4166  0.4085
 2169SOL    HW217967   2.208   0.018   9.031 -0.2846  2.1665 -1.9980
 2170SOL     OW17968   1.736   4.670   8.247 -0.1260  0.3058 -0.4048
 2170SOL    HW117969   1.726   4.608   8.175 -2.8488  0.4491 -0.1496
 2170SOL    HW217970   1.831   4.666   8.257 -0.3743  1.2571  2.3407
 2171SOL     OW17971   1.972   3.425  11.813  0.3061 -0.2864  0.3049
 2171SOL    HW117972   1.884   3.445  11.844 -0.3240 -1.2754 -0.8284
 2171SOL    HW217973   1.993   3.513  11.782 -1.1667 -0.7751 -2.0772
 2172SOL     OW17974   1.198   2.111   7.472 -0.4134 -0.1903 -0.6303
 2172SOL    HW117975   1.107   2.082   7.466 -0.2021 -0.6865 -1.4788
 2172SOL    HW217976   1.204   2.132   7.565  1.7299 -0.8510 -0.6203
 2173SOL     OW17977   1.464   1.906   5.459  0.5714 -0.0565 -0.4877
 2173SOL    HW117978   1.523   1.978   5.479  1.4721 -1.2376  1.0401
 2173SOL    HW217979   1.518   1.832   5.484  0.8559 -0.2197 -1.5728
 2174SOL     OW17980   4.300   3.765  12.927  0.1450  0.1687 -0.1597
 2174SOL    HW117981   4.301   3.698  12.995  0.6825 -0.8837 -1.2212
 2174SOL    HW217982   4.223   3.732  12.882 -0.2176 -1.8513  1.9620
 2175SOL     OW17983   4.383   4.657   2.437 -0.1154  0.1182 -0.3752
 2175SOL    HW117984   4.317   4.590   2.450 -1.2455  1.0068 -1.4640
 2175SOL    HW217985   4.331   0.007   2.475 -0.0508  0.1018 -0.2570
 2176SOL     OW17986   2.375   1.507   2.476  0.2758 -0.3228  0.3561
 2176SOL    HW117987   2.294   1.548   2.506  0.5790  0.4492  0.1229
 2176SOL    HW217988   2.413   1.579   2.426  2.1079 -1.8923 -0.5182
 2177SOL     OW17989   2.285   0.981   4.349 -0.3901 -0.4939 -0.3408
 2177SOL    HW117990   2.282   0.968   4.444 -0.5158  0.9619 -0.1485
 2177SOL    HW217991   2.251   1.070   4.350  1.0949  0.0938 -1.2420
 2178SOL     OW17992   1.220   0.729   1.837  0.3534  0.0299  0.5774
 2178SOL    HW117993   1.239   0.780   1.758  0.6970  0.5444  0.9950
 2178SOL    HW217994   1.201   0.643   1.799  1.7734  1.2172 -2.7905
 2179SOL     OW17995   0.104   0.586   6.190 -0.4396 -0.2990 -0.4515
 2179SOL    HW117996   0.033   0.527   6.217 -0.3375  0.4668  1.4196
 2179SOL    HW217997   0.177   0.532   6.220  2.5840  3.4407 -1.1896
 2180SOL     OW17998   0.526   4.653   5.057 -0.0192  0.5842 -0.0557
 2180SOL    HW117999   0.606   4.706   5.046  1.0533 -0.8080  1.0692
 2180SOL    HW218000   0.517   4.651   5.152  0.6467  1.6709  0.0385
 2181SOL     OW18001   2.666   3.402  16.572 -0.2508  0.0209  0.4417
 2181SOL    HW118002   2.696   3.460  16.642 -3.2569  0.5116  1.3492
 2181SOL    HW218003   2.736   3.401  16.508 -1.3989 -1.1192 -0.7951
 2182SOL     OW18004   2.779   3.113  15.707 -0.1160 -0.4810  0.3691
 2182SOL    HW118005   2.779   3.043  15.772 -2.0840 -1.4193 -0.6380
 2182SOL    HW218006   2.765   3.058  15.630 -0.2275 -0.7064  0.5551
 2183SOL     OW18007   1.390   4.631   8.088  0.0673 -0.3040  0.2288
 2183SOL    HW118008   1.423   4.565   8.149  2.1948 -0.3865 -1.0135
 2183SOL    HW218009   1.455   4.629   8.018 -0.8745 -3.2629 -0.5838
 2184SOL     OW18010   1.095   4.266   4.096 -0.2142 -0.1706 -0.7393
 2184SOL    HW118011   1.060   4.182   4.065 -1.3996  0.2498 -0.5208
 2184SOL    HW218012   1.189   4.246   4.090 -0.2300 -0.5721  0.2751
 2185SOL     OW18013   0.598   4.182  12.451 -0.0506  0.5389  0.2254
 2185SOL    HW118014   0.601   4.237  12.373  0.8903  1.2393  0.7585
 2185SOL    HW218015   0.593   4.250  12.518 -1.6801 -1.3420  2.0069
 2186SOL     OW18016   2.173   0.065   5.101  0.0274  0.3640  0.2756
 2186SOL    HW118017   2.250   0.038   5.152 -0.3165  0.3784  0.7962
 2186SOL    HW218018   2.197   0.023   5.018 -1.1235 -0.0434  0.1560
 2187SOL     OW18019   0.665   1.578   4.686 -0.1084 -0.2179 -0.3721
 2187SOL    HW118020   0.614   1.659   4.693 -2.5410 -1.6137 -1.8623
 2187SOL    HW218021   0.675   1.560   4.592  0.8739 -2.7038  0.2154
 2188SOL     OW18022   2.938   0.855  14.033 -0.2511 -0.4667  0.5750
 2188SOL    HW118023   3.020   0.902  14.018  0.2859 -1.2025  1.2066
 2188SOL    HW218024   2.874   0.894  13.972 -0.1915  1.6382  1.8527
 2189SOL     OW18025   3.269   2.349   7.429  0.3724  0.0683 -0.0048
 2189SOL    HW118026   3.248   2.311   7.344 -0.2404 -0.5630  0.4280
 2189SOL    HW218027   3.210   2.425   7.422  0.9552  0.5819  0.6421
 2190SOL     OW18028   3.204   0.727  12.128  0.3817  0.1758  0.0275
 2190SOL    HW118029   3.135   0.690  12.184  1.1672 -1.0877  0.1638
 2190SOL    HW218030   3.264   0.653  12.123 -1.9992 -1.7571  0.0740
 2191SOL     OW18031   4.015   3.610   0.416 -0.1698 -0.4454  0.3308
 2191SOL    HW118032   3.932   3.593   0.460 -0.7694  0.1596 -0.5559
 2191SOL    HW218033   4.084   3.583   0.476  0.6262  0.6960 -0.0803
 2192SOL     OW18034   3.385   1.532  10.941  0.1121 -0.0361 -0.1014
 2192SOL    HW118035   3.313   1.536  11.004  0.3594  2.3289  0.0554
 2192SOL    HW218036   3.336   1.557  10.863 -1.1443  0.2723  0.7911
 2193SOL     OW18037   1.853   4.349  12.808 -0.0405 -0.4405  0.4101
 2193SOL    HW118038   1.891   4.265  12.835  1.0928  0.0822  0.4277
 2193SOL    HW218039   1.758   4.346  12.823  0.4816 -2.0877  3.2310
 2194SOL     OW18040   3.376   0.933   4.937  0.1114  0.4185 -0.4916
 2194SOL    HW118041   3.301   0.975   4.980  0.5824  0.2346  0.5111
 2194SOL    HW218042   3.414   0.879   5.006  1.2661 -1.1120 -2.3050
 2195SOL     OW18043   4.453   1.207   3.683  0.1739  0.1397  0.3057
 2195SOL    HW118044   4.436   1.189   3.590  0.0057  0.1878  0.3263
 2195SOL    HW218045   4.380   1.154   3.716  0.8565 -0.5208  0.7492
 2196SOL     OW18046   1.630   4.033   9.730  0.4650 -0.0157 -0.2808
 2196SOL    HW118047   1.705   4.074   9.773 -0.2312 -0.6586  1.5345
 2196SOL    HW218048   1.668   4.011   9.645 -0.0393  1.9040 -0.9971
 2197SOL     OW18049   0.016   0.239  11.187  0.1402 -0.3380  0.2203
 2197SOL    HW118050   0.064   0.290  11.122 -1.2747  2.4108  1.3236
 2197SOL    HW218051   4.692   0.311  11.231  1.0944  0.9361 -0.9316
 2198SOL     OW18052   4.380   3.004  10.477  0.7246  0.0677  0.1035
 2198SOL    HW118053   4.308   3.001  10.540 -1.7463  1.5952 -2.6422
 2198SOL    HW218054   4.382   2.911  10.456 -3.2780 -0.3541  1.6231
 2199SOL     OW18055   0.690   2.657  10.910  0.0326  0.3671  0.3331
 2199SOL    HW118056   0.758   2.720  10.936 -0.7652  1.5350 -0.4298
 2199SOL    HW218057   0.634   2.711  10.855 -1.4560 -0.7467  0.7496
 2200SOL     OW18058   3.259   2.615   4.936  0.1959 -0.5048  0.4630
 2200SOL    HW118059   3.281   2.569   4.855 -3.3923  0.2987 -1.0029
 2200SOL    HW218060   3.191   2.564   4.980  0.8101  0.1871  2.2183
 2201SOL     OW18061   0.495   2.962   3.049 -0.2836  0.7215 -0.5309
 2201SOL    HW118062   0.441   3.033   3.083  0.4338  0.7954  0.4352
 2201SOL    HW218063   0.538   3.003   2.974  0.3217  0.8465 -0.1112
 2202SOL     OW18064   3.229   0.581   1.854 -0.3451  0.1572 -0.0484
 2202SOL    HW118065   3.293   0.601   1.922  0.0360  0.2151 -0.4243
 2202SOL    HW218066   3.236   0.658   1.798 -0.8920 -0.3804 -0.8603
 2203SOL     OW18067   1.644   0.028   5.476  0.4336  0.5195  0.3519
 2203SOL    HW118068   1.661   4.655   5.467  1.2414  0.9926 -3.0336
 2203SOL    HW218069   1.595   0.026   5.559  1.1703 -1.4075  0.7541
 2204SOL     OW18070   2.992   1.376  16.874 -0.2243  0.3847  0.1344
 2204SOL    HW118071   2.957   1.455  16.915 -1.8849  0.2087 -0.9773
 2204SOL    HW218072   3.062   1.400  16.813  1.3624 -0.7090  1.5116
 2205SOL     OW18073   3.267   0.649   4.762 -0.0176 -0.1558 -0.2149
 2205SOL    HW118074   3.266   0.682   4.852 -1.6668 -2.6944  0.7072
 2205SOL    HW218075   3.317   0.568   4.777 -0.1792 -0.5663 -1.8808
 2206SOL     OW18076   2.509   0.975   7.904  0.1158 -0.1988  0.0759
 2206SOL    HW118077   2.518   0.888   7.942  0.9415 -0.1029  0.1137
 2206SOL    HW218078   2.464   0.963   7.820  1.7801 -2.0018 -0.5737
 2207SOL     OW18079   3.405   2.798   7.217  0.3592  0.2014  0.1572
 2207SOL    HW118080   3.450   2.797   7.301 -1.2707 -0.8132  1.0159
 2207SOL    HW218081   3.479   2.820   7.160 -1.0665  1.1729 -1.3466
 2208SOL     OW18082   2.520   1.733   2.379 -0.3363 -0.0587 -0.2299
 2208SOL    HW118083   2.557   1.706   2.295 -1.7668  0.0569 -0.9083
 2208SOL    HW218084   2.596   1.738   2.436 -0.8984 -0.2275  0.5306
 2209SOL     OW18085   4.563   2.642  17.419  0.0475 -0.3102  0.0568
 2209SOL    HW118086   4.561   2.546  17.421  0.7519 -0.3093  1.0670
 2209SOL    HW218087   4.656   2.660  17.402  0.4921 -1.2485  1.4395
 2210SOL     OW18088   2.628   3.407   8.531  0.0255  0.2053  0.0422
 2210SOL    HW118089   2.534   3.408   8.511  0.2837 -0.8829 -1.2891
 2210SOL    HW218090   2.644   3.499   8.551  0.6815  0.1689 -0.3087
 2211SOL     OW18091   1.391   4.221   1.549 -0.0904 -0.3852  0.4869
 2211SOL    HW118092   1.451   4.203   1.621  1.5609 -0.4051 -0.8975
 2211SOL    HW218093   1.407   4.314   1.534 -1.3689 -0.1149  0.8036
 2212SOL     OW18094   1.212   3.385   7.967 -0.0349  0.0803 -0.1336
 2212SOL    HW118095   1.208   3.291   7.984  0.9683  0.0443 -0.1304
 2212SOL    HW218096   1.211   3.416   8.057  1.3482  1.5015 -0.6084
 2213SOL     OW18097   4.449   2.128  16.203 -0.3211 -0.5303 -0.2234
 2213SOL    HW118098   4.390   2.068  16.247  1.6138 -1.9946  0.4032
 2213SOL    HW218099   4.507   2.078  16.144 -0.6524 -0.6740 -0.4276
 2214SOL     OW18100   1.442   3.311  14.874 -0.4764 -0.3397  0.2717
 2214SOL    HW118101   1.499   3.386  14.890  0.0248 -0.4883 -0.7912
 2214SOL    HW218102   1.503   3.239  14.857 -2.6355 -1.8635 -1.0888
 2215SOL     OW18103   2.883   0.111  11.174  0.4840 -0.5217  0.3643
 2215SOL    HW118104   2.844   0.158  11.248 -2.1719 -0.5527 -1.0049
 2215SOL    HW218105   2.974   0.138  11.187  0.4273 -0.4871  0.7029
 2216SOL     OW18106   3.397   4.554   6.692  0.1945  0.0291  0.1343
 2216SOL    HW118107   3.409   4.570   6.598 -1.1726 -0.4878 -0.1402
 2216SOL    HW218108   3.348   4.631   6.721 -2.2542 -0.3100 -3.1124
 2217SOL     OW18109   3.986   4.374   3.683 -0.5161 -0.4010  0.3275
 2217SOL    HW118110   3.935   4.293   3.683 -1.1523  0.0051  1.5282
 2217SOL    HW218111   3.927   4.424   3.740 -1.7612 -3.9596  2.0994
 2218SOL     OW18112   0.255   2.279  17.113  0.4549  0.1865 -0.3100
 2218SOL    HW118113   0.293   2.359  17.076 -0.8646  0.9800  0.0584
 2218SOL    HW218114   0.184   2.309  17.169 -0.2986  0.4091 -1.3966
 2219SOL     OW18115   1.099   1.028   7.897 -0.1017 -0.7592  0.0687
 2219SOL    HW118116   1.051   1.057   7.819 -0.9275 -0.1867  0.7960
 2219SOL    HW218117   1.044   1.047   7.972  0.5829 -1.5275  0.7640
 2220SOL     OW18118   1.748   4.489   8.034 -0.1210  0.0338  0.3629
 2220SOL    HW118119   1.768   4.441   7.954  0.5136  1.2942 -0.2510
 2220SOL    HW218120   1.674   4.537   7.997  1.0623  1.3161 -0.3427
 2221SOL     OW18121   0.244   2.708  15.213  0.1801  0.0701  0.2340
 2221SOL    HW118122   0.274   2.627  15.254 -1.3420  0.7603  2.7241
 2221SOL    HW218123   0.325   2.753  15.236  0.9142 -0.7187 -0.8306
 2222SOL     OW18124   0.555   4.683   7.948 -0.1029 -0.1220  0.7045
 2222SOL    HW118125   0.470   0.004   7.957  0.8584  1.8168  0.7084
 2222SOL    HW218126   0.587   4.708   8.035 -2.5008 -1.6953  2.0257
 2223SOL     OW18127   1.042   4.595  11.866 -0.4407 -0.6510 -0.2517
 2223SOL    HW118128   0.973   4.537  11.835 -0.6007 -0.2114 -0.7037
 2223SOL    HW218129   1.030   4.677  11.820  1.8030 -0.1278  0.0911
 2224SOL     OW18130   2.763   3.804  17.546 -0.0128 -0.2171 -0.6392
 2224SOL    HW118131   2.715   3.852  17.613  2.3088  0.6265  0.4071
 2224SOL    HW218132   2.852   3.819  17.577  0.3104  0.8626 -2.0795
 2225SOL     OW18133   0.563   0.541   4.621  0.1174  0.1928  0.8350
 2225SOL    HW118134   0.479   0.496   4.633 -0.5563  1.1060 -0.4887
 2225SOL    HW218135   0.626   0.469   4.614 -0.3610 -0.3113  1.6151
 2226SOL     OW18136   4.640   0.750  11.322  0.1326 -0.1633  0.2211
 2226SOL    HW118137   0.005   0.791  11.328 -0.3890  1.1785 -1.4000
 2226SOL    HW218138   4.589   0.820  11.281 -0.8117 -0.6410  0.5922
 2227SOL     OW18139   4.531   4.554  15.014 -0.2651  0.0743 -0.1886
 2227SOL    HW118140   4.524   4.532  14.921  1.2556 -3.0422  0.4446
 2227SOL    HW218141   4.609   4.508  15.047  0.0601  0.0402 -1.0043
 2228SOL     OW18142   0.844   1.061   1.432 -0.2342 -0.0190  0.2388
 2228SOL    HW118143   0.856   0.980   1.382  0.2069  0.9985 -1.3185
 2228SOL    HW218144   0.749   1.060   1.448 -0.5711  2.8584 -1.5468
 2229SOL     OW18145   3.050   1.503   7.003 -0.0166  0.0371  0.3788
 2229SOL    HW118146   3.028   1.410   6.994  0.5794 -0.2222  1.6468
 2229SOL    HW218147   3.053   1.523   7.096 -1.9577  0.6441  0.3136
 2230SOL     OW18148   1.018   0.678   0.325 -0.5581 -0.3047  0.2065
 2230SOL    HW118149   0.957   0.616   0.365  0.9625 -1.7711  0.2235
 2230SOL    HW218150   0.974   0.763   0.339  0.1607  0.3597 -1.5011
 2231SOL     OW18151   0.794   3.637   1.175 -0.0204 -0.3449 -0.1535
 2231SOL    HW118152   0.752   3.719   1.148 -1.2627 -1.2103 -0.8460
 2231SOL    HW218153   0.804   3.666   1.265  1.1465 -2.3870  0.3825
 2232SOL     OW18154   0.345   3.162   2.444 -0.4591  0.1642  0.3414
 2232SOL    HW118155   0.404   3.202   2.381  0.4917 -0.6441  0.7297
 2232SOL    HW218156   0.404   3.106   2.495  0.3186  0.6590 -0.0243
 2233SOL     OW18157   3.771   0.078   1.958  0.4619 -0.4953  0.7683
 2233SOL    HW118158   3.704   0.022   1.996  0.1599 -1.0631 -0.6009
 2233SOL    HW218159   3.859   0.044   1.972  0.6140 -1.3410 -2.1553
 2234SOL     OW18160   0.824   2.578   2.211 -0.0868  0.2229  0.1185
 2234SOL    HW118161   0.889   2.570   2.142  0.7594 -0.0368  0.9478
 2234SOL    HW218162   0.819   2.492   2.253  1.5621 -0.2777 -0.7232
 2235SOL     OW18163   3.179   0.062   6.317 -0.4263  0.4287 -0.6378
 2235SOL    HW118164   3.221   0.055   6.231  2.0052 -0.4786  0.6192
 2235SOL    HW218165   3.138   0.148   6.307  0.3079  0.6675 -1.5972
 2236SOL     OW18166   2.654   4.449  14.728 -1.0141  0.0258  0.2822
 2236SOL    HW118167   2.585   4.468  14.791 -1.3628 -0.4152  0.0326
 2236SOL    HW218168   2.655   4.354  14.734 -0.9756  0.1659  2.3351
 2237SOL     OW18169   4.000   0.859   5.679  0.0474  0.3062 -0.1908
 2237SOL    HW118170   4.074   0.800   5.671 -1.9396 -2.2977  0.6825
 2237SOL    HW218171   4.034   0.938   5.722 -1.4351  1.5241 -1.2284
 2238SOL     OW18172   3.463   0.922   7.677  0.0697  0.0181  0.3961
 2238SOL    HW118173   3.484   1.013   7.697  0.0809 -0.2547  1.5807
 2238SOL    HW218174   3.540   0.891   7.629 -0.2970  0.9092 -0.7699
 2239SOL     OW18175   4.015   1.995   5.945  0.8972  0.0299 -0.1681
 2239SOL    HW118176   4.035   2.022   6.035 -0.6851  3.0200 -0.7202
 2239SOL    HW218177   3.989   2.076   5.902  2.4797  1.4181  1.4751
 2240SOL     OW18178   2.239   4.720   8.531  0.0184 -0.1838 -0.4078
 2240SOL    HW118179   2.161   0.048   8.504 -0.3627 -1.5667 -1.8189
 2240SOL    HW218180   2.306   0.053   8.490  2.6715 -2.4407  0.9723
 2241SOL     OW18181   1.397   1.628   3.676  0.3321  0.0203 -0.2640
 2241SOL    HW118182   1.334   1.564   3.642  2.2051 -0.7098 -2.3661
 2241SOL    HW218183   1.357   1.715   3.669  1.9505  0.7567 -0.2207
 2242SOL     OW18184   1.515   3.161   4.417 -0.5221  0.1272 -0.1172
 2242SOL    HW118185   1.450   3.228   4.440  1.6710  2.3023 -0.1708
 2242SOL    HW218186   1.550   3.204   4.339 -0.1782 -2.2314 -1.2303
 2243SOL     OW18187   0.424   2.374   1.825 -0.3384 -0.3312 -0.2172
 2243SOL    HW118188   0.454   2.333   1.906 -1.3438 -1.4730 -0.4122
 2243SOL    HW218189   0.457   2.464   1.829  0.1261 -0.5062 -0.1382
 2244SOL     OW18190   3.588   3.830   6.453  0.1062 -0.0762  0.6175
 2244SOL    HW118191   3.504   3.783   6.453 -0.5038  1.0164  2.3237
 2244SOL    HW218192   3.561   3.915   6.487  0.0181  0.1042  0.1020
 2245SOL     OW18193   3.007   4.064   4.539  0.6248  0.1152  0.0420
 2245SOL    HW118194   3.028   4.064   4.445  1.3240  0.6994  0.2035
 2245SOL    HW218195   2.932   4.004   4.547  1.5104 -0.7916  1.4508
 2246SOL     OW18196   1.814   1.410  11.915 -0.1457  0.0739 -0.3175
 2246SOL    HW118197   1.887   1.371  11.964  0.3073  0.3597 -0.7648
 2246SOL    HW218198   1.862   1.480  11.872 -1.1856  0.4673 -0.8377
 2247SOL     OW18199   0.402   2.594  11.387 -0.0347  0.0085  0.5717
 2247SOL    HW118200   0.373   2.503  11.380 -0.5544  0.0818  1.7097
 2247SOL    HW218201   0.419   2.601  11.481  1.5903  1.1245  0.1942
 2248SOL     OW18202   2.706   2.376  12.024 -0.1815  0.3593  0.3278
 2248SOL    HW118203   2.761   2.446  11.989 -1.9919  0.0277 -3.2080
 2248SOL    HW218204   2.638   2.429  12.065  1.1237  0.7103  2.0357
 2249SOL     OW18205   1.174   0.608   2.675 -0.5292 -0.2026  0.0033
 2249SOL    HW118206   1.107   0.674   2.656  0.0915  1.1114  2.2947
 2249SOL    HW218207   1.230   0.619   2.598 -1.5345 -2.4671 -1.0505
 2250SOL     OW18208   1.232   4.709   2.513  0.0312  0.2963  0.3324
 2250SOL    HW118209   1.325   4.687   2.512  0.2140  1.0569  1.2617
 2250SOL    HW218210   1.218   4.697   2.419 -1.6463  2.3411  0.3226
 2251SOL     OW18211   4.581   0.230   9.341  0.5005  0.1364  0.1351
 2251SOL    HW118212   4.564   0.318   9.309 -0.4038 -0.2033 -0.3055
 2251SOL    HW218213   4.676   0.220   9.326  0.5180  0.1911  0.2088
 2252SOL     OW18214   4.283   2.461   1.641 -0.4791 -0.0610 -0.2221
 2252SOL    HW118215   4.257   2.448   1.732  2.1011  0.4605  0.6115
 2252SOL    HW218216   4.269   2.555   1.628 -1.8730 -0.5662 -2.4289
 2253SOL     OW18217   1.456   4.606   2.992 -0.1596 -0.2684  0.0385
 2253SOL    HW118218   1.479   4.555   2.914 -2.8828  2.6025 -2.6217
 2253SOL    HW218219   1.467   4.690   2.947  1.6378 -0.1090  0.8094
 2254SOL     OW18220   3.755   1.911  10.607  0.0640  0.7475 -0.2953
 2254SOL    HW118221   3.731   1.822  10.631  0.5926 -0.1434 -2.9945
 2254SOL    HW218222   3.680   1.961  10.640  0.3767  1.1581 -0.2023
 2255SOL     OW18223   2.632   2.037   7.269  0.1314  0.3179  0.0254
 2255SOL    HW118224   2.688   2.049   7.346 -4.6647  1.9188  3.2855
 2255SOL    HW218225   2.648   1.945   7.248  2.3536  1.0262 -1.3765
 2256SOL     OW18226   1.083   1.996  15.596 -0.4897 -0.9616  0.2192
 2256SOL    HW118227   1.061   1.905  15.618 -0.3180 -0.7699  1.1854
 2256SOL    HW218228   1.100   2.026  15.685 -2.8459  1.6497 -0.1900
 2257SOL     OW18229   4.312   1.915   5.008 -0.1313  0.6068  0.2601
 2257SOL    HW118230   4.336   1.911   4.915 -1.1169  0.0943  0.0208
 2257SOL    HW218231   4.230   1.866   5.014  0.8051 -1.1143 -0.9080
 2258SOL     OW18232   1.066   2.105   9.413  0.1733 -0.3403  1.2166
 2258SOL    HW118233   1.050   2.084   9.321  2.1330 -0.5855  0.9466
 2258SOL    HW218234   1.126   2.033   9.432  0.8684  0.1670  0.9387
 2259SOL     OW18235   1.776   1.189  15.528  0.1335 -0.0357  0.2528
 2259SOL    HW118236   1.858   1.142  15.511  0.6416  0.6877  0.7027
 2259SOL    HW218237   1.730   1.118  15.572  0.9661 -0.2853  0.7271
 2260SOL     OW18238   2.801   2.840   4.227  0.6845 -0.0308  0.1843
 2260SOL    HW118239   2.783   2.837   4.132  2.0298 -0.1316 -0.0609
 2260SOL    HW218240   2.735   2.906   4.249 -0.2629 -0.7625 -0.4305
 2261SOL     OW18241   1.574   3.007   5.143 -0.4040  0.3951 -0.3574
 2261SOL    HW118242   1.559   2.967   5.228  1.4772 -1.7821 -1.0654
 2261SOL    HW218243   1.511   2.961   5.088 -0.8916 -0.1218  0.6315
 2262SOL     OW18244   0.770   2.559  11.635 -0.1237  0.4174  0.0814
 2262SOL    HW118245   0.804   2.646  11.615 -0.9804  0.2370 -2.2054
 2262SOL    HW218246   0.773   2.518  11.548  1.7526 -2.3307  1.4287
 2263SOL     OW18247   1.851   1.029   8.009  0.5174 -0.2303 -0.9912
 2263SOL    HW118248   1.822   1.023   7.918  1.1404  1.3548 -1.2826
 2263SOL    HW218249   1.931   1.079   7.991  1.4887 -1.5476 -0.3399
 2264SOL     OW18250   1.096   3.361   5.853 -0.1453  0.1136  0.3444
 2264SOL    HW118251   1.003   3.381   5.861  0.1392  1.8464 -0.4803
 2264SOL    HW218252   1.113   3.377   5.760  0.9228 -2.8081  0.0342
 2265SOL     OW18253   1.064   4.577   5.095 -0.3176 -0.2234  0.5490
 2265SOL    HW118254   1.150   4.605   5.127 -1.6184  3.8395  0.5297
 2265SOL    HW218255   1.038   4.667   5.073  2.0062  0.5549  0.9018
 2266SOL     OW18256   0.852   1.392  16.673 -0.1129  0.0806  0.3451
 2266SOL    HW118257   0.818   1.325  16.614  0.4208  1.3303 -1.3867
 2266SOL    HW218258   0.810   1.349  16.748 -0.8363 -0.5240 -0.4034
 2267SOL     OW18259   3.758   2.835   2.877 -0.1994 -0.0261 -0.5155
 2267SOL    HW118260   3.806   2.894   2.819 -3.9624  0.3229 -3.2234
 2267SOL    HW218261   3.828   2.813   2.938 -0.0183 -0.9335 -1.0595
 2268SOL     OW18262   1.138   3.601  16.386 -0.2851 -0.2729  0.3816
 2268SOL    HW118263   1.150   3.686  16.428  1.8550 -0.6205  0.4415
 2268SOL    HW218264   1.095   3.627  16.304  1.3044  0.1552 -0.3130
 2269SOL     OW18265   4.321   3.135   2.746 -0.4955 -0.4682 -0.0856
 2269SOL    HW118266   4.401   3.112   2.792 -1.0870 -0.6367  0.8521
 2269SOL    HW218267   4.256   3.141   2.816 -0.6703  0.1500 -0.3029
 2270SOL     OW18268   3.937   2.973   3.650  0.5553  0.4685  0.0758
 2270SOL    HW118269   3.898   3.040   3.594 -4.0520 -1.5726  0.8215
 2270SOL    HW218270   4.003   2.938   3.589  1.0204  0.4965  0.5652
 2271SOL     OW18271   0.094   0.012   4.767 -0.1310  0.4066  0.3919
 2271SOL    HW118272   0.030   0.046   4.829 -1.1735 -1.5562  0.4145
 2271SOL    HW218273   0.057   0.051   4.688  0.5362 -0.0254 -0.1281
 2272SOL     OW18274   3.566   2.099   4.385 -0.3234 -0.5087  0.1758
 2272SOL    HW118275   3.473   2.079   4.400 -0.1783 -2.8037 -1.9663
 2272SOL    HW218276   3.593   2.087   4.477 -1.2738 -0.3038  0.4853
 2273SOL     OW18277   0.670   2.250   1.196 -0.6654 -0.1043 -0.4890
 2273SOL    HW118278   0.751   2.201   1.201  0.0698  0.8839 -2.7491
 2273SOL    HW218279   0.706   2.327   1.152  1.0683 -1.2028 -0.9719
 2274SOL     OW18280   3.927   1.581   1.362 -0.5095  0.4028 -0.0257
 2274SOL    HW118281   4.010   1.540   1.336 -0.8322 -0.3621  0.1540
 2274SOL    HW218282   3.861   1.517   1.334 -0.6777 -0.0268  1.3653
 2275SOL     OW18283   0.806   2.467   5.268  0.3175 -0.0259 -0.1490
 2275SOL    HW118284   0.866   2.517   5.212 -0.0020  1.4495  0.8219
 2275SOL    HW218285   0.793   2.386   5.219  1.1930 -0.4752  0.3617
 2276SOL     OW18286   4.571   3.433  16.153 -0.0996 -0.2331  0.8297
 2276SOL    HW118287   4.601   3.490  16.224 -2.4867  1.8200  0.1855
 2276SOL    HW218288   4.656   3.434  16.109  0.0037  2.3300  1.0896
 2277SOL     OW18289   3.104   1.727   3.467 -0.0023  0.0969 -0.1352
 2277SOL    HW118290   3.057   1.692   3.543  0.2097 -1.6077 -0.7777
 2277SOL    HW218291   3.046   1.693   3.398 -0.7917  0.2929  0.4311
 2278SOL     OW18292   2.090   4.397   4.178 -0.1649  0.3130 -0.1437
 2278SOL    HW118293   2.179   4.368   4.157  0.3293  1.1503  0.7959
 2278SOL    HW218294   2.031   4.368   4.108  1.9038  0.6952 -2.0432
 2279SOL     OW18295   0.482   0.810   5.171 -0.2536  0.1524  0.6297
 2279SOL    HW118296   0.402   0.776   5.131  1.1056 -2.2121 -0.0833
 2279SOL    HW218297   0.448   0.899   5.178 -0.1744  0.2915 -0.6806
 2280SOL     OW18298   4.259   0.235   5.653  0.1788 -0.3986 -0.2452
 2280SOL    HW118299   4.280   0.239   5.747  0.1844 -0.1838 -0.2563
 2280SOL    HW218300   4.213   0.315   5.627  0.8112 -0.6764 -2.1943
 2281SOL     OW18301   1.306   2.629   6.737 -0.3379  0.4524  0.4023
 2281SOL    HW118302   1.262   2.707   6.770 -5.2384 -1.8733 -0.6722
 2281SOL    HW218303   1.316   2.666   6.649  0.5039  0.2936  0.4340
 2282SOL     OW18304   0.739   0.389   2.944 -0.4558 -0.4533  0.4959
 2282SOL    HW118305   0.806   0.330   2.910 -0.2165 -0.9769  1.8830
 2282SOL    HW218306   0.733   0.464   2.885  2.8409  0.3325  1.1309
 2283SOL     OW18307   0.881   2.849  11.933 -0.5088  0.2110  0.3473
 2283SOL    HW118308   0.945   2.835  11.863 -1.0964 -0.4892 -0.0484
 2283SOL    HW218309   0.866   2.942  11.912 -2.6500 -0.4289 -0.9614
 2284SOL     OW18310   2.561   0.144   3.128 -0.2993  0.0709 -0.6028
 2284SOL    HW118311   2.591   0.161   3.039  0.6774 -0.3275 -0.3474
 2284SOL    HW218312   2.475   0.186   3.125 -0.0204  0.7834  1.1267
 2285SOL     OW18313   3.917   3.257   5.292  0.3578 -0.5381  0.0242
 2285SOL    HW118314   3.843   3.221   5.243 -1.3802  1.7533  0.9528
 2285SOL    HW218315   3.881   3.291   5.374 -0.8748  0.8335 -1.0797
 2286SOL     OW18316   2.762   3.882   2.666 -0.0564 -0.4543  0.5002
 2286SOL    HW118317   2.766   3.931   2.748  1.1170  1.0734 -0.4720
 2286SOL    HW218318   2.671   3.886   2.639  0.5057 -3.0588 -1.7597
 2287SOL     OW18319   1.427   3.598  13.025 -0.3668 -0.3340  0.1689
 2287SOL    HW118320   1.518   3.567  13.024 -0.1313  0.3510  0.3452
 2287SOL    HW218321   1.450   3.689  13.005 -1.4064  0.7622  4.0480
 2288SOL     OW18322   1.946   2.528   5.760  0.9574  0.0610  0.2346
 2288SOL    HW118323   2.009   2.518   5.832  0.9983 -2.9789 -0.2492
 2288SOL    HW218324   1.939   2.435   5.737  0.8639 -0.3907  2.1313
 2289SOL     OW18325   4.282   2.958   9.339 -0.6304  0.3619 -0.1077
 2289SOL    HW118326   4.267   3.049   9.364 -0.7289  0.5187 -0.7242
 2289SOL    HW218327   4.364   2.940   9.385 -0.4190  0.5942 -0.3939
 2290SOL     OW18328   3.535   3.519   5.469 -0.0699 -0.0506 -0.6410
 2290SOL    HW118329   3.463   3.577   5.444  0.1704  1.1433  1.4233
 2290SOL    HW218330   3.508   3.440   5.423  0.6772 -1.4466  1.3378
 2291SOL     OW18331   2.151   2.152   4.431 -0.5825 -0.3575 -0.1295
 2291SOL    HW118332   2.243   2.175   4.419 -0.9780  0.9642 -0.6791
 2291SOL    HW218333   2.133   2.194   4.515  1.8102 -1.0101  0.6801
 2292SOL     OW18334   4.392   4.540   6.009  0.2706 -0.7210  0.0941
 2292SOL    HW118335   4.398   4.497   6.095  0.5734 -1.1062 -0.1222
 2292SOL    HW218336   4.357   4.468   5.956 -1.4545  0.0865  0.1289
 2293SOL     OW18337   3.428   1.855   5.831  0.1276  0.0885  0.7590
 2293SOL    HW118338   3.513   1.821   5.857  0.6289  2.1646  1.8189
 2293SOL    HW218339   3.435   1.862   5.735  1.1487 -0.5778  0.7873
 2294SOL     OW18340   2.401   2.247  11.116  0.0114  0.4363  0.4699
 2294SOL    HW118341   2.404   2.181  11.047  2.0883 -0.8092  1.7691
 2294SOL    HW218342   2.337   2.304  11.072  0.3856  0.9024  0.5287
 2295SOL     OW18343   3.114   3.820   8.363  0.3658  0.0363 -0.4066
 2295SOL    HW118344   3.136   3.791   8.275 -0.2520 -2.5987  0.2819
 2295SOL    HW218345   3.036   3.765   8.372 -1.0539  2.2152  0.4459
 2296SOL     OW18346   3.924   1.360   6.393 -0.0580  0.1626 -0.1161
 2296SOL    HW118347   4.016   1.378   6.373  0.3351 -1.5081  0.2023
 2296SOL    HW218348   3.884   1.444   6.371  0.2580 -0.1847 -2.0578
 2297SOL     OW18349   4.431   1.406   4.905  0.1740 -0.4922 -0.5364
 2297SOL    HW118350   4.367   1.337   4.888 -1.5311  0.6255  1.3836
 2297SOL    HW218351   4.398   1.444   4.986  0.0987 -2.3729  0.3054
 2298SOL     OW18352   3.493   1.427   5.010  0.4209  0.5156  0.0992
 2298SOL    HW118353   3.480   1.358   4.945  0.0717  0.4893  0.1955
 2298SOL    HW218354   3.413   1.481   5.009  1.4690  2.0636  0.1100
 2299SOL     OW18355   0.661   4.595   8.926 -0.2432 -0.0500  0.3709
 2299SOL    HW118356   0.656   4.600   9.021 -1.3511 -0.7332  0.3593
 2299SOL    HW218357   0.724   4.665   8.914 -1.6695  1.6002  2.5948
 2300SOL     OW18358   2.429   4.073  16.254  0.5685 -0.1344  0.7316
 2300SOL    HW118359   2.503   4.022  16.288  0.7407 -0.9618 -0.9052
 2300SOL    HW218360   2.409   4.025  16.174  0.0454  1.7289 -0.2422
 2301SOL     OW18361   3.659   0.179   9.576  0.0541 -0.2043  0.3910
 2301SOL    HW118362   3.624   0.159   9.489  0.9506 -2.1628  0.4897
 2301SOL    HW218363   3.646   0.095   9.619  2.3076 -0.0664  1.3152
 2302SOL     OW18364   0.859   3.314  11.131 -0.2254 -0.1063 -0.4636
 2302SOL    HW118365   0.941   3.287  11.172  0.8932  0.5972 -2.2312
 2302SOL    HW218366   0.893   3.376  11.067 -2.0731  1.4071  0.0084
 2303SOL     OW18367   0.051   1.914   5.764 -1.0807  0.2877  0.6440
 2303SOL    HW118368   4.717   1.855   5.815 -0.3728 -1.5258 -0.7038
 2303SOL    HW218369   0.056   1.849   5.694  0.4839  2.5348 -1.3375
 2304SOL     OW18370   3.023   2.546  16.837 -0.4219  0.1216  0.9022
 2304SOL    HW118371   3.006   2.635  16.869  2.5276  0.1862  2.3009
 2304SOL    HW218372   2.934   2.512  16.838 -0.3280 -0.0716  2.9710
 2305SOL     OW18373   0.542   4.334   5.371  0.1925 -0.1003  0.2085
 2305SOL    HW118374   0.612   4.372   5.425  0.0797 -0.3001  0.4950
 2305SOL    HW218375   0.472   4.319   5.434  0.4372  2.8594  1.1573
 2306SOL     OW18376   2.882   3.974   6.238 -0.8101 -0.6160 -0.3536
 2306SOL    HW118377   2.870   3.942   6.148 -0.3446  0.5031 -0.8206
 2306SOL    HW218378   2.900   4.062   6.206  0.4204  0.2720  2.8411
 2307SOL     OW18379   1.941   2.908  11.199 -0.0644  0.0081  0.4955
 2307SOL    HW118380   1.985   2.958  11.130  1.7441 -0.4959  1.2791
 2307SOL    HW218381   2.011   2.910  11.264  1.3191  0.7301 -1.0168
 2308SOL     OW18382   2.276   1.987  10.374 -0.1675 -0.1450 -0.5195
 2308SOL    HW118383   2.362   1.954  10.350 -1.3722 -1.5130 -2.9240
 2308SOL    HW218384   2.243   2.026  10.294 -1.2976 -0.0535 -0.0111
 2309SOL     OW18385   2.855   3.956   7.080  0.6286  0.5381 -0.1324
 2309SOL    HW118386   2.936   3.925   7.120 -0.2310  1.0553  2.0343
 2309SOL    HW218387   2.792   3.936   7.150 -0.4282 -0.1270 -1.2821
 2310SOL     OW18388   3.600   4.678   9.401  0.4556 -0.0487  0.4742
 2310SOL    HW118389   3.686   4.711   9.374  0.4123  0.0303  0.4312
 2310SOL    HW218390   3.557   4.673   9.315 -1.7367  2.1891  1.4338
 2311SOL     OW18391   1.312   4.211  12.779 -0.0164 -0.2107  0.0872
 2311SOL    HW118392   1.244   4.269  12.745 -0.7019 -1.1821 -0.2029
 2311SOL    HW218393   1.268   4.174  12.856  1.1586  1.9955  1.8228
 2312SOL     OW18394   4.133   1.091   5.446 -0.3828 -0.1188  0.6932
 2312SOL    HW118395   4.079   1.030   5.396  1.2971  1.6531 -3.3406
 2312SOL    HW218396   4.073   1.160   5.476  0.3012  0.5604  0.5101
 2313SOL     OW18397   1.758   0.888   3.577 -0.1052  0.5273  0.4448
 2313SOL    HW118398   1.728   0.801   3.603  1.2961 -0.0354  0.1350
 2313SOL    HW218399   1.790   0.875   3.488  1.1736 -1.4874  1.1999
 2314SOL     OW18400   1.683   1.755   3.055 -0.5865  0.3452 -0.0945
 2314SOL    HW118401   1.702   1.811   2.979 -0.3479  2.4709  1.5375
 2314SOL    HW218402   1.702   1.674   3.007  0.1203  1.6428 -2.0024
 2315SOL     OW18403   2.352   4.395   6.588 -1.0884  0.0918 -0.1483
 2315SOL    HW118404   2.260   4.371   6.574 -1.3929  0.1167  1.8882
 2315SOL    HW218405   2.396   4.315   6.560 -2.1134 -0.5944  0.2179
 2316SOL     OW18406   4.263   0.301   2.806 -0.0613 -0.1043  0.0249
 2316SOL    HW118407   4.320   0.240   2.851  0.4543  0.1771 -0.2459
 2316SOL    HW218408   4.317   0.355   2.749 -0.4406 -2.4894 -2.6126
 2317SOL     OW18409   0.767   1.644  11.941 -0.4139  0.3613 -0.4413
 2317SOL    HW118410   0.849   1.675  11.979 -0.5286  0.9445 -0.6624
 2317SOL    HW218411   0.786   1.595  11.861  0.3351  2.1803 -1.3878
 2318SOL     OW18412   3.183   2.818   7.816 -0.2291  0.3400 -0.3171
 2318SOL    HW118413   3.178   2.821   7.912 -0.9214 -0.4418 -0.3326
 2318SOL    HW218414   3.090   2.822   7.792 -0.9045 -2.3704  1.8486
 2319SOL     OW18415   2.392   3.890   0.240 -0.6949  0.0525 -0.7115
 2319SOL    HW118416   2.367   3.906   0.149 -0.8888  1.8380 -0.3426
 2319SOL    HW218417   2.427   3.977   0.260  0.5246 -1.1049  2.2343
 2320SOL     OW18418   4.365   4.214   7.759 -0.1720  0.1421 -0.0324
 2320SOL    HW118419   4.349   4.223   7.665  2.0378  0.6863 -0.3391
 2320SOL    HW218420   4.428   4.285   7.768  0.3966 -0.4362  0.5588
 2321SOL     OW18421   1.999   0.195   1.811 -0.3425 -0.8614  0.4634
 2321SOL    HW118422   2.010   0.217   1.904  1.5651 -0.4567  0.1521
 2321SOL    HW218423   2.089   0.197   1.777 -0.8506 -2.1362 -0.9005
 2322SOL     OW18424   1.483   2.536  10.014 -0.5226 -0.0544 -0.7835
 2322SOL    HW118425   1.465   2.516  10.106 -1.3781  2.0074 -0.5223
 2322SOL    HW218426   1.537   2.465   9.978  1.6806  1.3595 -0.2892
 2323SOL     OW18427   3.593   0.541   8.576 -0.2538 -0.9478  0.2282
 2323SOL    HW118428   3.612   0.516   8.666  1.5515 -0.6472 -0.0820
 2323SOL    HW218429   3.659   0.608   8.559 -0.5416 -1.2174 -2.0017
 2324SOL     OW18430   4.489   2.231   1.091 -0.5969 -0.0726  0.3411
 2324SOL    HW118431   4.513   2.182   1.012  0.9616  3.0985 -1.1613
 2324SOL    HW218432   4.519   2.163   1.151 -1.1825 -1.1268 -0.5566
 2325SOL     OW18433   3.318   0.152   8.433  0.0265  0.0215  0.6443
 2325SOL    HW118434   3.353   0.067   8.406  0.0708 -0.6254  2.7493
 2325SOL    HW218435   3.402   0.198   8.433  1.2708 -2.2289 -0.9162
 2326SOL     OW18436   2.705   4.629  14.537 -0.2011 -0.4196 -0.6523
 2326SOL    HW118437   2.716   4.556  14.598  0.6650  0.2495 -0.0099
 2326SOL    HW218438   2.744   4.586  14.460  0.1583 -0.5698 -0.3904
 2327SOL     OW18439   4.697   1.565  15.888  0.4223  0.3314 -0.4509
 2327SOL    HW118440   0.035   1.617  15.833 -0.6913  1.5462 -0.4906
 2327SOL    HW218441   4.655   1.631  15.944 -0.4798  1.1546 -2.1024
 2328SOL     OW18442   2.694   2.987   6.373 -0.1371 -0.4779 -0.4828
 2328SOL    HW118443   2.672   3.062   6.317  1.9332 -0.4679 -1.2891
 2328SOL    HW218444   2.782   2.968   6.339 -0.4209 -0.5095 -1.2138
 2329SOL     OW18445   1.677   0.817  11.173  0.1790  0.1768  0.4953
 2329SOL    HW118446   1.687   0.813  11.269 -0.6268  1.0788  0.6121
 2329SOL    HW218447   1.736   0.891  11.161 -0.2472  0.5977  0.9991
 2330SOL     OW18448   3.729   2.134  15.431 -0.1124 -0.0103 -0.0395
 2330SOL    HW118449   3.797   2.199  15.448 -0.2225  0.7059 -2.3546
 2330SOL    HW218450   3.647   2.181  15.418  1.3648  2.0587 -1.6628
 2331SOL     OW18451   3.583   0.680   5.258 -0.2200 -0.3255 -0.1466
 2331SOL    HW118452   3.660   0.729   5.227  0.1964  0.4504  2.1198
 2331SOL    HW218453   3.595   0.593   5.219  0.6254 -0.2219 -0.1351
 2332SOL     OW18454   0.648   2.094   3.244  0.3853  0.3638  0.5231
 2332SOL    HW118455   0.622   2.049   3.324  0.3013  1.2669  1.0029
 2332SOL    HW218456   0.637   2.188   3.261  1.9361  0.3058  1.8338
 2333SOL     OW18457   2.957   0.708   9.013 -0.7168  0.3158  0.3651
 2333SOL    HW118458   2.921   0.691   8.927  0.0675 -0.2945  0.1612
 2333SOL    HW218459   3.037   0.754   8.985 -0.8204  0.7778  0.8186
 2334SOL     OW18460   4.102   4.324   5.061 -0.1652 -0.0120  0.2469
 2334SOL    HW118461   4.101   4.415   5.030  0.2493  0.4911  1.7115
 2334SOL    HW218462   4.143   4.271   4.993  1.6907 -0.1617  1.4893
 2335SOL     OW18463   2.803   0.826   2.329 -0.0901  0.5452  0.1855
 2335SOL    HW118464   2.831   0.895   2.270 -2.0367  0.0453 -1.3291
 2335SOL    HW218465   2.871   0.824   2.396 -0.9283 -1.4707  0.9781
 2336SOL     OW18466   3.132   1.571   8.171 -0.0941  0.1958  0.1197
 2336SOL    HW118467   3.048   1.542   8.134  0.0740 -1.4721  1.0758
 2336SOL    HW218468   3.184   1.567   8.091 -2.0501  0.8581 -1.1984
 2337SOL     OW18469   1.793   0.864   7.350 -0.5883 -0.4428 -0.1696
 2337SOL    HW118470   1.721   0.850   7.289 -0.7011  0.6417 -0.2952
 2337SOL    HW218471   1.760   0.934   7.407  0.7066 -0.8037  1.0471
 2338SOL     OW18472   2.017   3.336   6.391 -0.5736 -0.5110  0.4016
 2338SOL    HW118473   1.931   3.375   6.376  0.1809  0.6468 -0.9451
 2338SOL    HW218474   2.026   3.283   6.312 -2.1145 -0.6402  0.3114
 2339SOL     OW18475   1.643   3.294   6.582 -0.0133 -0.6016  0.2062
 2339SOL    HW118476   1.704   3.358   6.620  0.5154 -0.8504 -0.2406
 2339SOL    HW218477   1.585   3.281   6.657 -0.3635 -0.5217 -0.0526
 2340SOL     OW18478   0.119   0.782   8.770 -0.6023  0.1515  0.1364
 2340SOL    HW118479   0.099   0.859   8.716  0.8946 -0.1182 -0.7939
 2340SOL    HW218480   0.133   0.716   8.701 -3.4543 -0.8131  0.4708
 2341SOL     OW18481   2.611   4.235  13.622 -0.1091  0.0973 -0.4139
 2341SOL    HW118482   2.610   4.294  13.546  2.5439 -0.2826 -0.7454
 2341SOL    HW218483   2.538   4.265  13.676 -0.4232  0.2261 -0.9059
 2342SOL     OW18484   0.972   0.448   0.135  0.2509 -0.5828 -0.0539
 2342SOL    HW118485   0.922   0.432   0.215 -1.7649  0.9952 -0.9902
 2342SOL    HW218486   1.060   0.472   0.163  1.0188 -1.8349 -1.3994
 2343SOL     OW18487   1.756   1.568  15.882  0.2341  0.0794  0.0631
 2343SOL    HW118488   1.714   1.514  15.816 -1.5618  1.5258  0.0351
 2343SOL    HW218489   1.838   1.597  15.842  0.2772 -1.7699 -1.1743
 2344SOL     OW18490   0.598   4.376   5.675  0.4301 -0.1703  0.2624
 2344SOL    HW118491   0.639   4.297   5.639 -1.6216 -1.6127  1.0457
 2344SOL    HW218492   0.510   4.370   5.638  0.6903  2.8023 -0.8008
 2345SOL     OW18493   3.091   3.173   7.257 -0.5742 -0.0176 -0.7900
 2345SOL    HW118494   3.114   3.206   7.170 -1.5798  1.8703 -0.3484
 2345SOL    HW218495   3.176   3.187   7.300 -0.1656 -1.5826 -1.1036
 2346SOL     OW18496   3.632   3.846  10.726 -0.6565 -0.0140  0.0923
 2346SOL    HW118497   3.714   3.859  10.678 -0.5324 -0.8832  0.0778
 2346SOL    HW218498   3.623   3.752  10.713 -3.1303  0.1437  0.7313
 2347SOL     OW18499   4.047   1.133   5.785  0.1803  0.4925  0.2822
 2347SOL    HW118500   3.998   1.155   5.865 -1.6749 -0.2185 -0.6698
 2347SOL    HW218501   3.987   1.158   5.715  1.6561  2.6266 -0.2272
 2348SOL     OW18502   2.359   2.021   8.018  0.3111  0.2523 -0.6527
 2348SOL    HW118503   2.395   2.058   7.938 -1.7097  4.6880  0.5272
 2348SOL    HW218504   2.340   1.929   7.998  0.4561 -0.0214  0.4385
 2349SOL     OW18505   1.198   3.281   2.232 -0.0473 -0.2077  0.4732
 2349SOL    HW118506   1.243   3.237   2.304  1.1130  1.0840  0.5257
 2349SOL    HW218507   1.151   3.210   2.188 -2.5764  0.7361  1.6489
 2350SOL     OW18508   0.380   1.039   1.589 -0.2279 -0.0118 -0.0935
 2350SOL    HW118509   0.455   1.083   1.550  0.3803  0.4990  1.6541
 2350SOL    HW218510   0.424   1.004   1.667  1.5467  1.5176 -0.4052
 2351SOL     OW18511   0.893   2.341   0.076 -0.0343 -0.2893 -0.4361
 2351SOL    HW118512   0.890   2.437   0.067  1.1977 -0.2468 -0.3021
 2351SOL    HW218513   0.985   2.331   0.097  0.2709  0.9588 -1.1763
 2352SOL     OW18514   1.793   0.001   9.529  0.4699  0.1729  0.0018
 2352SOL    HW118515   1.715   4.703   9.581  0.8357 -0.1908  0.4161
 2352SOL    HW218516   1.843   0.048   9.596 -2.1439  1.2611  1.1836
 2353SOL     OW18517   3.715   1.913  14.194  0.0798  0.3145 -0.1902
 2353SOL    HW118518   3.639   1.966  14.171  0.7336  0.0640 -2.8934
 2353SOL    HW218519   3.774   1.939  14.124  0.7770 -1.0296 -0.1234
 2354SOL     OW18520   0.510   1.641   3.959  0.0182  0.3556  0.3048
 2354SOL    HW118521   0.506   1.685   4.043 -1.3202 -0.4671  0.6761
 2354SOL    HW218522   0.430   1.672   3.915  0.0725  1.1727  0.7959
 2355SOL     OW18523   1.249   3.207  15.412 -0.8787 -0.1110  0.5237
 2355SOL    HW118524   1.326   3.162  15.376 -1.6906 -2.1705  1.3456
 2355SOL    HW218525   1.223   3.267  15.342 -1.9743 -0.8635  0.2881
 2356SOL     OW18526   2.302   3.968  17.069  0.0177  0.3447  0.4019
 2356SOL    HW118527   2.396   3.952  17.056  0.6676  2.2968  2.6238
 2356SOL    HW218528   2.309   4.006  17.157  0.3911  0.3558  0.3676
 2357SOL     OW18529   3.621   3.415  11.079 -0.0203 -0.5443  0.4985
 2357SOL    HW118530   3.616   3.388  11.171 -1.4192  0.6936  0.7920
 2357SOL    HW218531   3.689   3.482  11.079 -0.0841 -0.4787  0.7989
 2358SOL     OW18532   3.118   1.001   4.721  0.4379 -0.3734 -0.0956
 2358SOL    HW118533   3.033   0.978   4.683 -0.8873 -0.3694  2.8652
 2358SOL    HW218534   3.142   0.919   4.764  0.2737 -0.4438 -0.1370
 2359SOL     OW18535   3.056   1.123   7.942  0.1244 -0.0690 -0.2578
 2359SOL    HW118536   3.104   1.048   7.977  0.9575  0.4080 -0.3782
 2359SOL    HW218537   3.119   1.184   7.979  0.7569 -1.9277  1.6970
 2360SOL     OW18538   4.057   1.923   0.818 -0.5887 -0.8091  0.1344
 2360SOL    HW118539   4.123   1.887   0.877  0.8609  0.1945 -0.8759
 2360SOL    HW218540   3.985   1.944   0.878  0.1849 -0.3626  0.9033
 2361SOL     OW18541   1.752   0.833   8.922 -0.4587 -0.1357 -1.0307
 2361SOL    HW118542   1.723   0.743   8.934 -0.9862  0.4698  2.3618
 2361SOL    HW218543   1.836   0.824   8.968 -1.4087  2.5232  1.2807
 2362SOL     OW18544   2.677   1.431   8.770 -0.3431  0.0671 -0.0881
 2362SOL    HW118545   2.648   1.451   8.681 -1.5604 -1.6805 -0.0884
 2362SOL    HW218546   2.666   1.337   8.782 -1.0182 -0.0544 -1.6862
 2363SOL     OW18547   0.113   1.897   3.622  0.1044 -0.0283 -0.1824
 2363SOL    HW118548   0.177   1.854   3.565 -0.5835 -1.9298  0.4724
 2363SOL    HW218549   0.069   1.957   3.562 -2.2381 -0.8783  0.6748
 2364SOL     OW18550   4.039   0.620   5.802  0.0424  0.2019  0.1263
 2364SOL    HW118551   3.978   0.692   5.790 -0.0173  0.2989  0.9904
 2364SOL    HW218552   4.016   0.555   5.737 -2.1484  1.3433 -0.2312
 2365SOL     OW18553   1.800   3.049  12.035 -0.2581 -0.4286 -0.6191
 2365SOL    HW118554   1.855   3.119  12.002 -0.2196  1.3176  3.1030
 2365SOL    HW218555   1.806   2.991  11.959  1.5803 -0.5398 -0.3939
 2366SOL     OW18556   0.264   4.578  11.646  0.0737 -0.3193  0.1510
 2366SOL    HW118557   0.277   4.592  11.553  0.2675 -2.3696 -0.1273
 2366SOL    HW218558   0.347   4.537  11.672  0.5499  0.4606 -0.1697
 2367SOL     OW18559   1.157   3.081   7.973  0.3006 -0.8398 -0.1315
 2367SOL    HW118560   1.215   3.067   8.048  0.0066  0.2926  0.3085
 2367SOL    HW218561   1.083   3.028   8.002 -2.0556  1.6480 -1.5847
 2368SOL     OW18562   0.265   3.392  13.246  0.0003  0.0687 -0.4632
 2368SOL    HW118563   0.175   3.378  13.275  0.0976 -0.9230 -0.6262
 2368SOL    HW218564   0.283   3.315  13.192  1.9715  0.0706  0.1743
 2369SOL     OW18565   2.542   3.121   3.462 -0.2907  0.0211 -0.4393
 2369SOL    HW118566   2.587   3.190   3.413 -1.3970  1.1412  0.1185
 2369SOL    HW218567   2.534   3.055   3.394  0.0970 -0.6413  0.1648
 2370SOL     OW18568   0.487   2.161   1.401 -0.5744  0.0721 -0.2102
 2370SOL    HW118569   0.432   2.102   1.348  1.2489 -0.3574 -1.5939
 2370SOL    HW218570   0.560   2.181   1.343 -1.1976  3.0969  0.0393
 2371SOL     OW18571   1.381   2.835   3.762 -0.1406 -0.1437 -0.1443
 2371SOL    HW118572   1.408   2.788   3.841 -0.5999  0.3506  0.3067
 2371SOL    HW218573   1.296   2.870   3.791 -0.5538 -0.1546 -1.3726
 2372SOL     OW18574   0.630   1.225   6.846 -0.2132  0.2303  0.0849
 2372SOL    HW118575   0.685   1.279   6.789 -3.2627  2.7881 -0.4682
 2372SOL    HW218576   0.605   1.159   6.781 -2.0736 -0.5213  1.5794
 2373SOL     OW18577   3.809   0.564   8.034 -0.6440 -0.5200  0.1942
 2373SOL    HW118578   3.898   0.552   8.001 -0.6148 -0.9250  0.4218
 2373SOL    HW218579   3.785   0.646   7.990  0.1504 -0.1976  0.3587
 2374SOL     OW18580   1.369   3.309   8.878 -0.1368 -0.1195 -0.3187
 2374SOL    HW118581   1.410   3.331   8.962 -0.5764 -0.2564 -0.0696
 2374SOL    HW218582   1.370   3.396   8.838 -1.4457  1.0290  2.1434
 2375SOL     OW18583   0.757   3.705   7.139  0.5698  0.0299  0.3737
 2375SOL    HW118584   0.828   3.651   7.174 -1.1132 -1.8865  0.8205
 2375SOL    HW218585   0.698   3.636   7.108 -1.8293  1.5220  1.5933
 2376SOL     OW18586   4.539   2.022   0.942  0.3026 -0.1555  0.5870
 2376SOL    HW118587   4.515   2.039   0.851  0.2036 -0.4468  0.5556
 2376SOL    HW218588   4.621   1.973   0.931  0.4647 -0.3727  2.8077
 2377SOL     OW18589   0.973   4.032   4.020 -0.0914 -0.8564 -0.4359
 2377SOL    HW118590   1.024   3.952   4.034  2.1185  0.7940  0.9149
 2377SOL    HW218591   0.882   4.006   4.034 -0.1817 -0.0455  0.4380
 2378SOL     OW18592   0.721   1.789   4.142 -0.1024  0.3016 -0.8635
 2378SOL    HW118593   0.650   1.847   4.115 -0.1995  1.0957  1.0920
 2378SOL    HW218594   0.797   1.847   4.131  2.8968 -3.9221 -2.0577
 2379SOL     OW18595   0.398   2.385   7.548  0.1761  0.4073 -0.3871
 2379SOL    HW118596   0.368   2.360   7.461  0.4668 -2.6263  0.3793
 2379SOL    HW218597   0.316   2.388   7.598  0.7528 -0.4416  0.6118
 2380SOL     OW18598   4.525   3.349   5.737  0.7828  0.2257 -0.2948
 2380SOL    HW118599   4.576   3.277   5.699  0.7185 -0.4431  0.8783
 2380SOL    HW218600   4.444   3.348   5.686  1.1611 -2.5146 -0.8233
 2381SOL     OW18601   4.044   2.271   9.008  0.2574 -1.0794 -0.8011
 2381SOL    HW118602   3.971   2.225   9.049  1.2160 -1.2431  0.7174
 2381SOL    HW218603   4.023   2.249   8.917  1.6724  2.3471 -1.9566
 2382SOL     OW18604   4.317   3.014   0.894  0.2018  0.0291 -0.0196
 2382SOL    HW118605   4.313   2.919   0.887  0.5812 -0.0526  0.8353
 2382SOL    HW218606   4.370   3.022   0.974 -0.6204 -0.3663  0.5598
 2383SOL     OW18607   0.501   4.018   2.761  0.0287 -0.0090  0.0326
 2383SOL    HW118608   0.486   4.109   2.788  1.1827 -0.0990  0.9431
 2383SOL    HW218609   0.590   4.009   2.728  1.2440 -0.7111  3.5366
 2384SOL     OW18610   4.426   1.676   9.112 -0.0716  0.1426  0.0968
 2384SOL    HW118611   4.366   1.701   9.182  0.9943  1.6287  0.4722
 2384SOL    HW218612   4.507   1.706   9.154  0.5892 -2.9387  1.0683
 2385SOL     OW18613   3.764   2.990   6.616 -0.0922  0.2012  0.1702
 2385SOL    HW118614   3.745   2.983   6.523  0.1332  3.0959 -0.1210
 2385SOL    HW218615   3.678   3.020   6.645 -0.6742 -0.7916 -0.5561
 2386SOL     OW18616   1.676   1.580   1.198 -0.0555 -0.4318 -0.4423
 2386SOL    HW118617   1.672   1.542   1.285  2.0617  0.4036  0.0080
 2386SOL    HW218618   1.718   1.665   1.214  0.7145 -1.0471  0.7485
 2387SOL     OW18619   2.577   2.636   7.445 -0.1099 -0.4893  0.5379
 2387SOL    HW118620   2.557   2.716   7.495  0.0027 -0.4783  0.5664
 2387SOL    HW218621   2.624   2.579   7.506 -0.1735 -0.7285  0.3611
 2388SOL     OW18622   3.070   4.721   9.781  0.1763  0.5064  0.1620
 2388SOL    HW118623   3.154   0.046   9.774  0.5864 -0.4809 -1.2313
 2388SOL    HW218624   3.071   4.696   9.689 -0.5573  0.6996  0.1057
 2389SOL     OW18625   1.414   0.417   8.752  0.2009 -0.4403  0.0873
 2389SOL    HW118626   1.493   0.410   8.805 -0.2045  1.4392  0.9447
 2389SOL    HW218627   1.391   0.325   8.738  0.3310 -0.4410 -0.1230
 2390SOL     OW18628   0.906   2.916   6.919  0.5743 -0.2861 -0.8332
 2390SOL    HW118629   0.984   2.957   6.882 -0.1074 -0.2740 -2.2587
 2390SOL    HW218630   0.907   2.946   7.010  0.4456  2.5057 -1.7509
 2391SOL     OW18631   2.104   3.249   7.845 -0.3831  0.0847  0.6510
 2391SOL    HW118632   2.096   3.245   7.940  1.1729  0.4219  0.7874
 2391SOL    HW218633   2.018   3.216   7.819 -1.1862  0.3647  2.9357
 2392SOL     OW18634   4.087   1.839   6.283 -0.6484 -0.5222  0.3730
 2392SOL    HW118635   4.181   1.822   6.276 -0.9353 -1.7306 -0.3790
 2392SOL    HW218636   4.070   1.794   6.366 -1.8156 -1.0836 -0.1745
 2393SOL     OW18637   1.668   1.042   5.521  0.5260 -0.0042 -0.6380
 2393SOL    HW118638   1.675   1.062   5.614  1.4066  2.5171 -1.2392
 2393SOL    HW218639   1.755   1.064   5.486  0.6988  1.2569  0.6164
 2394SOL     OW18640   0.628   3.111   6.803  0.3691  0.4685  0.4710
 2394SOL    HW118641   0.691   3.045   6.774 -0.5021 -0.6560  1.1248
 2394SOL    HW218642   0.692   3.168   6.846 -1.8002  2.7109  0.7675
 2395SOL     OW18643   3.416   0.881   8.236 -0.0241 -0.2770 -0.8660
 2395SOL    HW118644   3.377   0.840   8.313  1.2228  1.5302  0.7057
 2395SOL    HW218645   3.481   0.821   8.198 -0.1042 -0.9861  0.1207
 2396SOL     OW18646   2.249   0.232   2.317 -0.0969  0.3138  0.4558
 2396SOL    HW118647   2.167   0.231   2.366 -1.4158  3.0304 -1.6324
 2396SOL    HW218648   2.265   0.327   2.316 -0.5182  0.3933  0.9566
 2397SOL     OW18649   3.418   1.399   7.242 -0.2663 -0.4091  0.2384
 2397SOL    HW118650   3.402   1.317   7.194  1.5403 -0.4088 -0.3862
 2397SOL    HW218651   3.370   1.464   7.191  1.3918  0.1121 -0.6784
 2398SOL     OW18652   4.389   2.321  16.364 -0.2205  0.2287 -0.4456
 2398SOL    HW118653   4.392   2.255  16.295  0.1415 -0.7361  0.4883
 2398SOL    HW218654   4.294   2.321  16.376 -0.3467  0.5262 -1.4239
 2399SOL     OW18655   1.046   3.112   9.853  0.7886 -0.0773 -0.3835
 2399SOL    HW118656   0.958   3.074   9.861  0.6652  0.3968  0.6157
 2399SOL    HW218657   1.040   3.162   9.772 -2.7621 -0.8080 -0.5806
 2400SOL     OW18658   4.209   2.603  15.031 -0.0816 -0.6435  0.1112
 2400SOL    HW118659   4.126   2.581  14.989 -0.1010 -2.9880  1.3631
 2400SOL    HW218660   4.263   2.591  14.953 -1.0415 -0.6946 -0.5497
 2401SOL     OW18661   4.420   3.408   7.821 -0.1719  0.4897 -0.0056
 2401SOL    HW118662   4.439   3.320   7.853 -2.1804 -0.0490 -0.2828
 2401SOL    HW218663   4.347   3.388   7.763  0.2772 -0.3199 -0.2988
 2402SOL     OW18664   1.658   4.027  12.948  0.0261  0.0504 -0.6004
 2402SOL    HW118665   1.663   4.109  12.898 -0.8028  0.8386  0.6172
 2402SOL    HW218666   1.745   4.025  12.988  0.0713 -0.7571 -0.7496
 2403SOL     OW18667   0.880   0.213  15.712  0.2362  0.4766 -0.4199
 2403SOL    HW118668   0.799   0.226  15.761  0.0731  0.3162 -0.6461
 2403SOL    HW218669   0.942   0.197  15.782 -0.4120 -2.5276 -0.5500
 2404SOL     OW18670   1.628   4.282   5.283 -0.1852  0.1294 -0.2739
 2404SOL    HW118671   1.717   4.298   5.251  0.2781  1.1153  1.5385
 2404SOL    HW218672   1.582   4.278   5.199 -1.4102  0.5392  0.3879
 2405SOL     OW18673   2.786   3.214   2.147  0.9287 -0.0097  0.0410
 2405SOL    HW118674   2.786   3.121   2.122  1.7182 -0.1581  0.5990
 2405SOL    HW218675   2.863   3.252   2.107 -0.7389  0.8908 -2.3032
 2406SOL     OW18676   2.820   2.228   7.040 -0.2633  0.0495  0.3330
 2406SOL    HW118677   2.759   2.167   6.997 -0.8025  0.8954 -0.0867
 2406SOL    HW218678   2.785   2.227   7.130 -1.1683  1.4151 -0.0060
 2407SOL     OW18679   4.171   0.809  11.059  0.2465 -0.4557  0.3479
 2407SOL    HW118680   4.245   0.858  11.023 -0.9500  1.0853  0.0205
 2407SOL    HW218681   4.212   0.787  11.143  0.8262 -0.5239  0.0491
 2408SOL     OW18682   4.412   3.482  16.924 -0.0932 -0.3018 -0.4062
 2408SOL    HW118683   4.440   3.438  16.844 -0.9833 -0.6149 -0.5477
 2408SOL    HW218684   4.495   3.520  16.951 -1.2721 -0.5704  3.5692
 2409SOL     OW18685   4.386   0.498   3.501 -0.0349  0.1500 -0.4395
 2409SOL    HW118686   4.359   0.408   3.484  0.4880 -0.4800  2.0979
 2409SOL    HW218687   4.413   0.529   3.414 -0.8911  0.0020 -0.7641
 2410SOL     OW18688   2.290   2.472   8.977  0.1968 -0.7505 -0.2051
 2410SOL    HW118689   2.372   2.425   8.989  0.3330 -0.2955  0.6787
 2410SOL    HW218690   2.220   2.416   9.011  0.5036 -0.9601  0.0902
 2411SOL     OW18691   3.780   3.374   3.649 -0.1178  0.2186 -0.6327
 2411SOL    HW118692   3.705   3.433   3.659  0.5100  0.9652 -0.3210
 2411SOL    HW218693   3.790   3.331   3.734 -0.3201 -0.2886 -0.8657
 2412SOL     OW18694   4.270   4.478  14.855  0.0844 -0.1399 -0.3299
 2412SOL    HW118695   4.345   4.425  14.829  1.5387  1.3862  0.6956
 2412SOL    HW218696   4.201   4.418  14.829  0.4227 -0.7979  0.3016
 2413SOL     OW18697   4.569   2.864   2.665 -0.6156 -0.8284 -0.0105
 2413SOL    HW118698   4.539   2.922   2.734  0.9883  2.1430 -1.8405
 2413SOL    HW218699   4.538   2.908   2.586  0.4942 -0.8467 -0.4507
 2414SOL     OW18700   1.153   1.084   7.127 -0.2506  0.3473  0.4014
 2414SOL    HW118701   1.196   1.105   7.045 -1.0601  2.5589  0.5476
 2414SOL    HW218702   1.069   1.046   7.100  1.0794 -3.9246  2.2293
 2415SOL     OW18703   0.277   1.305  13.545 -0.6457  0.2288  0.8491
 2415SOL    HW118704   0.334   1.358  13.489 -1.1470  0.7389  0.8197
 2415SOL    HW218705   0.273   1.363  13.622  0.4651 -0.7958  1.6822
 2416SOL     OW18706   4.258   2.203   4.864  0.1523 -0.1498  0.0381
 2416SOL    HW118707   4.253   2.298   4.854 -2.7992 -0.5674 -2.0521
 2416SOL    HW218708   4.169   2.174   4.848  0.4824 -1.7965  1.1076
 2417SOL     OW18709   1.294   4.381   4.918 -0.4114  0.4187 -0.3573
 2417SOL    HW118710   1.309   4.451   4.982 -0.8108  1.1090 -1.0215
 2417SOL    HW218711   1.341   4.413   4.841  0.5795  1.7106  0.7806
 2418SOL     OW18712   2.867   1.174   8.388 -0.0677  0.1334  0.3554
 2418SOL    HW118713   2.847   1.232   8.315 -0.3439  1.8555  1.7999
 2418SOL    HW218714   2.780   1.135   8.396 -0.5411  0.6778 -2.3064
 2419SOL     OW18715   3.565   1.260   9.467 -0.4102  0.2479  0.1445
 2419SOL    HW118716   3.494   1.303   9.516 -0.6927 -1.9725  1.7266
 2419SOL    HW218717   3.607   1.217   9.542 -0.9237  0.1312  0.3672
 2420SOL     OW18718   2.815   0.789  12.731 -0.3459  0.1204 -0.8284
 2420SOL    HW118719   2.747   0.739  12.687 -1.1850 -2.2041  3.1382
 2420SOL    HW218720   2.899   0.745  12.716  0.4602  0.8229  1.7317
 2421SOL     OW18721   0.186   1.411   7.586  0.2358 -0.6673  0.5564
 2421SOL    HW118722   0.111   1.380   7.535 -0.2884 -0.5738  1.2666
 2421SOL    HW218723   0.265   1.374   7.547  0.9549  2.0420 -0.5438
 2422SOL     OW18724   2.868   2.620  10.570 -0.3067  0.4499 -0.0028
 2422SOL    HW118725   2.867   2.642  10.663  1.2554  0.3196  0.0522
 2422SOL    HW218726   2.962   2.601  10.565 -0.4990 -0.2326 -1.0752
 2423SOL     OW18727   4.080   0.681   4.239 -0.7888  0.1878 -1.1073
 2423SOL    HW118728   4.141   0.623   4.284 -2.2158 -1.6888 -1.5637
 2423SOL    HW218729   4.060   0.744   4.308 -2.2372 -0.6765 -0.7291
 2424SOL     OW18730   1.454   2.852   4.682  0.8891 -0.9644  0.2079
 2424SOL    HW118731   1.524   2.790   4.704  0.9167 -1.1609 -0.4139
 2424SOL    HW218732   1.512   2.922   4.653 -1.4330  0.2577 -1.4665
 2425SOL     OW18733   4.292   0.618   7.733  0.3102 -0.2554  1.1812
 2425SOL    HW118734   4.297   0.523   7.719 -2.1319 -0.0514 -1.0487
 2425SOL    HW218735   4.215   0.627   7.789 -0.6864 -0.3003 -0.1641
 2426SOL     OW18736   2.354   1.600   3.632  0.3660 -0.1739  0.4020
 2426SOL    HW118737   2.335   1.520   3.582  1.0942  0.9248 -1.6531
 2426SOL    HW218738   2.269   1.625   3.669  0.4568 -0.5518  0.8653
 2427SOL     OW18739   2.357   4.351  15.959  0.3905 -0.0057  0.2695
 2427SOL    HW118740   2.301   4.330  15.884  0.8138  0.5297 -0.1935
 2427SOL    HW218741   2.342   4.445  15.964  1.1789  0.2284 -1.7873
 2428SOL     OW18742   1.537   0.999   8.572 -0.3583 -0.1927 -0.2129
 2428SOL    HW118743   1.497   1.063   8.514  1.6770 -1.1740 -2.6898
 2428SOL    HW218744   1.493   0.921   8.540  1.1860 -1.1523 -0.0202
 2429SOL     OW18745   2.493   4.149  11.676 -0.2693  0.4646 -0.1774
 2429SOL    HW118746   2.479   4.238  11.645 -1.7559  0.1672 -0.3474
 2429SOL    HW218747   2.474   4.154  11.769  0.8777  1.3654  0.0033
 2430SOL     OW18748   0.619   3.125   1.536 -0.2969 -0.6331 -0.6423
 2430SOL    HW118749   0.637   3.208   1.581 -2.5134  0.0855 -1.0744
 2430SOL    HW218750   0.665   3.136   1.453 -0.7147 -1.4623 -0.9886
 2431SOL     OW18751   1.902   3.128   2.115 -0.4958  0.2342  0.1650
 2431SOL    HW118752   1.842   3.080   2.059 -1.0118 -0.2878  1.1612
 2431SOL    HW218753   1.911   3.075   2.194  0.8922 -1.7460 -1.3434
 2432SOL     OW18754   1.044   2.093   8.076  0.0261 -0.4282  0.2531
 2432SOL    HW118755   1.006   2.006   8.091 -0.9843 -0.2563 -1.2232
 2432SOL    HW218756   0.966   2.148   8.082 -1.8428 -3.4204  3.3364
 2433SOL     OW18757   0.665   4.679  13.170 -1.0078 -0.3030 -0.1042
 2433SOL    HW118758   0.580   4.636  13.159 -1.4531  0.8416 -1.1313
 2433SOL    HW218759   0.644   0.050  13.153 -1.3004 -0.4275 -0.4164
 2434SOL     OW18760   3.053   1.425   3.323  0.0006 -0.1505 -0.1224
 2434SOL    HW118761   3.121   1.486   3.294  0.0442 -1.0943 -1.9883
 2434SOL    HW218762   3.076   1.381   3.405 -0.2285  0.3623  0.2188
 2435SOL     OW18763   3.984   0.788   7.502  0.4720 -0.8272  0.5106
 2435SOL    HW118764   4.044   0.859   7.523 -1.1753  0.8966 -0.6152
 2435SOL    HW218765   4.042   0.724   7.461  0.7104 -0.1602 -0.1879
 2436SOL     OW18766   4.473   3.779  11.025 -0.3462  0.5337  0.4896
 2436SOL    HW118767   4.520   3.723  10.963 -1.4823 -1.9616  1.8691
 2436SOL    HW218768   4.477   3.863  10.978 -1.4479  1.7108  2.5199
 2437SOL     OW18769   3.309   3.663   5.403  0.1593 -0.6616 -0.7050
 2437SOL    HW118770   3.312   3.757   5.383 -1.3866 -0.7978 -1.5856
 2437SOL    HW218771   3.304   3.631   5.313  1.6884  0.2727 -1.1286
 2438SOL     OW18772   3.806   4.161  12.336 -0.1308 -0.0605  0.6217
 2438SOL    HW118773   3.713   4.144  12.323 -0.1213  1.5074 -1.4384
 2438SOL    HW218774   3.815   4.243  12.289 -1.2114 -1.1894 -1.5437
 2439SOL     OW18775   1.253   3.476   0.914 -0.0989  0.3931  0.3429
 2439SOL    HW118776   1.213   3.471   1.001 -1.9842  1.0547 -0.4814
 2439SOL    HW218777   1.301   3.558   0.917  0.4963  0.1140 -1.5013
 2440SOL     OW18778   1.174   0.396   9.349 -0.6266  0.2811 -0.1988
 2440SOL    HW118779   1.261   0.403   9.309  0.0734  0.9288  1.4616
 2440SOL    HW218780   1.194   0.413   9.441  3.1811 -0.7402 -0.8246
 2441SOL     OW18781   4.355   1.805  10.206  0.4667  0.0616  0.4003
 2441SOL    HW118782   4.426   1.762  10.254 -1.3898 -2.0142  1.3224
 2441SOL    HW218783   4.281   1.787  10.265  1.3016 -1.2003  1.0698
 2442SOL     OW18784   1.902   1.961   2.519  0.2119 -0.2744  0.7903
 2442SOL    HW118785   1.877   2.045   2.558 -1.7294 -0.3572 -0.2825
 2442SOL    HW218786   1.883   1.984   2.428  2.5946 -0.7405  0.1693
 2443SOL     OW18787   4.524   4.270  13.678 -0.4849 -0.2903  0.4522
 2443SOL    HW118788   4.592   4.242  13.618 -0.5561  1.5516 -0.4915
 2443SOL    HW218789   4.567   4.351  13.706  0.5262 -0.4797 -0.5456
 2444SOL     OW18790   1.368   3.022  14.602  0.2381 -0.5779  0.4403
 2444SOL    HW118791   1.372   2.990  14.512  0.8169  0.4444  0.0944
 2444SOL    HW218792   1.462   3.028  14.615  0.0204 -0.9818  2.1535
 2445SOL     OW18793   4.015   3.698   0.153 -0.0003  0.1896  0.1287
 2445SOL    HW118794   4.021   3.792   0.167 -0.9961  0.1751  0.6464
 2445SOL    HW218795   3.995   3.656   0.237  2.0247  1.0311  1.0317
 2446SOL     OW18796   3.471   3.995  13.316  0.8164 -0.0658  1.2893
 2446SOL    HW118797   3.464   4.021  13.224 -1.5921  0.2728  1.5694
 2446SOL    HW218798   3.562   4.006  13.343  0.9970  1.4246  0.0540
 2447SOL     OW18799   0.224   0.013   3.779  0.6804  0.7303 -0.4142
 2447SOL    HW118800   0.218   0.101   3.741  0.1404  0.6992 -0.4028
 2447SOL    HW218801   0.309   4.706   3.746 -0.0155 -1.7984 -0.0080
 2448SOL     OW18802   1.443   2.659   8.324  0.2090 -0.4811 -0.0457
 2448SOL    HW118803   1.492   2.611   8.392 -1.0579 -1.0701  0.4601
 2448SOL    HW218804   1.514   2.709   8.285 -0.1735  0.7266  0.7984
 2449SOL     OW18805   3.263   1.748   8.540  0.4693  0.4527  0.3024
 2449SOL    HW118806   3.216   1.743   8.623  0.8851 -0.0282  0.5077
 2449SOL    HW218807   3.322   1.822   8.558  0.8490  0.2366 -0.0320
 2450SOL     OW18808   2.203   3.750   4.493  0.0846 -0.4401 -0.5836
 2450SOL    HW118809   2.200   3.789   4.580  0.5946  0.3368 -0.9141
 2450SOL    HW218810   2.120   3.788   4.466  0.9146  2.4964  1.0480
 2451SOL     OW18811   4.557   0.354   7.798  0.3307 -0.0714 -0.1266
 2451SOL    HW118812   4.636   0.329   7.846  1.6127  1.4037 -1.4821
 2451SOL    HW218813   4.593   0.413   7.732  0.7773  0.1565  0.3275
 2452SOL     OW18814   1.608   0.305   4.286  0.0562  0.0911 -0.6309
 2452SOL    HW118815   1.652   0.252   4.220  0.1739 -0.4297 -0.1403
 2452SOL    HW218816   1.671   0.376   4.299  0.9676 -1.2199  2.1658
 2453SOL     OW18817   1.290   0.766   4.624 -0.0049  0.5019  0.8226
 2453SOL    HW118818   1.308   0.790   4.533  1.5162  1.8963  1.4907
 2453SOL    HW218819   1.325   0.842   4.671  0.8655  1.3718 -1.2061
 2454SOL     OW18820   0.862   0.856   6.634 -0.0628 -0.0231  0.2964
 2454SOL    HW118821   0.882   0.769   6.668 -0.9599 -0.1547  0.4708
 2454SOL    HW218822   0.917   0.910   6.691  0.0369  1.0399 -0.7908
 2455SOL     OW18823   1.518   3.101   3.702 -0.0726  0.1261 -0.5280
 2455SOL    HW118824   1.440   3.095   3.757 -1.3367  0.2297 -2.3109
 2455SOL    HW218825   1.487   3.138   3.619  0.5839  1.3747 -0.2279
 2456SOL     OW18826   0.106   0.865  12.463  0.2013 -0.1477 -0.2513
 2456SOL    HW118827   0.161   0.888  12.388  0.2901 -1.0023 -0.4395
 2456SOL    HW218828   0.032   0.816  12.427 -1.2665  0.3833  2.0327
 2457SOL     OW18829   1.836   2.824   8.497  0.0497 -0.1219 -0.1517
 2457SOL    HW118830   1.857   2.849   8.587 -3.1917  0.0687  0.5420
 2457SOL    HW218831   1.791   2.742   8.517 -0.6019  0.3603  0.3550
 2458SOL     OW18832   0.519   3.609  10.722 -0.3704  0.1559  0.4633
 2458SOL    HW118833   0.535   3.684  10.666  0.5629 -0.4356 -0.0552
 2458SOL    HW218834   0.593   3.621  10.781 -1.0023 -0.8450  1.4729
 2459SOL     OW18835   3.860   3.445   2.166  0.1626  0.0758 -0.3271
 2459SOL    HW118836   3.956   3.451   2.168  0.1338  0.5943 -0.4028
 2459SOL    HW218837   3.854   3.405   2.079  0.0366 -0.5260 -0.0392
 2460SOL     OW18838   0.049   3.684   8.357 -0.2807  0.0911 -0.7641
 2460SOL    HW118839   0.128   3.719   8.317 -0.4967  1.0809 -0.3214
 2460SOL    HW218840   0.033   3.602   8.310 -0.2938  0.9423 -2.2463
 2461SOL     OW18841   2.605   3.632   5.885  0.1722  0.1261  0.6112
 2461SOL    HW118842   2.547   3.701   5.852 -1.1032 -0.1707  2.2048
 2461SOL    HW218843   2.689   3.677   5.892  0.3970 -0.3684  1.0317
 2462SOL     OW18844   3.229   0.380  10.814 -0.2141 -0.2518  0.3442
 2462SOL    HW118845   3.213   0.286  10.813  1.5154 -0.5560  1.2138
 2462SOL    HW218846   3.324   0.388  10.815 -0.1982 -0.4525  0.5104
 2463SOL     OW18847   2.815   2.901   3.151  0.2373  0.1662 -0.0460
 2463SOL    HW118848   2.889   2.864   3.102  1.9238 -1.0081  3.3589
 2463SOL    HW218849   2.794   2.983   3.107  1.2229  0.9847  1.0395
 2464SOL     OW18850   0.731   3.729   5.736 -0.8744  0.7633  0.3440
 2464SOL    HW118851   0.783   3.729   5.655  0.0062 -0.1499  0.9072
 2464SOL    HW218852   0.781   3.795   5.785  2.2601 -1.0136 -0.4087
 2465SOL     OW18853   4.177   1.574   9.781  0.9918  0.3877 -0.0979
 2465SOL    HW118854   4.180   1.490   9.826 -0.2842  0.2434 -0.2639
 2465SOL    HW218855   4.218   1.631   9.845  0.7101  0.5030 -0.0188
 2466SOL     OW18856   0.206   3.492   1.534  0.3620  0.3362 -0.9384
 2466SOL    HW118857   0.117   3.460   1.552  0.9308 -1.9734 -2.2746
 2466SOL    HW218858   0.264   3.419   1.554 -0.6913 -0.1112  0.4466
 2467SOL     OW18859   3.296   0.592  12.699  0.2472  0.2145  0.4191
 2467SOL    HW118860   3.298   0.535  12.623 -2.3439  0.1572  0.4126
 2467SOL    HW218861   3.367   0.557  12.753  0.4606 -0.8008 -0.5375
 2468SOL     OW18862   0.913   3.027   8.112 -0.2391  0.2850  0.0033
 2468SOL    HW118863   0.975   3.069   8.171  0.1495 -0.2849  0.0066
 2468SOL    HW218864   0.842   3.012   8.175  0.1160  3.2237  1.1075
 2469SOL     OW18865   1.524   0.121   1.801 -0.0842 -0.3551 -0.0728
 2469SOL    HW118866   1.542   0.095   1.892 -1.1486 -0.1846  0.1906
 2469SOL    HW218867   1.613   0.124   1.766 -0.8139  1.2364 -1.7892
 2470SOL     OW18868   0.576   2.732   8.153  0.0589 -0.3099 -0.2185
 2470SOL    HW118869   0.670   2.751   8.151  0.1917 -1.3685 -2.9414
 2470SOL    HW218870   0.562   2.694   8.067 -1.9623 -0.8899  0.3613
 2471SOL     OW18871   2.932   1.723   5.409 -0.5202  0.4323 -0.0120
 2471SOL    HW118872   2.931   1.763   5.322  0.1299  1.1681  0.3233
 2471SOL    HW218873   2.927   1.631   5.384  2.0792  0.3837 -0.4277
 2472SOL     OW18874   2.104   4.091   9.679 -0.0947 -0.2145 -0.0672
 2472SOL    HW118875   2.017   4.104   9.717 -0.9168  1.6653 -2.6133
 2472SOL    HW218876   2.126   4.184   9.667 -0.5118 -0.4600 -2.5204
 2473SOL     OW18877   0.353   2.525   7.820 -0.0132 -0.2705  0.1556
 2473SOL    HW118878   0.399   2.598   7.777 -1.9685 -0.4775 -2.2931
 2473SOL    HW218879   0.271   2.531   7.771  0.1026  0.6729  0.0601
 2474SOL     OW18880   1.312   3.792   8.239  0.5197  0.5982  0.1531
 2474SOL    HW118881   1.284   3.840   8.317 -1.4644  0.3496 -0.4154
 2474SOL    HW218882   1.279   3.848   8.169  1.2016 -1.0743 -1.4833
 2475SOL     OW18883   3.527   2.067  14.105  0.2836  0.2003  0.4646
 2475SOL    HW118884   3.476   2.067  14.023 -0.6145 -0.1718  1.0227
 2475SOL    HW218885   3.482   2.131  14.159 -0.0870 -0.8566  1.4014
 2476SOL     OW18886   2.092   3.247   8.113 -0.0465  0.7150  0.2204
 2476SOL    HW118887   2.132   3.280   8.193  1.7523 -0.4394 -0.1967
 2476SOL    HW218888   1.997   3.242   8.128  0.1387 -0.6875  0.9229
 2477SOL     OW18889   3.125   0.940  11.946 -0.4623 -0.0244 -0.9856
 2477SOL    HW118890   3.039   0.908  11.920 -1.0473 -1.0485  2.1731
 2477SOL    HW218891   3.160   0.864  11.993 -0.7255  1.6864  1.9575
 2478SOL     OW18892   4.139   3.874   5.567  0.2166  0.4035 -0.0951
 2478SOL    HW118893   4.175   3.800   5.616 -0.6422 -0.5795 -0.9626
 2478SOL    HW218894   4.044   3.866   5.575  0.1236 -0.0934 -1.7836
 2479SOL     OW18895   4.384   0.218   1.763 -0.2058 -0.3252 -0.0703
 2479SOL    HW118896   4.303   0.173   1.788 -0.9901 -0.9406 -3.7644
 2479SOL    HW218897   4.392   0.193   1.671  3.8208  1.9439 -0.3099
 2480SOL     OW18898   2.402   4.165   2.910  0.0266  0.3143 -0.1692
 2480SOL    HW118899   2.332   4.211   2.956 -0.2477 -0.6484  0.3744
 2480SOL    HW218900   2.359   4.158   2.824 -0.8532  1.3273  0.1902
 2481SOL     OW18901   3.374   3.102   8.727 -0.0567  0.0071  0.1945
 2481SOL    HW118902   3.373   3.157   8.806 -0.1640 -1.1252  0.9699
 2481SOL    HW218903   3.280   3.085   8.722  0.3567 -2.1357 -0.1728
 2482SOL     OW18904   0.575   0.950  16.293 -0.4994 -0.2522  0.2336
 2482SOL    HW118905   0.551   0.995  16.373 -1.6675  1.8881 -1.3109
 2482SOL    HW218906   0.621   1.017  16.241 -0.5714 -0.4706 -0.1158
 2483SOL     OW18907   4.602   1.111  16.440  0.3704 -0.3203 -0.0049
 2483SOL    HW118908   4.566   1.148  16.520  1.0761 -0.1826  0.2530
 2483SOL    HW218909   4.686   1.076  16.471  2.1745  1.0544 -3.2300
 2484SOL     OW18910   1.073   4.189   8.083 -0.2618  0.1571 -0.3131
 2484SOL    HW118911   1.153   4.196   8.134 -0.4337 -2.1641  0.2495
 2484SOL    HW218912   1.008   4.188   8.154  0.3840  0.3273  0.2764
 2485SOL     OW18913   3.764   0.175  12.710 -0.3938  0.3217 -0.0275
 2485SOL    HW118914   3.844   0.124  12.696 -1.3020 -0.7650 -1.2169
 2485SOL    HW218915   3.730   0.174  12.621 -1.0920  1.5084  0.2314
 2486SOL     OW18916   2.168   1.711  14.872  0.0755  0.8203  1.1164
 2486SOL    HW118917   2.220   1.694  14.793 -0.2601 -0.5325  1.1882
 2486SOL    HW218918   2.210   1.789  14.908 -1.7471  1.4505  1.8856
 2487SOL     OW18919   3.977   0.541   4.023 -0.1096  0.0895 -0.3822
 2487SOL    HW118920   3.961   0.548   4.117  0.6153  0.4051 -0.2830
 2487SOL    HW218921   4.063   0.583   4.026  0.0165 -0.2605  0.7472
 2488SOL     OW18922   1.788   0.885  16.596 -0.2749  0.1866  0.0376
 2488SOL    HW118923   1.741   0.861  16.675 -1.6217  2.2890 -0.1142
 2488SOL    HW218924   1.866   0.835  16.621  0.5949  1.5917  0.1574
 2489SOL     OW18925   3.487   4.476   2.473  0.5293 -0.3365  0.0340
 2489SOL    HW118926   3.444   4.416   2.534  2.9461 -1.3700  0.7163
 2489SOL    HW218927   3.418   4.487   2.408 -0.0875 -0.5924  0.6415
 2490SOL     OW18928   0.914   2.872  14.963  0.3323 -0.0114  0.4192
 2490SOL    HW118929   0.992   2.883  15.018 -1.0583 -0.2187  2.4231
 2490SOL    HW218930   0.945   2.794  14.917 -0.7109  0.0238 -0.3309
 2491SOL     OW18931   2.475   1.639   3.116 -0.6984  0.2751 -0.2113
 2491SOL    HW118932   2.389   1.626   3.156 -0.5209 -1.6814 -0.4554
 2491SOL    HW218933   2.513   1.563   3.160 -2.0595  1.0632  2.3184
 2492SOL     OW18934   0.186   2.683   3.941 -0.2293  0.3237  0.0742
 2492SOL    HW118935   0.113   2.745   3.933 -2.1238 -2.0855 -0.9616
 2492SOL    HW218936   0.220   2.716   4.025  1.3060  4.1369 -2.0195
 2493SOL     OW18937   1.730   4.115   8.839 -0.3516  0.1405  0.6096
 2493SOL    HW118938   1.713   4.108   8.933 -1.1467 -0.5704  0.4101
 2493SOL    HW218939   1.768   4.203   8.831 -0.0347  0.1436  2.2496
 2494SOL     OW18940   2.626   1.448   3.594  0.7403  0.2356 -0.2800
 2494SOL    HW118941   2.577   1.386   3.541  0.2395 -0.3461  0.8742
 2494SOL    HW218942   2.713   1.410   3.604  0.5489 -0.7398 -2.3844
 2495SOL     OW18943   0.097   1.348   5.163  0.1497 -0.2170 -0.3958
 2495SOL    HW118944   0.010   1.317   5.137 -0.8200  0.3654  2.1538
 2495SOL    HW218945   0.130   1.269   5.205 -1.7947 -1.0830 -0.4681
 2496SOL     OW18946   0.821   3.885   5.952  0.0846  0.1538  0.2999
 2496SOL    HW118947   0.789   3.919   6.035 -0.2647 -1.7695  0.9665
 2496SOL    HW218948   0.913   3.864   5.972  0.0236  0.2620  0.6910
 2497SOL     OW18949   3.966   0.214   6.427  0.2685  0.0627 -0.8040
 2497SOL    HW118950   3.992   0.140   6.373 -2.5960 -1.1428 -0.5127
 2497SOL    HW218951   4.011   0.204   6.511  0.2109 -0.9824 -0.9049
 2498SOL     OW18952   2.509   3.547   4.202 -0.4728 -0.8322  0.0462
 2498SOL    HW118953   2.452   3.584   4.135  0.2970  1.9008  0.9319
 2498SOL    HW218954   2.437   3.536   4.264 -1.5655  0.8789 -0.9408
 2499SOL     OW18955   4.539   2.763   5.106  0.0461  0.5820 -0.2090
 2499SOL    HW118956   4.624   2.733   5.074 -0.1212  0.0161 -0.1138
 2499SOL    HW218957   4.513   2.826   5.038  0.8127  0.8979 -0.2145
 2500SOL     OW18958   0.851   2.127   2.525  0.3524 -0.2183  0.0807
 2500SOL    HW118959   0.825   2.146   2.615 -1.4452 -0.3155 -0.4094
 2500SOL    HW218960   0.934   2.081   2.535  0.5060 -0.2667 -1.3104
 2501SOL     OW18961   1.196   1.613   7.358 -0.1524  0.9844  0.6767
 2501SOL    HW118962   1.258   1.684   7.373  1.4390  0.1887 -2.0899
 2501SOL    HW218963   1.162   1.593   7.445 -1.2236  1.7510  0.4347
 2502SOL     OW18964   0.229   1.147   6.868  0.0771 -0.2248  0.7222
 2502SOL    HW118965   0.214   1.094   6.790 -3.2273  1.3812  0.2924
 2502SOL    HW218966   0.265   1.221   6.819 -1.5924 -0.8116 -1.3601
 2503SOL     OW18967   1.296   3.737  10.144  0.7870  0.3802  0.7551
 2503SOL    HW118968   1.322   3.791  10.069 -1.8857  0.8315  0.1715
 2503SOL    HW218969   1.344   3.655  10.132  2.0127  1.1742  0.2405
 2504SOL     OW18970   0.435   0.694  13.161  0.1190  0.0575 -0.0813
 2504SOL    HW118971   0.447   0.744  13.080 -0.4610  1.1582  0.5035
 2504SOL    HW218972   0.520   0.720  13.195  1.2513 -1.0726 -2.0530
 2505SOL     OW18973   2.182   2.263   6.235  0.0133  0.2559  0.2877
 2505SOL    HW118974   2.109   2.260   6.174 -0.1801 -0.2870  0.5406
 2505SOL    HW218975   2.138   2.259   6.320 -0.4068  0.2959  0.0700
 2506SOL     OW18976   3.209   1.154   8.981  0.6132  0.5022  0.0709
 2506SOL    HW118977   3.145   1.083   8.973  0.9184  0.3624 -1.2467
 2506SOL    HW218978   3.145   1.224   8.998 -1.2342 -0.7023 -1.9065
 2507SOL     OW18979   1.568   0.524   4.070  0.3454  0.0088  0.2574
 2507SOL    HW118980   1.644   0.477   4.035  0.8314  2.2324 -1.7078
 2507SOL    HW218981   1.595   0.542   4.160  2.1659 -1.1408 -0.0330
 2508SOL     OW18982   2.694   2.608   7.855 -0.1243  0.0330  0.4030
 2508SOL    HW118983   2.638   2.657   7.916  1.4140 -0.9407  2.5896
 2508SOL    HW218984   2.660   2.519   7.843  2.5546 -0.9622  0.2541
 2509SOL     OW18985   2.207   1.869   4.714 -0.2096  0.0169 -0.2009
 2509SOL    HW118986   2.200   1.812   4.791 -0.7229  0.4238  0.0499
 2509SOL    HW218987   2.118   1.890   4.685  1.7605  4.0587 -3.4012
 2510SOL     OW18988   2.862   2.049   8.427 -0.3434 -0.3485 -0.4186
 2510SOL    HW118989   2.951   2.077   8.444 -0.2454 -1.1863  0.4774
 2510SOL    HW218990   2.833   2.023   8.515  2.1124 -0.9325  0.2064
 2511SOL     OW18991   3.870   1.749  15.280  0.0002 -0.0580 -0.1753
 2511SOL    HW118992   3.834   1.710  15.201  1.9583 -1.1027 -0.5696
 2511SOL    HW218993   3.789   1.793  15.305  0.2550 -0.8673  2.0982
 2512SOL     OW18994   4.567   0.351   4.915  0.1294 -0.8977  0.0520
 2512SOL    HW118995   4.620   0.378   4.839  1.2104  1.0045  1.4605
 2512SOL    HW218996   4.598   0.262   4.931  1.3928 -0.6791 -1.1974
 2513SOL     OW18997   1.755   0.273   3.195 -0.5894  0.0852  0.4949
 2513SOL    HW118998   1.778   0.332   3.267 -0.9977 -0.4291  1.0504
 2513SOL    HW218999   1.660   0.282   3.181 -0.2762 -0.6408 -2.1101
 2514SOL     OW19000   2.253   3.288   2.155  0.5536  0.2439  0.0564
 2514SOL    HW119001   2.232   3.207   2.109  1.4356 -0.0071  0.0894
 2514SOL    HW219002   2.250   3.254   2.244 -0.5954 -0.7834 -0.3886
 2515SOL     OW19003   2.157   2.417  15.021  0.2044 -0.5289 -0.1782
 2515SOL    HW119004   2.074   2.443  15.061  0.9906  1.4670  0.1607
 2515SOL    HW219005   2.211   2.492  15.048  0.5154  0.3937 -3.3320
 2516SOL     OW19006   1.387   3.560   6.614  0.6081  0.3947  0.4142
 2516SOL    HW119007   1.438   3.628   6.570 -1.0285  1.1178 -0.3417
 2516SOL    HW219008   1.303   3.582   6.576  0.3334  0.7509  1.2185
 2517SOL     OW19009   0.368   0.913   2.921  0.5213  1.0179  0.0528
 2517SOL    HW119010   0.426   0.932   2.994 -0.7292  2.1458  0.7390
 2517SOL    HW219011   0.324   0.839   2.963  2.2801 -1.5358 -2.5355
 2518SOL     OW19012   2.766   0.380   8.439 -0.0035 -0.0298 -0.6391
 2518SOL    HW119013   2.753   0.285   8.442 -3.0334  0.4058  0.4857
 2518SOL    HW219014   2.850   0.389   8.395  0.0679  0.9855 -0.3030
 2519SOL     OW19015   3.919   3.034   7.958  0.1569 -0.7126  0.0561
 2519SOL    HW119016   3.968   3.102   7.912 -0.9700  0.5569  0.7228
 2519SOL    HW219017   3.830   3.066   7.941 -0.0318 -1.3267 -0.1040
 2520SOL     OW19018   0.955   3.107  11.358  0.7709  0.0809  0.1040
 2520SOL    HW119019   0.879   3.074  11.309  2.2231 -0.5241 -1.7534
 2520SOL    HW219020   1.002   3.160  11.293  0.3050 -0.4942 -0.7041
 2521SOL     OW19021   4.342   3.313   8.358  0.0664  0.4629  0.2283
 2521SOL    HW119022   4.334   3.409   8.358  0.7698  0.5249 -2.5219
 2521SOL    HW219023   4.342   3.294   8.451  1.6983 -0.4456  0.0327
 2522SOL     OW19024   3.027   1.424   2.908 -0.3842  0.0965  0.2792
 2522SOL    HW119025   3.100   1.389   2.960  0.1047  0.6224 -0.0598
 2522SOL    HW219026   3.041   1.518   2.897  1.8053 -0.4174 -1.3421
 2523SOL     OW19027   4.609   1.519   9.988 -0.5800 -0.0185 -0.4028
 2523SOL    HW119028   4.692   1.506   9.941 -0.0669 -1.3104  0.8702
 2523SOL    HW219029   4.551   1.562   9.925  1.1064  0.4158 -1.6843
 2524SOL     OW19030   0.058   0.964   3.551 -0.2275  0.1222  0.1097
 2524SOL    HW119031   0.013   0.937   3.471  0.6705  0.8910 -0.6546
 2524SOL    HW219032   0.112   0.889   3.572  0.3570  0.5031 -0.0291
 2525SOL     OW19033   1.014   3.384   6.462  0.6306 -0.4774  0.0430
 2525SOL    HW119034   1.004   3.289   6.460 -2.8184 -0.1070 -1.4408
 2525SOL    HW219035   1.093   3.395   6.410  1.2682  1.3998  1.4320
 2526SOL     OW19036   3.931   4.519   8.102  0.2522  0.0925  0.4387
 2526SOL    HW119037   3.928   4.597   8.048 -0.9882  0.0939  0.5171
 2526SOL    HW219038   3.869   4.549   8.168  1.0546 -0.6173  1.5185
 2527SOL     OW19039   3.571   0.547   3.778  0.3005 -0.2860  0.1636
 2527SOL    HW119040   3.596   0.637   3.799  2.4553 -0.5847 -1.1184
 2527SOL    HW219041   3.649   0.508   3.737  1.5308  1.3893  0.9269
 2528SOL     OW19042   0.479   0.356   6.431  0.3159  0.1659 -0.3604
 2528SOL    HW119043   0.473   0.399   6.516  2.8008  2.9793 -1.6140
 2528SOL    HW219044   0.541   0.285   6.448  0.3186  0.5415  1.1951
 2529SOL     OW19045   2.832   2.392   7.632  0.6190 -0.3804 -0.2306
 2529SOL    HW119046   2.870   2.478   7.613 -4.4539  2.1898  1.4535
 2529SOL    HW219047   2.917   2.355   7.656  1.1016  1.6888  1.2308
 2530SOL     OW19048   0.792   4.325   3.458 -0.1951 -0.6725  0.2209
 2530SOL    HW119049   0.885   4.322   3.480  0.4760 -0.0326 -2.5024
 2530SOL    HW219050   0.790   4.328   3.362 -4.1456  0.8304  0.3591
 2531SOL     OW19051   3.923   0.754  10.978 -0.3323  0.1237 -0.0435
 2531SOL    HW119052   4.008   0.792  10.998 -0.1171 -1.3130  1.7698
 2531SOL    HW219053   3.892   0.820  10.916 -2.4863 -0.9130 -0.0817
 2532SOL     OW19054   4.200   2.364  11.443  0.3220 -0.0801  0.4188
 2532SOL    HW119055   4.242   2.438  11.487  0.9079 -0.6601  0.8349
 2532SOL    HW219056   4.262   2.295  11.467 -0.3405 -0.7805  0.0999
 2533SOL     OW19057   3.038   4.330  10.606  0.1761 -0.0685 -0.2869
 2533SOL    HW119058   3.001   4.251  10.646 -0.4151  1.5127  2.3067
 2533SOL    HW219059   3.083   4.294  10.529  0.2429  0.5773 -0.5514
 2534SOL     OW19060   3.805   3.669   1.712 -0.1162  0.3329  0.1392
 2534SOL    HW119061   3.876   3.687   1.650  0.8979  0.1943  1.2707
 2534SOL    HW219062   3.820   3.578   1.737 -0.7605  0.5152  1.2166
 2535SOL     OW19063   2.459   1.514   6.040  0.2791 -0.6825  0.0004
 2535SOL    HW119064   2.478   1.582   6.104  0.3516  1.2852 -2.1123
 2535SOL    HW219065   2.429   1.447   6.101  1.4246 -1.8239 -0.6670
 2536SOL     OW19066   0.925   4.511   6.818 -0.1659  0.1104 -0.6864
 2536SOL    HW119067   0.870   4.585   6.790  0.4185  1.1758  0.9844
 2536SOL    HW219068   0.987   4.560   6.872 -0.5270 -2.1568  1.7536
 2537SOL     OW19069   2.326   1.253   2.353 -0.5764  0.0389  0.3288
 2537SOL    HW119070   2.384   1.196   2.403  0.6687 -0.7351 -2.0044
 2537SOL    HW219071   2.342   1.337   2.397  0.4744  0.4424 -0.8025
 2538SOL     OW19072   3.741   2.217   2.622  0.3620  0.2988 -0.3690
 2538SOL    HW119073   3.750   2.131   2.582 -0.2358 -0.2415  0.6768
 2538SOL    HW219074   3.771   2.276   2.553 -0.4896 -1.6540 -2.4204
 2539SOL     OW19075   1.338   2.250   4.602 -0.3212 -0.3747 -0.8611
 2539SOL    HW119076   1.417   2.289   4.638  0.4506 -0.4970 -2.4147
 2539SOL    HW219077   1.296   2.328   4.565 -1.2230 -0.4888 -0.0730
 2540SOL     OW19078   4.251   1.139   8.310  0.2091 -0.2996  0.1511
 2540SOL    HW119079   4.179   1.150   8.247 -2.0425  0.0482  2.7898
 2540SOL    HW219080   4.233   1.202   8.379  2.8931  0.9728 -0.3074
 2541SOL     OW19081   2.430   1.335   0.536 -0.0838  0.0590  0.4566
 2541SOL    HW119082   2.335   1.342   0.525 -0.4849  1.7813  5.0530
 2541SOL    HW219083   2.428   1.288   0.619 -0.1190 -0.3952  0.2044
 2542SOL     OW19084   1.718   2.331   1.121  0.1427 -0.2486  0.1086
 2542SOL    HW119085   1.734   2.245   1.083 -0.7410  0.2046 -1.2710
 2542SOL    HW219086   1.809   2.339   1.149  0.0689  1.7318 -0.2056
 2543SOL     OW19087   1.842   3.512   4.092  0.2651 -0.1963 -0.0413
 2543SOL    HW119088   1.791   3.509   4.011 -1.4763 -3.3316  1.1483
 2543SOL    HW219089   1.932   3.488   4.072  0.6851  1.6203 -0.2883
 2544SOL     OW19090   0.656   3.881   7.779  0.5470 -0.1275 -0.1534
 2544SOL    HW119091   0.751   3.878   7.787  0.4322 -0.1581  1.2582
 2544SOL    HW219092   0.632   3.802   7.827 -1.2005  0.5656  0.1130
 2545SOL     OW19093   2.050   4.220  17.201  0.0756 -0.2799 -1.3178
 2545SOL    HW119094   2.143   4.243  17.191  0.2147  0.0452  0.6717
 2545SOL    HW219095   2.015   4.213  17.112 -0.9948  2.3894 -1.1333
 2546SOL     OW19096   2.525   3.873  10.853  0.0811  0.2271 -0.5961
 2546SOL    HW119097   2.583   3.802  10.880  1.0528  0.2266 -2.7145
 2546SOL    HW219098   2.473   3.830  10.785  0.9939 -2.1225  0.1951
 2547SOL     OW19099   0.210   3.875   1.104 -0.7260 -0.7154  1.0154
 2547SOL    HW119100   0.149   3.805   1.082 -0.0018 -1.2980  0.8629
 2547SOL    HW219101   0.294   3.831   1.114 -0.1960 -0.0503 -0.5856
 2548SOL     OW19102   0.334   0.223   9.945 -0.0839  0.2157  0.2408
 2548SOL    HW119103   0.307   0.275   9.869  0.4103 -1.4605 -1.0908
 2548SOL    HW219104   0.271   0.150   9.948  0.1796 -0.0988 -1.4345
 2549SOL     OW19105   3.123   2.513   2.612  0.0171  0.1342  0.1427
 2549SOL    HW119106   3.054   2.468   2.661 -0.7632  0.8215 -0.3102
 2549SOL    HW219107   3.181   2.539   2.683 -1.1163  2.9842  0.0282
 2550SOL     OW19108   0.950   4.076  12.276 -0.1842  0.5208 -0.3342
 2550SOL    HW119109   0.967   4.168  12.256 -0.2432  0.8591  1.1871
 2550SOL    HW219110   0.876   4.056  12.219  0.6623  1.0049 -1.5991
 2551SOL     OW19111   2.531   0.159  16.432 -0.5163 -0.3638  0.2796
 2551SOL    HW119112   2.475   0.204  16.496  0.8088  1.3491  0.2422
 2551SOL    HW219113   2.540   0.219  16.358  2.1993 -0.3636  0.6014
 2552SOL     OW19114   2.225   0.426   6.759  0.0233  0.0334  0.6749
 2552SOL    HW119115   2.137   0.457   6.736  0.1066 -0.1935  0.0416
 2552SOL    HW219116   2.213   0.415   6.854 -0.5424  0.1447  0.6153
 2553SOL     OW19117   4.321   2.781   3.808 -0.4755  0.0473  0.5402
 2553SOL    HW119118   4.243   2.826   3.776 -0.6297 -0.6549 -0.0807
 2553SOL    HW219119   4.323   2.711   3.742 -0.9769 -1.5825  2.2629
 2554SOL     OW19120   1.842   1.980   5.490 -0.3243  0.3231 -0.0802
 2554SOL    HW119121   1.803   1.894   5.479 -0.6149  0.3781  0.5528
 2554SOL    HW219122   1.781   2.032   5.542 -0.5362 -1.0351  1.0089
 2555SOL     OW19123   3.582   3.116   8.564  0.4380  0.0693  0.1809
 2555SOL    HW119124   3.549   3.036   8.524 -2.0992  1.6903 -1.0367
 2555SOL    HW219125   3.510   3.133   8.626  2.0349  0.7470  1.8573
 2556SOL     OW19126   4.288   0.010   8.243  0.3094  0.5606 -0.4337
 2556SOL    HW119127   4.238   0.065   8.304 -0.2149  0.7805 -1.0663
 2556SOL    HW219128   4.237   4.650   8.253 -0.3594  0.7879 -2.0569
 2557SOL     OW19129   0.918   0.768   7.878 -0.0285  0.0664 -0.0394
 2557SOL    HW119130   0.969   0.757   7.958 -0.4451 -2.3969 -0.1336
 2557SOL    HW219131   0.886   0.857   7.897 -0.7435  0.3934 -2.9025
 2558SOL     OW19132   4.152   3.835   3.165 -0.2159 -0.5185 -0.3754
 2558SOL    HW119133   4.159   3.753   3.116  2.1961  0.8390 -2.2976
 2558SOL    HW219134   4.200   3.899   3.112 -1.3102  2.1903  1.8883
 2559SOL     OW19135   3.937   0.549   8.939 -0.4396 -0.0139 -0.1108
 2559SOL    HW119136   3.968   0.637   8.917  0.4377  0.1901  1.9395
 2559SOL    HW219137   4.018   0.510   8.972 -0.4075  0.1427 -0.0020
 2560SOL     OW19138   0.864   3.830   3.156  0.1180  0.4127  0.2521
 2560SOL    HW119139   0.824   3.840   3.070  0.8119 -1.6669 -0.3169
 2560SOL    HW219140   0.874   3.924   3.168  4.4370 -0.1056  0.5248
 2561SOL     OW19141   1.236   0.531   0.109  0.3928 -0.1573 -0.5197
 2561SOL    HW119142   1.276   0.499   0.190  0.2013  0.0669 -0.3342
 2561SOL    HW219143   1.291   0.605   0.085 -0.2410  0.1391 -1.0735
 2562SOL     OW19144   2.075   1.020  13.412  0.2863  0.1016 -0.5048
 2562SOL    HW119145   2.052   1.014  13.319  2.3319  0.1555 -1.0172
 2562SOL    HW219146   2.061   1.113  13.429 -1.9662 -0.2146 -0.5988
 2563SOL     OW19147   0.099   3.145   1.989 -0.0515  0.1296  0.5849
 2563SOL    HW119148   0.153   3.135   1.911  1.5454 -0.7369  1.8095
 2563SOL    HW219149   0.163   3.113   2.053  1.4619  2.1372  0.0566
 2564SOL     OW19150   0.162   4.392   3.611 -0.2164  0.1826 -0.3886
 2564SOL    HW119151   0.076   4.386   3.652  0.0940  0.4381  0.3039
 2564SOL    HW219152   0.211   4.348   3.681 -0.4360 -2.3015 -1.7987
 2565SOL     OW19153   1.968   0.724  15.639  0.2563  0.1847  0.4473
 2565SOL    HW119154   1.978   0.660  15.709 -0.3339  0.4530  0.7822
 2565SOL    HW219155   2.013   0.670  15.574  2.3672  2.1504  0.2733
 2566SOL     OW19156   2.326   4.150   0.460  0.4945 -0.4426 -0.1371
 2566SOL    HW119157   2.409   4.139   0.414  0.1989 -1.4357 -0.4309
 2566SOL    HW219158   2.311   4.063   0.497  2.2006 -1.0829 -0.9631
 2567SOL     OW19159   1.074   0.407   5.627  0.5566 -0.1525  0.3017
 2567SOL    HW119160   1.075   0.491   5.581  0.1070 -1.4426 -2.0450
 2567SOL    HW219161   1.037   0.424   5.713 -1.5819 -2.4644 -0.1605
 2568SOL     OW19162   3.999   1.218   8.685  0.4377  0.2893  0.5607
 2568SOL    HW119163   3.990   1.131   8.647 -1.2224  0.6077  0.2395
 2568SOL    HW219164   4.010   1.272   8.607  0.2609  0.5096  0.6881
 2569SOL     OW19165   0.465   3.588   8.346  0.7804  0.2189  0.2100
 2569SOL    HW119166   0.517   3.587   8.266  0.3572 -0.3664 -0.0558
 2569SOL    HW219167   0.499   3.508   8.386  0.4279 -0.5301 -0.9721
 2570SOL     OW19168   4.128   4.582  12.998  0.0210 -0.2485 -0.3459
 2570SOL    HW119169   4.064   4.559  12.930 -1.5033  0.0801  0.9659
 2570SOL    HW219170   4.142   4.490  13.021 -0.6493  0.2414  2.0084
 2571SOL     OW19171   2.380   2.327   1.722  0.2476  0.2288  0.4485
 2571SOL    HW119172   2.444   2.292   1.661 -0.2015  0.3785 -0.1056
 2571SOL    HW219173   2.350   2.248   1.768  0.0663  0.5345  0.8640
 2572SOL     OW19174   4.615   2.089   1.276 -0.1343 -0.5906  0.1576
 2572SOL    HW119175   4.580   2.071   1.364 -1.7578  0.2577 -0.3142
 2572SOL    HW219176   4.655   2.003   1.263 -1.3167 -1.1924  0.5061
 2573SOL     OW19177   0.786   3.067   9.796  0.5110 -0.0912  0.6845
 2573SOL    HW119178   0.808   3.005   9.726 -1.6579  0.0114 -0.0880
 2573SOL    HW219179   0.701   3.037   9.827 -0.4922  0.6607 -1.3320
 2574SOL     OW19180   3.691   3.399   4.480  0.3221  0.4650 -0.0022
 2574SOL    HW119181   3.636   3.356   4.545  0.4528 -0.6910 -0.6539
 2574SOL    HW219182   3.772   3.399   4.531  1.9563 -0.8426 -2.5967
 2575SOL     OW19183   0.513   0.235   3.913 -0.5134  0.6472  0.5576
 2575SOL    HW119184   0.509   0.303   3.980 -0.7264  1.5395 -0.3576
 2575SOL    HW219185   0.598   0.200   3.938 -0.4452  0.6215  0.2938
 2576SOL     OW19186   0.561   2.280  12.874 -0.2436  0.2691  0.6787
 2576SOL    HW119187   0.614   2.337  12.930  1.0493  1.2639 -1.5560
 2576SOL    HW219188   0.625   2.253  12.809 -0.4073 -0.8915  0.9942
 2577SOL     OW19189   4.640   1.061   5.856  0.5433  0.4628  0.3825
 2577SOL    HW119190   4.588   1.106   5.789 -2.0334  1.2576  2.9231
 2577SOL    HW219191   0.006   1.060   5.817  0.4664 -1.9505  0.2804
 2578SOL     OW19192   0.443   3.197   7.972 -0.5601 -0.2520  0.4441
 2578SOL    HW119193   0.364   3.184   7.920  1.0626 -0.3411 -2.0274
 2578SOL    HW219194   0.448   3.104   7.995 -4.2456  0.2032  3.0097
 2579SOL     OW19195   3.437   1.874   7.240 -0.1160 -0.5381  0.0827
 2579SOL    HW119196   3.386   1.819   7.299 -2.5947  0.8076 -0.8038
 2579SOL    HW219197   3.485   1.929   7.302 -0.1630 -1.9294  1.3491
 2580SOL     OW19198   1.764   3.408   3.068 -0.0343 -0.6259  0.2677
 2580SOL    HW119199   1.760   3.411   3.163  0.1233 -0.8279  0.2801
 2580SOL    HW219200   1.784   3.499   3.048  0.8998 -1.0447 -0.7576
 2581SOL     OW19201   0.869   2.114  11.580 -0.4108 -0.1585  0.6750
 2581SOL    HW119202   0.947   2.092  11.529 -0.9757  2.7272 -1.4121
 2581SOL    HW219203   0.802   2.088  11.517  1.3301 -1.1949 -0.7552
 2582SOL     OW19204   0.925   0.971   6.083 -0.7762  0.1796 -0.0465
 2582SOL    HW119205   0.952   0.880   6.091  0.8141  0.3368 -3.9213
 2582SOL    HW219206   1.006   1.014   6.111 -0.3159 -1.3907  1.0583
 2583SOL     OW19207   2.021   4.615  15.652  0.0839  0.0099 -0.0235
 2583SOL    HW119208   1.963   4.609  15.729  1.7059 -0.3455  1.1729
 2583SOL    HW219209   2.002   4.702  15.617 -2.4705 -0.7627 -0.5327
 2584SOL     OW19210   3.840   3.560   5.441  0.3405 -0.3204 -0.0743
 2584SOL    HW119211   3.753   3.522   5.430 -0.1341  0.3661  1.2542
 2584SOL    HW219212   3.812   3.626   5.504  0.7325 -0.4032  0.1808
 2585SOL     OW19213   0.260   3.731   4.123 -0.4192 -0.0898  0.5067
 2585SOL    HW119214   0.281   3.701   4.212 -0.4462  1.8551  1.1706
 2585SOL    HW219215   0.341   3.695   4.087  0.1205  0.7340  0.9072
 2586SOL     OW19216   3.060   4.082   4.275  0.0697 -0.0672 -0.8883
 2586SOL    HW119217   3.146   4.060   4.238  0.4385 -0.7199  0.3563
 2586SOL    HW219218   3.067   4.175   4.256  1.2454 -0.1888 -1.0793
 2587SOL     OW19219   4.576   0.677   4.591  0.2697  0.3596  0.3219
 2587SOL    HW119220   4.609   0.743   4.651  0.0860 -0.2230  1.0707
 2587SOL    HW219221   4.574   0.729   4.511  2.7461  0.2697  0.2112
 2588SOL     OW19222   2.717   4.018  12.534 -0.0270 -0.8351 -0.0850
 2588SOL    HW119223   2.662   3.939  12.532 -0.3025 -0.6559  0.4938
 2588SOL    HW219224   2.807   3.985  12.528  0.3798  0.2789 -0.1564
 2589SOL     OW19225   0.830   2.961   2.346  0.1147 -1.0396  0.4437
 2589SOL    HW119226   0.867   2.920   2.267  1.9457  0.9616  0.2380
 2589SOL    HW219227   0.739   2.970   2.319 -0.1417 -0.4249  1.5244
 2590SOL     OW19228   1.521   2.960   6.606 -0.1617  0.0267 -0.1030
 2590SOL    HW119229   1.449   2.911   6.567  0.2991  0.5063 -1.5390
 2590SOL    HW219230   1.469   3.023   6.655 -0.5134  0.9182 -1.6356
 2591SOL     OW19231   1.395   1.306   4.967 -1.1602 -0.4935  0.6783
 2591SOL    HW119232   1.335   1.232   4.975 -0.8167 -0.8243  0.1807
 2591SOL    HW219233   1.352   1.372   5.022  0.1993  0.5476  0.4758
 2592SOL     OW19234   3.565   0.429  11.475 -0.2294  0.7861  0.3443
 2592SOL    HW119235   3.655   0.444  11.503  0.1106  0.7431 -0.7255
 2592SOL    HW219236   3.520   0.446  11.558  2.7474  1.2577  1.8758
 2593SOL     OW19237   0.310   2.373   3.500 -0.4419  0.0323 -0.6374
 2593SOL    HW119238   0.396   2.409   3.478  0.7253 -1.3695  1.6027
 2593SOL    HW219239   0.321   2.302   3.564  0.1442 -0.2350 -1.0295
 2594SOL     OW19240   1.586   2.500   7.268 -0.6091 -0.2295  0.9693
 2594SOL    HW119241   1.518   2.565   7.255 -0.0346  0.3560  0.8623
 2594SOL    HW219242   1.655   2.503   7.202 -1.8624  0.2289 -0.3115
 2595SOL     OW19243   1.797   4.261   7.044 -0.5411  0.3812  0.6481
 2595SOL    HW119244   1.796   4.192   7.110  0.4389 -0.0320  0.2297
 2595SOL    HW219245   1.705   4.280   7.027 -0.1482  1.7636  0.0315
 2596SOL     OW19246   3.208   1.486  11.899  0.8451  0.2983 -0.1535
 2596SOL    HW119247   3.190   1.393  11.913 -0.0668  0.0871 -2.7487
 2596SOL    HW219248   3.124   1.520  11.866  0.3318  0.4739  1.3304
 2597SOL     OW19249   0.214   2.817  15.828  0.2056  0.4093 -0.3986
 2597SOL    HW119250   0.271   2.867  15.770  0.6754  0.4987  0.1310
 2597SOL    HW219251   0.284   2.764  15.869 -0.1504 -0.3244 -0.7359
 2598SOL     OW19252   3.205   3.092   2.608  0.4697 -0.0600  0.4269
 2598SOL    HW119253   3.194   3.165   2.669 -0.5232  0.3484 -0.2478
 2598SOL    HW219254   3.195   3.142   2.526  0.6762  0.6016  0.8034
 2599SOL     OW19255   2.317   2.018   3.200 -0.0427 -0.2401 -0.0042
 2599SOL    HW119256   2.390   1.958   3.212  2.4298  2.6122 -0.7389
 2599SOL    HW219257   2.309   2.030   3.106  0.8392 -3.4200 -0.4663
 2600SOL     OW19258   3.038   2.051  17.342  0.4108 -0.1967 -0.2668
 2600SOL    HW119259   2.973   2.092  17.399  0.8241  0.8450 -0.5325
 2600SOL    HW219260   2.991   1.973  17.315 -0.6169 -0.5596  2.5987
 2601SOL     OW19261   3.726   0.383   4.447 -0.0897  0.4461  0.6777
 2601SOL    HW119262   3.708   0.427   4.364  0.6257 -0.4316  0.0526
 2601SOL    HW219263   3.714   0.294   4.416  1.5796 -0.1012  1.5945
 2602SOL     OW19264   2.911   0.811   2.734  0.5306 -0.0663 -0.7089
 2602SOL    HW119265   2.936   0.884   2.790  0.3467  0.7526 -1.7008
 2602SOL    HW219266   2.822   0.829   2.703  0.8447  0.0994 -1.5027
 2603SOL     OW19267   1.936   1.124   5.402 -0.4407  0.7844  0.0972
 2603SOL    HW119268   1.957   1.044   5.450 -0.6122  1.0285  0.5747
 2603SOL    HW219269   1.961   1.094   5.315  0.8745  0.5674  0.5631
 2604SOL     OW19270   0.061   3.545   5.937  1.2166  0.0952 -0.2920
 2604SOL    HW119271   0.087   3.493   5.860 -0.3150 -2.3859  0.8618
 2604SOL    HW219272   0.126   3.615   5.931  1.6578 -0.2721  0.1769
 2605SOL     OW19273   3.570   2.001   2.526 -0.2974 -0.4033 -0.2201
 2605SOL    HW119274   3.552   1.954   2.444 -0.7073  0.3920 -0.5927
 2605SOL    HW219275   3.512   2.074   2.504  0.6639  1.0235  1.9959
 2606SOL     OW19276   0.221   2.023  10.965 -0.5123 -0.2110 -0.4467
 2606SOL    HW119277   0.166   2.026  10.888 -1.4686  0.0050  0.2532
 2606SOL    HW219278   0.245   2.116  10.961  0.2041 -0.2927  1.7052
 2607SOL     OW19279   0.430   4.154   4.851  0.5654  0.2361 -0.3554
 2607SOL    HW119280   0.497   4.216   4.880 -1.2877  1.7887  0.5284
 2607SOL    HW219281   0.442   4.179   4.759  0.3705  1.0841 -0.1475
 2608SOL     OW19282   1.324   3.131  15.117 -0.3563  0.1866 -0.2325
 2608SOL    HW119283   1.264   3.057  15.123  0.5137 -0.5968 -1.3021
 2608SOL    HW219284   1.397   3.099  15.064 -0.4025 -0.4573  0.0984
 2609SOL     OW19285   0.834   2.490  15.925  0.0851 -0.5078 -0.2891
 2609SOL    HW119286   0.840   2.413  15.981  0.5349  0.8469  1.5436
 2609SOL    HW219287   0.763   2.523  15.980 -0.2414 -0.4986 -0.7141
 2610SOL     OW19288   0.419   1.792   5.866 -0.0130  0.1735 -0.3823
 2610SOL    HW119289   0.472   1.714   5.883 -2.8141 -1.1482  2.3128
 2610SOL    HW219290   0.335   1.760   5.897 -0.5307  0.5352 -1.4460
 2611SOL     OW19291   4.614   3.941   7.361 -0.2343 -0.3835  0.0524
 2611SOL    HW119292   4.536   3.922   7.412 -0.4437 -2.9596 -1.2038
 2611SOL    HW219293   4.672   3.955   7.436  0.5472 -1.1607 -0.4021
 2612SOL     OW19294   0.376   0.364  13.478 -0.5135 -0.5689 -0.1673
 2612SOL    HW119295   0.347   0.361  13.569  0.8192  0.5718  0.2949
 2612SOL    HW219296   0.406   0.452  13.454 -0.8863 -0.0654  1.1996
 2613SOL     OW19297   2.465   0.251   1.694  0.3078 -0.7828 -0.4543
 2613SOL    HW119298   2.388   0.218   1.740  0.3018  0.7671  0.6340
 2613SOL    HW219299   2.458   0.345   1.706  1.1483 -0.5401 -1.9046
 2614SOL     OW19300   3.481   1.226   6.003 -0.1671 -0.1335  0.1123
 2614SOL    HW119301   3.397   1.268   6.021 -0.1820 -0.4226  0.7319
 2614SOL    HW219302   3.539   1.279   6.057 -1.7043  0.5111  1.1490
 2615SOL     OW19303   1.200   4.206   1.831 -0.3268  0.9073 -0.7236
 2615SOL    HW119304   1.124   4.236   1.880  0.4347 -0.8390  1.5183
 2615SOL    HW219305   1.188   4.240   1.742  0.2452 -2.7423 -2.1628
 2616SOL     OW19306   1.821   1.527   4.140  0.1280 -0.4175 -0.6653
 2616SOL    HW119307   1.770   1.499   4.216 -0.8760 -0.2557 -1.2908
 2616SOL    HW219308   1.778   1.612   4.140  0.3461 -0.3145 -1.9708
 2617SOL     OW19309   2.520   3.574   9.109 -0.5676 -0.0268 -0.0404
 2617SOL    HW119310   2.454   3.591   9.042 -1.5257  2.0682  1.4237
 2617SOL    HW219311   2.505   3.650   9.165 -0.3259 -1.9135  2.6033
 2618SOL     OW19312   2.042   4.682   4.714  0.0095 -0.6788 -0.4832
 2618SOL    HW119313   2.116   4.645   4.764  0.0459  0.6894  0.4763
 2618SOL    HW219314   2.096   4.709   4.640  0.6106 -1.8233 -0.4675
 2619SOL     OW19315   4.570   2.917   8.468  0.0671 -0.2602 -0.1589
 2619SOL    HW119316   4.627   2.855   8.514 -0.5118 -0.8419 -0.2194
 2619SOL    HW219317   4.537   2.972   8.538 -1.4604 -1.2411 -0.0986
 2620SOL     OW19318   2.871   1.964   6.505 -0.0311 -0.2930 -0.2031
 2620SOL    HW119319   2.926   2.014   6.444  1.6942 -2.4449 -0.4061
 2620SOL    HW219320   2.933   1.892   6.518  1.6308  0.8471 -1.7719
 2621SOL     OW19321   2.826   1.197   4.541 -0.4224  0.1110 -0.3987
 2621SOL    HW119322   2.861   1.238   4.620  1.0318 -2.9798  0.5550
 2621SOL    HW219323   2.869   1.239   4.467 -1.9469  1.1505 -0.6913
 2622SOL     OW19324   3.474   1.421   7.609  0.0242 -0.4088  0.2613
 2622SOL    HW119325   3.492   1.513   7.626  0.9526 -0.2638 -1.5236
 2622SOL    HW219326   3.381   1.427   7.630  0.4146  1.4901  1.4952
 2623SOL     OW19327   0.307   4.076   8.198 -0.1028 -0.5559  0.2498
 2623SOL    HW119328   0.246   4.147   8.176  0.9635  0.2565 -0.0666
 2623SOL    HW219329   0.387   4.129   8.201 -0.9823  0.8118 -0.1531
 2624SOL     OW19330   1.835   2.302   3.756  0.3476 -0.3016 -0.2874
 2624SOL    HW119331   1.820   2.393   3.781 -1.8717 -0.6862 -0.2518
 2624SOL    HW219332   1.930   2.293   3.768  0.4392 -1.5400 -1.9303
 2625SOL     OW19333   0.027   1.596   8.273  0.1393  0.5020 -0.6143
 2625SOL    HW119334   4.693   1.533   8.319  1.5175  0.8267  1.4839
 2625SOL    HW219335   0.116   1.574   8.302 -0.1239  3.4728  2.5268
 2626SOL     OW19336   3.291   1.955  10.582 -0.2353 -0.0491 -0.4204
 2626SOL    HW119337   3.302   1.991  10.670 -2.2180 -1.6075  0.4576
 2626SOL    HW219338   3.218   1.901  10.612 -1.0418  0.8970 -0.6659
 2627SOL     OW19339   4.383   0.565   4.884  0.7314 -0.5016  0.0922
 2627SOL    HW119340   4.440   0.488   4.892  2.1205  0.4114 -0.7671
 2627SOL    HW219341   4.326   0.537   4.812  0.9455 -0.1049 -0.2365
 2628SOL     OW19342   3.289   2.575   7.127  0.0687 -0.5872  0.1036
 2628SOL    HW119343   3.312   2.667   7.143 -1.6163 -0.0936 -0.3124
 2628SOL    HW219344   3.331   2.566   7.041 -3.2137  0.1173 -1.5689
 2629SOL     OW19345   0.632   3.616   7.889 -0.0004 -0.3365 -0.5031
 2629SOL    HW119346   0.581   3.545   7.927  0.4757  0.3768  1.4586
 2629SOL    HW219347   0.714   3.613   7.938 -0.2695  0.6759 -0.0012
 2630SOL     OW19348   3.315   0.695   3.943  0.5535  0.5411  0.2768
 2630SOL    HW119349   3.239   0.741   3.908 -0.4969 -0.4207  1.2672
 2630SOL    HW219350   3.387   0.745   3.905  2.0964  1.1163  3.9161
 2631SOL     OW19351   0.080   0.048   2.867  0.0135 -0.2232  0.2018
 2631SOL    HW119352   0.156   0.097   2.899 -0.9350  2.8147 -2.1494
 2631SOL    HW219353   0.033   0.122   2.827  1.5634 -0.2586 -1.7051
 2632SOL     OW19354   3.675   4.280   1.949 -0.2434  0.0093  0.0182
 2632SOL    HW119355   3.662   4.187   1.930  0.7767 -0.1586  0.1381
 2632SOL    HW219356   3.742   4.303   1.885 -1.2186  0.4820 -0.8375
 2633SOL     OW19357   3.238   3.018   0.598  0.1834  0.1962 -0.3341
 2633SOL    HW119358   3.242   3.101   0.550 -4.0158  0.0711 -0.8428
 2633SOL    HW219359   3.328   3.012   0.630 -0.7600  1.2080  2.5395
 2634SOL     OW19360   1.308   4.418  10.669  0.2103 -0.2340  0.0776
 2634SOL    HW119361   1.370   4.425  10.597 -0.3017 -1.0443 -0.4398
 2634SOL    HW219362   1.269   4.331  10.661 -2.1288  0.7631  0.3871
 2635SOL     OW19363   1.623   4.312   6.403  0.3287  0.1702 -0.2758
 2635SOL    HW119364   1.650   4.378   6.340  0.7403  0.3773  0.1177
 2635SOL    HW219365   1.633   4.229   6.356  1.9029 -0.6108  1.4414
 2636SOL     OW19366   3.282   4.309   2.583 -0.2422 -0.1733  0.4697
 2636SOL    HW119367   3.227   4.364   2.528 -0.2751 -0.6250  0.0503
 2636SOL    HW219368   3.225   4.238   2.613  0.5435 -1.3766 -0.8447
 2637SOL     OW19369   1.693   3.492   9.226  0.2937 -0.2497 -0.0216
 2637SOL    HW119370   1.640   3.549   9.282 -0.7060  0.1819 -1.4036
 2637SOL    HW219371   1.779   3.487   9.267  0.6438  0.8345 -0.6044
 2638SOL     OW19372   4.047   2.316  14.107 -0.3452  0.1528  0.3219
 2638SOL    HW119373   4.034   2.252  14.177 -2.9369 -1.6278 -1.7741
 2638SOL    HW219374   3.955   2.342  14.101 -0.4679 -0.7004 -1.5094
 2639SOL     OW19375   2.056   1.920   2.745 -0.6875  0.1314  0.3045
 2639SOL    HW119376   2.005   1.934   2.665 -0.4488 -0.4541  0.0475
 2639SOL    HW219377   2.091   1.835   2.717  1.7600  0.9474  0.9226
 2640SOL     OW19378   1.286   3.694   1.426  0.3694  0.2535 -0.4415
 2640SOL    HW119379   1.255   3.743   1.350 -1.3913 -0.5107 -0.2007
 2640SOL    HW219380   1.225   3.620   1.431  1.2139 -0.4920 -1.1203
 2641SOL     OW19381   0.355   2.294   3.102 -0.5831 -0.0083 -0.4295
 2641SOL    HW119382   0.269   2.324   3.073  0.4044  2.8446 -0.4119
 2641SOL    HW219383   0.411   2.304   3.025  0.1618 -0.9991 -0.0157
 2642SOL     OW19384   3.573   4.438  12.198 -0.7797  0.1817 -0.2726
 2642SOL    HW119385   3.635   4.482  12.141  2.0073 -3.0632  0.2803
 2642SOL    HW219386   3.495   4.464  12.149 -2.5682 -1.9952  1.4261
 2643SOL     OW19387   0.726   2.693   2.920  0.7504  0.2318 -0.5891
 2643SOL    HW119388   0.649   2.710   2.974  1.3349 -0.6561  0.5367
 2643SOL    HW219389   0.765   2.624   2.974  2.6448 -0.1870 -2.5110
 2644SOL     OW19390   2.396   0.693   0.802 -0.1550  0.1972  0.4937
 2644SOL    HW119391   2.488   0.679   0.824  0.1466  1.5583  0.0901
 2644SOL    HW219392   2.374   0.601   0.788  1.2882 -0.5088  2.9377
 2645SOL     OW19393   2.731   0.107  15.486 -0.6700  0.0968 -0.1359
 2645SOL    HW119394   2.775   0.118  15.570 -0.9091  1.3096 -0.1625
 2645SOL    HW219395   2.644   0.080  15.517  0.6775  1.1075  4.5838
 2646SOL     OW19396   0.969   1.095  16.446  0.3381 -0.2447 -0.6105
 2646SOL    HW119397   1.002   1.011  16.479  2.2245 -0.6043 -3.4703
 2646SOL    HW219398   0.996   1.098  16.355 -0.3435  1.2065 -0.7646
 2647SOL     OW19399   4.384   2.290   0.604  0.3628  0.5610 -0.2167
 2647SOL    HW119400   4.305   2.236   0.591 -0.5428  2.0277 -0.8198
 2647SOL    HW219401   4.445   2.227   0.568  1.0680  0.5849  0.9177
 2648SOL     OW19402   1.317   1.096   7.479  0.3022  0.3516 -0.0942
 2648SOL    HW119403   1.352   1.184   7.460 -0.1452  0.9741  1.9583
 2648SOL    HW219404   1.319   1.100   7.575 -0.9054 -0.1090 -0.0556
 2649SOL     OW19405   2.994   4.586   6.378  0.4544  0.1512  0.5247
 2649SOL    HW119406   3.071   4.641   6.366 -0.4248  0.6368 -2.7402
 2649SOL    HW219407   2.951   4.605   6.295 -0.9424  1.4955  1.5584
 2650SOL     OW19408   3.117   1.800   6.176 -0.0736  0.2599  0.3497
 2650SOL    HW119409   3.205   1.836   6.184  0.5327 -1.2712  0.5082
 2650SOL    HW219410   3.066   1.878   6.197  0.3468  1.0174 -1.3949
 2651SOL     OW19411   0.748   3.005   8.327 -0.1603  0.6533  0.0292
 2651SOL    HW119412   0.658   3.007   8.360 -0.4990 -0.7642 -0.8561
 2651SOL    HW219413   0.794   2.973   8.405 -0.0308  0.0645 -0.2929
 2652SOL     OW19414   2.051   0.259   2.490  0.1844 -0.1867 -0.2784
 2652SOL    HW119415   2.003   0.217   2.561  0.3978 -2.2150 -1.3215
 2652SOL    HW219416   2.060   0.350   2.517  0.3679  0.1043 -1.3171
 2653SOL     OW19417   1.362   1.015   3.178  0.5762 -0.1019 -1.0363
 2653SOL    HW119418   1.359   1.062   3.095 -2.1798  2.6441  0.5952
 2653SOL    HW219419   1.278   1.040   3.217  1.8960 -0.7927  2.2726
 2654SOL     OW19420   3.369   1.750   5.177  0.4314  0.2516  0.5393
 2654SOL    HW119421   3.439   1.779   5.236  0.0636  1.8442  0.1890
 2654SOL    HW219422   3.304   1.708   5.234  0.6964 -1.5819 -0.5043
 2655SOL     OW19423   1.352   3.332   7.417 -0.1891 -0.3323  0.1321
 2655SOL    HW119424   1.395   3.263   7.367 -0.0928 -0.2411  0.0897
 2655SOL    HW219425   1.371   3.412   7.368  0.7674 -1.4985 -1.3895
 2656SOL     OW19426   1.692   0.318   7.164  0.3371  0.2739 -0.4722
 2656SOL    HW119427   1.650   0.403   7.171  1.3490  0.8691 -1.6293
 2656SOL    HW219428   1.773   0.332   7.116 -0.1190  2.6047 -0.5311
 2657SOL     OW19429   1.569   1.137  11.434  0.1620  0.2459 -0.8858
 2657SOL    HW119430   1.649   1.189  11.428 -0.2665  1.0724  0.3510
 2657SOL    HW219431   1.573   1.122  11.528 -1.2905  1.5277 -0.6227
 2658SOL     OW19432   2.182   4.165  17.532 -0.5355  0.4068  0.1348
 2658SOL    HW119433   2.175   4.121  17.447  1.9441  1.6423 -0.7248
 2658SOL    HW219434   2.224   4.248  17.507 -0.8230  0.2844 -0.7612
 2659SOL     OW19435   0.128   1.567   1.117  0.1306 -0.5892  0.9463
 2659SOL    HW119436   0.204   1.528   1.162 -0.5324 -2.6164  0.3134
 2659SOL    HW219437   0.065   1.495   1.123 -0.6980  0.1179  0.7303
 2660SOL     OW19438   1.338   2.970  15.603  0.1245 -0.4419 -0.0380
 2660SOL    HW119439   1.406   2.903  15.604 -0.0784 -0.6793 -1.4111
 2660SOL    HW219440   1.278   2.920  15.659  1.0939 -1.3776  0.1715
 2661SOL     OW19441   1.710   2.397  10.248  0.0821 -0.0200  0.4184
 2661SOL    HW119442   1.787   2.350  10.281  0.9658  1.1927  0.0867
 2661SOL    HW219443   1.743   2.426  10.163 -1.6977  0.5334 -0.0877
 2662SOL     OW19444   3.236   1.152   5.107 -0.0197  0.3318  0.1000
 2662SOL    HW119445   3.243   1.236   5.062 -2.8175 -0.2065 -1.3606
 2662SOL    HW219446   3.303   1.143   5.174 -0.9020  2.3840  1.2616
 2663SOL     OW19447   0.598   1.354   2.185 -0.7356  0.0563 -0.3169
 2663SOL    HW119448   0.614   1.268   2.145 -0.6102  0.4872 -1.1698
 2663SOL    HW219449   0.676   1.368   2.238 -0.7292 -0.5051 -0.1735
 2664SOL     OW19450   1.312   2.958   2.990  0.3618  0.1735 -0.2157
 2664SOL    HW119451   1.241   2.956   2.925 -1.5837 -4.5064  2.0168
 2664SOL    HW219452   1.288   2.889   3.052 -1.8474  0.2259 -1.0075
 2665SOL     OW19453   4.598   4.092   6.637  0.5316 -0.4302 -0.5130
 2665SOL    HW119454   4.508   4.106   6.607  0.7540  0.2172 -0.9041
 2665SOL    HW219455   4.656   4.127   6.568 -0.1062  1.2274 -0.2203
 2666SOL     OW19456   0.972   0.698   5.794  0.3342 -0.2085 -0.2062
 2666SOL    HW119457   0.894   0.672   5.745 -0.5789  2.3672 -0.1355
 2666SOL    HW219458   0.953   0.791   5.806  0.4459  0.1645 -2.9832
 2667SOL     OW19459   1.095   2.076   3.578  0.1248  0.0936 -0.0968
 2667SOL    HW119460   1.078   2.136   3.651  0.0229  0.6642 -0.5929
 2667SOL    HW219461   1.106   2.129   3.500  2.1190 -1.1674 -0.6744
 2668SOL     OW19462   3.602   3.091  11.095 -0.2861 -0.2700 -0.7719
 2668SOL    HW119463   3.507   3.102  11.101 -0.4853 -1.1990 -2.1495
 2668SOL    HW219464   3.614   3.069  11.003 -0.6011  0.4034 -0.9755
 2669SOL     OW19465   4.679   0.772  10.994 -0.1494 -0.4451 -0.2866
 2669SOL    HW119466   4.611   0.815  11.047 -0.2424  0.7286 -1.3450
 2669SOL    HW219467   0.031   0.834  10.994 -1.1396  0.7389  0.6755
 2670SOL     OW19468   0.128   4.122   2.461  0.0489  0.6677  0.0062
 2670SOL    HW119469   0.159   4.058   2.526  0.3608  0.4471 -0.3637
 2670SOL    HW219470   0.034   4.126   2.478 -0.2665 -2.5190 -1.0148
 2671SOL     OW19471   4.176   4.554   4.933  0.0103  0.2318 -0.0250
 2671SOL    HW119472   4.211   4.635   4.970  0.7869 -0.6471  1.1615
 2671SOL    HW219473   4.249   4.519   4.882 -0.9717 -2.4886  0.4443
 2672SOL     OW19474   3.329   0.062   7.292 -0.4763 -0.0257  0.1969
 2672SOL    HW119475   3.330   0.111   7.375  4.9326  0.2177 -0.0493
 2672SOL    HW219476   3.253   0.094   7.243  1.2416 -0.6851 -2.8849
 2673SOL     OW19477   3.618   3.828   2.902 -0.2647  0.6210  0.3534
 2673SOL    HW119478   3.686   3.782   2.953  2.4193  3.2577 -0.8020
 2673SOL    HW219479   3.650   3.790   2.820  1.2097  0.7378  0.8718
 2674SOL     OW19480   4.006   0.538   6.110 -0.3286 -0.5704 -0.0619
 2674SOL    HW119481   4.019   0.540   6.015 -0.7426  1.5859 -0.0723
 2674SOL    HW219482   4.091   0.499   6.132  0.0493  0.1805 -0.1816
 2675SOL     OW19483   2.589   4.112   6.115  0.0327 -0.2842 -0.4371
 2675SOL    HW119484   2.621   4.123   6.205  2.9799 -1.5175 -1.3129
 2675SOL    HW219485   2.617   4.196   6.077 -0.4638  0.7621  1.4938
 2676SOL     OW19486   3.143   2.941   8.072 -0.2332  0.2291 -0.0045
 2676SOL    HW119487   3.102   2.964   8.155  1.6935 -0.8134  1.2296
 2676SOL    HW219488   3.237   2.943   8.089 -0.2424  0.8043 -0.0234
 2677SOL     OW19489   4.340   2.071  12.840 -0.2532 -0.5095  0.2322
 2677SOL    HW119490   4.308   2.087  12.928  0.7704  1.2599  0.3000
 2677SOL    HW219491   4.256   2.072  12.794  1.1114  0.8295 -2.2417
 2678SOL     OW19492   0.374   4.615   5.770 -0.4319  0.1137 -0.0234
 2678SOL    HW119493   0.392   4.683   5.705 -2.2251 -0.4050 -1.0689
 2678SOL    HW219494   0.460   4.574   5.770 -0.0347  0.9420  0.5288
 2679SOL     OW19495   0.247   3.093   4.144 -0.6448  0.2012 -0.5300
 2679SOL    HW119496   0.211   3.180   4.131 -0.7457 -0.0193 -1.7401
 2679SOL    HW219497   0.284   3.070   4.059  2.3497  2.7726  0.0879
 2680SOL     OW19498   3.648   1.506  16.712 -0.3372 -0.5441  0.5904
 2680SOL    HW119499   3.709   1.507  16.786  0.1391  0.1829  0.1834
 2680SOL    HW219500   3.706   1.530  16.640  0.2427 -3.1619  0.1913
 2681SOL     OW19501   1.128   4.206   0.571 -0.1636  0.4284 -0.6616
 2681SOL    HW119502   1.040   4.243   0.573 -1.3651 -2.4534  0.2718
 2681SOL    HW219503   1.128   4.140   0.640 -1.0275  1.1815  0.0573
 2682SOL     OW19504   2.778   1.943   0.765  0.0568 -0.7796 -0.3110
 2682SOL    HW119505   2.792   1.997   0.843  1.3770 -0.7585 -0.5611
 2682SOL    HW219506   2.800   2.002   0.692  0.1597  0.5279  0.7626
 2683SOL     OW19507   4.557   2.793   7.366 -0.3271 -0.2289 -0.0961
 2683SOL    HW119508   4.604   2.806   7.448  0.3520 -2.3652 -0.1349
 2683SOL    HW219509   4.504   2.872   7.368 -1.1277 -0.7509 -0.3936
 2684SOL     OW19510   4.530   4.156  16.425  0.4393  0.0922  0.5495
 2684SOL    HW119511   4.452   4.210  16.413 -0.9496 -1.9434  0.2859
 2684SOL    HW219512   4.594   4.220  16.454 -0.0859  0.3263  1.1794
 2685SOL     OW19513   4.674   0.425   5.303 -0.2131  0.5556  0.5636
 2685SOL    HW119514   4.710   0.349   5.257  1.6466  2.1424 -0.6010
 2685SOL    HW219515   0.007   0.426   5.383 -0.4065 -1.2814  0.7367
 2686SOL     OW19516   0.289   4.548   9.882 -0.0623 -0.1610 -0.5605
 2686SOL    HW119517   0.235   4.623   9.907  0.4334  0.6613 -1.9383
 2686SOL    HW219518   0.321   4.519   9.967  1.6121 -2.3133 -1.9262
 2687SOL     OW19519   4.349   2.500   4.011  0.0363  0.7233 -0.4170
 2687SOL    HW119520   4.307   2.460   3.934 -1.7268 -1.4268  1.6824
 2687SOL    HW219521   4.428   2.538   3.973  0.4388 -2.2841 -2.5733
 2688SOL     OW19522   3.672   4.641  11.331 -0.7097  0.2338 -0.6322
 2688SOL    HW119523   3.685   4.546  11.337 -0.2688  0.3201 -0.2025
 2688SOL    HW219524   3.620   4.655  11.252  1.1118  3.7237 -1.1769
 2689SOL     OW19525   3.364   3.285   6.582 -0.0297  0.2292  0.1426
 2689SOL    HW119526   3.347   3.378   6.568 -2.2666 -0.2545 -0.4027
 2689SOL    HW219527   3.422   3.267   6.507 -0.8035 -0.6487 -0.2493
 2690SOL     OW19528   3.061   3.273   6.090  0.1640  0.4438  0.1442
 2690SOL    HW119529   3.027   3.187   6.114  1.6588 -0.4512 -0.9299
 2690SOL    HW219530   3.139   3.267   6.145 -0.1275  1.0217  0.6176
 2691SOL     OW19531   3.602   0.505   0.742  0.2922 -0.0224  0.3366
 2691SOL    HW119532   3.604   0.591   0.785  0.2504 -0.1127  0.5200
 2691SOL    HW219533   3.677   0.506   0.684  1.7385 -1.7574  2.1566
 2692SOL     OW19534   0.036   4.264   7.173  0.2399  0.2007  0.3373
 2692SOL    HW119535   0.049   4.205   7.247 -3.3044 -0.2627  0.5650
 2692SOL    HW219536   4.680   4.233   7.125  0.7023 -1.0914  0.4144
 2693SOL     OW19537   0.020   1.251   7.933  0.0494 -0.2447  0.2593
 2693SOL    HW119538   0.098   1.199   7.917  0.5473  0.1994  1.2829
 2693SOL    HW219539   0.023   1.333   7.884 -1.0090 -0.7521 -0.6433
 2694SOL     OW19540   3.459   2.873   8.997 -0.2377 -0.1028 -0.5162
 2694SOL    HW119541   3.542   2.919   8.982 -0.0970  0.2656  1.3686
 2694SOL    HW219542   3.409   2.936   9.049  2.7650  0.0458  2.2643
 2695SOL     OW19543   3.567   2.191   8.000  0.2766  0.0412 -0.2060
 2695SOL    HW119544   3.489   2.141   8.021 -0.3406  0.5634 -1.2682
 2695SOL    HW219545   3.601   2.116   7.950  1.7843 -0.1133  1.0405
 2696SOL     OW19546   2.694   2.259   2.388 -0.0767 -0.2542 -0.7023
 2696SOL    HW119547   2.601   2.241   2.373 -0.4532  1.3622 -0.2377
 2696SOL    HW219548   2.709   2.247   2.482  0.0817  1.0812 -0.5579
 2697SOL     OW19549   1.629   3.578   4.407 -0.1170  0.4089 -0.5333
 2697SOL    HW119550   1.552   3.521   4.397 -0.5514  0.6802  1.3093
 2697SOL    HW219551   1.700   3.514   4.404 -0.0117  0.5024  0.0913
 2698SOL     OW19552   4.316   1.930   8.710  0.2220 -0.2275 -0.2850
 2698SOL    HW119553   4.229   1.897   8.731 -0.2203  1.4555  0.5644
 2698SOL    HW219554   4.326   2.020   8.743  1.5417 -0.8870  1.0961
 2699SOL     OW19555   3.047   1.683   2.840  0.1726  0.0944 -0.4260
 2699SOL    HW119556   3.069   1.766   2.882 -2.0977  0.4502  0.0512
 2699SOL    HW219557   2.960   1.707   2.808  0.3377 -1.3224 -1.9539
 2700SOL     OW19558   0.951   4.587   4.799  0.1785 -0.3218 -0.1076
 2700SOL    HW119559   0.974   4.645   4.872 -2.7353 -0.1090  0.6436
 2700SOL    HW219560   1.004   4.634   4.735 -0.5291  1.3889  0.5632
 2701SOL     OW19561   2.251   0.458   7.913 -0.3847  0.1862 -0.0811
 2701SOL    HW119562   2.168   0.472   7.867 -1.2422 -0.7083  1.1830
 2701SOL    HW219563   2.232   0.506   7.993  1.1982  0.4027  0.1725
 2702SOL     OW19564   3.973   4.037   2.477  0.5230  0.2303 -0.0814
 2702SOL    HW119565   4.020   4.031   2.394  1.0176 -2.3712  0.4033
 2702SOL    HW219566   3.920   3.958   2.486 -0.9632  1.1799 -0.5561
 2703SOL     OW19567   3.151   0.534   2.433  0.6816 -0.2547 -0.2918
 2703SOL    HW119568   3.069   0.575   2.460  1.0953 -0.4902  1.3468
 2703SOL    HW219569   3.224   0.576   2.478 -0.1685  0.9872 -0.0620
 2704SOL     OW19570   1.226   0.130   4.185  0.0958 -0.8196 -0.0322
 2704SOL    HW119571   1.229   0.223   4.164  1.0954 -0.6399  0.9004
 2704SOL    HW219572   1.296   0.091   4.132  0.9481  2.3872 -1.2191
 2705SOL     OW19573   4.424   1.938  13.225 -0.6956 -0.2206 -0.1783
 2705SOL    HW119574   4.406   1.864  13.283 -1.1316  0.3668  0.4278
 2705SOL    HW219575   4.499   1.976  13.271  0.4582 -1.7633 -0.7770
 2706SOL     OW19576   1.247   0.089   5.837 -0.3905  0.1641 -0.6319
 2706SOL    HW119577   1.154   0.073   5.849 -0.3210 -0.9162 -1.5595
 2706SOL    HW219578   1.283   0.001   5.848 -0.3004 -0.0484 -2.6333
 2707SOL     OW19579   0.311   3.473  13.498 -0.2544 -0.0047  0.3680
 2707SOL    HW119580   0.300   3.455  13.405 -0.6341  0.3779  0.3397
 2707SOL    HW219581   0.377   3.541  13.484  1.6130 -1.8859  0.0326
 2708SOL     OW19582   1.548   0.434   3.793  0.7266  0.1535 -0.1405
 2708SOL    HW119583   1.539   0.483   3.875 -0.2403 -0.0807 -0.1130
 2708SOL    HW219584   1.488   0.478   3.733  2.7196  0.9271 -1.5726
 2709SOL     OW19585   1.733   1.683   2.792  0.1808  0.0517 -0.4590
 2709SOL    HW119586   1.755   1.723   2.708  0.0151  0.6190 -0.2333
 2709SOL    HW219587   1.660   1.630   2.761  0.7953 -0.0004 -1.8148
 2710SOL     OW19588   2.910   1.487   4.408  0.0731 -0.4545  0.1543
 2710SOL    HW119589   2.912   1.510   4.315  1.3531  0.6272  0.4572
 2710SOL    HW219590   2.827   1.529   4.430  2.1230  1.6150  3.8484
 2711SOL     OW19591   3.894   0.305  13.549  0.3650  0.0613  0.2807
 2711SOL    HW119592   3.950   0.227  13.548  1.4971  0.8852  0.4948
 2711SOL    HW219593   3.950   0.378  13.524  2.0853 -1.6720 -0.9531
 2712SOL     OW19594   3.821   2.875  13.141  0.0839  0.4315 -0.0167
 2712SOL    HW119595   3.831   2.967  13.115  0.6206  0.1364 -0.8344
 2712SOL    HW219596   3.912   2.846  13.135 -0.2801 -0.9769  1.3627
 2713SOL     OW19597   3.701   4.177   1.329  0.1377 -0.0455 -0.0149
 2713SOL    HW119598   3.780   4.225   1.304  0.2108 -0.3104 -0.3057
 2713SOL    HW219599   3.703   4.102   1.269  4.5153  0.7063 -0.8235
 2714SOL     OW19600   1.147   1.035   1.775 -0.4284 -0.1825 -0.4875
 2714SOL    HW119601   1.182   0.970   1.836  0.4066 -1.2538 -2.1109
 2714SOL    HW219602   1.212   1.105   1.769 -2.3625  1.6853  0.2270
 2715SOL     OW19603   3.766   3.361   7.399 -0.0933 -0.3174 -0.1847
 2715SOL    HW119604   3.808   3.441   7.433 -0.7126 -0.5429  1.1322
 2715SOL    HW219605   3.680   3.401   7.383  0.0881 -0.0964 -0.6002
 2716SOL     OW19606   1.262   2.843  15.366 -0.0382 -0.3285  0.1190
 2716SOL    HW119607   1.181   2.792  15.365 -0.2497  0.0114  0.0234
 2716SOL    HW219608   1.251   2.899  15.442  1.6636  1.5445 -1.0112
 2717SOL     OW19609   2.283   0.533  16.261  0.1372 -0.2507 -0.6489
 2717SOL    HW119610   2.265   0.439  16.256  3.2791 -0.9246  0.8977
 2717SOL    HW219611   2.376   0.540  16.244  0.0516  0.4050 -0.8317
 2718SOL     OW19612   3.487   4.548   1.474  0.0122 -0.1577 -0.2853
 2718SOL    HW119613   3.505   4.486   1.403 -0.1785 -0.1807 -0.3133
 2718SOL    HW219614   3.569   4.530   1.520 -0.1195  1.0971  0.4382
 2719SOL     OW19615   3.771   4.373   5.550  0.4391  0.1805 -0.3474
 2719SOL    HW119616   3.829   4.399   5.479  0.6242  0.2749 -0.1623
 2719SOL    HW219617   3.821   4.405   5.625  0.7486 -2.1882  0.4396
 2720SOL     OW19618   2.971   1.091   5.104 -0.0697  0.0127  0.1617
 2720SOL    HW119619   2.965   1.041   5.186 -1.6061 -1.4441 -0.8312
 2720SOL    HW219620   3.065   1.107   5.102 -0.3650  1.8925  1.6848
 2721SOL     OW19621   4.028   2.304   2.083 -0.3482 -0.6681  0.0226
 2721SOL    HW119622   3.952   2.259   2.121 -1.6061  0.3222 -1.2990
 2721SOL    HW219623   3.993   2.389   2.108  0.5841 -0.1488 -0.4571
 2722SOL     OW19624   3.488   3.907  10.940  0.3518 -0.0760  0.4195
 2722SOL    HW119625   3.541   3.866  10.872  0.0334  1.0232 -0.4890
 2722SOL    HW219626   3.476   3.838  11.006  1.4644 -0.7020 -0.0225
 2723SOL     OW19627   0.165   4.320   7.644  0.6135 -0.4142  0.1636
 2723SOL    HW119628   0.207   4.259   7.704  0.4772  0.3587  1.0473
 2723SOL    HW219629   0.206   4.406   7.653  1.8460 -0.7563 -2.2360
 2724SOL     OW19630   0.821   2.353   9.328 -0.0593 -0.1202  0.2464
 2724SOL    HW119631   0.906   2.393   9.308 -0.7185  1.1314 -0.0356
 2724SOL    HW219632   0.827   2.285   9.261  0.6515  1.3649 -1.1925
 2725SOL     OW19633   3.032   2.766   5.202 -0.4006  0.0934 -0.1131
 2725SOL    HW119634   3.120   2.757   5.241 -0.4095 -0.7472 -0.2844
 2725SOL    HW219635   2.999   2.679   5.225  1.0805 -0.3309  0.4482
 2726SOL     OW19636   2.390   1.781   8.453  0.2714 -0.5270  0.1778
 2726SOL    HW119637   2.367   1.873   8.461  1.8474 -0.1212  0.1327
 2726SOL    HW219638   2.459   1.778   8.387  0.8362  1.7800  0.6809
 2727SOL     OW19639   4.558   3.879   5.383  0.4854  0.4012 -0.1533
 2727SOL    HW119640   4.496   3.949   5.402 -0.1973 -0.2079 -0.1565
 2727SOL    HW219641   4.520   3.802   5.425  0.0967  0.4535 -0.4183
 2728SOL     OW19642   0.024   0.516   6.744  0.1175  0.3553  0.0666
 2728SOL    HW119643   0.031   0.432   6.788  0.1144  1.0396  1.3604
 2728SOL    HW219644   0.116   0.530   6.721 -0.1124 -0.1618 -1.1925
 2729SOL     OW19645   3.676   2.640  17.061 -0.7035  0.7260  0.3981
 2729SOL    HW119646   3.624   2.567  17.093  0.7893 -0.5964 -0.1951
 2729SOL    HW219647   3.654   2.647  16.969  0.4807 -0.8758 -0.0008
 2730SOL     OW19648   0.915   1.515  15.103 -0.0475 -0.1085  0.3827
 2730SOL    HW119649   0.974   1.466  15.161  1.2132  0.7343 -0.1727
 2730SOL    HW219650   0.896   1.454  15.032  2.4654 -1.6598  1.0154
 2731SOL     OW19651   4.709   3.441  13.303  0.2773  0.6266  0.1547
 2731SOL    HW119652   4.629   3.445  13.251 -0.3993  0.6387  1.2022
 2731SOL    HW219653   4.699   3.516  13.362 -1.1685 -0.2367  1.0149
 2732SOL     OW19654   3.944   4.720   7.705  1.1263  0.8125  0.9093
 2732SOL    HW119655   3.963   4.644   7.760  0.9116 -0.3305 -0.5845
 2732SOL    HW219656   3.947   4.676   7.620 -2.0978  0.2045  1.0979
 2733SOL     OW19657   2.153   2.450   5.945 -0.1993 -0.1553 -0.0595
 2733SOL    HW119658   2.231   2.421   5.899  1.1238  0.1486  2.0146
 2733SOL    HW219659   2.165   2.390   6.019  0.9905  0.0080 -0.1167
 2734SOL     OW19660   2.420   2.277   8.132 -0.2807  0.2143 -0.1118
 2734SOL    HW119661   2.403   2.183   8.145  0.1006  0.0719 -0.6468
 2734SOL    HW219662   2.508   2.282   8.094 -0.0244 -1.0809  0.3135
 2735SOL     OW19663   4.570   3.433   0.706 -0.4813 -0.3295 -0.0626
 2735SOL    HW119664   4.497   3.393   0.754  0.9128 -2.2057  0.5027
 2735SOL    HW219665   4.551   3.435   0.612  1.0330  0.6704 -0.3381
 2736SOL     OW19666   3.232   2.432   9.061 -0.2981  0.1272 -0.4094
 2736SOL    HW119667   3.291   2.461   9.131 -0.7158  0.4377 -0.1876
 2736SOL    HW219668   3.261   2.341   9.060 -1.0772 -0.0978 -2.2389
 2737SOL     OW19669   0.457   2.783  12.278 -0.0058 -0.7790 -0.0017
 2737SOL    HW119670   0.472   2.769  12.372 -3.2586 -1.3348  0.4382
 2737SOL    HW219671   0.446   2.696  12.241 -0.0407 -0.5926 -0.4342
 2738SOL     OW19672   4.425   2.920   6.356  0.2966  0.0085 -0.3240
 2738SOL    HW119673   4.391   2.894   6.270 -1.1328 -1.9976  0.8539
 2738SOL    HW219674   4.357   2.986   6.373 -0.6085 -0.8126 -0.7506
 2739SOL     OW19675   4.033   0.736   4.961 -0.1581 -0.3806 -0.7892
 2739SOL    HW119676   3.940   0.744   4.980 -0.1217 -3.6546  0.9158
 2739SOL    HW219677   4.016   0.656   4.911  0.6303  0.1864 -1.9553
 2740SOL     OW19678   4.000   0.498  11.778 -0.2005  0.1202 -0.0125
 2740SOL    HW119679   4.073   0.460  11.827 -0.6870 -0.7412  0.0429
 2740SOL    HW219680   3.950   0.554  11.838  0.5890  3.1385 -2.1515
 2741SOL     OW19681   1.823   0.249   5.476 -0.0406 -0.4677  0.1213
 2741SOL    HW119682   1.902   0.211   5.515 -0.2251  0.1642  1.1346
 2741SOL    HW219683   1.770   0.169   5.472 -3.1432  1.4309  2.6433
 2742SOL     OW19684   1.946   0.561   2.035  0.3729  0.3760  0.2455
 2742SOL    HW119685   1.914   0.495   1.974 -1.6425  0.8521  0.7931
 2742SOL    HW219686   2.014   0.505   2.072  1.7750  0.8097 -1.6542
 2743SOL     OW19687   0.347   1.712   5.380 -0.1474 -0.3034 -0.2624
 2743SOL    HW119688   0.422   1.654   5.371  0.2239  0.0359  0.6645
 2743SOL    HW219689   0.377   1.764   5.455 -0.5771  1.0019 -0.9951
 2744SOL     OW19690   3.271   0.012   7.664  0.1142 -0.0326 -0.0653
 2744SOL    HW119691   3.198   0.073   7.673 -0.0417 -0.2327  0.0156
 2744SOL    HW219692   3.313   0.052   7.588  0.4346  3.0777  1.7078
 2745SOL     OW19693   2.850   3.075   9.832 -0.3847  0.3194 -0.1135
 2745SOL    HW119694   2.837   3.100   9.923 -0.9338 -2.0216  0.4426
 2745SOL    HW219695   2.918   3.008   9.840 -0.6716  0.2468  1.5847
 2746SOL     OW19696   0.242   2.040   8.527 -0.0200  0.4626 -0.3424
 2746SOL    HW119697   0.245   2.055   8.622  0.1333  0.0803 -0.2874
 2746SOL    HW219698   0.182   2.113   8.512  0.9138  1.7695  2.2174
 2747SOL     OW19699   1.874   0.355   6.014 -0.1992 -0.3666 -0.6094
 2747SOL    HW119700   1.860   0.386   5.925  3.3887 -1.4051 -1.5490
 2747SOL    HW219701   1.967   0.369   6.029 -0.0146 -3.0078  0.6833
 2748SOL     OW19702   0.821   2.217   5.160 -0.4571 -0.7219 -0.1701
 2748SOL    HW119703   0.893   2.162   5.191 -0.1625 -0.4452 -0.3598
 2748SOL    HW219704   0.763   2.157   5.114 -2.0903  0.0241  0.9090
 2749SOL     OW19705   0.669   2.965  15.841 -0.4619  0.0017 -0.6681
 2749SOL    HW119706   0.613   2.888  15.850  0.9944 -1.0817 -0.7530
 2749SOL    HW219707   0.601   3.024  15.809 -1.2689  1.4688  3.7050
 2750SOL     OW19708   4.250   4.495   9.449 -0.0495  0.5077  0.0095
 2750SOL    HW119709   4.278   4.429   9.385  1.4084 -0.4136  1.6024
 2750SOL    HW219710   4.164   4.520   9.413 -0.6961  2.0213  2.6417
 2751SOL     OW19711   4.041   3.722   1.128  0.0263  0.1437 -0.0763
 2751SOL    HW119712   4.128   3.751   1.100  0.2559  0.2145  0.6865
 2751SOL    HW219713   4.034   3.756   1.218  2.2797 -0.2841  0.2729
 2752SOL     OW19714   3.033   4.469   3.995 -0.1366  0.0548  0.4686
 2752SOL    HW119715   3.104   4.428   4.044 -0.4660  1.0391  1.7931
 2752SOL    HW219716   2.982   4.516   4.061 -1.4348 -1.5629  0.6011
 2753SOL     OW19717   0.057   4.441   4.699  0.1819 -0.0367 -0.3838
 2753SOL    HW119718   0.072   4.524   4.745 -0.0270 -0.0452 -0.3026
 2753SOL    HW219719   0.130   4.437   4.637  2.6472  0.4187  2.4898
 2754SOL     OW19720   1.242   3.550   9.358  0.6397  0.2700  0.2565
 2754SOL    HW119721   1.221   3.561   9.451 -1.9138  0.2364 -0.3074
 2754SOL    HW219722   1.313   3.486   9.359  0.8492  0.5154  1.2414
 2755SOL     OW19723   0.639   3.008   4.618  0.1089  0.2460  0.5620
 2755SOL    HW119724   0.719   3.015   4.567 -0.3569  1.9642  0.0897
 2755SOL    HW219725   0.663   3.049   4.701 -0.0780  0.5286  0.4736
 2756SOL     OW19726   1.799   2.446   6.138 -0.2717 -0.1200  0.2374
 2756SOL    HW119727   1.810   2.400   6.055  1.5771  0.0370  0.4080
 2756SOL    HW219728   1.810   2.369   6.194  1.2813  0.0362  0.1345
 2757SOL     OW19729   2.141   1.217   3.324 -0.0830 -0.5545 -0.2064
 2757SOL    HW119730   2.176   1.134   3.292 -0.1834 -0.3360 -0.8784
 2757SOL    HW219731   2.074   1.230   3.257 -0.1241  1.2225  0.1902
 2758SOL     OW19732   1.959   3.840   6.751  0.1571  0.1888  1.0736
 2758SOL    HW119733   1.970   3.860   6.844  0.2161  0.0712  1.0914
 2758SOL    HW219734   1.878   3.889   6.733  1.1394  2.1408  2.0699
 2759SOL     OW19735   1.737   3.568   3.838  0.2546 -0.3774  0.7197
 2759SOL    HW119736   1.647   3.601   3.836  1.2323  2.3020  0.3163
 2759SOL    HW219737   1.747   3.554   3.744  1.6593  0.6559  0.7086
 2760SOL     OW19738   2.975   4.327   4.593 -0.1817  0.3395 -0.6128
 2760SOL    HW119739   2.978   4.234   4.572  2.2892  0.4902 -0.9519
 2760SOL    HW219740   3.014   4.319   4.680 -2.6207 -1.9916  0.2526
 2761SOL     OW19741   3.224   3.638   5.676 -0.0468 -0.1284  0.0012
 2761SOL    HW119742   3.141   3.595   5.699 -0.6208  0.2049 -1.4545
 2761SOL    HW219743   3.241   3.629   5.583 -2.0653  2.9272 -0.6652
 2762SOL     OW19744   4.398   2.267   1.459  0.3069  0.0726 -0.2333
 2762SOL    HW119745   4.400   2.324   1.536  2.0057 -0.8375  0.3960
 2762SOL    HW219746   4.378   2.180   1.493  0.8178 -1.1570 -3.0948
 2763SOL     OW19747   4.509   1.670   2.145 -0.2259  0.0304  0.6899
 2763SOL    HW119748   4.463   1.653   2.063  0.2656  0.5274  0.3054
 2763SOL    HW219749   4.532   1.763   2.140  0.6993 -0.1813  0.9669
 2764SOL     OW19750   0.565   0.715   1.613 -0.2389  0.3967  0.3929
 2764SOL    HW119751   0.635   0.670   1.660  0.2970  0.5937 -0.2215
 2764SOL    HW219752   0.568   0.799   1.659 -0.9555  0.6865 -0.1022
 2765SOL     OW19753   1.842   2.977   4.960 -0.4576 -0.3700 -0.0137
 2765SOL    HW119754   1.799   2.935   5.034 -0.0963  1.1019  1.0430
 2765SOL    HW219755   1.851   2.905   4.898 -2.5197 -1.6171  1.1630
 2766SOL     OW19756   3.893   4.146   7.746 -0.1211  0.5366 -0.3930
 2766SOL    HW119757   3.854   4.151   7.834  1.0824  1.3192  0.0999
 2766SOL    HW219758   3.983   4.165   7.772  0.1324  0.3231 -1.1307
 2767SOL     OW19759   3.318   3.741   5.942  0.1682  0.1261 -0.0915
 2767SOL    HW119760   3.291   3.683   5.871  1.2513 -0.6667  0.1446
 2767SOL    HW219761   3.386   3.791   5.895  0.1998 -1.0246 -1.2884
 2768SOL     OW19762   0.439   0.835   4.085 -0.5291  0.2059 -0.3537
 2768SOL    HW119763   0.533   0.851   4.096 -0.7288  0.5105  0.9525
 2768SOL    HW219764   0.420   0.881   4.003 -0.7205 -2.3502 -1.7500
 2769SOL     OW19765   2.371   3.414  12.567 -0.1273 -0.6666  0.4307
 2769SOL    HW119766   2.454   3.402  12.519 -0.3645  1.7593 -0.6149
 2769SOL    HW219767   2.382   3.499  12.610 -2.1897 -0.1524 -0.0501
 2770SOL     OW19768   1.659   1.519   9.610 -0.1854 -0.2725 -0.4934
 2770SOL    HW119769   1.616   1.530   9.526  1.2713 -0.9532 -1.3441
 2770SOL    HW219770   1.727   1.454   9.590 -1.2638 -2.0769  1.5985
 2771SOL     OW19771   0.752   2.252   8.356  0.4644  0.2305 -0.2828
 2771SOL    HW119772   0.789   2.191   8.292 -2.8193 -0.9913 -1.0396
 2771SOL    HW219773   0.747   2.332   8.303 -0.5256 -0.5792 -1.4273
 2772SOL     OW19774   1.623   2.120   3.136  0.0774  0.2960 -0.2947
 2772SOL    HW119775   1.634   2.150   3.226 -1.5711 -1.3660  0.4420
 2772SOL    HW219776   1.566   2.044   3.148 -0.3860  0.5788 -0.6978
 2773SOL     OW19777   0.099   2.826   5.904 -0.2644  0.3945 -0.3012
 2773SOL    HW119778   0.176   2.779   5.939 -0.6527  1.3844  1.9124
 2773SOL    HW219779   0.115   2.905   5.956  1.0291  0.1325 -0.2878
 2774SOL     OW19780   1.598   3.730   4.835  0.0116 -0.1268  0.4048
 2774SOL    HW119781   1.610   3.645   4.878  0.8503 -1.1194 -1.7350
 2774SOL    HW219782   1.511   3.746   4.871 -1.0416  0.3438 -2.3684
 2775SOL     OW19783   3.757   1.108   2.640 -0.3296 -0.2959  0.5169
 2775SOL    HW119784   3.733   1.107   2.732  1.8685  0.2239  1.0894
 2775SOL    HW219785   3.844   1.069   2.644 -0.9189 -1.3138  3.0117
 2776SOL     OW19786   1.764   1.063   2.297  0.0821 -0.6486 -0.3260
 2776SOL    HW119787   1.702   1.107   2.239 -0.7813  0.1444  1.1942
 2776SOL    HW219788   1.791   0.989   2.243  0.3062 -1.1104  0.4103
 2777SOL     OW19789   0.648   4.045   5.809 -0.4399 -0.3214  0.4636
 2777SOL    HW119790   0.707   3.985   5.854  0.1417 -0.7508 -0.8718
 2777SOL    HW219791   0.706   4.075   5.739  0.1804 -0.9016  0.7440
 2778SOL     OW19792   1.141   4.492   3.651 -0.0506 -0.0082 -0.0465
 2778SOL    HW119793   1.205   4.542   3.701  0.3115 -0.5549  0.0398
 2778SOL    HW219794   1.185   4.461   3.572 -0.3258 -1.2953  0.3056
 2779SOL     OW19795   3.821   2.451   7.507 -0.1160  0.1329  0.3728
 2779SOL    HW119796   3.797   2.487   7.592 -1.0538  0.2236  0.0710
 2779SOL    HW219797   3.738   2.411   7.478  0.5975 -0.3863 -0.9731
 2780SOL     OW19798   0.589   1.976  10.239  0.4597  0.1758  0.1249
 2780SOL    HW119799   0.594   1.899  10.183  0.0099  0.2564 -0.0273
 2780SOL    HW219800   0.654   1.954  10.305  0.1977  1.8422  0.9387
 2781SOL     OW19801   4.125   3.417   6.710 -0.0590  0.4629  0.7426
 2781SOL    HW119802   4.106   3.510   6.724  2.0113  0.7624  1.6347
 2781SOL    HW219803   4.102   3.413   6.618 -2.6312 -1.2645  1.4730
 2782SOL     OW19804   2.209   4.572  11.446  0.5228  0.0478  0.4978
 2782SOL    HW119805   2.153   4.536  11.377  0.1655  0.5379  0.5375
 2782SOL    HW219806   2.262   4.627  11.387  2.1648  0.7086  2.5886
 2783SOL     OW19807   3.141   2.772   9.002 -0.6332 -0.1842  0.3030
 2783SOL    HW119808   3.174   2.857   8.973 -0.7776  0.7285  2.8808
 2783SOL    HW219809   3.055   2.790   9.039 -0.5491  1.8591 -0.4709
 2784SOL     OW19810   0.431   0.008   4.362  0.5227  0.3381  0.5871
 2784SOL    HW119811   0.401   4.711   4.451 -3.0947 -0.8162 -0.8718
 2784SOL    HW219812   0.359   0.050   4.317 -1.1328 -1.7067  1.3286
 2785SOL     OW19813   0.512   2.888  11.254 -0.2020 -0.1587  0.4805
 2785SOL    HW119814   0.471   2.908  11.338 -0.3055  0.8057  0.2002
 2785SOL    HW219815   0.589   2.944  11.243 -0.6587  0.0357 -1.6986
 2786SOL     OW19816   0.317   2.689   6.024  0.0547 -0.3846  0.2916
 2786SOL    HW119817   0.260   2.642   6.084 -3.2097  2.2239 -0.7881
 2786SOL    HW219818   0.374   2.740   6.083 -0.4742  2.5130 -1.6853
 2787SOL     OW19819   2.445   0.504   1.738  0.3341  0.3653 -0.0683
 2787SOL    HW119820   2.486   0.539   1.659  0.2396 -2.1898 -1.2532
 2787SOL    HW219821   2.511   0.536   1.799  0.0808 -2.1441  1.5011
 2788SOL     OW19822   1.029   4.330   2.988 -0.6353 -0.3881  0.7453
 2788SOL    HW119823   0.936   4.348   2.998 -0.3858 -0.2952  2.9408
 2788SOL    HW219824   1.037   4.300   2.898 -2.5005 -1.6377  1.0165
 2789SOL     OW19825   2.303   0.590   4.482 -0.2157 -0.3297  0.4842
 2789SOL    HW119826   2.220   0.550   4.506 -0.6883  0.0678 -0.5197
 2789SOL    HW219827   2.279   0.619   4.394  1.4390  1.0631  0.4769
 2790SOL     OW19828   4.663   3.582   3.611  0.2304  0.0698  0.0114
 2790SOL    HW119829   4.585   3.628   3.580  1.3419  0.4876 -2.1365
 2790SOL    HW219830   4.684   3.525   3.537  2.3453  1.4245 -0.4139
 2791SOL     OW19831   4.329   3.109   3.608  0.4338  0.4929  0.0733
 2791SOL    HW119832   4.351   3.201   3.590 -2.0053  1.5722  2.6565
 2791SOL    HW219833   4.375   3.104   3.692 -3.3082 -1.9378  1.9657
 2792SOL     OW19834   2.674   3.655   3.973  0.1646  0.1640 -0.3820
 2792SOL    HW119835   2.653   3.643   4.066  0.0394  2.7158 -0.0713
 2792SOL    HW219836   2.616   3.726   3.944  3.2957  2.9538  0.3049
 2793SOL     OW19837   3.048   1.590   0.717  0.7585 -0.5323  0.0087
 2793SOL    HW119838   3.098   1.617   0.641  0.2065  1.9734  0.5450
 2793SOL    HW219839   3.055   1.494   0.717 -1.9691 -0.7504 -2.3047
 2794SOL     OW19840   2.155   3.867   4.719  0.4577 -0.2088 -0.0558
 2794SOL    HW119841   2.205   3.948   4.730  0.2825 -0.3474  1.7550
 2794SOL    HW219842   2.147   3.831   4.807  2.9247  0.3582  0.4071
 2795SOL     OW19843   3.048   2.343   6.969  0.1401  0.3633 -0.6058
 2795SOL    HW119844   2.983   2.284   7.008  0.0143  0.5834 -0.4796
 2795SOL    HW219845   3.075   2.303   6.887 -0.3476  0.1357 -0.6578
 2796SOL     OW19846   0.152   3.905   8.659 -0.5468  0.0408 -0.5266
 2796SOL    HW119847   0.105   3.824   8.636 -1.5093  0.3037  0.4658
 2796SOL    HW219848   0.169   3.938   8.572  0.9545 -1.8890 -0.9693
 2797SOL     OW19849   0.957   3.293  14.628  1.1132  0.0180  0.1512
 2797SOL    HW119850   1.031   3.339  14.668  0.3807  0.5551  0.8960
 2797SOL    HW219851   0.928   3.237  14.700 -0.3162 -0.2720 -0.6498
 2798SOL     OW19852   2.718   1.611  17.501 -0.0165 -0.3142 -0.2072
 2798SOL    HW119853   2.661   1.609  17.577 -2.0821  1.2139 -1.7144
 2798SOL    HW219854   2.797   1.567  17.533  0.6790  0.8415 -0.3074
 2799SOL     OW19855   4.599   0.704  11.591 -0.1722  0.0809  0.5876
 2799SOL    HW119856   4.522   0.648  11.595 -0.4489  0.2646 -2.5949
 2799SOL    HW219857   4.601   0.699  11.496  0.2121  0.1429  0.5917
 2800SOL     OW19858   1.432   0.315   7.828  0.5793 -0.5714 -0.0831
 2800SOL    HW119859   1.470   0.267   7.755  1.8766  1.1359 -0.5492
 2800SOL    HW219860   1.479   0.269   7.898 -0.0182  0.7496  1.1958
 2801SOL     OW19861   0.700   4.466   9.194 -1.2293  0.1469 -0.1121
 2801SOL    HW119862   0.642   4.534   9.229 -0.5643  0.5410  0.2094
 2801SOL    HW219863   0.643   4.390   9.186 -2.8849  1.6195 -2.3066
 2802SOL     OW19864   1.169   0.650  10.940 -0.7720 -0.1335  0.0189
 2802SOL    HW119865   1.241   0.654  11.003  1.0920  3.7113 -2.3350
 2802SOL    HW219866   1.216   0.649  10.857 -0.1806  0.4539  0.3382
 2803SOL     OW19867   0.041   1.739   2.465 -0.0142 -0.4674 -0.2139
 2803SOL    HW119868   0.112   1.790   2.426 -0.4869  0.1718 -0.2354
 2803SOL    HW219869   0.086   1.654   2.457 -0.8103 -1.0036  1.0239
 2804SOL     OW19870   2.008   1.130  13.769  0.6341 -0.0713 -0.3195
 2804SOL    HW119871   2.001   1.203  13.708 -0.2838  0.1226  0.0121
 2804SOL    HW219872   2.101   1.125  13.790  0.1167  0.5543  2.1752
 2805SOL     OW19873   2.093   2.035   5.321 -0.7887  0.3237 -0.2139
 2805SOL    HW119874   2.024   2.052   5.385 -0.8884 -1.4388  0.1394
 2805SOL    HW219875   2.151   2.110   5.331 -1.6628  1.1342 -1.2461
 2806SOL     OW19876   4.139   3.028   1.936  0.3433  0.5383  0.4801
 2806SOL    HW119877   4.104   2.943   1.912  1.2656  0.1617  0.4702
 2806SOL    HW219878   4.069   3.091   1.920  0.6023  0.5891 -0.4895
 2807SOL     OW19879   2.890   2.928   7.421  0.1588  0.8472  0.4833
 2807SOL    HW119880   2.844   2.965   7.345 -0.0053  0.1135  0.2321
 2807SOL    HW219881   2.981   2.942   7.396  0.3489 -0.6929  0.3059
 2808SOL     OW19882   1.322   4.249   7.024 -0.6286  0.1043 -0.3722
 2808SOL    HW119883   1.354   4.168   6.985 -2.1188 -0.4453 -0.4366
 2808SOL    HW219884   1.321   4.302   6.944  1.5614 -0.0730 -0.4974
 2809SOL     OW19885   1.494   4.448   5.491  0.4481 -0.2185 -0.3131
 2809SOL    HW119886   1.565   4.406   5.443  1.8778 -3.4634  4.6363
 2809SOL    HW219887   1.423   4.413   5.438 -0.4269 -0.4833  1.0393
 2810SOL     OW19888   2.928   1.290  12.047  0.1216  0.4061  0.4061
 2810SOL    HW119889   2.929   1.357  12.115  0.6330 -0.6949  1.4866
 2810SOL    HW219890   2.938   1.341  11.966 -0.7123 -0.2063 -0.0793
 2811SOL     OW19891   3.959   3.880   8.881  0.5230 -0.2866  0.2938
 2811SOL    HW119892   3.933   3.928   8.801  0.3543 -2.4902 -0.9652
 2811SOL    HW219893   3.871   3.872   8.919 -0.3386  0.1049 -1.6011
 2812SOL     OW19894   2.212   4.007  10.739  0.3645 -0.4123  0.4543
 2812SOL    HW119895   2.135   4.047  10.779 -0.3656 -1.9646  0.5722
 2812SOL    HW219896   2.167   3.923  10.742  2.0326 -1.3161 -0.1497
 2813SOL     OW19897   3.568   3.781   8.386  0.4646  0.3105  0.4092
 2813SOL    HW119898   3.481   3.746   8.366 -0.6717  2.1391  2.1408
 2813SOL    HW219899   3.614   3.712   8.433  1.5925 -1.0141 -2.6399
 2814SOL     OW19900   0.002   3.532   5.219 -0.2694  0.0957 -0.3202
 2814SOL    HW119901   0.073   3.480   5.181 -1.1031  0.7451 -2.7116
 2814SOL    HW219902   0.037   3.535   5.309 -0.3932  0.7844 -0.2954
 2815SOL     OW19903   0.748   1.572   4.417  0.3871  0.5890 -0.6297
 2815SOL    HW119904   0.721   1.566   4.325  0.8886 -1.0027 -0.6697
 2815SOL    HW219905   0.827   1.519   4.402  0.1593 -0.5213  2.1379
 2816SOL     OW19906   4.115   3.219   7.915 -0.1543 -0.5943  0.1630
 2816SOL    HW119907   4.124   3.262   8.001  2.8002  4.0154 -2.4446
 2816SOL    HW219908   4.113   3.294   7.855 -0.5929 -0.8276 -0.1045
 2817SOL     OW19909   3.211   4.419   1.210  0.2327  0.7109 -0.3645
 2817SOL    HW119910   3.205   4.437   1.116 -1.2094 -2.8161 -0.9190
 2817SOL    HW219911   3.245   4.330   1.208 -2.2426 -0.2084 -1.4612
 2818SOL     OW19912   0.863   0.124   2.844  0.0879  0.4444  0.4839
 2818SOL    HW119913   0.915   0.132   2.764  0.4485  2.1557  0.8810
 2818SOL    HW219914   0.798   0.059   2.820 -1.7154  2.0856  0.9561
 2819SOL     OW19915   3.922   3.008   4.817 -0.0859 -0.6539  0.0605
 2819SOL    HW119916   3.965   2.958   4.886 -0.6422 -1.8565 -0.4574
 2819SOL    HW219917   3.959   3.096   4.826  1.1024 -1.0877 -0.5968
 2820SOL     OW19918   2.368   1.483   0.301  0.7270 -0.2737 -0.5241
 2820SOL    HW119919   2.316   1.514   0.375 -0.2230 -0.3576 -1.1529
 2820SOL    HW219920   2.426   1.430   0.355  0.3662 -0.0929  0.0459
 2821SOL     OW19921   1.262   1.068   1.267  0.3677  0.1687  0.6203
 2821SOL    HW119922   1.351   1.037   1.285  1.0367  0.4107 -2.3046
 2821SOL    HW219923   1.220   0.988   1.299  0.6994 -0.7735 -1.2724
 2822SOL     OW19924   1.074   3.718   5.303 -0.0345  0.4367 -0.5991
 2822SOL    HW119925   1.149   3.776   5.318 -0.2299  0.1188  1.6636
 2822SOL    HW219926   1.034   3.756   5.225  0.9511  2.5800 -0.0709
 2823SOL     OW19927   4.179   0.509   7.134  0.5749 -0.3615 -0.4601
 2823SOL    HW119928   4.265   0.470   7.115  1.4971  0.5256  1.9396
 2823SOL    HW219929   4.154   0.530   7.044  0.7863 -0.9788 -0.6625
 2824SOL     OW19930   3.797   1.231   8.915 -0.4047 -0.4374 -0.1734
 2824SOL    HW119931   3.890   1.236   8.895  0.0601 -0.5004  2.0255
 2824SOL    HW219932   3.778   1.137   8.907  0.5095 -0.7849  1.7436
 2825SOL     OW19933   0.353   3.607   2.830 -0.6983  0.3441 -0.0346
 2825SOL    HW119934   0.382   3.634   2.917 -0.5959  1.6677 -0.4807
 2825SOL    HW219935   0.433   3.592   2.778  0.8489 -1.0814  2.7507
 2826SOL     OW19936   3.070   2.917   0.788  0.6782  0.6255 -0.1762
 2826SOL    HW119937   3.111   2.886   0.869 -1.5666  1.6026  1.3368
 2826SOL    HW219938   3.145   2.952   0.740 -0.9877  0.9205 -2.5448
 2827SOL     OW19939   1.772   3.041   6.538  0.5460 -0.4299  0.2739
 2827SOL    HW119940   1.756   3.135   6.548  1.2604  0.0318 -2.9523
 2827SOL    HW219941   1.683   3.008   6.547  0.4266 -0.2338 -0.1846
 2828SOL     OW19942   1.481   2.645   9.150 -0.2125 -0.1452  0.1200
 2828SOL    HW119943   1.571   2.653   9.118 -0.2872  0.4947  0.0598
 2828SOL    HW219944   1.471   2.550   9.151  0.7710 -0.2616 -0.8287
 2829SOL     OW19945   1.447   1.865  10.653  0.6967 -0.5980  0.6394
 2829SOL    HW119946   1.375   1.925  10.672  2.0437  0.9066  1.0384
 2829SOL    HW219947   1.477   1.904  10.571  1.6979  1.2027  1.8658
 2830SOL     OW19948   1.872   2.998   5.299 -0.3942  0.0392 -0.4302
 2830SOL    HW119949   1.889   3.005   5.393 -1.0579 -0.2572 -0.2885
 2830SOL    HW219950   1.853   2.905   5.285  1.3620 -0.6388  1.8188
 2831SOL     OW19951   4.228   0.689   6.606  0.0654 -0.2810 -0.0128
 2831SOL    HW119952   4.142   0.714   6.640 -0.5824 -1.1036 -1.0140
 2831SOL    HW219953   4.214   0.661   6.515  1.0214 -0.3952 -0.1171
 2832SOL     OW19954   4.296   3.241   5.635  0.4722  0.0206 -0.1753
 2832SOL    HW119955   4.207   3.259   5.665  0.7018 -1.2779  1.2630
 2832SOL    HW219956   4.290   3.236   5.540 -2.2268  1.0978 -0.0383
 2833SOL     OW19957   1.303   4.240   5.604 -0.6066  0.6032  0.3057
 2833SOL    HW119958   1.279   4.332   5.613  1.4885  1.1761  0.0382
 2833SOL    HW219959   1.399   4.245   5.605 -0.5377 -0.8056  2.3771
 2834SOL     OW19960   1.054   3.752   3.636  0.2154  0.1850  0.1139
 2834SOL    HW119961   1.061   3.819   3.568  0.0476 -0.6787 -0.7489
 2834SOL    HW219962   1.106   3.798   3.702 -0.6076 -0.2530  1.0707
 2835SOL     OW19963   3.169   0.544   3.622 -0.2075  0.2630 -0.5466
 2835SOL    HW119964   3.088   0.498   3.644 -0.7867  0.7774 -1.6038
 2835SOL    HW219965   3.138   0.619   3.570  1.3741 -0.4477 -2.5379
 2836SOL     OW19966   3.789   1.489   7.852  0.3153  0.1651  0.2766
 2836SOL    HW119967   3.828   1.464   7.935  1.4503  1.0135  0.0036
 2836SOL    HW219968   3.834   1.433   7.788 -0.7474  0.3859 -0.6666
 2837SOL     OW19969   4.715   3.807   5.148  0.1574  0.1637 -0.1144
 2837SOL    HW119970   4.707   3.712   5.162  0.2380  0.4519  1.9374
 2837SOL    HW219971   4.643   3.848   5.196 -1.4995 -1.5732 -1.1042
 2838SOL     OW19972   2.487   0.987   1.394 -0.1101 -0.2143  0.0832
 2838SOL    HW119973   2.438   1.050   1.340 -0.9612  0.0900  1.2031
 2838SOL    HW219974   2.427   0.912   1.390  0.5130 -0.7438  0.8195
 2839SOL     OW19975   4.205   1.304  15.305  0.1165  0.6715 -0.7970
 2839SOL    HW119976   4.276   1.241  15.317 -3.2792 -2.9131  0.0958
 2839SOL    HW219977   4.122   1.258  15.307  1.7753 -2.0813  3.2461
 2840SOL     OW19978   1.337   3.722   6.189  0.0171 -0.1422  0.3570
 2840SOL    HW119979   1.431   3.734   6.204  0.1311 -2.1855  1.2802
 2840SOL    HW219980   1.342   3.632   6.158 -1.0511  0.7887 -2.4704
 2841SOL     OW19981   2.279   2.017   6.141  0.1118 -0.3292  0.0133
 2841SOL    HW119982   2.272   2.111   6.155  0.3427  0.0065 -2.1292
 2841SOL    HW219983   2.267   2.000   6.234  1.5894  1.2887  0.5032
 2842SOL     OW19984   2.478   1.055   2.793 -0.5167 -0.4603 -0.2017
 2842SOL    HW119985   2.451   1.136   2.835  2.0254  2.1897 -3.6943
 2842SOL    HW219986   2.534   1.081   2.720 -1.9571  2.0132 -0.4205
 2843SOL     OW19987   4.216   2.408   3.426 -0.8167  0.0479 -0.2644
 2843SOL    HW119988   4.195   2.316   3.445 -0.2431  0.2863  1.4635
 2843SOL    HW219989   4.289   2.409   3.365  0.7963  1.3211  1.6978
 2844SOL     OW19990   1.064   0.957   5.442  0.0103 -0.2377 -0.0054
 2844SOL    HW119991   0.971   0.974   5.456  0.9518  2.2570  3.1632
 2844SOL    HW219992   1.061   0.867   5.474  0.6163 -0.2839 -0.0631
 2845SOL     OW19993   2.889   1.791   9.658 -0.1029  0.0991 -0.1538
 2845SOL    HW119994   2.916   1.739   9.734 -1.0036 -1.5003 -0.9327
 2845SOL    HW219995   2.797   1.796   9.681  0.2208  0.2310  1.1271
 2846SOL     OW19996   1.227   0.473   9.645  0.1316 -0.5303  0.5993
 2846SOL    HW119997   1.315   0.447   9.672 -0.2356  0.4125  2.6803
 2846SOL    HW219998   1.230   0.567   9.628 -2.9770 -0.1906  2.0537
 2847SOL     OW19999   3.547   2.293   3.784 -0.0940 -0.0039  0.5612
 2847SOL    HW120000   3.525   2.348   3.709 -0.2830 -1.5052 -0.4869
 2847SOL    HW220001   3.470   2.238   3.797  0.2987 -0.7019 -0.0158
 2848SOL     OW20002   4.230   3.132  15.293 -0.4343  0.3052 -0.8494
 2848SOL    HW120003   4.212   3.043  15.323 -0.2902  0.4720 -0.2696
 2848SOL    HW220004   4.304   3.114  15.235  1.0033 -0.6525  1.2612
 2849SOL     OW20005   1.921   3.986  14.761 -0.3023 -0.7003 -0.2001
 2849SOL    HW120006   1.826   3.983  14.748 -0.4284 -0.2783  0.6250
 2849SOL    HW220007   1.925   4.035  14.843  2.1631  1.3657 -1.5495
 2850SOL     OW20008   0.573   1.703  12.165 -0.4926  0.0914 -0.0917
 2850SOL    HW120009   0.613   1.682  12.081 -0.8815  0.0886 -0.2742
 2850SOL    HW220010   0.480   1.701  12.144  0.2325  1.3944 -3.2919
 2851SOL     OW20011   3.570   2.398  13.642  0.1749 -0.2032 -0.2621
 2851SOL    HW120012   3.513   2.443  13.704  2.9564  1.9619  0.7125
 2851SOL    HW220013   3.522   2.317  13.627 -0.9461  0.3388  0.4578
 2852SOL     OW20014   2.918   1.351   5.791  0.2672  0.3143  0.2000
 2852SOL    HW120015   2.829   1.358   5.826  0.1564  0.1920 -0.0563
 2852SOL    HW220016   2.910   1.357   5.696 -0.8842  2.8595  0.4505
 2853SOL     OW20017   0.166   2.999  17.312  0.0207  0.6156  0.4758
 2853SOL    HW120018   0.248   2.998  17.360 -0.2206  0.1701  0.8808
 2853SOL    HW220019   0.129   3.070  17.364 -2.5206 -0.4760  0.1734
 2854SOL     OW20020   3.260   1.673   5.410 -0.0260 -0.6012  0.2869
 2854SOL    HW120021   3.302   1.640   5.490 -1.0740 -2.2754  0.1409
 2854SOL    HW220022   3.193   1.606   5.396  0.7551 -0.8112 -2.3657
 2855SOL     OW20023   3.190   1.296   0.289  0.0640  0.6636 -0.1134
 2855SOL    HW120024   3.274   1.251   0.285  0.9039  2.3114 -0.7240
 2855SOL    HW220025   3.177   1.326   0.199  0.8779  0.0630 -0.4297
 2856SOL     OW20026   3.917   0.326   9.277  0.2551 -0.0044  0.4052
 2856SOL    HW120027   3.892   0.372   9.357  0.6498  0.5143  0.2338
 2856SOL    HW220028   4.011   0.318   9.286  0.2012  0.5068  1.4390
 2857SOL     OW20029   2.404   1.412  13.881 -0.3516 -0.3614 -0.3051
 2857SOL    HW120030   2.444   1.461  13.809  0.0493 -1.0788 -0.5669
 2857SOL    HW220031   2.457   1.431  13.959 -0.2415 -0.2510 -0.4064
 2858SOL     OW20032   4.209   0.282   8.096 -0.1690 -0.0914  0.1936
 2858SOL    HW120033   4.290   0.328   8.118 -0.0135 -0.5368  0.5492
 2858SOL    HW220034   4.167   0.266   8.181 -1.6629  1.1948 -0.2962
 2859SOL     OW20035   3.665   0.655   9.391 -0.4968  0.2590 -0.5426
 2859SOL    HW120036   3.753   0.691   9.390 -0.2218 -0.4303 -1.5103
 2859SOL    HW220037   3.685   0.565   9.418 -0.2672  0.3586 -0.3826
 2860SOL     OW20038   0.013   0.063   3.963  0.7485  0.1848  0.4120
 2860SOL    HW120039   0.089   0.053   3.905 -0.4049 -5.2025 -0.1781
 2860SOL    HW220040   4.673   0.112   3.907  0.5540 -0.3239  0.1714
 2861SOL     OW20041   3.033   4.100   3.580 -0.1253  0.5373  0.2390
 2861SOL    HW120042   3.098   4.030   3.585 -0.9741 -0.2820 -0.3483
 2861SOL    HW220043   2.972   4.081   3.652  0.7483 -0.4945  0.7046
 2862SOL     OW20044   1.298   1.097   5.700 -0.4017  0.2633 -0.5309
 2862SOL    HW120045   1.387   1.133   5.698 -0.2556 -0.1641 -2.0024
 2862SOL    HW220046   1.277   1.105   5.607  0.1271 -0.1946 -0.6951
 2863SOL     OW20047   3.849   0.623  15.795 -0.5102 -0.0171 -0.1681
 2863SOL    HW120048   3.818   0.565  15.864 -1.5222  0.1226 -0.5127
 2863SOL    HW220049   3.919   0.678  15.830 -1.7166  0.0566  2.1437
 2864SOL     OW20050   0.160   2.213   8.994  0.2646 -0.2932  0.2620
 2864SOL    HW120051   0.221   2.205   8.921 -0.9895 -1.5370 -0.6565
 2864SOL    HW220052   0.076   2.181   8.961  0.3958 -1.1461  0.7316
 2865SOL     OW20053   3.193   2.834   0.403  0.0359 -0.0692  0.2862
 2865SOL    HW120054   3.098   2.820   0.403  0.1169 -0.6536  0.2564
 2865SOL    HW220055   3.209   2.893   0.477 -1.1715 -0.7544  1.0910
 2866SOL     OW20056   3.037   1.683   3.187 -0.1221  0.6099 -0.7321
 2866SOL    HW120057   3.014   1.747   3.120 -1.6469  1.7603  0.8703
 2866SOL    HW220058   3.131   1.684   3.172 -0.0883 -0.0923 -0.5562
 2867SOL     OW20059   4.562   1.241   5.150  0.8643  0.5023  0.4613
 2867SOL    HW120060   4.500   1.262   5.080  0.7376  1.2512  0.7994
 2867SOL    HW220061   4.509   1.214   5.225 -0.3177  2.0088  0.1776
 2868SOL     OW20062   3.514   4.646  14.973 -0.4722  0.3281 -0.0412
 2868SOL    HW120063   3.529   4.595  15.053  0.1823  1.0224  0.2766
 2868SOL    HW220064   3.495   4.580  14.907  3.1515 -1.5586  0.8058
 2869SOL     OW20065   0.003   3.572   2.552 -0.0644 -0.1510 -0.4440
 2869SOL    HW120066   4.650   3.514   2.534 -0.4228  0.5241 -1.1680
 2869SOL    HW220067   0.080   3.522   2.527 -0.4566 -0.7847 -0.3868
 2870SOL     OW20068   0.975   0.409  16.277 -0.1852 -0.0189 -0.4575
 2870SOL    HW120069   0.974   0.476  16.345  1.5102  0.4257 -0.8621
 2870SOL    HW220070   0.892   0.437  16.239 -0.6382  0.6349  1.0306
 2871SOL     OW20071   4.464   2.981   1.112  0.2207 -0.0545  0.2423
 2871SOL    HW120072   4.529   2.918   1.081  0.0396 -0.3141  0.3894
 2871SOL    HW220073   4.518   3.040   1.165 -0.7802  2.4829 -1.5768
 2872SOL     OW20074   2.526   1.412   6.621  0.0166 -0.9165  0.1110
 2872SOL    HW120075   2.582   1.468   6.567  1.7968 -2.4804  0.3670
 2872SOL    HW220076   2.469   1.472   6.669  0.7635  0.6581 -0.9636
 2873SOL     OW20077   1.754   1.161   7.094  0.0022 -0.1180  0.6683
 2873SOL    HW120078   1.831   1.210   7.122 -1.0842  1.5332  0.8076
 2873SOL    HW220079   1.741   1.201   7.008  2.8638 -0.5967  0.0290
 2874SOL     OW20080   0.693   1.285  15.981 -0.4428  0.3043 -0.7282
 2874SOL    HW120081   0.647   1.256  15.902  1.5214 -1.1259 -1.3283
 2874SOL    HW220082   0.726   1.372  15.957  1.2124 -0.3943 -0.9172
 2875SOL     OW20083   2.253   3.294   2.674 -0.1443  0.1267  0.1862
 2875SOL    HW120084   2.177   3.317   2.620 -0.7514 -2.5938 -0.1029
 2875SOL    HW220085   2.209   3.252   2.748  2.5452 -1.1118  1.0866
 2876SOL     OW20086   0.661   2.691   4.998  0.4444 -0.2023  0.3431
 2876SOL    HW120087   0.599   2.618   5.005  0.1708  0.0205  0.2140
 2876SOL    HW220088   0.662   2.720   5.089  1.4807 -4.4380  1.7155
 2877SOL     OW20089   1.315   3.628  15.678  0.7907  0.5432  0.5326
 2877SOL    HW120090   1.381   3.563  15.703 -1.0929 -0.4380  2.9388
 2877SOL    HW220091   1.366   3.709  15.685  0.1207  0.9870  0.2887
 2878SOL     OW20092   2.866   4.082   2.944 -0.8241 -0.1570 -0.2813
 2878SOL    HW120093   2.940   4.030   2.914  0.1104  0.8360  0.3017
 2878SOL    HW220094   2.897   4.173   2.940 -1.1927 -0.0408 -0.5815
 2879SOL     OW20095   1.095   4.008   2.892  0.0827 -0.0010 -0.0006
 2879SOL    HW120096   1.044   4.007   2.973 -0.3926 -0.5788 -0.3065
 2879SOL    HW220097   1.028   4.044   2.833  0.0249  0.3615  0.2908
 2880SOL     OW20098   4.481   1.751   2.460  0.1050  0.1522  0.1980
 2880SOL    HW120099   4.493   1.747   2.365 -1.2389  1.6128 -0.0363
 2880SOL    HW220100   4.572   1.737   2.487  0.5438  0.8893 -0.8889
 2881SOL     OW20101   0.039   0.475  11.046  0.1643  0.8795  0.0627
 2881SOL    HW120102   0.051   0.453  10.953 -0.8016 -2.7017  0.7779
 2881SOL    HW220103   4.709   0.555  11.036 -1.3179 -0.0276  0.3721
 2882SOL     OW20104   3.097   0.154   8.759  0.5456 -0.3058 -0.4671
 2882SOL    HW120105   3.025   0.100   8.725  0.2203 -1.6268  2.3181
 2882SOL    HW220106   3.173   0.107   8.725  1.0848 -0.5507  1.0856
 2883SOL     OW20107   4.635   3.222   2.816  0.0234  0.2108 -0.3078
 2883SOL    HW120108   4.701   3.251   2.753  2.7251 -0.1896  2.3421
 2883SOL    HW220109   4.617   3.298   2.871 -2.0807 -0.4056 -0.1219
 2884SOL     OW20110   3.433   0.774   5.438 -0.3109  0.4020 -0.9346
 2884SOL    HW120111   3.494   0.737   5.375 -1.8435 -0.9109 -1.6643
 2884SOL    HW220112   3.468   0.752   5.524 -0.3199  0.7794 -0.8329
 2885SOL     OW20113   3.189   3.978   1.316  0.7200  0.2206  0.3923
 2885SOL    HW120114   3.148   3.905   1.269  0.9257 -0.8141  1.8029
 2885SOL    HW220115   3.114   4.007   1.367  1.1367  0.3452  0.9342
 2886SOL     OW20116   2.654   4.306   3.870 -0.7328 -0.1382 -0.2391
 2886SOL    HW120117   2.732   4.284   3.819 -0.1565 -1.9697  1.4553
 2886SOL    HW220118   2.654   4.257   3.952  2.1696 -1.5868 -1.1013
 2887SOL     OW20119   2.851   0.215   7.121 -0.1752  0.1533  0.5353
 2887SOL    HW120120   2.792   0.185   7.052 -0.8674  1.0042  0.7567
 2887SOL    HW220121   2.827   0.153   7.190  0.9501  0.2470  1.0204
 2888SOL     OW20122   2.633   2.862   5.196  0.2938 -0.0954  0.5099
 2888SOL    HW120123   2.658   2.793   5.134 -0.9605 -0.6527  0.6181
 2888SOL    HW220124   2.709   2.853   5.254  0.7918 -2.4166 -0.4709
 2889SOL     OW20125   1.951   1.754   5.245  0.6280 -0.6256 -0.1425
 2889SOL    HW120126   1.979   1.845   5.252 -0.4673 -0.3612  0.8054
 2889SOL    HW220127   1.914   1.760   5.157 -0.3262 -2.2560  0.1453
 2890SOL     OW20128   3.577   4.313   6.520 -0.5149 -0.8233 -0.1083
 2890SOL    HW120129   3.587   4.224   6.552 -2.2838 -0.5651  1.1421
 2890SOL    HW220130   3.565   4.350   6.607  0.2337 -0.5327 -0.1309
 2891SOL     OW20131   2.206   0.574   5.405 -0.2928 -0.3326  0.0093
 2891SOL    HW120132   2.117   0.541   5.389 -0.7086  1.4419 -1.3155
 2891SOL    HW220133   2.196   0.651   5.460  0.4676 -0.8959  0.9494
 2892SOL     OW20134   3.382   4.424   1.797  0.1976 -0.7405  0.3918
 2892SOL    HW120135   3.430   4.406   1.878  0.9827 -0.7747 -0.0761
 2892SOL    HW220136   3.427   4.507   1.781  0.5902 -0.9905  0.1870
 2893SOL     OW20137   0.352   1.709   3.547  0.4550  0.5957  0.5329
 2893SOL    HW120138   0.365   1.621   3.582  0.1368 -0.0886 -1.0917
 2893SOL    HW220139   0.334   1.690   3.455  1.8834  1.8759 -0.0066
 2894SOL     OW20140   4.478   4.229   2.271 -0.4003 -0.2347 -0.9564
 2894SOL    HW120141   4.383   4.234   2.280 -0.0765  1.5623  1.6206
 2894SOL    HW220142   4.506   4.285   2.199  0.1369  0.5072 -0.1695
 2895SOL     OW20143   3.495   4.074   6.647  0.1155  0.2974  0.5593
 2895SOL    HW120144   3.500   4.102   6.738 -0.8047 -0.9319  0.9997
 2895SOL    HW220145   3.404   4.045   6.640  0.2033  0.1784 -0.1159
 2896SOL     OW20146   2.919   0.024   8.991 -0.3673  0.6347 -0.5142
 2896SOL    HW120147   2.884   4.699   9.068  2.9335  1.6288  1.6292
 2896SOL    HW220148   2.994   0.071   9.030  0.1864  0.2522 -1.1313
 2897SOL     OW20149   2.640   4.617  11.106  0.0722  0.3523  0.4626
 2897SOL    HW120150   2.565   4.564  11.132 -0.6892  2.3103  2.2546
 2897SOL    HW220151   2.624   4.604  11.012 -3.5871  0.6996  1.0422
 2898SOL     OW20152   3.726   2.685   4.896 -0.7331  0.8817 -0.5236
 2898SOL    HW120153   3.709   2.713   4.807  3.2750  3.9837 -0.3312
 2898SOL    HW220154   3.656   2.732   4.941 -0.1618  1.3755 -0.1445
 2899SOL     OW20155   4.463   2.934  15.651  0.3336 -0.0380  0.4437
 2899SOL    HW120156   4.535   2.988  15.683  0.4612 -0.2260  0.4746
 2899SOL    HW220157   4.497   2.884  15.577  1.0955 -0.6920  1.2383
 2900SOL     OW20158   1.938   0.815  16.991 -0.4370 -0.4867  0.4619
 2900SOL    HW120159   1.987   0.745  16.948  1.3628  0.5575  0.7908
 2900SOL    HW220160   1.956   0.894  16.940 -1.2681 -0.0919  0.7905
 2901SOL     OW20161   2.453   1.833   3.957 -0.1217 -0.8031  0.3567
 2901SOL    HW120162   2.365   1.811   3.925  0.3489  0.2336 -1.6135
 2901SOL    HW220163   2.505   1.822   3.878 -0.3393  3.2606 -0.3314
 2902SOL     OW20164   0.208   0.422   4.201 -0.1455 -0.5308 -0.2082
 2902SOL    HW120165   0.143   0.418   4.131 -0.9603  2.5584  0.4088
 2902SOL    HW220166   0.167   0.487   4.258  0.7757 -1.1581  1.1862
 2903SOL     OW20167   1.383   3.185   5.407  0.5436 -0.2365 -0.1441
 2903SOL    HW120168   1.356   3.210   5.318 -0.3860 -1.8518 -0.3119
 2903SOL    HW220169   1.304   3.139   5.434 -0.4436  0.9450 -1.0167
 2904SOL     OW20170   0.761   2.830   7.974  0.2532  0.0665 -0.3302
 2904SOL    HW120171   0.746   2.815   7.880  0.8391 -2.4182 -0.0344
 2904SOL    HW220172   0.773   2.923   7.993 -0.5676  0.3270 -1.0730
 2905SOL     OW20173   0.203   4.611   6.733 -0.7141 -0.2760 -0.3536
 2905SOL    HW120174   0.177   4.566   6.813 -2.5826  0.1266 -0.7251
 2905SOL    HW220175   0.280   4.564   6.702 -0.7049 -0.6346  0.2172
 2906SOL     OW20176   0.744   2.284  16.927  0.6056  0.0499  0.2501
 2906SOL    HW120177   0.727   2.249  17.015 -1.7157  2.0129  0.5887
 2906SOL    HW220178   0.778   2.210  16.877  3.4245  2.2231 -1.0033
 2907SOL     OW20179   3.175   1.301   0.031 -0.1976  0.4821  0.0168
 2907SOL    HW120180   3.205   1.210   0.032  0.3333  0.6764  2.7940
 2907SOL    HW220181   3.120   1.303  17.639 -0.7355 -1.0187  0.3491
 2908SOL     OW20182   2.543   0.941   6.955  0.2517 -0.0337 -0.3516
 2908SOL    HW120183   2.470   0.987   6.913  2.7278  1.3453 -3.1563
 2908SOL    HW220184   2.547   0.863   6.899  2.6275  1.5414 -2.4188
 2909SOL     OW20185   3.221   0.889   8.022 -0.3748  0.2429  0.2511
 2909SOL    HW120186   3.274   0.926   8.093  1.3157  0.1315 -0.9521
 2909SOL    HW220187   3.162   0.830   8.068 -3.2475  1.4164 -1.9045
 2910SOL     OW20188   3.778   4.283   5.001 -0.0934 -0.2977  0.4531
 2910SOL    HW120189   3.796   4.371   5.034  2.8700 -0.4541 -0.7456
 2910SOL    HW220190   3.691   4.283   4.960  0.3916  0.5469 -0.5549
 2911SOL     OW20191   0.502   1.851   5.579  0.2456  0.4956 -0.8253
 2911SOL    HW120192   0.461   1.819   5.660  0.0286  0.0345 -1.1190
 2911SOL    HW220193   0.591   1.816   5.578  0.5121  1.1105  0.9064
 2912SOL     OW20194   2.557   1.157   5.989 -0.3523 -0.7226 -0.5548
 2912SOL    HW120195   2.591   1.224   5.929  2.2901 -0.3979  1.3456
 2912SOL    HW220196   2.626   1.091   5.984 -1.0891 -1.4326 -1.5930
 2913SOL     OW20197   0.545   2.320   3.782  0.1439  0.0432  0.4932
 2913SOL    HW120198   0.628   2.289   3.745  0.6092 -0.4038  1.9071
 2913SOL    HW220199   0.571   2.392   3.840  1.7648  0.7049 -1.0359
 2914SOL     OW20200   2.492   0.868   1.782 -0.2495 -0.1488  0.3920
 2914SOL    HW120201   2.403   0.837   1.768  0.1626 -1.7511  1.2952
 2914SOL    HW220202   2.490   0.884   1.877  1.8670  0.1161  0.4022
 2915SOL     OW20203   0.579   0.174   5.668 -0.0996 -0.5930 -0.3106
 2915SOL    HW120204   0.611   0.151   5.755  0.5543  3.4146  0.5133
 2915SOL    HW220205   0.634   0.246   5.638 -1.0750  0.2364 -0.1137
 2916SOL     OW20206   0.410   3.580  10.403  0.7167 -0.3549  0.3070
 2916SOL    HW120207   0.357   3.580  10.482 -1.5194  1.9453 -1.2027
 2916SOL    HW220208   0.431   3.486  10.405  3.5864  0.2700  0.6063
 2917SOL     OW20209   0.974   3.320  15.612 -0.6094 -0.2392 -0.3382
 2917SOL    HW120210   0.928   3.239  15.632  2.1154 -1.5058  0.8119
 2917SOL    HW220211   1.062   3.291  15.637 -1.4398 -1.4784  1.1339
 2918SOL     OW20212   3.661   1.084   0.349  0.0494  0.4693 -0.3618
 2918SOL    HW120213   3.738   1.037   0.318  0.3508  1.7466 -1.5761
 2918SOL    HW220214   3.670   1.060   0.441  0.0460  0.4554 -0.3652
 2919SOL     OW20215   2.705   4.473   1.845  0.3051  0.0181  0.1665
 2919SOL    HW120216   2.800   4.461   1.847  0.5718  1.6733 -2.8592
 2919SOL    HW220217   2.689   4.432   1.760 -1.6900  0.8094  0.1632
 2920SOL     OW20218   1.915   2.715   1.992 -0.1520  0.5947 -0.3091
 2920SOL    HW120219   1.977   2.751   1.930 -0.4220  0.2753 -0.7666
 2920SOL    HW220220   1.930   2.621   1.978  1.9752  0.4528  2.8734
 2921SOL     OW20221   2.007   4.361  15.850  0.1765 -0.3964  0.2839
 2921SOL    HW120222   2.086   4.329  15.807 -0.4107 -0.7112 -0.5377
 2921SOL    HW220223   1.967   4.279  15.877  1.3462 -0.4148  2.0362
 2922SOL     OW20224   3.528   3.471   7.246  0.6451  0.0215 -0.0054
 2922SOL    HW120225   3.468   3.503   7.314 -2.1898 -2.0985 -1.5004
 2922SOL    HW220226   3.580   3.548   7.223 -0.7129  0.4085 -1.7922
 2923SOL     OW20227   1.838   1.004   9.612  1.0191  0.0283 -0.6879
 2923SOL    HW120228   1.760   0.959   9.645 -0.0921  2.4304 -0.0635
 2923SOL    HW220229   1.880   1.024   9.696 -1.3732  1.5340  0.1322
 2924SOL     OW20230   2.278   2.766   7.675 -0.3661  0.2275  0.1048
 2924SOL    HW120231   2.334   2.697   7.712  0.3087  0.0941 -1.1640
 2924SOL    HW220232   2.190   2.743   7.705 -0.2514 -0.5877 -0.1874
 2925SOL     OW20233   4.520   3.413   4.171  0.0318 -0.1144  0.6595
 2925SOL    HW120234   4.444   3.357   4.157  1.3227 -1.4883 -0.9519
 2925SOL    HW220235   4.492   3.498   4.138  0.8315 -0.4683 -0.9533
 2926SOL     OW20236   2.736   0.461   7.841  0.2103 -0.1818  0.4052
 2926SOL    HW120237   2.832   0.469   7.841 -0.1160  3.6726  1.3658
 2926SOL    HW220238   2.719   0.502   7.925  2.1288 -0.1490  0.7863
 2927SOL     OW20239   2.674   4.344   2.901  0.5424 -0.0129  0.7247
 2927SOL    HW120240   2.716   4.402   2.965 -1.9110 -0.0653  2.3584
 2927SOL    HW220241   2.727   4.371   2.826 -1.3988  0.3038 -0.5270
 2928SOL     OW20242   2.184   4.184   1.583  0.6501 -0.5340 -0.1921
 2928SOL    HW120243   2.257   4.246   1.586 -0.4582  0.7866 -0.5497
 2928SOL    HW220244   2.199   4.149   1.496  0.8188 -1.5618  0.2578
 2929SOL     OW20245   1.728   1.373   3.673  0.1163 -0.6370  0.4079
 2929SOL    HW120246   1.797   1.341   3.732  1.1268 -0.2389 -0.5747
 2929SOL    HW220247   1.721   1.465   3.697 -0.9180 -0.8928  1.1279
 2930SOL     OW20248   0.294   2.373   2.525  0.1272 -0.7586  0.1133
 2930SOL    HW120249   0.378   2.365   2.478  1.6037 -0.6135  2.7436
 2930SOL    HW220250   0.316   2.311   2.594  0.4361 -1.3657 -0.5245
 2931SOL     OW20251   3.374   0.738   8.798 -0.4612 -0.1609  0.6359
 2931SOL    HW120252   3.385   0.695   8.713  2.1724  0.6723  0.5629
 2931SOL    HW220253   3.338   0.670   8.854  1.5405 -0.4742  1.5252
 2932SOL     OW20254   4.309   1.974   9.878  0.3718 -0.6160  0.0053
 2932SOL    HW120255   4.335   2.052   9.928  1.4634  0.5948 -2.4227
 2932SOL    HW220256   4.272   2.015   9.799  0.2520 -0.0269  0.3677
 2933SOL     OW20257   4.361   0.216   3.597  0.0546  0.2553 -1.1024
 2933SOL    HW120258   4.370   0.126   3.566 -1.3996  0.6338 -2.6646
 2933SOL    HW220259   4.285   0.245   3.547  0.7781 -0.6228 -2.7031
 2934SOL     OW20260   3.034   3.898   2.527  0.5913  0.1270 -0.2356
 2934SOL    HW120261   2.944   3.883   2.556  1.7055 -0.9348  2.6486
 2934SOL    HW220262   3.042   3.836   2.454  0.3185 -0.9895  0.6798
 2935SOL     OW20263   0.094   1.921   3.965 -1.0804  0.8043 -0.3401
 2935SOL    HW120264   0.118   1.834   3.996 -1.3494  0.5127 -0.9505
 2935SOL    HW220265   0.024   1.941   4.028 -1.1325 -2.1228  0.5205
 2936SOL     OW20266   1.041   1.044  16.109 -0.5468 -0.2641 -0.5526
 2936SOL    HW120267   1.073   1.104  16.042  1.7617  2.2320  2.7487
 2936SOL    HW220268   1.119   1.037  16.164  0.7255 -0.7971 -2.4300
 2937SOL     OW20269   4.485   3.391  13.165  0.2500 -0.8248 -0.3559
 2937SOL    HW120270   4.444   3.306  13.148 -2.2585  0.3071  0.1094
 2937SOL    HW220271   4.530   3.403  13.081  0.6215 -1.3617 -0.2295
 2938SOL     OW20272   0.409   2.143   2.686 -0.0236  0.2140  0.1726
 2938SOL    HW120273   0.462   2.067   2.712  2.4365  1.5758 -0.8919
 2938SOL    HW220274   0.329   2.102   2.651 -0.2169 -1.0342  2.0786
 2939SOL     OW20275   1.254   0.893   5.915 -0.1609  0.0417  0.1810
 2939SOL    HW120276   1.223   0.914   6.004  0.5846 -0.4401  0.5544
 2939SOL    HW220277   1.275   0.975   5.872 -1.1503  2.7255  4.7527
 2940SOL     OW20278   0.799   0.609  17.431 -0.1936  0.3456  0.2907
 2940SOL    HW120279   0.767   0.604  17.341 -0.1144  2.0952  0.1688
 2940SOL    HW220280   0.873   0.550  17.420 -0.8607 -0.3350 -0.5393
 2941SOL     OW20281   4.048   4.634   2.771  0.2913 -0.2347  0.3879
 2941SOL    HW120282   4.135   4.593   2.779  0.5396  0.4854  1.4539
 2941SOL    HW220283   4.053   4.710   2.830 -1.8725  0.4182 -0.2802
 2942SOL     OW20284   3.447   1.131  14.622  0.1629  0.2102  0.1992
 2942SOL    HW120285   3.532   1.087  14.625  0.2955  0.3266 -1.8360
 2942SOL    HW220286   3.416   1.095  14.705 -1.3327 -1.9033 -1.2776
 2943SOL     OW20287   3.423   3.419   2.117 -0.1192 -0.0643  0.4147
 2943SOL    HW120288   3.409   3.514   2.108 -0.2522 -0.0959  0.2895
 2943SOL    HW220289   3.381   3.408   2.203 -0.2323  2.1728  0.6504
 2944SOL     OW20290   2.261   1.515   7.320  0.1268 -0.3872  0.3937
 2944SOL    HW120291   2.168   1.519   7.339 -0.0654  0.0571 -0.6502
 2944SOL    HW220292   2.296   1.440   7.369 -0.7428 -2.3633 -2.0246
 2945SOL     OW20293   1.092   1.290   7.268 -0.0013 -0.3101 -0.6110
 2945SOL    HW120294   1.100   1.204   7.226 -0.7710 -1.4726  1.6171
 2945SOL    HW220295   1.073   1.267   7.359  2.8172  0.2839  0.1197
 2946SOL     OW20296   0.931   3.633  12.837  0.4838  0.6809  0.9235
 2946SOL    HW120297   1.015   3.677  12.843  1.2894 -0.6861 -0.3310
 2946SOL    HW220298   0.876   3.681  12.775  1.7782  1.0533  0.0612
 2947SOL     OW20299   4.198   4.566   5.739  0.0146  0.0086 -0.1368
 2947SOL    HW120300   4.227   4.608   5.658  1.3703 -0.0134  0.3226
 2947SOL    HW220301   4.230   4.479   5.716  1.1959  0.4724 -0.2545
 2948SOL     OW20302   2.955   2.285  13.317 -0.7695  0.3487 -0.2633
 2948SOL    HW120303   2.864   2.267  13.295 -0.3328  0.1571 -1.9149
 2948SOL    HW220304   2.951   2.341  13.394  0.6047  0.8010 -0.5146
 2949SOL     OW20305   1.050   3.265   9.242 -0.1775 -0.0811 -0.4223
 2949SOL    HW120306   1.106   3.228   9.175 -1.1577 -2.8890  0.3267
 2949SOL    HW220307   1.019   3.343   9.196  1.9039  0.0756 -1.5588
 2950SOL     OW20308   1.537   1.923   9.561 -0.5437 -0.1410 -0.0491
 2950SOL    HW120309   1.572   1.992   9.505 -0.8197  0.0707  0.0421
 2950SOL    HW220310   1.596   1.930   9.635  2.8687 -3.0331 -2.4652
 2951SOL     OW20311   3.817   3.436   5.834 -0.3871 -0.3608 -0.1470
 2951SOL    HW120312   3.772   3.504   5.784 -0.3551 -1.0030 -1.0566
 2951SOL    HW220313   3.743   3.397   5.881 -1.0537 -0.7810 -1.5215
 2952SOL     OW20314   1.401   4.410   9.674  0.0192 -0.2947 -0.4759
 2952SOL    HW120315   1.411   4.350   9.600 -3.3809 -1.3173 -0.0949
 2952SOL    HW220316   1.309   4.390   9.690  0.4824 -0.4250  2.1336
 2953SOL     OW20317   4.135   3.908   7.217  0.2436  0.1883 -0.6417
 2953SOL    HW120318   4.218   3.882   7.176  0.9357  2.2329 -0.5593
 2953SOL    HW220319   4.103   3.965   7.147  0.3769  0.0029 -0.8524
 2954SOL     OW20320   0.181   0.701   3.608 -0.4405 -0.3576  0.1405
 2954SOL    HW120321   0.097   0.655   3.602 -0.5037 -0.0915 -0.9626
 2954SOL    HW220322   0.210   0.677   3.696  1.5649  0.4996 -0.2860
 2955SOL     OW20323   4.612   4.704   6.808 -0.3586  0.6365 -0.1077
 2955SOL    HW120324   4.698   4.663   6.822 -0.9939 -0.8393 -0.4817
 2955SOL    HW220325   4.580   4.688   6.897 -0.7506 -0.0393 -0.3692
 2956SOL     OW20326   2.851   0.844   0.514  0.5264 -0.3550 -0.3382
 2956SOL    HW120327   2.824   0.921   0.464  1.9729  0.6777  0.4710
 2956SOL    HW220328   2.859   0.879   0.603 -0.0623  0.7516 -0.7294
 2957SOL     OW20329   4.128   2.610   3.177 -0.2559  0.6345  0.1924
 2957SOL    HW120330   4.161   2.689   3.220  2.4186  0.4811 -1.5763
 2957SOL    HW220331   4.185   2.545   3.217 -1.6561  0.1655  1.4089
 2958SOL     OW20332   0.894   1.957   4.766 -0.9437  0.2874 -0.0345
 2958SOL    HW120333   0.911   1.932   4.675  0.1993 -0.1114  0.2904
 2958SOL    HW220334   0.958   2.028   4.770  0.1839 -0.7135 -0.4625
 2959SOL     OW20335   0.041   3.067   7.158 -0.1043 -0.3868 -0.4337
 2959SOL    HW120336   0.088   3.121   7.221 -0.5959 -1.3965  0.7981
 2959SOL    HW220337   0.039   3.125   7.081 -0.8452 -0.1295 -0.2283
 2960SOL     OW20338   0.491   4.202   4.593  0.2236  0.1253 -0.2255
 2960SOL    HW120339   0.510   4.144   4.520  2.6529 -0.6136  0.9992
 2960SOL    HW220340   0.582   4.227   4.608  0.8451 -1.2460 -1.6462
 2961SOL     OW20341   3.754   2.202   7.217  0.0560 -0.0720  0.4240
 2961SOL    HW120342   3.803   2.160   7.146 -0.9104  0.2657 -0.4371
 2961SOL    HW220343   3.813   2.272   7.245  0.9030 -0.7225  0.2807
 2962SOL     OW20344   0.912   0.355  11.586 -0.3423 -0.3187  0.3541
 2962SOL    HW120345   0.891   0.262  11.597 -0.3702 -0.2102  1.1719
 2962SOL    HW220346   0.842   0.390  11.529 -2.0308 -1.6053  1.6471
 2963SOL     OW20347   2.138   0.373   5.709 -0.4653  0.2642 -0.5702
 2963SOL    HW120348   2.096   0.294   5.742 -0.2485  0.5413  0.3794
 2963SOL    HW220349   2.166   0.344   5.622  0.9723 -2.9009  0.9475
 2964SOL     OW20350   4.507   4.036  11.816 -0.4652  0.2970  0.0112
 2964SOL    HW120351   4.570   4.097  11.779  1.1396 -0.4461  1.5080
 2964SOL    HW220352   4.537   4.047  11.907 -1.6554 -1.4890  0.6289
 2965SOL     OW20353   3.924   1.949  10.393  1.1626 -0.4438 -0.6826
 2965SOL    HW120354   3.875   1.931  10.474 -0.2605  0.4690 -1.3399
 2965SOL    HW220355   3.961   2.033  10.420  2.8268 -0.8916 -1.6132
 2966SOL     OW20356   4.701   4.133   6.388 -0.2653  0.2971 -0.7983
 2966SOL    HW120357   4.646   4.140   6.311  0.4828  0.8083 -1.2836
 2966SOL    HW220358   0.040   4.202   6.360 -0.0898 -0.0911 -1.3772
 2967SOL     OW20359   2.091   3.503   2.324 -0.3516 -0.2433 -0.3802
 2967SOL    HW120360   2.153   3.434   2.300 -0.7707  0.1716 -2.6183
 2967SOL    HW220361   2.016   3.446   2.342  1.1930 -1.3883  2.4601
 2968SOL     OW20362   2.523   0.617   1.501  0.3606  0.1085 -0.3248
 2968SOL    HW120363   2.502   0.553   1.433  1.5435  1.6543 -2.1580
 2968SOL    HW220364   2.485   0.697   1.465 -1.9791 -0.8729  0.0204
 2969SOL     OW20365   2.281   3.517   4.370  0.1640 -0.0165 -0.0690
 2969SOL    HW120366   2.291   3.482   4.458  0.3673 -0.2119 -0.1710
 2969SOL    HW220367   2.244   3.602   4.396 -0.3247  0.1417 -1.2853
 2970SOL     OW20368   3.122   2.538   3.177 -0.1761  0.3298  0.3193
 2970SOL    HW120369   3.119   2.507   3.268  0.3560 -0.9128 -0.0874
 2970SOL    HW220370   3.059   2.608   3.191 -0.1650  0.5903 -0.9325
 2971SOL     OW20371   3.694   3.002   8.830  0.5061 -0.1066 -0.1243
 2971SOL    HW120372   3.665   3.068   8.767  0.3701 -0.7350 -0.7117
 2971SOL    HW220373   3.724   3.046   8.910 -1.6252  1.3305 -0.1155
 2972SOL     OW20374   3.295   4.191  16.924 -0.1201  0.5850 -0.1778
 2972SOL    HW120375   3.309   4.114  16.978  1.3298  1.1719  0.2587
 2972SOL    HW220376   3.216   4.236  16.956  0.7947  1.4663  0.8364
 2973SOL     OW20377   1.038   0.561   3.299 -0.3128 -0.2954 -0.3690
 2973SOL    HW120378   1.005   0.473   3.281 -0.1360 -0.4861  0.2451
 2973SOL    HW220379   0.956   0.609   3.291  0.5138  1.1363 -0.3246
 2974SOL     OW20380   4.537   0.011   1.320 -0.0762  0.2119 -0.2316
 2974SOL    HW120381   4.448   4.696   1.325  0.1352 -0.1455  0.9256
 2974SOL    HW220382   4.518   0.101   1.294  0.9016  0.8704  1.3385
 2975SOL     OW20383   1.781   1.413  13.342  0.2281  0.0485  0.2559
 2975SOL    HW120384   1.730   1.346  13.389  0.4056  1.1553  2.0149
 2975SOL    HW220385   1.832   1.460  13.408  0.3370  0.7142 -0.3074
 2976SOL     OW20386   4.095   3.774  12.022  0.2486  0.4034 -0.0569
 2976SOL    HW120387   4.107   3.679  12.022 -3.2213 -0.0186 -1.4230
 2976SOL    HW220388   4.186   3.802  12.034  0.3550  0.4277 -0.9619
 2977SOL     OW20389   3.926   2.783   6.690 -0.1229  0.9783 -0.1494
 2977SOL    HW120390   3.871   2.706   6.704 -1.8307  2.3046  0.4348
 2977SOL    HW220391   3.857   2.845   6.665 -1.5407 -1.1168 -1.4083
 2978SOL     OW20392   2.972   2.564   8.769  0.5831  0.4289 -0.3052
 2978SOL    HW120393   2.903   2.630   8.777 -0.5837 -0.8841  0.5189
 2978SOL    HW220394   2.923   2.487   8.797  0.8368 -0.2399 -1.7144
 2979SOL     OW20395   1.345   0.236   0.746  0.3069 -0.4980 -0.3835
 2979SOL    HW120396   1.381   0.273   0.827 -1.6763  0.4622  0.0429
 2979SOL    HW220397   1.420   0.245   0.687  0.6385 -0.5443  0.0360
 2980SOL     OW20398   0.381   3.190   3.165  0.1643 -1.2223 -0.5186
 2980SOL    HW120399   0.434   3.243   3.224  0.0840 -0.7953 -0.8336
 2980SOL    HW220400   0.326   3.253   3.118  0.7737  0.7253  1.3626
 2981SOL     OW20401   2.755   0.954   9.437  0.2893  0.0775  0.4746
 2981SOL    HW120402   2.712   0.875   9.403  0.1497  0.0950  0.6114
 2981SOL    HW220403   2.809   0.977   9.362 -0.9000 -0.3103 -0.5140
 2982SOL     OW20404   1.567   3.231   4.156 -0.0550 -0.4795 -0.0375
 2982SOL    HW120405   1.533   3.174   4.088  0.3868 -0.1112 -0.5780
 2982SOL    HW220406   1.532   3.314   4.123  2.3853  1.0520  1.2212
 2983SOL     OW20407   3.741   2.016   6.781 -0.3772  0.0773  0.5674
 2983SOL    HW120408   3.775   1.962   6.853 -0.3828  1.5199  1.6443
 2983SOL    HW220409   3.750   2.101   6.823 -1.2919  0.1499  0.6243
 2984SOL     OW20410   2.826   2.888   3.934  0.0021  0.2628  0.0538
 2984SOL    HW120411   2.779   2.937   3.867 -2.1768 -1.2905  0.4391
 2984SOL    HW220412   2.890   2.941   3.980  0.3106 -0.6159  0.6295
 2985SOL     OW20413   3.599   2.349   4.277  0.0303 -0.4484  0.6973
 2985SOL    HW120414   3.540   2.274   4.284 -1.7566  0.9504  0.5533
 2985SOL    HW220415   3.534   2.419   4.280 -1.3951 -1.6760 -1.2808
 2986SOL     OW20416   1.572   4.702   6.423 -0.3121 -0.4333  0.2270
 2986SOL    HW120417   1.500   4.640   6.414 -1.5735  0.8711  1.2896
 2986SOL    HW220418   1.525   0.065   6.421  1.0639  0.3335 -0.4538
 2987SOL     OW20419   1.966   4.543  16.072 -0.1687  0.0200  0.0968
 2987SOL    HW120420   1.899   4.564  16.007  0.3213 -2.2695 -1.1562
 2987SOL    HW220421   2.010   4.471  16.027  1.1391  1.7298 -1.3474
 2988SOL     OW20422   3.263   0.854  15.582  0.2244  0.9589  0.1578
 2988SOL    HW120423   3.276   0.789  15.652  0.9855 -1.6650 -2.3835
 2988SOL    HW220424   3.285   0.805  15.502 -2.5128 -0.4404  0.2615
 2989SOL     OW20425   4.176   3.798   8.558  1.4499  0.0141  0.8858
 2989SOL    HW120426   4.085   3.770   8.567  0.3419  2.4168 -2.7843
 2989SOL    HW220427   4.149   3.885   8.529 -0.2152 -0.3141  1.4816
 2990SOL     OW20428   4.174   0.657   7.369 -0.8448  0.6613  0.3846
 2990SOL    HW120429   4.244   0.600   7.401 -0.6357  0.4578 -0.4132
 2990SOL    HW220430   4.151   0.595   7.300  0.0631 -0.9321  1.5352
 2991SOL     OW20431   0.166   3.038  13.866  0.1319  0.2167 -0.2860
 2991SOL    HW120432   0.260   3.054  13.860  0.2820 -0.3378  0.6009
 2991SOL    HW220433   0.157   2.975  13.795  1.7598  0.0537 -0.3616
 2992SOL     OW20434   0.939   1.013  14.714 -0.4044  0.1906  0.4573
 2992SOL    HW120435   0.985   0.966  14.644 -1.1925 -0.2684  0.2449
 2992SOL    HW220436   0.965   0.964  14.792  0.2454 -0.3469 -0.0984
 2993SOL     OW20437   2.442   1.524   8.325 -0.6710 -0.4110 -0.0915
 2993SOL    HW120438   2.369   1.528   8.264 -0.3953  0.3815 -0.3805
 2993SOL    HW220439   2.411   1.580   8.396 -0.5118 -0.2034 -0.1854
 2994SOL     OW20440   4.362   4.035   5.481  0.1654  0.2873  0.4015
 2994SOL    HW120441   4.277   4.004   5.449  0.4972  0.1835 -0.3653
 2994SOL    HW220442   4.343   4.080   5.563 -1.5614  0.4268 -0.0729
 2995SOL     OW20443   2.928   0.696   3.838 -0.2511  0.3811 -0.1893
 2995SOL    HW120444   2.859   0.745   3.793 -1.3389 -0.2862  0.7641
 2995SOL    HW220445   3.007   0.750   3.831  0.0364  0.0818  0.6755
 2996SOL     OW20446   1.965   4.694  13.613  0.6306 -0.0008 -0.0042
 2996SOL    HW120447   1.929   0.009  13.694  0.2878  2.9109 -1.4707
 2996SOL    HW220448   1.948   0.047  13.555  0.8115 -0.3775 -0.5384
 2997SOL     OW20449   4.447   2.245  10.939  0.3528  0.7537  0.1028
 2997SOL    HW120450   4.411   2.162  10.908  0.4588  1.1693 -1.1079
 2997SOL    HW220451   4.425   2.297  10.862  0.5459 -0.3543 -0.7001
 2998SOL     OW20452   4.468   0.337  16.331 -0.4479  0.0935  0.3516
 2998SOL    HW120453   4.465   0.345  16.236 -0.6715  1.1439  0.4497
 2998SOL    HW220454   4.390   0.288  16.359 -0.4872 -0.0706 -0.0462
 2999SOL     OW20455   3.918   3.299   6.529 -0.4359  0.0625  0.6420
 2999SOL    HW120456   3.952   3.279   6.616 -0.8705 -2.0137  0.3248
 2999SOL    HW220457   3.829   3.323   6.553 -0.8744  0.4134 -1.3040
 3000SOL     OW20458   3.610   0.190   8.455  0.3288 -0.5776 -0.2277
 3000SOL    HW120459   3.664   0.112   8.451 -0.1369 -0.8913 -0.3975
 3000SOL    HW220460   3.609   0.198   8.551  0.0491 -1.1511 -0.1841
 3001SOL     OW20461   2.417   0.177   4.833  0.0338  0.2554  0.0638
 3001SOL    HW120462   2.470   0.256   4.826 -0.8150  1.0125  2.2621
 3001SOL    HW220463   2.327   0.202   4.811  0.3943  1.6668  0.1781
 3002SOL     OW20464   0.976   2.331   8.835 -0.2892 -0.3078  0.0545
 3002SOL    HW120465   1.014   2.349   8.749  2.0388 -1.8582  0.7418
 3002SOL    HW220466   1.053   2.300   8.883  0.7028  1.4687 -0.3754
 3003SOL     OW20467   3.058   3.973   5.724  0.3687  0.0501 -0.0578
 3003SOL    HW120468   3.045   3.901   5.786 -0.4913 -1.5928 -2.1578
 3003SOL    HW220469   3.048   3.931   5.639  2.1653 -2.1015  0.7952
 3004SOL     OW20470   0.752   2.459   8.188 -0.4111  1.1030  0.5351
 3004SOL    HW120471   0.683   2.495   8.133  1.2721  2.0580 -0.9621
 3004SOL    HW220472   0.831   2.456   8.134 -1.0724  0.1817 -0.3641
 3005SOL     OW20473   2.636   2.662  11.763  0.1759  0.9031  0.5618
 3005SOL    HW120474   2.710   2.614  11.801 -2.4106 -2.3016  1.5744
 3005SOL    HW220475   2.567   2.648  11.829  0.8650  2.1089  1.5446
 3006SOL     OW20476   4.544   2.387  17.416 -0.1271 -0.1552  0.1856
 3006SOL    HW120477   4.616   2.368  17.355  0.9823 -1.6591  1.9433
 3006SOL    HW220478   4.548   2.312  17.476 -0.1942 -1.2599 -1.1955
 3007SOL     OW20479   0.931   4.284   4.332 -0.3348  0.0335  0.0731
 3007SOL    HW120480   0.997   4.279   4.263  1.3647  3.7312  1.4376
 3007SOL    HW220481   0.884   4.364   4.307  2.7200  1.4041 -1.2487
 3008SOL     OW20482   3.835   1.079   7.725  0.2281 -0.2734  0.0911
 3008SOL    HW120483   3.796   1.122   7.649  1.1151  0.5195  0.0797
 3008SOL    HW220484   3.763   1.086   7.788  0.5357  0.4271  0.3697
 3009SOL     OW20485   4.264   4.213   4.865  0.7754  0.0787 -0.0904
 3009SOL    HW120486   4.338   4.272   4.850  1.3135 -0.8596 -1.1156
 3009SOL    HW220487   4.305   4.159   4.932 -0.3689  1.0483  1.3790
 3010SOL     OW20488   4.317   0.295   3.291 -0.3474  0.1966  0.3579
 3010SOL    HW120489   4.385   0.233   3.265 -0.2903  0.0596  0.8327
 3010SOL    HW220490   4.308   0.336   3.205 -1.0951 -1.5156 -0.3738
 3011SOL     OW20491   0.493   0.838   8.633  0.2347 -0.4532 -0.3436
 3011SOL    HW120492   0.449   0.869   8.554  0.5970  0.3106 -0.2495
 3011SOL    HW220493   0.586   0.853   8.619  0.7157 -2.8592  0.3000
 3012SOL     OW20494   0.190   1.279   6.514 -0.0014  0.4139  0.0886
 3012SOL    HW120495   0.234   1.195   6.500  0.0432  0.3558  0.5780
 3012SOL    HW220496   0.262   1.313   6.567  0.6867 -0.1092 -0.5078
 3013SOL     OW20497   4.456   3.056   9.041  0.4786 -0.2285 -0.1975
 3013SOL    HW120498   4.465   3.146   9.010 -1.4290  0.2507  0.6221
 3013SOL    HW220499   4.361   3.047   9.034  0.6229 -0.9369 -1.4838
 3014SOL     OW20500   3.209   4.193   0.911  0.3806 -0.1813 -0.2516
 3014SOL    HW120501   3.246   4.196   0.999 -0.6289 -0.2433  0.1781
 3014SOL    HW220502   3.150   4.118   0.912 -1.0248  0.9072 -1.3875
 3015SOL     OW20503   2.865   1.829  14.155 -0.0488 -0.1470 -0.4310
 3015SOL    HW120504   2.861   1.771  14.080 -4.3085 -0.6644  0.1693
 3015SOL    HW220505   2.855   1.768  14.229 -1.0167 -0.0039 -0.4415
 3016SOL     OW20506   0.145   1.024   4.350 -0.0467  0.0152 -0.4566
 3016SOL    HW120507   0.080   1.068   4.295  0.3648  2.9228  1.3693
 3016SOL    HW220508   0.132   1.057   4.439 -1.4686 -0.9414 -0.3163
 3017SOL     OW20509   3.568   1.765   9.999 -0.0680  0.2942 -0.2282
 3017SOL    HW120510   3.529   1.680   9.981  0.4802 -0.0990  0.4705
 3017SOL    HW220511   3.623   1.775   9.921  0.3682 -1.2532 -0.1171
 3018SOL     OW20512   2.968   1.165  12.745 -0.1185  0.0836 -0.7041
 3018SOL    HW120513   2.896   1.142  12.687  0.4185  1.6030 -1.9958
 3018SOL    HW220514   3.036   1.200  12.687 -0.0022  1.0948  0.0427
 3019SOL     OW20515   4.279   1.415   3.781 -0.0068  0.8241  0.2610
 3019SOL    HW120516   4.333   1.479   3.827  0.8033 -0.7502  1.5030
 3019SOL    HW220517   4.338   1.385   3.712  0.7537 -0.0350  1.2596
 3020SOL     OW20518   1.682   3.598  12.931 -0.1194  0.0091 -0.7600
 3020SOL    HW120519   1.757   3.546  12.903 -0.8380 -1.2956 -0.2419
 3020SOL    HW220520   1.727   3.666  12.982 -1.3767  0.8520 -0.7579
 3021SOL     OW20521   3.799   0.766   2.362  0.2723  0.1650  0.0775
 3021SOL    HW120522   3.892   0.748   2.370  0.2752  0.7526  1.5137
 3021SOL    HW220523   3.769   0.716   2.438  0.8319  2.2574  1.6753
 3022SOL     OW20524   4.392   1.417  11.849 -0.6907 -0.2567 -0.4361
 3022SOL    HW120525   4.392   1.346  11.914 -0.2325 -0.6069 -0.8273
 3022SOL    HW220526   4.319   1.389  11.794  1.3943 -1.2972 -2.6316
 3023SOL     OW20527   2.753   0.885   3.698 -0.0185 -0.4774  0.0917
 3023SOL    HW120528   2.672   0.928   3.724  0.6474  0.2504  0.9319
 3023SOL    HW220529   2.741   0.864   3.605 -2.9738  1.0660  0.1314
 3024SOL     OW20530   2.353   3.909  16.033  0.1021 -0.3966  0.0975
 3024SOL    HW120531   2.276   3.866  15.997  0.1594 -0.1824 -0.2821
 3024SOL    HW220532   2.418   3.838  16.039  1.0899  0.5643  0.7668
 3025SOL     OW20533   4.080   0.811   9.018 -0.1375  0.1311 -0.3433
 3025SOL    HW120534   4.166   0.796   8.978 -0.7457  0.7810 -1.9279
 3025SOL    HW220535   4.099   0.895   9.060  2.1395 -1.4276  1.7124
 3026SOL     OW20536   1.929   4.151  16.945 -0.4521  0.1321 -0.1301
 3026SOL    HW120537   1.852   4.099  16.926  0.1550 -1.4229  1.7276
 3026SOL    HW220538   1.999   4.086  16.941 -2.0766 -1.6563  0.6099
 3027SOL     OW20539   2.993   3.156  15.899 -0.4406  0.4475 -0.1092
 3027SOL    HW120540   3.065   3.196  15.849 -0.2561  0.7987  0.4352
 3027SOL    HW220541   2.939   3.131  15.825  0.2101 -1.4970  0.0820
 3028SOL     OW20542   1.419   4.608   8.658 -0.2176  0.0728 -0.4099
 3028SOL    HW120543   1.336   4.567   8.632  0.5716 -1.6585 -0.1556
 3028SOL    HW220544   1.441   4.574   8.744 -3.1718 -0.9513 -0.0732
 3029SOL     OW20545   2.293   2.186   9.988 -0.5136 -0.5075  0.3611
 3029SOL    HW120546   2.250   2.119  10.041 -0.9515  1.2043  2.1821
 3029SOL    HW220547   2.368   2.206  10.044 -0.2921  0.9313 -0.4331
 3030SOL     OW20548   3.091   2.468   5.862 -0.0199 -0.3798  0.5044
 3030SOL    HW120549   3.014   2.515   5.897 -1.3045 -1.6167 -0.6612
 3030SOL    HW220550   3.162   2.531   5.872  1.0308 -1.4736 -0.1243
 3031SOL     OW20551   0.051   0.019   6.131 -0.6491  0.5868 -0.3657
 3031SOL    HW120552   0.135   0.027   6.176 -0.8583  0.0626  0.1166
 3031SOL    HW220553   0.067   4.674   6.062 -0.8201  0.7272 -0.5392
 3032SOL     OW20554   1.119   3.100   7.710 -0.8350 -0.4201 -0.0566
 3032SOL    HW120555   1.147   3.100   7.801  0.0975 -0.1279 -0.3388
 3032SOL    HW220556   1.055   3.171   7.706  0.0353  0.5049  2.1438
 3033SOL     OW20557   2.554   4.021   9.085 -1.2272  0.4203 -0.5453
 3033SOL    HW120558   2.590   3.961   9.151 -2.6498 -1.1801 -1.2350
 3033SOL    HW220559   2.532   3.952   9.022 -1.0343  1.3908 -1.6702
 3034SOL     OW20560   2.258   3.251   4.611 -0.0254  0.2242  0.1013
 3034SOL    HW120561   2.269   3.193   4.687  0.5859  1.8285  1.2364
 3034SOL    HW220562   2.331   3.230   4.553 -0.3383  1.5478 -0.7723
 3035SOL     OW20563   0.682   2.879  15.132  0.6804  0.1220 -0.5204
 3035SOL    HW120564   0.748   2.891  15.064  2.2158  0.4809  1.0155
 3035SOL    HW220565   0.689   2.786  15.156 -0.0990  0.3475  0.5912
 3036SOL     OW20566   1.555   0.785  15.504 -0.5020 -0.1582  0.0272
 3036SOL    HW120567   1.600   0.852  15.555 -2.0982  0.0503  1.1541
 3036SOL    HW220568   1.628   0.761  15.447 -2.1752  1.2912 -2.7099
 3037SOL     OW20569   4.716   2.024   7.618  0.1043 -0.0526  0.4964
 3037SOL    HW120570   4.707   2.088   7.689  0.4946  2.7107 -1.9507
 3037SOL    HW220571   4.700   2.084   7.545 -1.1383 -1.7166 -0.5969
 3038SOL     OW20572   3.361   0.981   4.419  0.7358  0.2531  0.2956
 3038SOL    HW120573   3.380   0.972   4.512 -0.8347  1.2696  0.7239
 3038SOL    HW220574   3.346   0.888   4.400 -0.5638  0.4903  0.1308
 3039SOL     OW20575   0.817   2.884   5.749  0.2262 -0.0901 -0.2205
 3039SOL    HW120576   0.727   2.911   5.735  0.0324 -2.1573 -2.9184
 3039SOL    HW220577   0.807   2.788   5.751  0.1335 -0.0942 -0.8175
 3040SOL     OW20578   3.077   4.615   8.265  0.4010 -0.0662 -0.1458
 3040SOL    HW120579   3.016   4.563   8.213 -0.5955  1.0689 -0.1360
 3040SOL    HW220580   3.159   4.566   8.268  1.5131  1.8433  0.6320
 3041SOL     OW20581   3.880   1.172   6.067 -0.0826 -0.3174  0.2028
 3041SOL    HW120582   3.830   1.224   6.130  0.9350  0.6036  0.2401
 3041SOL    HW220583   3.870   1.085   6.105 -2.5038 -0.4591 -0.7288
 3042SOL     OW20584   1.971   1.911   6.230  0.4661 -0.2481  0.0556
 3042SOL    HW120585   2.039   1.843   6.233 -2.8125 -3.3852  2.2110
 3042SOL    HW220586   1.898   1.860   6.265  1.7825 -0.8149  1.9337
 3043SOL     OW20587   0.409   2.094   1.773  0.6785  0.0640 -0.2220
 3043SOL    HW120588   0.480   2.144   1.734  1.6770 -1.1805 -0.0034
 3043SOL    HW220589   0.428   2.005   1.744 -0.9401 -0.2975 -0.1753
 3044SOL     OW20590   4.561   1.937   2.191  0.0586  0.0266 -0.2579
 3044SOL    HW120591   4.531   1.993   2.119  0.9447 -0.9193 -1.3670
 3044SOL    HW220592   4.649   1.924   2.155  0.6873  1.3385  0.7947
 3045SOL     OW20593   1.147   3.844  15.279 -0.4303  0.2825  0.2136
 3045SOL    HW120594   1.217   3.905  15.302 -1.3655  1.3957  0.0896
 3045SOL    HW220595   1.155   3.833  15.184  0.2734  4.2149 -0.1762
 3046SOL     OW20596   2.345   0.213   1.099  0.0295 -0.2696 -0.4017
 3046SOL    HW120597   2.423   0.221   1.153  0.1366 -0.1648 -0.5719
 3046SOL    HW220598   2.352   0.124   1.064  2.7614  0.6675 -2.2489
 3047SOL     OW20599   3.044   1.958  15.841  0.1029 -0.0212 -0.1100
 3047SOL    HW120600   3.119   1.919  15.885 -0.7115 -1.1511  0.2989
 3047SOL    HW220601   3.066   2.051  15.840 -3.4806  0.8380  0.0121
 3048SOL     OW20602   1.601   0.651   4.808  0.0070 -0.3088 -0.3233
 3048SOL    HW120603   1.615   0.732   4.856  1.8165 -0.5833 -0.3871
 3048SOL    HW220604   1.637   0.591   4.873  0.1352 -0.3965 -0.4742
 3049SOL     OW20605   1.148   2.537  13.567  0.0995  0.2959 -0.2744
 3049SOL    HW120606   1.078   2.592  13.532  0.1768 -0.3309 -1.4048
 3049SOL    HW220607   1.152   2.464  13.505  3.2116 -0.2737  0.5969
 3050SOL     OW20608   1.412   2.858   9.326  0.0492  0.0484  0.3076
 3050SOL    HW120609   1.502   2.892   9.322  0.6787 -1.4178  2.2664
 3050SOL    HW220610   1.415   2.788   9.260  0.2075  0.3132  0.0350
 3051SOL     OW20611   1.581   4.137   3.022 -0.5043  0.0340 -0.7118
 3051SOL    HW120612   1.505   4.128   2.966  0.5272 -0.1668 -2.0740
 3051SOL    HW220613   1.560   4.219   3.068  0.2412  0.2619 -0.7726
 3052SOL     OW20614   1.295   1.765   6.027 -0.2080  0.0489  0.4005
 3052SOL    HW120615   1.201   1.747   6.024  0.0002 -0.6076 -2.0594
 3052SOL    HW220616   1.310   1.735   6.117  0.0576  1.3514  0.7902
 3053SOL     OW20617   3.867   2.609   1.875 -0.2606  0.0724 -0.3006
 3053SOL    HW120618   3.818   2.562   1.943  0.6084  0.3966  0.5634
 3053SOL    HW220619   3.855   2.547   1.804  1.5874  0.2940 -0.8167
 3054SOL     OW20620   2.085   2.691   2.468  0.2342 -0.2397 -0.0437
 3054SOL    HW120621   2.180   2.681   2.459  0.1754 -0.3434 -0.5379
 3054SOL    HW220622   2.050   2.646   2.391 -0.8597  0.8202 -0.1649
 3055SOL     OW20623   1.443   4.678   0.701 -0.8686  0.8406  0.0319
 3055SOL    HW120624   1.357   4.719   0.714 -1.4180  0.3875 -2.2796
 3055SOL    HW220625   1.505   0.028   0.722 -0.0222  0.1421 -0.1192
 3056SOL     OW20626   2.360   3.431   8.509 -0.2722  0.0118 -0.3283
 3056SOL    HW120627   2.288   3.452   8.450  0.8035 -4.4500 -3.2030
 3056SOL    HW220628   2.333   3.351   8.555  1.3512 -1.1181 -1.3500
 3057SOL     OW20629   2.007   0.502  15.817  0.0046  0.0706 -0.7572
 3057SOL    HW120630   2.051   0.426  15.777 -0.2240  0.1629 -1.1861
 3057SOL    HW220631   2.024   0.500  15.911  1.0443 -0.9870 -0.9521
 3058SOL     OW20632   4.363   4.046   6.307  0.1297  0.3909  0.0647
 3058SOL    HW120633   4.436   4.095   6.268  1.1912 -1.2706 -0.0581
 3058SOL    HW220634   4.370   4.083   6.394 -1.1243 -0.5604  0.5661
 3059SOL     OW20635   3.202   0.999   5.741  0.3472 -0.0326  0.2537
 3059SOL    HW120636   3.174   0.989   5.832  0.7282  0.9971  0.4736
 3059SOL    HW220637   3.256   0.922   5.722 -0.9828 -0.3912 -2.1250
 3060SOL     OW20638   0.350   2.284   8.327  0.0286  0.1604  0.1519
 3060SOL    HW120639   0.314   2.309   8.413 -0.2782  3.2720 -0.8813
 3060SOL    HW220640   0.293   2.320   8.259 -0.6191 -1.3926 -0.1112
 3061SOL     OW20641   3.402   3.065   2.928  0.3716  0.5910 -0.4694
 3061SOL    HW120642   3.462   2.991   2.918  0.6271  0.7134  0.2159
 3061SOL    HW220643   3.454   3.141   2.903  1.0817 -0.0600 -0.9572
 3062SOL     OW20644   0.209   0.032  10.248  0.4542 -0.0823 -0.7805
 3062SOL    HW120645   0.153   4.699  10.302  0.9914  1.8105  1.6482
 3062SOL    HW220646   0.272   4.681  10.243  2.0148  1.0895  2.0085
 3063SOL     OW20647   0.170   2.067  13.428  0.0653 -0.0337 -0.1172
 3063SOL    HW120648   0.182   1.983  13.471  0.3289  0.2676  0.3896
 3063SOL    HW220649   0.194   2.135  13.491 -2.2698 -0.1680  0.9327
 3064SOL     OW20650   0.054   0.918   6.366  0.3752  0.2633  0.6917
 3064SOL    HW120651   0.146   0.927   6.340 -0.2091  0.9744 -1.1123
 3064SOL    HW220652   0.011   0.926   6.281  2.2823 -2.2619 -0.5076
 3065SOL     OW20653   0.431   4.441  14.339 -0.2934 -0.1885  0.8229
 3065SOL    HW120654   0.491   4.459  14.411 -0.8480 -0.8666  1.4482
 3065SOL    HW220655   0.462   4.357  14.306 -0.6671  0.0516 -0.1407
 3066SOL     OW20656   4.708   2.183   5.725 -0.0883  0.0680 -0.1880
 3066SOL    HW120657   0.064   2.239   5.721  0.2461 -0.3910 -0.1571
 3066SOL    HW220658   0.021   2.093   5.722  1.0074  0.4376  1.4083
 3067SOL     OW20659   0.057   4.485   7.964  0.6212  0.2858 -0.3898
 3067SOL    HW120660   0.048   4.581   7.966 -1.5787  0.1185 -1.9555
 3067SOL    HW220661   0.140   4.474   7.917  1.3132 -0.8025  1.0955
 3068SOL     OW20662   0.968   4.107  15.081 -0.2160 -0.3314  0.5525
 3068SOL    HW120663   0.973   4.202  15.089  1.0083 -0.5055  1.7601
 3068SOL    HW220664   0.938   4.079  15.167  1.0386 -0.4139  0.9624
 3069SOL     OW20665   1.230   0.695  10.210 -0.0877  0.1077  0.6526
 3069SOL    HW120666   1.286   0.618  10.216  1.0640  1.0301  1.6051
 3069SOL    HW220667   1.190   0.697  10.296 -1.9416 -0.5036 -0.1925
 3070SOL     OW20668   2.250   0.991   8.781 -0.0674 -0.0861 -0.0671
 3070SOL    HW120669   2.201   0.960   8.705 -1.5314  0.4886  0.6562
 3070SOL    HW220670   2.246   0.905   8.823  2.1513  0.1402  0.6065
 3071SOL     OW20671   1.679   1.825  10.851  0.1556  0.2993 -0.5787
 3071SOL    HW120672   1.635   1.850  10.932  1.8417 -0.1613  0.4721
 3071SOL    HW220673   1.616   1.855  10.785 -0.7165  1.3424  0.7434
 3072SOL     OW20674   0.060   1.392   6.908  0.0355 -0.1023 -0.3980
 3072SOL    HW120675   0.033   1.312   6.862 -0.1259  0.0657 -0.5927
 3072SOL    HW220676   0.018   1.377   6.993  1.7400 -1.3266  0.2402
 3073SOL     OW20677   1.798   2.738   6.066 -0.2584 -0.2292  0.0779
 3073SOL    HW120678   1.765   2.726   5.977  1.8067  2.1279 -0.9945
 3073SOL    HW220679   1.826   2.649   6.088 -2.7734 -1.1582 -0.4702
 3074SOL     OW20680   4.668   2.351   9.293  0.5183 -0.5282 -0.6196
 3074SOL    HW120681   0.017   2.286   9.289  0.2875 -0.8353  0.2218
 3074SOL    HW220682   4.595   2.289   9.295 -1.3114  1.6231 -0.9720
 3075SOL     OW20683   2.738   1.772  11.892 -0.0417  0.6530  0.1990
 3075SOL    HW120684   2.791   1.784  11.813  1.0118  0.5692  0.8897
 3075SOL    HW220685   2.788   1.826  11.954  1.9667 -1.0821  0.1029
 3076SOL     OW20686   4.144   3.849   4.275 -0.5579  0.1773 -0.0330
 3076SOL    HW120687   4.188   3.918   4.225 -0.4913  0.6439  0.6749
 3076SOL    HW220688   4.140   3.894   4.359  1.0316 -0.4032  0.3442
 3077SOL     OW20689   1.368   2.779   8.611  0.0147 -0.2802 -0.0058
 3077SOL    HW120690   1.427   2.843   8.651  1.2930 -0.7021 -1.2173
 3077SOL    HW220691   1.362   2.714   8.681  1.4550  0.0610  0.4206
 3078SOL     OW20692   0.660   3.253  10.455  0.6881  0.2498 -0.3576
 3078SOL    HW120693   0.584   3.294  10.413 -0.9978 -0.9318  1.5336
 3078SOL    HW220694   0.619   3.206  10.528 -0.2587  0.0614 -1.0010
 3079SOL     OW20695   0.327   4.005   3.873  0.5713 -0.6125 -0.5916
 3079SOL    HW120696   0.252   3.947   3.868  1.9115 -2.3923  0.0956
 3079SOL    HW220697   0.303   4.092   3.839 -0.0846 -0.0453  1.2813
 3080SOL     OW20698   0.579   2.534  15.395 -0.4668  0.0904  0.1853
 3080SOL    HW120699   0.495   2.501  15.364 -1.1298  0.5388  1.5178
 3080SOL    HW220700   0.550   2.560  15.482 -2.1927 -0.3588 -0.2643
 3081SOL     OW20701   2.337   0.416   8.254  0.1367 -0.0216  0.0213
 3081SOL    HW120702   2.423   0.456   8.263 -0.5757  1.3256  0.9254
 3081SOL    HW220703   2.283   0.486   8.291 -0.7449  0.8917 -3.0275
 3082SOL     OW20704   2.132   0.244   2.075  0.0741  0.1665 -0.0621
 3082SOL    HW120705   2.170   0.223   2.160 -1.1358 -1.1825  0.1472
 3082SOL    HW220706   2.208   0.230   2.019  1.2789  0.3768  1.5061
 3083SOL     OW20707   2.635   3.521   6.280 -0.3367 -0.3732 -0.2265
 3083SOL    HW120708   2.639   3.461   6.354  0.5906 -2.1620 -1.7085
 3083SOL    HW220709   2.716   3.571   6.281  0.7753 -2.0629 -2.7119
 3084SOL     OW20710   2.414   0.448   0.664  0.6940 -0.5097 -1.3477
 3084SOL    HW120711   2.338   0.439   0.606  0.7486  0.0146 -1.5023
 3084SOL    HW220712   2.416   0.365   0.712 -0.8985  0.5739  0.5743
 3085SOL     OW20713   1.761   3.370   5.875  0.1252 -0.0235  0.5081
 3085SOL    HW120714   1.740   3.309   5.946 -0.9149  2.3814  2.3103
 3085SOL    HW220715   1.855   3.359   5.886 -0.1726 -1.9068  1.0692
 3086SOL     OW20716   3.494   2.362   2.353 -0.5588  0.0322 -0.4523
 3086SOL    HW120717   3.467   2.332   2.266  1.8082  2.3458 -1.9918
 3086SOL    HW220718   3.429   2.433   2.356  3.7670  3.9124  0.9401
 3087SOL     OW20719   1.626   3.121   8.922 -0.2343 -0.1293  0.0396
 3087SOL    HW120720   1.704   3.125   8.976 -0.5475  0.0917  0.4799
 3087SOL    HW220721   1.570   3.186   8.966  0.8440  0.6154  0.3022
 3088SOL     OW20722   0.512   4.639  13.860  0.8942 -0.5787 -0.2566
 3088SOL    HW120723   0.493   4.547  13.878  1.7905 -1.1895 -2.4705
 3088SOL    HW220724   0.524   4.628  13.766 -1.2673  2.1750 -0.8440
 3089SOL     OW20725   1.574   2.574   6.869  0.0143  0.3215 -0.1758
 3089SOL    HW120726   1.488   2.591   6.830  0.8295  0.6862 -1.8197
 3089SOL    HW220727   1.626   2.628   6.810  0.5544  0.0540  0.0555
 3090SOL     OW20728   4.665   3.435   2.975 -0.0076 -0.0615 -0.0239
 3090SOL    HW120729   4.697   3.515   2.933  0.2659 -0.6482 -0.9103
 3090SOL    HW220730   4.631   3.472   3.057  0.3925  2.0708 -0.8171
 3091SOL     OW20731   0.032   3.542   5.497  0.0750  0.1328 -0.0056
 3091SOL    HW120732   0.044   3.637   5.500 -1.0226  0.2864 -0.5761
 3091SOL    HW220733   0.041   3.535   5.593 -0.5736  0.6325  0.0903
 3092SOL     OW20734   0.173   2.536   9.136 -0.0957 -0.1547 -0.6554
 3092SOL    HW120735   0.138   2.463   9.085  0.2104 -0.9137  0.2168
 3092SOL    HW220736   0.214   2.488   9.208 -2.0974 -0.3710  0.3305
 3093SOL     OW20737   1.283   1.737   8.269 -0.1043 -0.0073 -0.1311
 3093SOL    HW120738   1.208   1.753   8.327  0.9077  0.0015  1.1829
 3093SOL    HW220739   1.335   1.814   8.294 -2.0352  1.6643 -1.1770
 3094SOL     OW20740   4.462   0.019   5.800 -0.2815 -0.2754 -0.1824
 3094SOL    HW120741   4.452   0.107   5.836  1.4908 -0.3901  0.5629
 3094SOL    HW220742   4.404   4.693   5.860 -0.4903 -0.8207 -0.8091
 3095SOL     OW20743   4.211   4.479   0.210 -0.1356  0.3116 -0.5577
 3095SOL    HW120744   4.148   4.527   0.263  1.8155 -0.6296  2.6643
 3095SOL    HW220745   4.276   4.543   0.182  1.8029 -1.4645 -0.1440
 3096SOL     OW20746   0.329   2.686   5.738  0.2785  0.5120 -0.4618
 3096SOL    HW120747   0.323   2.692   5.833 -2.0782 -1.7663 -0.4698
 3096SOL    HW220748   0.236   2.682   5.716  0.9981  0.0455 -3.3748
 3097SOL     OW20749   4.015   3.272   3.978  0.1131  0.2515  0.2580
 3097SOL    HW120750   3.928   3.276   3.938 -0.7526  1.5106  2.2439
 3097SOL    HW220751   4.009   3.177   3.987 -1.9296  0.4551  1.2238
 3098SOL     OW20752   3.018   3.082   9.060  0.1059  0.3593  0.1732
 3098SOL    HW120753   3.067   3.120   8.987  0.3274 -2.4520 -1.1350
 3098SOL    HW220754   2.938   3.129   9.037 -0.2232 -0.7801 -1.0100
 3099SOL     OW20755   2.217   4.167   8.404 -0.2562 -0.3370  0.0379
 3099SOL    HW120756   2.221   4.261   8.391 -2.0683 -0.1433  0.9742
 3099SOL    HW220757   2.126   4.137   8.412 -0.6510  0.9926  0.3868
 3100SOL     OW20758   0.009   0.433   4.665  0.7605 -0.5587  0.3908
 3100SOL    HW120759   4.695   0.520   4.647  0.3254 -0.3131  2.4187
 3100SOL    HW220760   0.003   0.385   4.583  0.3752  1.6922 -0.8970
 3101SOL     OW20761   2.241   3.992   7.001 -0.0141  0.0123 -0.0784
 3101SOL    HW120762   2.297   4.021   7.073 -2.0089 -1.7453  2.1891
 3101SOL    HW220763   2.283   3.911   6.974 -0.8774 -0.9754  1.4977
 3102SOL     OW20764   1.089   4.206   8.667 -0.3761  0.0310  0.1577
 3102SOL    HW120765   1.128   4.280   8.713  0.9237 -0.1413 -0.6541
 3102SOL    HW220766   1.069   4.155   8.746  0.3868  0.6262  0.7310
 3103SOL     OW20767   1.989   3.618   5.823 -0.2844 -0.4046 -0.1253
 3103SOL    HW120768   1.944   3.651   5.745  0.3484 -0.9067 -0.7034
 3103SOL    HW220769   2.063   3.678   5.827 -0.3718 -0.2946 -0.1740
 3104SOL     OW20770   2.420   4.003  14.814 -0.2533  0.4159  0.5947
 3104SOL    HW120771   2.346   4.059  14.838 -0.4953 -0.4664  1.8911
 3104SOL    HW220772   2.490   4.066  14.798 -0.8539  1.8296  3.5120
 3105SOL     OW20773   3.909   0.630  16.798  0.1732 -0.6413  0.6502
 3105SOL    HW120774   3.967   0.706  16.791  0.1016 -0.8723 -2.5847
 3105SOL    HW220775   3.842   0.664  16.857  0.4218 -1.4508  1.3947
 3106SOL     OW20776   1.367   0.474  10.577  0.3621  0.8521 -0.5531
 3106SOL    HW120777   1.361   0.458  10.482 -4.2189  0.4683 -0.2071
 3106SOL    HW220778   1.352   0.568  10.583  1.0698  0.9148  0.0760
 3107SOL     OW20779   2.748   0.100   5.802  0.0263  0.0407  0.2662
 3107SOL    HW120780   2.796   0.046   5.740  0.9113  1.1558 -0.0069
 3107SOL    HW220781   2.713   0.171   5.749 -0.8373  0.7520  1.7602
 3108SOL     OW20782   4.026   2.103   6.218 -0.1777  0.1357  0.0938
 3108SOL    HW120783   4.042   2.009   6.227 -1.3889  0.0391  1.2282
 3108SOL    HW220784   3.936   2.089   6.189 -0.1767  0.4028 -0.0457
 3109SOL     OW20785   4.069   2.068   5.528 -0.4229  0.1155 -0.6179
 3109SOL    HW120786   4.083   2.132   5.458 -1.5368  1.8523  0.7213
 3109SOL    HW220787   4.152   2.023   5.517 -1.8125 -2.0411 -2.1502
 3110SOL     OW20788   4.329   4.272   7.499 -0.0453 -0.0349 -0.2866
 3110SOL    HW120789   4.409   4.325   7.503 -1.3462  1.9597 -0.9163
 3110SOL    HW220790   4.318   4.256   7.405  1.1195  0.3841 -0.5016
 3111SOL     OW20791   2.894   3.389   0.865  0.1104 -0.2637  0.1297
 3111SOL    HW120792   2.969   3.404   0.808  1.1613  0.8149  1.7911
 3111SOL    HW220793   2.912   3.297   0.884  2.2064  0.1797  0.3098
 3112SOL     OW20794   0.419   1.528   6.552  0.3933  0.3575  0.2368
 3112SOL    HW120795   0.504   1.513   6.512 -0.1641  0.1323 -0.8666
 3112SOL    HW220796   0.417   1.623   6.557 -1.1113  0.1752  3.1861
 3113SOL     OW20797   3.114   1.213   2.072 -0.1735  0.2292  0.1993
 3113SOL    HW120798   3.208   1.194   2.069 -0.6105 -1.4015 -3.2420
 3113SOL    HW220799   3.111   1.301   2.111  0.8965  0.1889  0.3845
 3114SOL     OW20800   0.573   0.118   2.992  0.4401  0.0421  0.2344
 3114SOL    HW120801   0.617   0.201   2.979 -0.1377  0.1165 -1.2613
 3114SOL    HW220802   0.615   0.062   2.926  1.7251  1.2287  0.0529
 3115SOL     OW20803   4.557   1.364  16.024 -0.2550  0.2460  0.1862
 3115SOL    HW120804   4.473   1.324  16.001 -0.8620  2.1787 -0.9799
 3115SOL    HW220805   4.568   1.435  15.961  2.2954 -0.7102 -0.4371
 3116SOL     OW20806   0.275   3.923   7.040 -0.2528 -0.1769 -0.4405
 3116SOL    HW120807   0.338   3.871   7.089 -1.1595 -0.4775  0.3960
 3116SOL    HW220808   0.274   4.001   7.095 -3.3909  1.2433 -2.5039
 3117SOL     OW20809   0.272   2.294  12.885 -0.3621  0.2987 -0.0707
 3117SOL    HW120810   0.241   2.340  12.963  0.2980  1.2394 -0.3545
 3117SOL    HW220811   0.367   2.290  12.900 -0.3964  0.0654  0.0817
 3118SOL     OW20812   2.199   1.235   8.447 -0.2023 -0.3685 -0.0403
 3118SOL    HW120813   2.175   1.290   8.372  1.2757  3.0547  1.9931
 3118SOL    HW220814   2.137   1.163   8.434 -2.9785  1.2887  4.2655
 3119SOL     OW20815   1.233   1.878  10.370  0.1389 -0.5967 -0.5254
 3119SOL    HW120816   1.221   1.911  10.459 -2.1195  1.4007 -1.5475
 3119SOL    HW220817   1.258   1.963  10.334 -0.1068 -0.7189 -0.9784
 3120SOL     OW20818   1.325   2.353   5.519 -0.2092  0.0898  0.1342
 3120SOL    HW120819   1.283   2.436   5.499 -1.8851 -0.7078  0.3338
 3120SOL    HW220820   1.245   2.302   5.533  0.8809 -1.4844  0.7186
 3121SOL     OW20821   0.294   4.386   4.579  0.3648  0.7655 -0.2281
 3121SOL    HW120822   0.293   4.365   4.485  0.7508 -1.2714  0.2263
 3121SOL    HW220823   0.386   4.365   4.596 -0.0963 -1.2080 -0.2361
 3122SOL     OW20824   0.001   1.192   3.736  0.0889 -0.3220 -0.1907
 3122SOL    HW120825   0.041   1.125   3.681 -1.1513 -0.7759 -0.5356
 3122SOL    HW220826   4.629   1.186   3.710 -0.4604  1.9689  1.2129
 3123SOL     OW20827   3.756   0.874  12.813 -0.1691 -0.2363  0.3112
 3123SOL    HW120828   3.802   0.790  12.807 -0.1587 -0.3027  1.3491
 3123SOL    HW220829   3.793   0.911  12.732 -3.3362  2.2637 -0.0121
 3124SOL     OW20830   2.470   0.428   4.249  0.5168 -0.3981 -0.2517
 3124SOL    HW120831   2.487   0.463   4.162 -0.5844 -2.7435 -1.3913
 3124SOL    HW220832   2.427   0.506   4.283  0.2120  0.4590 -2.5954
 3125SOL     OW20833   2.568   0.058   1.934 -0.3771 -0.3270 -0.3244
 3125SOL    HW120834   2.655   0.069   1.894  1.1876 -1.4578  2.7747
 3125SOL    HW220835   2.559   4.684   1.935  1.1040 -0.4317  1.5738
 3126SOL     OW20836   0.454   1.267   7.049  0.2625  0.3656 -0.2122
 3126SOL    HW120837   0.367   1.276   7.009  1.3335 -0.5644 -2.7628
 3126SOL    HW220838   0.502   1.249   6.968 -0.5147  2.7463 -1.2113
 3127SOL     OW20839   1.928   4.181   6.317 -0.2932  0.0977 -0.0769
 3127SOL    HW120840   1.944   4.121   6.244 -1.5811  0.5985 -0.7669
 3127SOL    HW220841   1.919   4.111   6.382  3.0981 -0.8646 -0.6504
 3128SOL     OW20842   2.313   1.980   8.976 -0.0629 -0.1324 -0.0262
 3128SOL    HW120843   2.301   2.035   8.898  3.4490 -0.3654 -0.7225
 3128SOL    HW220844   2.241   1.920   8.956 -0.7210  0.1725  1.4390
 3129SOL     OW20845   1.187   3.822  17.590  0.5485  0.0869  0.0730
 3129SOL    HW120846   1.111   3.808  17.646 -0.8187 -1.4833 -2.2038
 3129SOL    HW220847   1.148   3.888  17.533 -2.3982 -0.9507  0.8793
 3130SOL     OW20848   2.052   4.632   2.349 -0.3514 -0.4627 -0.5304
 3130SOL    HW120849   2.115   4.673   2.290 -0.0169 -1.5850 -0.9537
 3130SOL    HW220850   2.026   4.553   2.301  0.6711 -1.3265  0.3194
 3131SOL     OW20851   4.208   2.219  13.045 -0.6064  0.1581  0.0089
 3131SOL    HW120852   4.287   2.253  13.086  0.9651 -1.0563 -2.0351
 3131SOL    HW220853   4.181   2.306  13.017  1.4895  1.0282  0.7099
 3132SOL     OW20854   3.070   1.707   7.601  0.0988 -0.3989 -0.5684
 3132SOL    HW120855   3.056   1.705   7.695  0.1606 -1.8472 -0.5851
 3132SOL    HW220856   3.095   1.798   7.587 -3.8892  1.0388  1.6269
 3133SOL     OW20857   4.183   3.957   5.267 -0.2776  0.4672 -0.3525
 3133SOL    HW120858   4.090   3.954   5.290 -0.4678  0.9886 -1.0700
 3133SOL    HW220859   4.176   3.964   5.172  0.9646  1.8362 -0.3476
 3134SOL     OW20860   4.594   3.360  16.726  0.1776  0.4745 -0.3607
 3134SOL    HW120861   4.650   3.437  16.727  0.7348  0.0697 -0.1962
 3134SOL    HW220862   4.661   3.296  16.752  2.4608  2.8039 -0.5201
 3135SOL     OW20863   1.840   3.910   2.569  1.3700 -0.7567  0.5687
 3135SOL    HW120864   1.835   3.924   2.663  2.2300 -1.4224  0.7234
 3135SOL    HW220865   1.919   3.956   2.541 -0.2921  3.3688  2.7618
 3136SOL     OW20866   3.943   3.831  12.908 -0.5349  0.0108  0.1313
 3136SOL    HW120867   4.003   3.783  12.851  0.8511  0.0336  1.5972
 3136SOL    HW220868   3.989   3.836  12.991 -1.8896 -1.5769  0.9939
 3137SOL     OW20869   2.924   4.410  13.026 -0.3071 -0.4945  0.2964
 3137SOL    HW120870   2.896   4.377  13.111  2.0499 -2.5251  0.2714
 3137SOL    HW220871   2.836   4.427  12.993 -0.6008  0.0212  1.3421
 3138SOL     OW20872   1.959   0.553   6.921  0.7681 -0.0197 -0.9563
 3138SOL    HW120873   1.881   0.608   6.912  1.6601  1.7616  2.3303
 3138SOL    HW220874   2.019   0.616   6.882  0.0950  0.7320 -0.7976
 3139SOL     OW20875   2.520   0.895   3.264 -0.1677  0.2194  0.3494
 3139SOL    HW120876   2.574   0.936   3.197  1.1451 -1.0934  0.6188
 3139SOL    HW220877   2.567   0.813   3.276 -0.3627  0.0529 -0.0361
 3140SOL     OW20878   1.390   2.143   4.267  0.2371  0.4497 -0.1509
 3140SOL    HW120879   1.329   2.196   4.215  1.2045  0.0586 -1.6651
 3140SOL    HW220880   1.331   2.083   4.313 -1.6732  0.9473 -1.9684
 3141SOL     OW20881   2.929   1.614  17.083  0.3496 -0.1193 -0.2026
 3141SOL    HW120882   2.971   1.700  17.076 -0.7824  0.5238  0.8952
 3141SOL    HW220883   2.847   1.636  17.040  0.1780  1.0435  0.6983
 3142SOL     OW20884   3.925   4.207   6.869 -0.2377  0.2895  0.6150
 3142SOL    HW120885   3.884   4.283   6.911  1.7372  1.2438  0.7827
 3142SOL    HW220886   3.893   4.221   6.780  4.4241  3.1100 -0.5934
 3143SOL     OW20887   1.301   2.479   1.801 -0.8373 -0.3217  0.4569
 3143SOL    HW120888   1.372   2.447   1.745 -1.0596  0.3119 -0.1949
 3143SOL    HW220889   1.334   2.449   1.885 -1.5509 -1.6143  0.2692
 3144SOL     OW20890   3.899   4.596  12.366  0.0709 -0.0672  0.2063
 3144SOL    HW120891   3.876   4.659  12.298  1.0974  0.2353  0.1415
 3144SOL    HW220892   3.832   4.604  12.434 -0.7766  1.1624 -0.7799
 3145SOL     OW20893   0.008   4.119   3.084  0.1774 -0.2111 -0.0910
 3145SOL    HW120894   4.643   4.114   3.128 -1.1741  2.0605 -2.4656
 3145SOL    HW220895   0.013   4.041   3.029 -4.3358 -0.4652 -0.2088
 3146SOL     OW20896   0.523   0.252  10.465  0.2936 -0.2908  0.4445
 3146SOL    HW120897   0.499   0.310  10.538  0.8430  0.6148 -0.0820
 3146SOL    HW220898   0.450   0.263  10.403  0.8363 -0.1747 -0.1776
 3147SOL     OW20899   3.672   4.432  10.793 -0.3542 -0.2594  0.3964
 3147SOL    HW120900   3.635   4.520  10.785  0.3453 -0.1691 -1.6494
 3147SOL    HW220901   3.606   4.382  10.747  1.7519  0.4049 -3.3539
 3148SOL     OW20902   3.782   2.139   2.139 -0.6381  0.1245 -0.6702
 3148SOL    HW120903   3.830   2.067   2.097  1.9414  1.0602  0.6440
 3148SOL    HW220904   3.706   2.134   2.082 -0.6151 -1.1697 -0.5953
 3149SOL     OW20905   4.297   4.648  14.469  0.1296 -0.3300 -0.0156
 3149SOL    HW120906   4.251   0.011  14.472 -2.4082 -1.7812  1.5232
 3149SOL    HW220907   4.238   4.594  14.521 -1.2457  1.9429  0.8032
 3150SOL     OW20908   0.793   0.042   7.231 -0.3928 -0.1951 -0.0866
 3150SOL    HW120909   0.795   0.058   7.325 -0.3522 -1.5730  0.1359
 3150SOL    HW220910   0.750   4.678   7.235  0.0361 -0.4177 -0.2443
 3151SOL     OW20911   0.322   3.007   5.275 -0.2155  0.2654  0.9869
 3151SOL    HW120912   0.341   2.994   5.369  3.6672  0.2407  0.2128
 3151SOL    HW220913   0.230   3.031   5.269  0.2412  1.1026 -2.2048
 3152SOL     OW20914   1.850   1.960  12.723  0.4535 -0.4456  0.2659
 3152SOL    HW120915   1.899   2.034  12.757  1.1552  0.2176 -2.1883
 3152SOL    HW220916   1.758   1.988  12.724  1.2844  2.2709 -0.1191
 3153SOL     OW20917   0.048   2.168   3.817 -0.1758 -0.8972  0.0950
 3153SOL    HW120918   0.027   2.255   3.783  2.6977  0.7901  2.6397
 3153SOL    HW220919   4.687   2.130   3.783 -0.1979  0.2481 -1.1357
 3154SOL     OW20920   2.701   1.637   5.692 -0.1305  0.2402 -0.2081
 3154SOL    HW120921   2.642   1.616   5.619 -2.0846  1.7811  0.9283
 3154SOL    HW220922   2.644   1.699   5.736  0.2352 -0.2544  0.9779
 3155SOL     OW20923   1.667   2.256   7.660  0.2320  0.1227  0.4379
 3155SOL    HW120924   1.610   2.273   7.736  0.9329 -1.0726  1.2367
 3155SOL    HW220925   1.701   2.170   7.686  1.2086  0.7840  1.3689
 3156SOL     OW20926   0.596   4.693  16.287  0.4150 -0.3499  0.3015
 3156SOL    HW120927   0.514   4.713  16.333  0.6556  1.7021 -0.1573
 3156SOL    HW220928   0.656   0.027  16.337 -0.1761  0.2669  0.3420
 3157SOL     OW20929   1.209   1.494   5.444  0.4959 -0.0454  0.1537
 3157SOL    HW120930   1.117   1.521   5.448  0.3358 -0.7323  1.0485
 3157SOL    HW220931   1.247   1.579   5.425  0.3101 -0.0693 -0.3288
 3158SOL     OW20932   0.935   0.020  13.030  0.0732  0.2792 -0.3926
 3158SOL    HW120933   0.961   4.653  13.057 -1.2564  0.3635  1.2322
 3158SOL    HW220934   0.840   0.005  13.032  0.3788 -1.8860 -1.6522
 3159SOL     OW20935   0.424   1.357   1.849 -0.4892  0.0627  0.4269
 3159SOL    HW120936   0.395   1.366   1.758 -0.0888 -0.3570  0.2595
 3159SOL    HW220937   0.517   1.334   1.853 -0.2713  1.0356  1.0593
 3160SOL     OW20938   2.940   1.419  13.787  0.2473  0.4793  0.2938
 3160SOL    HW120939   2.856   1.408  13.831 -0.8833  1.3642 -1.6491
 3160SOL    HW220940   3.000   1.376  13.849  1.8997 -0.2243 -1.8094
 3161SOL     OW20941   1.496   3.247   2.173 -0.2711 -0.1534  0.1229
 3161SOL    HW120942   1.486   3.152   2.167  0.2289 -0.0620 -2.1794
 3161SOL    HW220943   1.426   3.283   2.118 -0.5086 -0.1324  0.4424
 3162SOL     OW20944   3.154   0.361   6.055  0.3995 -0.6206  0.2955
 3162SOL    HW120945   3.116   0.398   6.135 -1.9964  0.6836 -1.4383
 3162SOL    HW220946   3.105   0.414   5.991 -0.6349  2.2818  3.4751
 3163SOL     OW20947   0.224   3.617  15.901 -0.5397  0.1918 -0.0542
 3163SOL    HW120948   0.207   3.531  15.941 -0.0358 -0.4893 -1.2912
 3163SOL    HW220949   0.260   3.589  15.817  0.9373  1.9038  0.0106
 3164SOL     OW20950   0.639   4.044   3.419  0.8409  0.1169 -0.2905
 3164SOL    HW120951   0.653   4.121   3.364 -0.7500  1.7523  1.5766
 3164SOL    HW220952   0.650   4.079   3.508 -1.6788  1.4627 -0.5132
 3165SOL     OW20953   3.825   0.868  10.754  0.0925  0.2473  0.2319
 3165SOL    HW120954   3.801   0.842  10.665 -0.8719  1.1616  0.2222
 3165SOL    HW220955   3.745   0.918  10.772  0.2295  0.6358 -0.2453
 3166SOL     OW20956   0.935   4.087   3.159  0.0731 -0.1611 -0.4705
 3166SOL    HW120957   0.892   4.153   3.104 -0.0569 -0.1700 -0.3793
 3166SOL    HW220958   0.999   4.147   3.198 -1.0793 -0.5264  1.9369
 3167SOL     OW20959   1.743   0.142   4.075 -0.2472  0.0882 -0.4740
 3167SOL    HW120960   1.791   0.219   4.043  0.3760  0.1579  0.6386
 3167SOL    HW220961   1.824   0.093   4.057 -1.1106 -1.2188 -0.7544
 3168SOL     OW20962   4.000   3.294   5.689 -0.4381  0.0700  0.3153
 3168SOL    HW120963   3.945   3.255   5.620  0.5562  1.1550 -1.0987
 3168SOL    HW220964   3.955   3.369   5.727  1.3656  0.9092  0.7881
 3169SOL     OW20965   2.202   0.402  12.836 -0.6756  0.1963  0.1338
 3169SOL    HW120966   2.204   0.451  12.918  3.2834  1.8875 -0.9689
 3169SOL    HW220967   2.248   0.459  12.774  0.1767 -1.1692 -0.5120
 3170SOL     OW20968   3.533   0.207   7.748 -0.5567 -0.0326 -0.0641
 3170SOL    HW120969   3.624   0.235   7.756 -1.1804  2.6035 -2.2789
 3170SOL    HW220970   3.553   0.113   7.750 -0.5054 -0.0240 -0.1669
 3171SOL     OW20971   3.951   3.922   3.318 -0.8269 -0.6560 -0.5394
 3171SOL    HW120972   3.879   3.882   3.270  0.0070 -2.1687 -0.5404
 3171SOL    HW220973   4.023   3.903   3.257  0.7195 -0.0072  1.0573
 3172SOL     OW20974   3.690   3.712   2.657  0.0991  0.5723  0.0504
 3172SOL    HW120975   3.762   3.737   2.599  0.3128  0.1870  0.1499
 3172SOL    HW220976   3.630   3.689   2.586  0.0939  0.3985  0.1120
 3173SOL     OW20977   2.051   0.539   4.151  0.4057  0.2745 -0.1962
 3173SOL    HW120978   2.061   0.613   4.091  0.6337  1.4256  1.2564
 3173SOL    HW220979   2.138   0.540   4.192 -0.3003 -0.1771  1.3198
 3174SOL     OW20980   2.857   3.047   2.751 -0.1356  0.5484  0.0664
 3174SOL    HW120981   2.894   3.003   2.675 -0.1628  0.2480  0.2266
 3174SOL    HW220982   2.825   2.968   2.795  0.6748  1.2763  1.9665
 3175SOL     OW20983   1.334   2.764   9.915  0.1167  0.6496  0.0560
 3175SOL    HW120984   1.362   2.769   9.823  0.1759 -0.0767  0.0362
 3175SOL    HW220985   1.333   2.669   9.931 -1.1369  0.6153 -0.2520
 3176SOL     OW20986   1.088   4.134   5.489 -0.1086 -0.1851  0.0683
 3176SOL    HW120987   1.056   4.211   5.442 -0.2524 -0.8817 -0.9724
 3176SOL    HW220988   1.169   4.168   5.527 -0.4944 -0.9836  1.6078
 3177SOL     OW20989   0.201   3.251  11.414  0.3346 -0.1260 -0.1295
 3177SOL    HW120990   0.189   3.234  11.507 -0.0619 -0.5760 -0.2600
 3177SOL    HW220991   0.198   3.346  11.416  0.2970 -0.1418  0.4523
 3178SOL     OW20992   0.587   1.191   1.482 -0.2522 -0.4539  0.2569
 3178SOL    HW120993   0.526   1.217   1.413  0.5555 -0.7230 -0.5593
 3178SOL    HW220994   0.579   1.262   1.546 -1.5245  1.8488 -2.4906
 3179SOL     OW20995   3.083   0.086  11.585 -0.2604  0.4853 -0.3649
 3179SOL    HW120996   3.178   0.071  11.583 -0.7688 -2.3602 -1.5470
 3179SOL    HW220997   3.058   0.061  11.497  0.9871 -0.2660 -0.5050
 3180SOL     OW20998   4.295   1.110   0.231 -0.3631 -0.1441 -0.0380
 3180SOL    HW120999   4.291   1.016   0.213 -0.4909 -0.0259 -0.6176
 3180SOL    HW221000   4.368   1.126   0.290  0.3460  3.5924 -1.9527
 3181SOL     OW21001   4.224   0.545   8.575 -0.7881  0.3272  0.4398
 3181SOL    HW121002   4.130   0.538   8.558 -0.3839  1.0757 -2.1516
 3181SOL    HW221003   4.260   0.508   8.494 -0.2858  0.9317  0.3862
 3182SOL     OW21004   1.393   1.712  11.097 -0.2062 -0.2213  0.3352
 3182SOL    HW121005   1.356   1.699  11.009 -0.0935 -2.8246  0.6826
 3182SOL    HW221006   1.316   1.691  11.150  0.4035 -0.1129  1.2613
 3183SOL     OW21007   4.502   0.932  11.163  0.7014 -0.1012 -0.3483
 3183SOL    HW121008   4.490   0.997  11.094  0.3024 -0.1781 -0.3497
 3183SOL    HW221009   4.415   0.912  11.197 -0.0332  1.6268 -1.2045
 3184SOL     OW21010   3.581   1.276  10.512 -0.6006  0.1608 -0.4700
 3184SOL    HW121011   3.545   1.235  10.590 -2.3336  1.9585 -0.3250
 3184SOL    HW221012   3.624   1.201  10.470 -0.8704  1.0620 -2.3800
 3185SOL     OW21013   0.332   2.864   2.772 -0.4347  0.5431  0.0500
 3185SOL    HW121014   0.310   2.801   2.702 -3.1325  0.1531  1.2393
 3185SOL    HW221015   0.385   2.801   2.821 -0.3149  0.7018  0.1218
 3186SOL     OW21016   1.573   4.441   5.766 -0.3377  0.3573  0.1362
 3186SOL    HW121017   1.666   4.458   5.751  0.4300 -1.7736  2.5814
 3186SOL    HW221018   1.542   4.441   5.675 -2.0740 -1.5595  0.7305
 3187SOL     OW21019   3.967   3.472  11.456  0.4580 -0.1752  0.1368
 3187SOL    HW121020   3.981   3.394  11.511 -0.3028 -1.1963 -1.1171
 3187SOL    HW221021   4.002   3.435  11.375 -0.9381 -1.4839  0.1319
 3188SOL     OW21022   3.663   2.704   2.194  0.6322 -0.0706  0.1969
 3188SOL    HW121023   3.575   2.671   2.180  0.1545  1.0158  0.6911
 3188SOL    HW221024   3.658   2.751   2.277 -0.0026  0.1042  0.0571
 3189SOL     OW21025   0.858   3.118   2.634 -0.0163 -0.3502 -0.2365
 3189SOL    HW121026   0.893   3.164   2.711 -0.9683  2.4305 -1.4697
 3189SOL    HW221027   0.864   3.025   2.653  1.3291  0.3593  2.9669
 3190SOL     OW21028   2.625   1.081   5.157  0.2174  0.2626  0.7385
 3190SOL    HW121029   2.529   1.089   5.159 -0.0116 -2.1946 -0.7015
 3190SOL    HW221030   2.641   1.013   5.223  2.0537 -0.7876 -0.7871
 3191SOL     OW21031   3.713   4.159   9.058  0.0660  0.0954 -0.0788
 3191SOL    HW121032   3.665   4.238   9.083  2.4175  0.8155  2.1932
 3191SOL    HW221033   3.800   4.197   9.045 -0.0829  0.4277 -0.0838
 3192SOL     OW21034   3.178   3.271   8.901 -0.5622  0.4514 -0.1263
 3192SOL    HW121035   3.226   3.322   8.965 -2.2785  1.2924  0.4858
 3192SOL    HW221036   3.093   3.312   8.885  0.8449  4.0245  1.7031
 3193SOL     OW21037   2.216   0.978   9.696  0.3802 -0.0673 -0.4331
 3193SOL    HW121038   2.247   1.044   9.757  0.0778 -1.4119  1.1677
 3193SOL    HW221039   2.137   0.944   9.738 -1.2083  1.5022 -2.1295
 3194SOL     OW21040   0.251   0.151   4.221 -0.3169 -0.1919  0.4104
 3194SOL    HW121041   0.255   0.241   4.252 -0.9672 -1.6935  4.8211
 3194SOL    HW221042   0.291   0.162   4.134 -1.4239  2.3863  0.2351
 3195SOL     OW21043   1.507   0.982   8.056  0.1825  0.1120  0.4799
 3195SOL    HW121044   1.567   1.050   8.085 -0.6557  1.3924 -0.7837
 3195SOL    HW221045   1.425   1.028   8.075  1.0078  1.8367 -0.1696
 3196SOL     OW21046   4.581   3.945   3.951 -0.0737  0.4352 -0.0260
 3196SOL    HW121047   4.651   3.938   4.015 -0.6820  1.3559  0.7363
 3196SOL    HW221048   4.510   3.914   4.008 -0.9393 -1.0586 -1.9053
 3197SOL     OW21049   0.307   0.508   2.889 -0.7711  0.4111 -0.1108
 3197SOL    HW121050   0.393   0.551   2.890  0.1482 -1.4607  1.0667
 3197SOL    HW221051   0.308   0.463   2.974 -1.3471 -0.6536 -0.6639
 3198SOL     OW21052   3.467   1.306   3.880  0.3785  0.2076  0.5922
 3198SOL    HW121053   3.478   1.249   3.956  1.7447 -2.0033 -1.2647
 3198SOL    HW221054   3.487   1.391   3.919 -1.0989  0.5722  0.5602
 3199SOL     OW21055   4.684   2.035  12.039  0.2876 -0.4848  0.2474
 3199SOL    HW121056   4.626   2.105  12.070 -1.5817 -2.3111  0.8242
 3199SOL    HW221057   4.640   1.953  12.063  0.8843  0.1270  3.4704
 3200SOL     OW21058   1.077   2.362   8.603  0.1425 -0.0798  0.6407
 3200SOL    HW121059   1.100   2.445   8.561  0.7649  0.3118  1.7666
 3200SOL    HW221060   1.080   2.305   8.526  1.9481 -1.6761  1.8743
 3201SOL     OW21061   1.286   3.085   7.207  0.2535  0.1583 -0.0808
 3201SOL    HW121062   1.254   3.030   7.278 -1.0306 -0.7848 -1.3937
 3201SOL    HW221063   1.371   3.107   7.246  0.3594 -0.7026  0.1804
 3202SOL     OW21064   4.358   3.920   9.699 -0.0203  0.1554  0.1286
 3202SOL    HW121065   4.275   3.953   9.664  0.2536  0.2126 -0.4702
 3202SOL    HW221066   4.405   3.898   9.619  2.2495  0.9415  1.2576
 3203SOL     OW21067   3.659   0.358  16.397  0.3322  0.6120 -0.4187
 3203SOL    HW121068   3.652   0.432  16.458  0.8653  0.1172  0.2426
 3203SOL    HW221069   3.733   0.305  16.427 -1.5284 -2.0871 -0.6481
 3204SOL     OW21070   0.768   1.537   0.112 -0.0931 -0.3642  0.4563
 3204SOL    HW121071   0.762   1.536   0.208 -0.5071 -0.0170  0.4315
 3204SOL    HW221072   0.796   1.445   0.108 -1.8116 -0.8812  0.2581
 3205SOL     OW21073   1.070   1.240   2.637 -0.2849  0.0485  0.3790
 3205SOL    HW121074   1.048   1.207   2.725  1.5378 -1.4704  0.2559
 3205SOL    HW221075   1.111   1.325   2.653 -1.3118  0.8478 -1.2421
 3206SOL     OW21076   1.475   3.289   3.443  0.2753  0.6676 -0.6178
 3206SOL    HW121077   1.408   3.351   3.417 -0.5184 -0.6878 -1.8546
 3206SOL    HW221078   1.547   3.348   3.463  1.7268 -0.7847 -1.4466
 3207SOL     OW21079   0.834   1.652   3.660 -0.1333  0.0624 -0.1409
 3207SOL    HW121080   0.831   1.618   3.750  1.3547 -3.3560 -1.3708
 3207SOL    HW221081   0.880   1.575   3.626  0.3608  0.2471  0.1104
 3208SOL     OW21082   0.698   1.921  14.952 -0.0097 -0.0872 -0.3018
 3208SOL    HW121083   0.709   1.835  14.913  1.7776  0.4803 -1.0447
 3208SOL    HW221084   0.654   1.973  14.885  1.8694 -0.4797 -1.8148
 3209SOL     OW21085   0.198   1.612   5.968  0.0546 -0.0266 -0.2535
 3209SOL    HW121086   0.215   1.567   5.885 -1.5701 -0.0764 -0.5527
 3209SOL    HW221087   0.127   1.568   6.013 -0.2897 -0.9141 -1.6542
 3210SOL     OW21088   1.686   0.193   2.640 -0.5068 -0.0859  0.1193
 3210SOL    HW121089   1.756   0.240   2.686  0.1965 -0.5401 -0.4890
 3210SOL    HW221090   1.739   0.164   2.565 -1.5387  2.0285 -1.4296
 3211SOL     OW21091   3.468   2.835   5.433 -0.0093  0.8321  0.7232
 3211SOL    HW121092   3.431   2.784   5.505  0.1896 -0.9510 -0.4325
 3211SOL    HW221093   3.557   2.848   5.466  0.1101 -1.6559  1.3816
 3212SOL     OW21094   2.981   1.861   5.946  0.0642 -0.3523 -0.1179
 3212SOL    HW121095   2.966   1.810   5.867 -0.6490 -1.3494  0.6663
 3212SOL    HW221096   3.049   1.815   5.995 -0.4588 -2.1137 -1.0578
 3213SOL     OW21097   2.626   4.676   0.653  0.5765  0.1751 -0.2282
 3213SOL    HW121098   2.562   4.608   0.671  0.0316  0.2313 -1.9216
 3213SOL    HW221099   2.687   4.629   0.596 -0.4730 -1.2554 -0.1497
 3214SOL     OW21100   2.090   1.147   7.930  0.1523 -0.4202 -0.4915
 3214SOL    HW121101   2.158   1.124   7.993  0.6979  1.7369 -0.2897
 3214SOL    HW221102   2.122   1.236   7.910  0.2459 -0.4982 -0.6898
 3215SOL     OW21103   0.656   1.968   2.977 -0.3474  0.1870 -0.2354
 3215SOL    HW121104   0.749   1.982   2.965 -0.1240  0.4026  1.8299
 3215SOL    HW221105   0.648   1.990   3.070 -4.6353  1.3871 -0.8797
 3216SOL     OW21106   0.942   3.773   5.035 -0.3240 -0.1985  0.0867
 3216SOL    HW121107   0.881   3.808   4.970  0.2090 -0.1343 -0.3707
 3216SOL    HW221108   0.985   3.850   5.072 -1.5479 -0.2118  1.5792
 3217SOL     OW21109   1.760   1.729  16.325  0.1132  0.0146  0.3286
 3217SOL    HW121110   1.733   1.818  16.347  2.0770 -0.0553  2.9683
 3217SOL    HW221111   1.674   1.687  16.332 -1.1069  2.6014  0.9346
 3218SOL     OW21112   0.566   2.194   6.541  0.0458  0.6529 -0.1533
 3218SOL    HW121113   0.647   2.201   6.592  0.1151  0.6589 -0.2666
 3218SOL    HW221114   0.574   2.271   6.486 -1.5921  1.7486  1.1400
 3219SOL     OW21115   4.076   2.766  13.176  0.5568 -0.0639 -0.4610
 3219SOL    HW121116   4.157   2.727  13.143  1.2529  1.5135 -0.5979
 3219SOL    HW221117   4.121   2.831  13.230 -1.1112  0.6145  0.1015
 3220SOL     OW21118   2.698   3.165   1.024  0.8219  0.3447 -0.1983
 3220SOL    HW121119   2.605   3.144   1.014  0.8475 -0.2062  0.7350
 3220SOL    HW221120   2.699   3.201   1.113  0.6187  2.6437 -1.1091
 3221SOL     OW21121   4.375   4.122   1.847 -0.2102 -0.2029  0.3175
 3221SOL    HW121122   4.424   4.180   1.905 -1.1427  0.0862  0.8267
 3221SOL    HW221123   4.448   4.107   1.787  0.1055  0.6398  0.4921
 3222SOL     OW21124   3.613   1.566  13.466 -0.0611  0.3395 -0.3567
 3222SOL    HW121125   3.560   1.645  13.458  0.5834  0.7280 -0.7154
 3222SOL    HW221126   3.679   1.581  13.398  0.8372 -0.6303  0.3145
 3223SOL     OW21127   1.264   0.384  12.583  0.6051  0.3217 -0.5871
 3223SOL    HW121128   1.358   0.397  12.570  0.4649  2.0686  0.1859
 3223SOL    HW221129   1.232   0.367  12.494 -1.5126  1.6623 -0.0867
 3224SOL     OW21130   4.309   1.868   4.753 -0.0357  0.0356 -0.6109
 3224SOL    HW121131   4.291   1.901   4.665  1.0066 -0.1993 -0.9182
 3224SOL    HW221132   4.308   1.773   4.744 -2.5576  0.0618 -0.6136
 3225SOL     OW21133   2.148   2.776   1.165 -0.2591 -0.9341  0.6188
 3225SOL    HW121134   2.161   2.871   1.160  0.6545 -1.0802  0.2081
 3225SOL    HW221135   2.231   2.738   1.192  0.3757 -0.7403 -1.0127
 3226SOL     OW21136   3.106   1.777   6.495 -0.8216 -0.0467  0.0889
 3226SOL    HW121137   3.078   1.686   6.504 -0.8456 -0.0801 -0.3083
 3226SOL    HW221138   3.195   1.770   6.530 -1.1231  0.2202  0.9110
 3227SOL     OW21139   0.437   2.485  10.233  0.5077 -0.3432 -0.2328
 3227SOL    HW121140   0.504   2.494  10.301 -1.0195  2.2098  0.9167
 3227SOL    HW221141   0.363   2.499  10.292  0.3086  1.1752 -0.8534
 3228SOL     OW21142   1.582   4.468   0.653 -0.3514  0.3432  0.9483
 3228SOL    HW121143   1.537   4.548   0.681 -1.8597 -0.5386  1.0172
 3228SOL    HW221144   1.505   4.419   0.626  0.1645  0.5645 -0.9690
 3229SOL     OW21145   3.031   0.767   2.493 -0.1350 -0.0606 -0.0554
 3229SOL    HW121146   2.995   0.789   2.579 -1.0975  0.4849 -0.5954
 3229SOL    HW221147   3.113   0.815   2.500 -0.7363  0.7263  1.5685
 3230SOL     OW21148   4.471   4.199   0.393 -0.2933  0.2899 -0.3455
 3230SOL    HW121149   4.406   4.213   0.462 -2.9354 -1.9091 -2.3991
 3230SOL    HW221150   4.422   4.178   0.314  2.0762 -1.0933 -1.4503
 3231SOL     OW21151   2.621   0.219  10.677 -1.0732 -0.1909  0.1247
 3231SOL    HW121152   2.707   0.178  10.684 -0.3327  1.0251 -1.8126
 3231SOL    HW221153   2.579   0.166  10.609  1.7444 -0.7898 -1.1205
 3232SOL     OW21154   1.386   3.982  14.315 -0.5330 -0.2528 -0.0602
 3232SOL    HW121155   1.447   4.044  14.355 -0.2367 -0.3906 -0.2971
 3232SOL    HW221156   1.418   3.987  14.225  0.2791  0.2663  0.2590
 3233SOL     OW21157   3.446   4.033  10.639  0.0787 -0.3721 -0.0137
 3233SOL    HW121158   3.529   3.988  10.655  1.4159  1.8447 -0.6922
 3233SOL    HW221159   3.476   4.104  10.583  2.1079 -1.2136 -0.0114
 3234SOL     OW21160   0.027   1.212   5.470 -0.5440 -0.4359  0.6050
 3234SOL    HW121161   0.085   1.183   5.400 -1.6661  1.2886 -1.0348
 3234SOL    HW221162   4.711   1.129   5.501  0.6231 -1.1220  0.1760
 3235SOL     OW21163   0.749   4.619   8.478  0.4176 -0.1163  0.2960
 3235SOL    HW121164   0.713   4.562   8.545 -0.6100  0.0529 -0.1100
 3235SOL    HW221165   0.760   4.700   8.528 -0.7961 -0.3035  0.8560
 3236SOL     OW21166   0.262   0.669   3.335  0.8654  0.3409  1.0112
 3236SOL    HW121167   0.251   0.707   3.422 -0.6724  1.6939  0.2160
 3236SOL    HW221168   0.340   0.620   3.360  1.1783  0.2406 -0.1459
 3237SOL     OW21169   2.452   2.683   5.569  0.4372  0.1481 -0.0079
 3237SOL    HW121170   2.478   2.592   5.560 -2.1251 -0.8099  2.1687
 3237SOL    HW221171   2.365   2.679   5.528 -0.6357  0.5692  2.1879
 3238SOL     OW21172   0.492   3.934   6.364 -0.0374 -0.0490 -0.7166
 3238SOL    HW121173   0.569   3.965   6.414 -0.8398  0.3562  0.2723
 3238SOL    HW221174   0.421   3.970   6.417 -1.3104 -2.8944 -0.4902
 3239SOL     OW21175   4.419   3.585   1.165  0.7483 -0.1374  0.0770
 3239SOL    HW121176   4.403   3.500   1.206 -2.3996  0.8632  0.9745
 3239SOL    HW221177   4.381   3.639   1.235 -2.0627 -1.6880 -0.2275
 3240SOL     OW21178   2.891   4.218   7.212  0.0333  0.2460 -0.2248
 3240SOL    HW121179   2.943   4.182   7.141  0.1067 -1.4482  0.6933
 3240SOL    HW221180   2.806   4.241   7.174 -1.3595 -2.7553  1.1294
 3241SOL     OW21181   4.587   3.083   4.422 -0.2313  0.3829 -0.2621
 3241SOL    HW121182   4.493   3.090   4.407 -0.4736 -2.9327 -0.3301
 3241SOL    HW221183   4.600   3.104   4.515 -0.5273  2.3806 -0.6607
 3242SOL     OW21184   2.890   0.501   0.077  0.1666 -0.3151 -0.1033
 3242SOL    HW121185   2.922   0.522  17.675 -0.9455  3.1792  0.3403
 3242SOL    HW221186   2.804   0.466   0.055 -0.3172  0.0446  1.2882
 3243SOL     OW21187   2.878   3.241   4.726 -1.1787 -0.4782  0.2013
 3243SOL    HW121188   2.808   3.182   4.756  0.3674 -1.2625  2.2790
 3243SOL    HW221189   2.943   3.171   4.735 -0.2405  0.1766 -1.5801
 3244SOL     OW21190   2.209   1.235  14.109 -0.4197 -0.4515  1.0679
 3244SOL    HW121191   2.154   1.217  14.185 -0.9468 -0.9002  0.5787
 3244SOL    HW221192   2.228   1.144  14.087  0.8858 -0.2368  1.3093
 3245SOL     OW21193   1.115   0.373   2.192  0.2663  0.3027 -0.4142
 3245SOL    HW121194   1.024   0.341   2.192  0.1657  0.5860  0.2358
 3245SOL    HW221195   1.140   0.374   2.100  0.6588  2.0875 -0.2866
 3246SOL     OW21196   3.614   1.757   6.190 -0.0195  0.0373 -0.8243
 3246SOL    HW121197   3.670   1.706   6.248  1.2574  0.2386 -1.8811
 3246SOL    HW221198   3.537   1.792   6.235 -0.8845  0.1821 -2.3846
 3247SOL     OW21199   4.575   0.231   7.183  0.5153 -0.0440 -0.0937
 3247SOL    HW121200   4.504   0.168   7.166  1.0631 -1.0410  1.3097
 3247SOL    HW221201   4.602   0.206   7.271 -1.7529  2.6655  1.3650
 3248SOL     OW21202   4.150   3.668   6.816 -0.4074 -0.4825  0.4482
 3248SOL    HW121203   4.125   3.756   6.845 -1.5331 -1.3875  2.1642
 3248SOL    HW221204   4.221   3.655   6.879  0.6174 -0.0959 -0.6249
 3249SOL     OW21205   2.857   3.019   8.794  0.2661 -0.5195  0.4248
 3249SOL    HW121206   2.794   3.060   8.736  0.7552 -0.7823 -0.2906
 3249SOL    HW221207   2.817   3.042   8.878 -0.2461 -1.6717  0.5005
 3250SOL     OW21208   3.582   3.230   2.813 -0.0583 -0.5059  0.2326
 3250SOL    HW121209   3.621   3.313   2.841 -0.5768 -0.9044  2.1259
 3250SOL    HW221210   3.581   3.238   2.718  0.1265  0.8273  0.3435
 3251SOL     OW21211   0.900   1.358   1.365 -0.1779  0.3431  0.3219
 3251SOL    HW121212   0.988   1.322   1.351 -0.5231 -0.0166 -0.8863
 3251SOL    HW221213   0.858   1.288   1.414 -1.0521  1.9978  1.9406
 3252SOL     OW21214   3.050   3.533   7.395 -0.3610 -0.2448  1.2620
 3252SOL    HW121215   3.006   3.458   7.434 -1.5415 -0.4246 -0.4629
 3252SOL    HW221216   2.974   3.589   7.383 -1.3214 -1.7432  0.4406
 3253SOL     OW21217   2.400   2.967   7.559 -0.1399  0.2050 -0.0446
 3253SOL    HW121218   2.333   2.909   7.596  0.1097 -0.6272 -0.9031
 3253SOL    HW221219   2.481   2.934   7.598  0.1292  2.1692  1.0506
 3254SOL     OW21220   0.259   2.448   4.393  0.0121  0.8151  0.3926
 3254SOL    HW121221   0.236   2.359   4.363  0.3981  1.7084 -2.5401
 3254SOL    HW221222   0.327   2.482   4.336 -1.6519  1.2156 -1.3871
 3255SOL     OW21223   1.701   2.604   8.527  0.3817 -0.5798  0.1974
 3255SOL    HW121224   1.738   2.521   8.556  0.2770 -0.5272  0.4740
 3255SOL    HW221225   1.613   2.604   8.564 -0.1069 -0.6632 -0.9484
 3256SOL     OW21226   4.279   3.308   4.117 -0.4935  0.3406 -0.1993
 3256SOL    HW121227   4.197   3.293   4.071 -0.6518  0.9300 -0.1072
 3256SOL    HW221228   4.252   3.349   4.199  2.4430 -1.0738  1.4811
 3257SOL     OW21229   3.112   3.213   2.359  0.6301  0.1387  0.2003
 3257SOL    HW121230   3.044   3.269   2.322  1.6882  0.6469 -0.9719
 3257SOL    HW221231   3.108   3.137   2.301 -0.1315 -0.6930  1.3354
 3258SOL     OW21232   2.851   1.744  13.887  0.6700 -0.1381  0.4137
 3258SOL    HW121233   2.908   1.675  13.921  1.6641 -0.3250 -1.6480
 3258SOL    HW221234   2.762   1.733  13.920  1.4984 -1.2522  2.2898
 3259SOL     OW21235   4.229   3.606   4.294 -0.0124  0.2420  0.6881
 3259SOL    HW121236   4.277   3.617   4.212  0.3202  0.0642  0.8588
 3259SOL    HW221237   4.187   3.692   4.296 -1.6980 -0.4969 -3.6636
 3260SOL     OW21238   2.843   3.548  14.903  0.1774 -0.8060 -0.6596
 3260SOL    HW121239   2.930   3.519  14.875  1.0744 -1.3367  2.6807
 3260SOL    HW221240   2.834   3.630  14.854  0.8453 -0.8298 -0.8204
 3261SOL     OW21241   1.680   2.835  16.096  0.4502 -0.6225 -0.4355
 3261SOL    HW121242   1.730   2.915  16.077  1.9611 -1.5972 -0.5236
 3261SOL    HW221243   1.724   2.769  16.043  0.2397 -0.2374 -1.1053
 3262SOL     OW21244   3.559   3.781   5.285 -0.2173  0.3756 -0.1398
 3262SOL    HW121245   3.555   3.875   5.265 -1.7494  0.3793  0.1690
 3262SOL    HW221246   3.481   3.780   5.339 -0.5312  0.6571 -0.5834
 3263SOL     OW21247   3.877   1.881   5.326 -0.1519 -0.0785 -0.0008
 3263SOL    HW121248   3.863   1.974   5.312  0.1583  0.2341  1.7145
 3263SOL    HW221249   3.972   1.883   5.338 -0.0877 -2.6893  0.0351
 3264SOL     OW21250   1.514   1.577   9.018 -0.1572 -0.8643  0.2692
 3264SOL    HW121251   1.567   1.539   9.089  1.4836 -1.2223 -1.1297
 3264SOL    HW221252   1.489   1.497   8.973 -1.5342  0.2818 -0.9778
 3265SOL     OW21253   2.676   4.113   6.392 -0.1613  0.2018 -0.1088
 3265SOL    HW121254   2.743   4.052   6.361 -1.3493 -2.5099  2.6526
 3265SOL    HW221255   2.618   4.042   6.419 -1.9443  2.3981  1.9271
 3266SOL     OW21256   3.755   2.895   7.482 -0.3838 -0.0229 -0.0240
 3266SOL    HW121257   3.754   2.975   7.428 -0.6819 -0.3081 -0.4420
 3266SOL    HW221258   3.672   2.854   7.460 -0.3206 -0.1375 -0.0467
 3267SOL     OW21259   1.961   2.393   6.869  0.4271  0.2012  0.0331
 3267SOL    HW121260   1.906   2.335   6.921 -2.5226  1.5052 -1.6095
 3267SOL    HW221261   2.021   2.437   6.929  0.4621  2.1202 -1.3986
 3268SOL     OW21262   4.223   0.101   3.832 -0.2969 -0.1342  0.4179
 3268SOL    HW121263   4.145   0.120   3.779  0.6441  0.8931 -0.5710
 3268SOL    HW221264   4.296   0.114   3.771 -1.4730  2.2162 -0.4969
 3269SOL     OW21265   1.532   2.287   7.445 -0.3085  0.7561  0.3361
 3269SOL    HW121266   1.592   2.282   7.520 -1.5257 -1.3064  1.1980
 3269SOL    HW221267   1.567   2.365   7.404  1.3226  0.7066  1.6424
 3270SOL     OW21268   4.533   4.362   6.859 -0.3648 -0.2054  0.0149
 3270SOL    HW121269   4.627   4.356   6.876 -0.8425 -0.8639  2.3801
 3270SOL    HW221270   4.544   4.376   6.765 -0.5675 -1.3849 -0.1727
 3271SOL     OW21271   3.647   1.353   9.901 -0.8237 -0.5261 -0.6671
 3271SOL    HW121272   3.558   1.388   9.889 -1.0192 -0.0723  2.0289
 3271SOL    HW221273   3.676   1.387   9.986 -0.5355  0.1548 -1.0416
 3272SOL     OW21274   3.766   0.011   5.508  0.0954 -0.0592  0.2675
 3272SOL    HW121275   3.790   4.656   5.454  0.9923  0.6411 -0.3085
 3272SOL    HW221276   3.852   0.053   5.510 -0.3598  0.8273  1.4603
 3273SOL     OW21277   2.633   0.377   6.522  0.4191 -0.5809  0.4864
 3273SOL    HW121278   2.538   0.377   6.519  0.4044 -1.3894  0.9237
 3273SOL    HW221279   2.648   0.316   6.594 -0.6254  1.4285  2.4193
 3274SOL     OW21280   4.694   2.281  12.276  0.2317 -0.0934  0.4769
 3274SOL    HW121281   4.618   2.250  12.228 -1.6832  0.0686  3.4128
 3274SOL    HW221282   4.678   2.227  12.353 -1.1784 -2.2628 -1.3279
 3275SOL     OW21283   0.102   4.478  15.123 -0.6581 -0.5867  0.5735
 3275SOL    HW121284   0.137   4.500  15.037  1.2327 -2.7645  0.7766
 3275SOL    HW221285   0.182   4.440  15.160  1.4435  1.6577 -1.6880
 3276SOL     OW21286   0.940   2.019   6.986  0.4561  0.5363 -0.1683
 3276SOL    HW121287   0.981   1.955   7.045 -0.4744 -1.6178 -1.8419
 3276SOL    HW221288   0.952   1.980   6.900 -0.3541  1.9040 -0.9054
 3277SOL     OW21289   0.194   2.400   2.133 -0.2346  0.4265 -0.1612
 3277SOL    HW121290   0.285   2.372   2.133  0.5217  2.8164  2.2276
 3277SOL    HW221291   0.205   2.457   2.209  2.3473 -0.7318  0.3281
 3278SOL     OW21292   4.290   2.958  16.277 -0.0277 -0.1845 -0.3419
 3278SOL    HW121293   4.310   3.052  16.280 -1.3696  0.0461  1.3100
 3278SOL    HW221294   4.302   2.933  16.186 -2.1870 -1.7172 -0.2009
 3279SOL     OW21295   2.800   4.646   7.178 -0.3784  0.1608  0.4909
 3279SOL    HW121296   2.789   4.586   7.104  0.8961  0.0861  0.3577
 3279SOL    HW221297   2.805   4.593   7.258 -0.9120  0.2978  0.6148
 3280SOL     OW21298   0.742   2.497   8.765  0.4313 -0.0536 -0.0656
 3280SOL    HW121299   0.740   2.529   8.675  0.0416  2.0693  0.7045
 3280SOL    HW221300   0.822   2.446   8.775  0.5756  0.0039 -0.8702
 3281SOL     OW21301   1.585   2.011  15.317  0.4064  0.1629 -0.0623
 3281SOL    HW121302   1.607   2.024  15.225  1.1555  1.6559  0.3158
 3281SOL    HW221303   1.666   1.982  15.360  0.0190 -0.6533  0.1251
 3282SOL     OW21304   2.093   1.444  11.144 -0.1562 -0.2723  0.2111
 3282SOL    HW121305   2.030   1.498  11.096  0.7756  0.2634 -0.4046
 3282SOL    HW221306   2.082   1.464  11.237  0.1245 -0.4504  0.2839
 3283SOL     OW21307   0.159   0.135   3.220  0.5139 -0.5995 -0.3749
 3283SOL    HW121308   0.210   0.124   3.139  1.0875 -1.3626  0.0909
 3283SOL    HW221309   0.105   0.058   3.204 -1.3540  0.4912  0.7865
 3284SOL     OW21310   1.596   3.189   6.864 -0.0255 -0.3734  0.1454
 3284SOL    HW121311   1.633   3.253   6.925 -1.1355 -0.4567  0.9188
 3284SOL    HW221312   1.636   3.106   6.892 -0.7861 -0.9347 -0.3982
 3285SOL     OW21313   0.645   2.741   7.710 -0.2438  0.0621 -0.0899
 3285SOL    HW121314   0.635   2.653   7.675  0.1521  0.1172 -0.3453
 3285SOL    HW221315   0.552   2.764   7.711 -0.0649  0.7783  0.2711
 3286SOL     OW21316   2.857   1.838  12.987  0.3597 -0.3762 -0.1185
 3286SOL    HW121317   2.840   1.747  13.011  0.3145  0.5477  3.4493
 3286SOL    HW221318   2.823   1.854  12.899  0.2798  3.0093  0.5388
 3287SOL     OW21319   1.334   1.490   4.266 -0.5047  0.2535  0.3200
 3287SOL    HW121320   1.279   1.417   4.293  0.2698 -0.1751  0.7418
 3287SOL    HW221321   1.370   1.448   4.188 -2.3334  1.9547 -1.4485
 3288SOL     OW21322   0.218   0.810  12.179 -0.0682  0.4302 -0.6087
 3288SOL    HW121323   0.201   0.806  12.085  0.4202 -0.1194 -0.6716
 3288SOL    HW221324   0.292   0.870  12.179  1.2218 -1.1715 -1.2774
 3289SOL     OW21325   0.536   1.273  15.763  0.2383  0.2139 -0.3177
 3289SOL    HW121326   0.511   1.284  15.671 -1.5001  1.1447  0.2761
 3289SOL    HW221327   0.478   1.341  15.797 -0.8486 -1.0599  0.3460
 3290SOL     OW21328   2.082   4.352   7.073  0.0717 -0.2669 -0.6474
 3290SOL    HW121329   1.989   4.333   7.059  0.4550 -2.0840 -0.6037
 3290SOL    HW221330   2.094   4.423   7.009 -0.2377 -0.3441 -0.7906
 3291SOL     OW21331   1.815   4.589   5.782  0.3522  0.2799 -0.0600
 3291SOL    HW121332   1.888   4.595   5.720  1.6008  1.7954  1.5788
 3291SOL    HW221333   1.822   4.662   5.842  0.1675  1.8997 -2.0206
 3292SOL     OW21334   2.289   1.712   2.109  0.3802  0.1221  0.0210
 3292SOL    HW121335   2.314   1.793   2.064  1.0184  1.0195  2.0233
 3292SOL    HW221336   2.196   1.728   2.120  0.6322  1.2923  0.4342
 3293SOL     OW21337   4.366   0.229   5.944 -0.6591  0.0681  0.0494
 3293SOL    HW121338   4.448   0.241   5.992 -1.3674  3.2418  0.4487
 3293SOL    HW221339   4.358   0.323   5.926  1.2440 -0.1422 -1.9182
 3294SOL     OW21340   2.408   1.619   5.235 -0.2363 -0.1406  0.0768
 3294SOL    HW121341   2.313   1.616   5.220 -0.3828  2.6400  0.4236
 3294SOL    HW221342   2.444   1.593   5.150  1.1764  1.2036  0.2885
 3295SOL     OW21343   3.261   1.810   7.899 -0.4489  0.0043 -0.9132
 3295SOL    HW121344   3.302   1.837   7.817  1.2184 -1.8409 -0.6861
 3295SOL    HW221345   3.308   1.863   7.963 -0.9753  0.4235 -0.8678
 3296SOL     OW21346   1.296   4.027  10.395 -0.1344 -0.1218  0.3347
 3296SOL    HW121347   1.252   4.112  10.383  0.1769  0.1458  1.0581
 3296SOL    HW221348   1.229   3.978  10.442  0.1565 -0.0827  0.7972
 3297SOL     OW21349   0.261   1.961  15.992 -0.4085  0.2227 -0.2071
 3297SOL    HW121350   0.244   1.996  15.904 -2.2837  0.4576  0.2599
 3297SOL    HW221351   0.177   1.918  16.007  0.1700 -1.4236 -1.5904
 3298SOL     OW21352   1.307   4.072   3.677  0.0297 -0.5722 -0.6362
 3298SOL    HW121353   1.342   3.987   3.704  1.5830  1.1206  2.5757
 3298SOL    HW221354   1.218   4.043   3.698 -0.3769  0.8918 -0.3212
 3299SOL     OW21355   2.232   1.646  11.903 -0.2559 -0.0757 -0.2336
 3299SOL    HW121356   2.266   1.644  11.993 -1.1290  0.5753  0.1085
 3299SOL    HW221357   2.315   1.643  11.856  0.3083  1.4172  0.6486
 3300SOL     OW21358   3.045   0.555  15.904 -0.2958 -0.0973 -0.4258
 3300SOL    HW121359   2.989   0.556  15.826 -0.5203  0.0697 -0.2646
 3300SOL    HW221360   3.131   0.560  15.863 -0.6706 -0.0082 -1.1923
 3301SOL     OW21361   2.766   0.195   4.544 -0.5349  0.2610 -0.1804
 3301SOL    HW121362   2.710   0.243   4.605  1.5326  3.2760 -0.6711
 3301SOL    HW221363   2.711   0.182   4.467  1.3874 -0.6247 -1.4092
 3302SOL     OW21364   4.333   2.785   8.368  0.5842 -0.2016  0.3392
 3302SOL    HW121365   4.323   2.866   8.319  1.2558 -1.5225 -1.9901
 3302SOL    HW221366   4.387   2.821   8.439  1.8799 -3.6052  1.0660
 3303SOL     OW21367   3.393   2.065   3.741 -0.3331 -0.2481 -0.2549
 3303SOL    HW121368   3.319   2.061   3.681  0.4703  1.1166 -1.3376
 3303SOL    HW221369   3.463   2.022   3.692 -0.3072 -0.6192  0.1125
 3304SOL     OW21370   4.264   2.293   4.469  0.3002 -0.0915  0.4787
 3304SOL    HW121371   4.190   2.234   4.450 -0.2879 -0.0404  2.5651
 3304SOL    HW221372   4.305   2.243   4.541  1.0388 -0.0178  0.1065
 3305SOL     OW21373   0.583   0.717  16.143  0.0507 -0.1063  0.0532
 3305SOL    HW121374   0.636   0.759  16.074 -1.1548 -0.3234 -1.0096
 3305SOL    HW221375   0.552   0.800  16.179 -0.7575 -0.8253  0.9927
 3306SOL     OW21376   0.941   3.847   6.299 -0.4782  0.3448 -0.8491
 3306SOL    HW121377   0.921   3.763   6.259  0.6446 -0.8848  1.1711
 3306SOL    HW221378   1.012   3.865   6.238 -0.9257 -2.1081 -2.0764
 3307SOL     OW21379   2.651   4.189  14.831 -0.4316  0.3200 -0.2091
 3307SOL    HW121380   2.663   4.238  14.912 -1.1360  0.2434 -0.0549
 3307SOL    HW221381   2.711   4.116  14.844  0.1964  0.8041 -0.3853
 3308SOL     OW21382   4.074   2.497   5.187  0.4631  0.3548  0.2149
 3308SOL    HW121383   4.023   2.521   5.109  2.3870 -0.0548 -1.1710
 3308SOL    HW221384   4.164   2.525   5.169  0.3559  0.9573  0.6108
 3309SOL     OW21385   4.225   2.722  10.680  0.2766  0.7605 -0.4090
 3309SOL    HW121386   4.291   2.722  10.611  2.2547 -2.7427  1.4746
 3309SOL    HW221387   4.216   2.815  10.701 -1.1605  0.7091 -0.7794
 3310SOL     OW21388   3.238   4.545   9.060  0.1902 -0.1417 -0.3693
 3310SOL    HW121389   3.240   4.521   8.968  0.7307 -0.1494 -0.3510
 3310SOL    HW221390   3.202   4.462   9.091 -0.2917 -0.5098 -1.9272
 3311SOL     OW21391   3.693   1.086   1.937 -0.1780  0.1843 -0.1463
 3311SOL    HW121392   3.666   1.071   1.846  1.1675  0.5641 -0.6081
 3311SOL    HW221393   3.699   0.993   1.959 -1.6993  0.2477  0.5705
 3312SOL     OW21394   1.066   3.766   6.846  0.7214 -0.0497  0.4302
 3312SOL    HW121395   1.039   3.728   6.763  0.4295  0.1065  0.4523
 3312SOL    HW221396   0.984   3.806   6.874  0.4892 -0.0692 -0.2245
 3313SOL     OW21397   3.388   2.005  15.250 -0.0908  0.1020  0.0341
 3313SOL    HW121398   3.320   2.067  15.277  0.0982  0.2598  0.1487
 3313SOL    HW221399   3.456   2.071  15.241 -0.6345  0.5846 -0.5453
 3314SOL     OW21400   1.820   0.104   7.263 -0.4261 -0.3871  0.5005
 3314SOL    HW121401   1.759   0.169   7.228 -1.2033 -3.0238 -2.9776
 3314SOL    HW221402   1.773   0.021   7.264 -0.4436 -0.3945 -1.6762
 3315SOL     OW21403   0.672   2.632   6.103  0.1228 -0.5509 -0.0288
 3315SOL    HW121404   0.580   2.657   6.088  0.5733  1.2623  0.3083
 3315SOL    HW221405   0.664   2.616   6.197 -0.2961  0.9076  0.1868
 3316SOL     OW21406   3.737   0.593   2.541  0.0320  0.1748 -0.1520
 3316SOL    HW121407   3.675   0.618   2.610 -0.5997 -1.3945 -0.1534
 3316SOL    HW221408   3.735   0.499   2.558  0.0649 -0.0609 -1.4379
 3317SOL     OW21409   0.204   2.347  12.165  0.3550  0.3213  0.4632
 3317SOL    HW121410   0.132   2.325  12.225  1.3340 -1.4901  0.9677
 3317SOL    HW221411   0.180   2.299  12.086  0.4995  1.0651 -0.0313
 3318SOL     OW21412   2.937   2.553  15.094  0.0094 -0.6496  0.1186
 3318SOL    HW121413   3.019   2.589  15.128 -0.0253 -0.4270 -0.0302
 3318SOL    HW221414   2.971   2.467  15.071 -0.0983 -0.9342  1.0163
 3319SOL     OW21415   3.031   0.788  17.553 -0.2676  0.3174 -0.0709
 3319SOL    HW121416   3.049   0.798  17.459 -0.5119 -0.5702 -0.2145
 3319SOL    HW221417   3.093   0.724  17.588 -0.1226  0.2163 -0.5136
 3320SOL     OW21418   2.607   2.630   1.813  0.2300 -0.2046  0.6479
 3320SOL    HW121419   2.602   2.720   1.847  2.1934 -0.0681  0.5296
 3320SOL    HW221420   2.514   2.608   1.800 -0.0233  1.0890  0.1735
 3321SOL     OW21421   0.313   0.330   4.982  0.5916  0.5453  0.3307
 3321SOL    HW121422   0.267   0.249   5.003 -1.2255  1.6057  0.4918
 3321SOL    HW221423   0.336   0.326   4.889  1.1851  3.8157  0.3146
 3322SOL     OW21424   1.074   3.547  15.754  0.2076  0.0014 -0.6069
 3322SOL    HW121425   1.105   3.511  15.837 -2.2132 -0.1227  0.2620
 3322SOL    HW221426   1.153   3.576  15.710  2.3383 -1.3555  2.3320
 3323SOL     OW21427   1.179   0.836   1.405 -0.5364 -0.3394  0.0144
 3323SOL    HW121428   1.106   0.784   1.440 -0.6263 -1.7172 -2.2283
 3323SOL    HW221429   1.248   0.814   1.468  0.2576 -1.9282 -1.3935
 3324SOL     OW21430   3.413   0.990   6.551  0.2331 -0.0771 -0.6430
 3324SOL    HW121431   3.397   1.084   6.560  0.5358 -0.3160  2.5854
 3324SOL    HW221432   3.509   0.983   6.552  0.2200  0.0017  1.0743
 3325SOL     OW21433   2.742   2.158   4.717  0.2312 -0.0485 -0.0414
 3325SOL    HW121434   2.794   2.141   4.796 -0.3509 -1.4333  0.0572
 3325SOL    HW221435   2.754   2.076   4.669  2.5203  0.2415  0.0470
 3326SOL     OW21436   3.169   2.531  13.953  0.3820  0.2241  0.0356
 3326SOL    HW121437   3.184   2.603  14.014  1.9000 -0.4239  0.4321
 3326SOL    HW221438   3.074   2.537  13.952  0.2852 -0.6924  3.5481
 3327SOL     OW21439   0.607   3.841  11.732  0.2738 -0.5156 -0.8333
 3327SOL    HW121440   0.585   3.861  11.823  1.4639 -0.3027 -0.5868
 3327SOL    HW221441   0.702   3.833  11.736  0.6173  2.2201 -4.2151
 3328SOL     OW21442   0.931   2.954  13.153  0.3658 -0.0867  0.2006
 3328SOL    HW121443   0.993   3.026  13.170 -1.0921  0.9427  1.1200
 3328SOL    HW221444   0.978   2.876  13.181  0.8795  0.2863  0.3849
 3329SOL     OW21445   2.118   3.099   5.852 -0.8824 -0.3404 -0.5644
 3329SOL    HW121446   2.044   3.050   5.886 -0.4070  1.1181  2.6410
 3329SOL    HW221447   2.085   3.189   5.859  2.9206  0.9372  1.2532
 3330SOL     OW21448   1.524   2.140   0.947  0.0066  0.0929  0.2477
 3330SOL    HW121449   1.493   2.081   1.015 -0.2072 -0.6953 -0.5368
 3330SOL    HW221450   1.618   2.120   0.953  0.3572  1.8233  0.4329
 3331SOL     OW21451   1.797   2.233   5.823  0.0427 -0.1755  0.3581
 3331SOL    HW121452   1.707   2.207   5.838  0.2638 -1.2039 -0.1195
 3331SOL    HW221453   1.829   2.189   5.902 -0.8734  2.4014  2.1628
 3332SOL     OW21454   4.379   0.064   9.213  0.8955  0.0791  0.6365
 3332SOL    HW121455   4.429   4.706   9.192  1.7072  0.9986 -0.8115
 3332SOL    HW221456   4.453   0.123   9.225 -0.1776  1.6777 -0.6806
 3333SOL     OW21457   0.196   1.958   4.392  0.5417 -0.4808  0.6772
 3333SOL    HW121458   0.267   1.947   4.329  1.4218  0.9431  1.4138
 3333SOL    HW221459   0.194   1.870   4.430 -0.5544 -1.5628 -1.8548
 3334SOL     OW21460   1.339   3.630   2.063 -0.2408 -0.2158  0.4188
 3334SOL    HW121461   1.280   3.563   2.097 -0.3064 -0.4779 -0.2197
 3334SOL    HW221462   1.372   3.666   2.146  0.4724 -0.5646  0.2903
 3335SOL     OW21463   1.906   0.645   1.036 -0.0298  0.0544 -0.0641
 3335SOL    HW121464   1.953   0.669   1.116  0.1513 -0.1506 -0.1078
 3335SOL    HW221465   1.982   0.624   0.981 -0.4009 -1.3638 -0.0434
 3336SOL     OW21466   3.673   1.000  16.062  0.2403 -0.4907 -0.2188
 3336SOL    HW121467   3.617   1.053  16.118 -0.7753 -1.7963  0.0191
 3336SOL    HW221468   3.754   1.050  16.051  0.2132 -0.8532 -2.2322
 3337SOL     OW21469   1.969   2.007   4.281 -0.1586 -0.4781 -0.1870
 3337SOL    HW121470   2.031   2.062   4.329 -0.0329  0.2438 -1.1754
 3337SOL    HW221471   1.958   1.940   4.349  0.5798  1.7845  2.1763
 3338SOL     OW21472   1.064   2.968  14.438  0.0218 -0.2060  0.6501
 3338SOL    HW121473   1.063   3.043  14.379 -1.3534 -1.2478 -0.6411
 3338SOL    HW221474   1.156   2.955  14.460  0.1092 -1.1306 -0.2739
 3339SOL     OW21475   2.690   4.128   4.909  0.2369 -0.5650 -0.5052
 3339SOL    HW121476   2.740   4.047   4.920 -0.9487 -1.0617  1.1816
 3339SOL    HW221477   2.763   4.189   4.900 -0.6777  0.5982  0.0784
 3340SOL     OW21478   0.371   1.050   6.145 -0.2749  1.0130  0.2350
 3340SOL    HW121479   0.449   0.996   6.127  1.5759  4.1559 -1.2575
 3340SOL    HW221480   0.399   1.112   6.212  1.2988  1.1553 -0.5634
 3341SOL     OW21481   1.506   1.704   6.716  0.3747  0.0454  0.5172
 3341SOL    HW121482   1.579   1.656   6.677  1.4224  2.4908 -0.5177
 3341SOL    HW221483   1.522   1.795   6.692  0.4284 -0.3389 -0.9140
 3342SOL     OW21484   2.438   2.838   6.939  0.4553 -1.0133 -0.5396
 3342SOL    HW121485   2.384   2.822   6.862  0.6707 -2.5156 -0.3878
 3342SOL    HW221486   2.411   2.774   7.005  0.5741 -0.9494 -0.4283
 3343SOL     OW21487   0.773   3.922   4.843  0.7386 -0.2911 -0.1106
 3343SOL    HW121488   0.796   3.913   4.750  1.9584  1.6565 -0.0160
 3343SOL    HW221489   0.790   4.017   4.845  1.9602 -0.4981 -0.5450
 3344SOL     OW21490   0.013   3.580   2.245 -0.4849 -0.8093 -0.9964
 3344SOL    HW121491   4.668   3.555   2.310 -0.4187  2.1095  0.1549
 3344SOL    HW221492   0.013   3.498   2.196  2.0386 -1.7901  0.6635
 3345SOL     OW21493   3.173   3.291   2.766 -0.4050  0.3548 -0.0416
 3345SOL    HW121494   3.136   3.272   2.852  0.5095  0.1900  0.3086
 3345SOL    HW221495   3.241   3.355   2.787 -0.4276  0.5017 -0.4024
 3346SOL     OW21496   2.400   2.452   5.190 -0.0531  0.6144  0.0240
 3346SOL    HW121497   2.470   2.426   5.130  0.3884 -0.6040  1.0908
 3346SOL    HW221498   2.351   2.524   5.148 -1.4265 -0.1220  0.3683
 3347SOL     OW21499   4.080   0.451  12.705 -0.0187 -0.0851 -0.5099
 3347SOL    HW121500   4.143   0.523  12.713  1.0597 -1.0758 -0.2159
 3347SOL    HW221501   3.996   0.497  12.706 -0.6813 -1.3191  0.1236
 3348SOL     OW21502   3.280   4.684   8.716  0.0265  0.1756  0.1217
 3348SOL    HW121503   3.358   4.703   8.768  0.7162 -0.8441 -0.5421
 3348SOL    HW221504   3.247   4.600   8.748 -1.2630  1.4449  2.1260
 3349SOL     OW21505   1.304   0.784   7.946  0.0373 -0.9893  0.2210
 3349SOL    HW121506   1.353   0.866   7.950 -1.2780 -0.1904 -0.0925
 3349SOL    HW221507   1.235   0.786   8.012  0.1461  0.0150  0.2963
 3350SOL     OW21508   1.380   1.959   2.488  0.6639  0.7914 -0.4861
 3350SOL    HW121509   1.444   2.028   2.510  0.8745  0.7500 -0.9798
 3350SOL    HW221510   1.435   1.881   2.482  0.0436  0.4521 -1.5848
 3351SOL     OW21511   1.446   1.693   9.691  0.7052 -0.5445  0.1329
 3351SOL    HW121512   1.452   1.779   9.649 -4.0956 -0.5801 -0.6695
 3351SOL    HW221513   1.520   1.649   9.648 -0.0019 -0.9971 -0.6258
 3352SOL     OW21514   4.213   0.010   6.027  0.2696 -0.2385 -0.2352
 3352SOL    HW121515   4.291   4.685   6.059  0.0706  0.6205  1.4561
 3352SOL    HW221516   4.247   0.090   5.988  0.6408  0.8156  2.2710
 3353SOL     OW21517   3.480   2.987  10.145 -0.2787  0.2143  0.4357
 3353SOL    HW121518   3.475   2.960  10.237 -0.4192  1.0286  0.6669
 3353SOL    HW221519   3.549   2.932  10.108  0.4556  1.7723 -0.5013
 3354SOL     OW21520   3.675   0.560  16.617 -0.1047 -0.1162 -0.2778
 3354SOL    HW121521   3.667   0.651  16.587 -0.6788  0.2624  1.0174
 3354SOL    HW221522   3.760   0.566  16.661 -1.3934 -0.8191  2.3159
 3355SOL     OW21523   3.493   4.107   7.772  0.4830 -0.1880 -0.7145
 3355SOL    HW121524   3.564   4.127   7.833  1.7134 -0.9070 -1.8978
 3355SOL    HW221525   3.506   4.012   7.764  0.8719 -0.2384  0.4296
 3356SOL     OW21526   3.838   3.154   3.046 -0.9479 -0.2632  0.0935
 3356SOL    HW121527   3.813   3.244   3.064 -0.5487 -0.2934  0.8005
 3356SOL    HW221528   3.803   3.141   2.958 -1.2392 -1.8422  0.4396
 3357SOL     OW21529   4.220   4.497   7.618  0.0141  0.2383  0.4348
 3357SOL    HW121530   4.230   4.410   7.581  0.2714  0.3513  0.2379
 3357SOL    HW221531   4.310   4.528   7.627  0.6317 -0.4566 -3.2050
 3358SOL     OW21532   1.131   2.962   2.787 -0.7926 -0.4772  0.0712
 3358SOL    HW121533   1.142   2.975   2.693  1.0176 -1.7563  0.0755
 3358SOL    HW221534   1.037   2.949   2.795 -1.0730  1.1463 -0.6804
 3359SOL     OW21535   3.661   0.666   8.268  0.5839 -0.2139 -0.1359
 3359SOL    HW121536   3.720   0.707   8.331  1.1563  0.5335 -1.1670
 3359SOL    HW221537   3.718   0.612   8.214  0.2079 -1.2188  0.4822
 3360SOL     OW21538   2.764   2.296   3.014 -0.2030 -0.3906 -0.0985
 3360SOL    HW121539   2.698   2.229   3.000 -0.3759 -0.4240  0.8362
 3360SOL    HW221540   2.713   2.375   2.997  0.5393  0.7372  2.8503
 3361SOL     OW21541   1.912   4.436   7.545 -0.1535 -0.1647  0.0155
 3361SOL    HW121542   1.939   4.494   7.617 -0.4297  0.2683 -0.2275
 3361SOL    HW221543   1.850   4.376   7.588 -0.4675  0.2199  0.1056
 3362SOL     OW21544   3.265   2.574   0.429 -0.0610  0.0072 -0.1220
 3362SOL    HW121545   3.341   2.554   0.484 -1.1686 -1.7323  0.7699
 3362SOL    HW221546   3.251   2.669   0.430  1.6337  0.2291  1.6393
 3363SOL     OW21547   3.873   3.524  13.054  0.1126 -0.7152  0.0691
 3363SOL    HW121548   3.863   3.531  13.149 -2.0715 -0.1748 -0.2163
 3363SOL    HW221549   3.843   3.607  13.017 -0.4338 -1.4789 -1.2208
 3364SOL     OW21550   2.085   2.903   3.478 -0.3997 -0.5472 -0.2960
 3364SOL    HW121551   2.115   2.884   3.389  0.8758 -0.5680  0.1370
 3364SOL    HW221552   2.119   2.827   3.525 -1.0732  0.4506  1.8040
 3365SOL     OW21553   0.255   1.293  16.931 -0.0968 -0.4756  0.6085
 3365SOL    HW121554   0.287   1.209  16.965  0.6807  0.1850  1.5226
 3365SOL    HW221555   0.262   1.348  17.009  2.9692 -0.8893  0.6146
 3366SOL     OW21556   2.175   4.270   7.864  0.2295 -0.0015 -1.0477
 3366SOL    HW121557   2.237   4.199   7.876 -1.6800 -1.9035 -2.3560
 3366SOL    HW221558   2.206   4.293   7.776 -0.5273 -2.1514 -1.8844
 3367SOL     OW21559   1.107   2.771  11.764 -0.0995 -0.0966 -0.1256
 3367SOL    HW121560   1.099   2.833  11.691 -0.7672 -0.3312 -0.2579
 3367SOL    HW221561   1.198   2.783  11.791  0.0757  0.7311 -1.1049
 3368SOL     OW21562   3.033   0.049  11.846 -0.6098  0.3173 -0.2294
 3368SOL    HW121563   2.960   0.111  11.842 -2.0456 -1.2281  1.6356
 3368SOL    HW221564   3.075   0.061  11.761  0.2423  0.2001  0.1767
 3369SOL     OW21565   3.914   1.105   0.647  0.1102 -0.4763 -0.7129
 3369SOL    HW121566   3.873   1.191   0.635  2.5395  0.6267 -0.9646
 3369SOL    HW221567   4.005   1.128   0.666 -0.1387  0.3135 -0.4735
 3370SOL     OW21568   2.974   3.431  16.061 -0.0989 -0.3551  0.4064
 3370SOL    HW121569   2.951   3.341  16.040  0.6298 -0.9608  2.1781
 3370SOL    HW221570   2.938   3.478  15.986 -0.1214 -0.4002  0.3888
 3371SOL     OW21571   0.435   2.651   3.375 -0.3029 -0.6074 -0.3909
 3371SOL    HW121572   0.447   2.742   3.403 -0.4737 -0.2659 -1.4069
 3371SOL    HW221573   0.467   2.662   3.285 -0.9793 -1.6597 -0.7522
 3372SOL     OW21574   1.371   1.402   6.489  0.0781 -0.1951 -0.0182
 3372SOL    HW121575   1.335   1.419   6.575  0.9998 -0.8221  0.4921
 3372SOL    HW221576   1.401   1.311   6.497 -1.5592 -0.7734 -0.4479
 3373SOL     OW21577   3.018   1.598   1.786 -0.0906  0.0726  0.3735
 3373SOL    HW121578   3.013   1.504   1.771  1.1855 -0.3231  2.3447
 3373SOL    HW221579   2.957   1.611   1.859 -0.4564 -0.8994  0.2373
 3374SOL     OW21580   2.963   1.757   4.339 -0.0647  0.3780  0.0445
 3374SOL    HW121581   2.983   1.692   4.407 -1.9211  0.4739  0.6896
 3374SOL    HW221582   2.868   1.757   4.351 -0.2755 -1.0149 -1.5966
 3375SOL     OW21583   1.809   1.337   4.746 -0.4665 -0.0734 -0.2007
 3375SOL    HW121584   1.726   1.334   4.699 -1.1986 -1.1185  1.1515
 3375SOL    HW221585   1.849   1.421   4.722  1.6852 -1.0116  0.0814
 3376SOL     OW21586   4.389   3.436   3.831  0.5011 -0.7111 -0.5646
 3376SOL    HW121587   4.399   3.344   3.857  1.1482 -1.0298 -1.9264
 3376SOL    HW221588   4.467   3.474   3.870 -0.8250  1.5227 -0.0833
 3377SOL     OW21589   3.101   4.195   9.717 -0.2421  0.0466  0.6332
 3377SOL    HW121590   3.113   4.107   9.755 -2.9031 -0.9342 -0.8423
 3377SOL    HW221591   3.065   4.240   9.793 -1.5716  1.9493 -1.1285
 3378SOL     OW21592   2.293   1.428   4.892 -0.1168 -0.1532 -0.4462
 3378SOL    HW121593   2.353   1.354   4.886  1.3304  1.0015 -0.4318
 3378SOL    HW221594   2.276   1.422   4.986 -0.5998 -0.1563 -0.5363
 3379SOL     OW21595   0.410   3.165   3.515 -0.2619  0.2788 -0.2089
 3379SOL    HW121596   0.319   3.136   3.522  0.7316 -2.8571 -0.6046
 3379SOL    HW221597   0.418   3.211   3.598  2.6596  1.2775 -1.0254
 3380SOL     OW21598   2.519   1.320   2.051 -0.3669  0.5837  0.4343
 3380SOL    HW121599   2.573   1.283   2.121  1.6499 -0.6766 -1.7433
 3380SOL    HW221600   2.443   1.348   2.101 -1.2520 -2.1264  0.6305
 3381SOL     OW21601   3.546   0.915   2.924 -0.3308  0.1600  0.0707
 3381SOL    HW121602   3.611   0.985   2.929  0.9692 -0.9780 -1.0369
 3381SOL    HW221603   3.473   0.967   2.890 -1.1912 -0.9916  0.1628
 3382SOL     OW21604   1.225   3.902   8.972 -0.2140 -0.2879 -0.4759
 3382SOL    HW121605   1.151   3.843   8.986  0.1844 -1.2295 -2.2540
 3382SOL    HW221606   1.188   3.970   8.916 -3.6815 -0.8239  1.2151
 3383SOL     OW21607   2.908   1.563   8.738  0.1781 -0.0439  0.8672
 3383SOL    HW121608   2.830   1.508   8.747 -0.2446  0.2813 -0.7916
 3383SOL    HW221609   2.938   1.551   8.829 -1.7236  0.6855  1.5789
 3384SOL     OW21610   0.769   2.952  12.222  0.1053  0.0179 -0.4534
 3384SOL    HW121611   0.717   2.879  12.190 -1.0700  0.8201 -0.3988
 3384SOL    HW221612   0.847   2.920  12.267 -0.8474 -1.3264  0.2325
 3385SOL     OW21613   1.677   0.512   7.763  0.3165  0.1123 -0.7515
 3385SOL    HW121614   1.596   0.539   7.720  1.2740  0.8048 -2.1497
 3385SOL    HW221615   1.698   0.432   7.714 -0.8352 -1.6471  1.6771
 3386SOL     OW21616   4.638   3.292  13.539  0.5835 -0.5097  0.5660
 3386SOL    HW121617   4.640   3.379  13.498  0.1257 -0.7514  0.0346
 3386SOL    HW221618   4.694   3.303  13.616 -0.7576  1.1990  1.3078
 3387SOL     OW21619   4.286   0.790   4.524 -0.5675 -0.1581 -0.1876
 3387SOL    HW121620   4.288   0.827   4.612  0.4487 -1.1058  0.1897
 3387SOL    HW221621   4.346   0.851   4.480 -2.5573  2.0973  0.2286
 3388SOL     OW21622   0.189   0.557  14.068 -0.4425  0.0331 -0.0295
 3388SOL    HW121623   0.100   0.592  14.064 -1.3704 -2.5769 -2.1186
 3388SOL    HW221624   0.234   0.617  14.009 -1.6551  0.9508 -0.0245
 3389SOL     OW21625   3.118   1.346   1.803 -0.0536 -0.6973 -0.0282
 3389SOL    HW121626   3.167   1.367   1.882 -1.6839 -3.0747  1.6267
 3389SOL    HW221627   3.172   1.271   1.778  2.5543  1.8684 -1.9972
 3390SOL     OW21628   1.575   4.247  15.064 -0.5073 -0.5084 -0.1074
 3390SOL    HW121629   1.627   4.228  14.986 -3.0035  0.9027 -2.0992
 3390SOL    HW221630   1.612   4.197  15.137  1.1862 -1.5458 -1.6639
 3391SOL     OW21631   0.717   0.180   6.213  0.8312 -0.3515  0.2239
 3391SOL    HW121632   0.747   0.128   6.139 -1.3147 -3.4522  1.5566
 3391SOL    HW221633   0.668   0.117   6.265 -0.3595 -0.3481 -0.8953
 3392SOL     OW21634   4.475   4.044   3.192 -0.2121  0.2870 -0.1281
 3392SOL    HW121635   4.473   3.960   3.239 -2.3419 -1.3764 -3.1611
 3392SOL    HW221636   4.399   4.081   3.236 -1.1175 -0.7170 -0.8361
 3393SOL     OW21637   0.062   0.418  11.541 -0.1980 -0.8910  0.1967
 3393SOL    HW121638   4.719   0.371  11.594  0.1689 -1.5343  0.0714
 3393SOL    HW221639   0.012   0.422  11.460  0.5916 -0.6351 -0.2855
 3394SOL     OW21640   2.856   0.661   5.782  0.1509  0.6829  0.0134
 3394SOL    HW121641   2.858   0.619   5.696  1.9540 -1.7128  1.2107
 3394SOL    HW221642   2.768   0.634   5.809  0.3514  1.2989  1.2627
 3395SOL     OW21643   4.298   3.384   4.964 -0.4193 -1.0496  0.6098
 3395SOL    HW121644   4.341   3.424   5.040  1.3313 -0.2095 -0.8291
 3395SOL    HW221645   4.211   3.401   4.999 -1.3198 -1.4934 -1.4584
 3396SOL     OW21646   0.434   0.559   8.257  0.6580  0.4136 -0.2637
 3396SOL    HW121647   0.476   0.517   8.332  0.2783 -0.8996 -0.7718
 3396SOL    HW221648   0.366   0.496   8.233  0.0524  0.6820  0.7630
 3397SOL     OW21649   3.347   3.137  15.428  0.3317 -0.0474 -0.3235
 3397SOL    HW121650   3.302   3.206  15.380 -0.2554 -1.6414 -2.0610
 3397SOL    HW221651   3.273   3.098  15.474  1.9759 -2.1480  0.5067
 3398SOL     OW21652   1.187   0.944  10.060 -0.7595 -0.3766 -0.1530
 3398SOL    HW121653   1.198   0.871  10.120 -0.1280 -1.4646 -1.5945
 3398SOL    HW221654   1.095   0.927  10.039 -0.6628 -0.5034 -0.4688
 3399SOL     OW21655   3.759   2.445   9.049  0.1657 -0.3241 -0.7914
 3399SOL    HW121656   3.818   2.443   9.124  0.5670  1.4682 -1.0448
 3399SOL    HW221657   3.786   2.526   9.006 -0.8679 -0.4002 -1.5848
 3400SOL     OW21658   2.082   1.188   6.739  0.5891  0.0500 -0.2439
 3400SOL    HW121659   2.042   1.274   6.753  0.6141  0.0953 -0.4380
 3400SOL    HW221660   2.097   1.207   6.646  1.9251 -1.9339 -0.4207
 3401SOL     OW21661   3.105   0.045   6.794  0.5648 -0.4313 -0.1593
 3401SOL    HW121662   3.133   0.131   6.824 -0.7487  0.6477 -2.0023
 3401SOL    HW221663   3.035   0.064   6.732  1.1992 -0.1068 -0.7664
 3402SOL     OW21664   0.294   4.230   3.089  0.2901  0.2360  0.2235
 3402SOL    HW121665   0.228   4.162   3.103 -0.7821  1.1403 -0.4471
 3402SOL    HW221666   0.372   4.176   3.103 -0.1368 -0.1072  1.2894
 3403SOL     OW21667   2.443   1.620  11.719  0.5684  0.0065  0.0547
 3403SOL    HW121668   2.480   1.708  11.708 -2.5225  1.2801 -0.0830
 3403SOL    HW221669   2.495   1.582  11.790 -0.0194 -0.7817  0.0593
 3404SOL     OW21670   1.624   1.535  10.951  0.2612 -0.2787 -0.4818
 3404SOL    HW121671   1.533   1.549  10.926  0.1625  3.3309  1.9283
 3404SOL    HW221672   1.651   1.626  10.937 -1.1097  0.0108 -1.3024
 3405SOL     OW21673   4.427   2.412   6.453  0.1795  0.2088  0.0716
 3405SOL    HW121674   4.398   2.348   6.389  0.3481  0.8125 -0.6088
 3405SOL    HW221675   4.343   2.452   6.473  1.1821  2.0540  0.6153
 3406SOL     OW21676   3.719   1.694   2.222 -0.6126 -0.0814  0.0443
 3406SOL    HW121677   3.725   1.621   2.160  1.2934 -1.6057  2.0069
 3406SOL    HW221678   3.800   1.742   2.203  0.0961 -1.2849  0.0106
 3407SOL     OW21679   3.778   0.025  15.308  0.2393  0.2634  0.0919
 3407SOL    HW121680   3.825   4.687  15.368 -0.1790  1.1118  1.2534
 3407SOL    HW221681   3.718   0.066  15.370 -1.1562 -0.0331 -1.0710
 3408SOL     OW21682   3.562   4.502  15.212  0.7119 -0.9641 -0.0920
 3408SOL    HW121683   3.549   4.545  15.297  1.5358  0.1560 -0.5388
 3408SOL    HW221684   3.656   4.487  15.208  0.9724  0.3377  0.9501
 3409SOL     OW21685   3.423   1.628   7.052  0.3339 -0.2642  0.2859
 3409SOL    HW121686   3.343   1.648   7.004 -2.5884 -1.8193  4.4700
 3409SOL    HW221687   3.438   1.707   7.104  2.7035 -0.9569  0.6225
 3410SOL     OW21688   0.599   2.552  11.136 -0.0759  0.5104 -0.4058
 3410SOL    HW121689   0.665   2.517  11.196 -0.7131  0.5852  0.3510
 3410SOL    HW221690   0.641   2.589  11.059 -2.6625 -3.3760 -3.6468
 3411SOL     OW21691   0.761   3.623  12.179  0.1221 -0.0011 -0.1073
 3411SOL    HW121692   0.802   3.571  12.248 -0.5904  1.3062  1.3002
 3411SOL    HW221693   0.703   3.676  12.233 -0.3304 -0.3128 -0.2876
 3412SOL     OW21694   3.647   2.807   1.475  0.0740  0.2063 -0.0571
 3412SOL    HW121695   3.653   2.714   1.499 -1.4275  0.4520  1.2415
 3412SOL    HW221696   3.574   2.838   1.527 -1.1131 -1.4868 -0.7228
 3413SOL     OW21697   2.012   2.989   0.019  0.0181  0.0945 -0.7770
 3413SOL    HW121698   2.087   2.951   0.064  0.7660 -0.7305 -2.7275
 3413SOL    HW221699   2.024   3.083   0.037 -0.4017  0.1197 -0.6340
 3414SOL     OW21700   1.638   3.802  17.319  0.2846  0.8178  0.0896
 3414SOL    HW121701   1.560   3.755  17.348 -0.4505  1.1426 -1.3261
 3414SOL    HW221702   1.702   3.758  17.374  0.0024 -0.0101 -0.2465
 3415SOL     OW21703   4.088   0.483  14.898 -1.1399  0.4218  0.5271
 3415SOL    HW121704   4.037   0.562  14.916  0.4739  1.2816  1.3643
 3415SOL    HW221705   4.172   0.520  14.871 -0.0848 -3.4766 -1.4604
 3416SOL     OW21706   2.566   2.486  13.928  0.1484 -0.2252  0.0541
 3416SOL    HW121707   2.540   2.552  13.993 -0.1084 -0.5551  0.2892
 3416SOL    HW221708   2.503   2.512  13.862 -0.5811 -1.1328  0.3978
 3417SOL     OW21709   3.350   0.397   3.460 -0.5445  0.1246  0.2462
 3417SOL    HW121710   3.286   0.446   3.511 -1.7554  0.8617 -2.0049
 3417SOL    HW221711   3.343   0.305   3.487 -0.9712  0.3329  0.8392
 3418SOL     OW21712   0.935   4.365   2.475  0.0639 -0.3117  0.6096
 3418SOL    HW121713   1.016   4.339   2.430  0.8851  2.7801  0.3525
 3418SOL    HW221714   0.908   4.431   2.411  0.7448 -0.9175 -0.3149
 3419SOL     OW21715   1.505   2.017   5.065 -0.4643 -0.0573 -0.3548
 3419SOL    HW121716   1.534   2.109   5.069 -2.0499  0.4190  0.2636
 3419SOL    HW221717   1.414   2.035   5.042  0.2307  0.7674 -2.5599
 3420SOL     OW21718   4.533   2.055   0.586 -0.1141  0.8124 -0.2160
 3420SOL    HW121719   4.625   2.069   0.610 -0.2975 -0.5778  1.2857
 3420SOL    HW221720   4.541   2.028   0.495 -0.9892  0.1443 -0.0892
 3421SOL     OW21721   2.703   3.265  14.726  0.2010  0.2290 -0.1559
 3421SOL    HW121722   2.631   3.258  14.662  0.7854  1.3760 -0.9440
 3421SOL    HW221723   2.750   3.342  14.695  1.2054 -0.3286  0.0095
 3422SOL     OW21724   2.123   0.380  17.146  0.3428 -0.4049  0.3359
 3422SOL    HW121725   2.067   0.333  17.084  2.2046  0.8117 -2.2998
 3422SOL    HW221726   2.190   0.313  17.160 -0.6836 -1.3532  0.6982
 3423SOL     OW21727   2.768   2.863   6.776 -0.2241 -0.0630 -0.4052
 3423SOL    HW121728   2.710   2.906   6.713 -0.7409 -0.6199 -0.3124
 3423SOL    HW221729   2.855   2.890   6.748 -0.7126  1.9667  0.0510
 3424SOL     OW21730   3.399   1.766  16.720  1.1548  0.3229 -0.3239
 3424SOL    HW121731   3.304   1.758  16.724  1.1946  0.1286  0.3356
 3424SOL    HW221732   3.426   1.683  16.761  0.9099  2.3307  3.9427
 3425SOL     OW21733   1.615   2.196  10.596 -0.7365  0.0311  0.3152
 3425SOL    HW121734   1.588   2.157  10.679  2.2408  0.7562  1.6094
 3425SOL    HW221735   1.604   2.120  10.538 -0.3585  1.1017 -1.1583
 3426SOL     OW21736   3.907   1.573   4.166 -0.5606  0.4238  0.4152
 3426SOL    HW121737   3.899   1.566   4.261  0.8419 -2.0494  0.3544
 3426SOL    HW221738   3.949   1.658   4.162  1.2706 -0.4330  1.4842
 3427SOL     OW21739   2.621   1.917   6.024 -0.0357  0.2185  0.0221
 3427SOL    HW121740   2.625   1.856   5.951  0.2361  1.5117 -1.0518
 3427SOL    HW221741   2.558   1.870   6.078  0.4900  1.1596  1.4640
 3428SOL     OW21742   0.095   1.686   6.265  0.4032 -0.1209  0.3622
 3428SOL    HW121743   0.064   1.707   6.353  1.3759  1.7707  0.2451
 3428SOL    HW221744   0.110   1.775   6.233  0.7170  0.3582  1.8661
 3429SOL     OW21745   4.111   1.970   3.286 -0.1343  0.0237  0.3620
 3429SOL    HW121746   4.152   2.020   3.216 -1.3502  1.0048  0.3431
 3429SOL    HW221747   4.123   2.030   3.360 -0.3904  0.0696  0.3670
 3430SOL     OW21748   3.875   1.871   4.615  0.1762 -0.1190  0.0858
 3430SOL    HW121749   3.907   1.787   4.582  2.7341  0.6003  0.6797
 3430SOL    HW221750   3.928   1.928   4.560 -1.9237  0.9429 -0.7979
 3431SOL     OW21751   3.947   4.166   6.404 -0.2139  0.1447  0.1372
 3431SOL    HW121752   3.996   4.121   6.473 -1.3956 -1.4464 -0.0709
 3431SOL    HW221753   3.973   4.111   6.330  1.5733 -0.2864  1.0829
 3432SOL     OW21754   3.554   2.057   6.333  0.9530  0.3230 -0.0400
 3432SOL    HW121755   3.528   2.081   6.422 -0.1038  1.1798 -0.5887
 3432SOL    HW221756   3.630   2.004   6.357 -0.4406 -2.1114 -1.0944
 3433SOL     OW21757   1.541   3.125   7.347  0.1762 -0.5691  0.5612
 3433SOL    HW121758   1.529   3.115   7.441  2.2033 -4.3630  0.4417
 3433SOL    HW221759   1.580   3.039   7.331 -0.9562 -0.8652 -0.5965
 3434SOL     OW21760   0.751   0.091  11.309  0.4776  0.0918 -0.1985
 3434SOL    HW121761   0.751   0.044  11.226 -0.5273 -0.0829 -0.0939
 3434SOL    HW221762   0.811   0.159  11.279 -0.9360  1.4086 -0.0735
 3435SOL     OW21763   2.728   2.935  12.989 -0.1698 -0.4654  0.4242
 3435SOL    HW121764   2.698   2.844  12.982  1.7719 -1.1621  1.1154
 3435SOL    HW221765   2.746   2.948  13.082 -3.0685 -1.7759  1.1552
 3436SOL     OW21766   3.891   4.267   0.741  0.2172  0.5361  0.7224
 3436SOL    HW121767   3.856   4.248   0.828 -2.5609  1.6703 -0.1385
 3436SOL    HW221768   3.841   4.349   0.732  1.3837  1.2836  1.0976
 3437SOL     OW21769   0.683   4.328   8.019 -0.6105  0.4762  0.4629
 3437SOL    HW121770   0.773   4.318   7.988 -0.1265 -0.2988  2.1032
 3437SOL    HW221771   0.697   4.384   8.096 -0.5803  1.2981 -0.1444
 3438SOL     OW21772   4.619   1.113   8.875 -0.1514  0.1730  1.0501
 3438SOL    HW121773   4.572   1.122   8.792 -0.3173  1.6893  1.3007
 3438SOL    HW221774   4.702   1.149   8.843 -0.3170 -0.7175 -0.3824
 3439SOL     OW21775   2.726   2.927  12.170 -0.5062  0.5109  0.3192
 3439SOL    HW121776   2.674   2.957  12.095 -0.2815  0.3072  0.0799
 3439SOL    HW221777   2.788   2.884  12.110 -0.8139 -2.1937  1.9059
 3440SOL     OW21778   1.158   2.176  17.263 -0.2989  0.1007 -0.2500
 3440SOL    HW121779   1.178   2.124  17.186  0.0334  0.5173 -0.4442
 3440SOL    HW221780   1.081   2.128  17.295  0.0284 -0.5595 -0.4691
 3441SOL     OW21781   0.325   3.493  11.390 -0.0374 -0.6455 -0.1719
 3441SOL    HW121782   0.290   3.537  11.312 -1.2732 -0.6960  0.3464
 3441SOL    HW221783   0.318   3.570  11.446  2.2720  0.1661 -0.9984
 3442SOL     OW21784   2.707   1.208   1.249  0.1718 -0.4181 -1.1679
 3442SOL    HW121785   2.662   1.261   1.183 -0.4498  0.2878 -0.1878
 3442SOL    HW221786   2.711   1.264   1.326  1.6918  1.6146 -2.7413
 3443SOL     OW21787   3.455   0.103  16.386  0.7877 -0.3147 -0.1573
 3443SOL    HW121788   3.380   0.100  16.446  0.9974  2.3765  0.2118
 3443SOL    HW221789   3.524   0.062  16.439 -0.4574 -0.5085  1.3029
 3444SOL     OW21790   2.595   2.373   3.749  0.4520 -0.2448  0.0945
 3444SOL    HW121791   2.604   2.346   3.841 -1.3132 -0.8307  0.0875
 3444SOL    HW221792   2.511   2.419   3.754  0.2008 -0.7210  0.2172
 3445SOL     OW21793   0.104   3.410   7.750 -0.3624 -0.4224 -0.2119
 3445SOL    HW121794   0.150   3.327   7.761  0.1857  0.1087  1.5798
 3445SOL    HW221795   0.164   3.463   7.802  3.2084 -1.8694 -2.8923
 3446SOL     OW21796   2.094   4.209  12.347  0.1961  0.0981 -0.1755
 3446SOL    HW121797   2.047   4.292  12.358  1.0625  0.4830  0.5882
 3446SOL    HW221798   2.094   4.185  12.440 -0.2320 -0.9405 -0.4365
 3447SOL     OW21799   4.574   4.592   9.216  0.8128 -0.1848 -0.0013
 3447SOL    HW121800   4.565   4.565   9.307 -0.3316 -1.1046 -0.3803
 3447SOL    HW221801   4.668   4.582   9.201  0.7922  2.0030 -1.6294
 3448SOL     OW21802   4.255   4.347   8.099  0.2163 -0.3460 -0.0103
 3448SOL    HW121803   4.221   4.408   8.164 -0.1561 -0.2725 -0.2747
 3448SOL    HW221804   4.320   4.408   8.064  0.9535 -0.1109  1.7960
 3449SOL     OW21805   2.212   4.547   1.234 -0.5179 -0.1268  0.3354
 3449SOL    HW121806   2.283   4.495   1.272 -1.5869  0.8388  3.7414
 3449SOL    HW221807   2.257   4.581   1.157 -0.4814 -2.1682 -0.5392
 3450SOL     OW21808   2.667   2.683   8.261  0.2374  0.2282 -0.1407
 3450SOL    HW121809   2.661   2.589   8.275  0.1048  0.1862 -0.4771
 3450SOL    HW221810   2.661   2.714   8.351  1.1769 -0.1698  0.0568
 3451SOL     OW21811   4.162   2.911   4.545 -0.0666  0.0643  0.6655
 3451SOL    HW121812   4.096   2.842   4.548 -0.0665  0.0291 -0.2706
 3451SOL    HW221813   4.230   2.874   4.602  0.6002 -1.4965 -1.1655
 3452SOL     OW21814   1.642   1.357   2.586 -0.0652 -0.4728  0.1995
 3452SOL    HW121815   1.562   1.364   2.534 -0.9265 -2.0979  1.3221
 3452SOL    HW221816   1.622   1.421   2.654  3.0735 -0.0874  0.7431
 3453SOL     OW21817   1.004   3.230   8.933 -0.1373  0.4638 -0.1127
 3453SOL    HW121818   1.037   3.192   8.852  2.2515  0.7171  0.7491
 3453SOL    HW221819   1.023   3.150   8.983  0.3140  1.1381  0.8024
 3454SOL     OW21820   2.059   3.681   6.326  0.6963 -0.3717  0.6666
 3454SOL    HW121821   2.003   3.697   6.250  0.8456  2.7887  1.2108
 3454SOL    HW221822   2.129   3.651   6.268  1.3938 -1.0498  1.8560
 3455SOL     OW21823   0.538   2.001   5.369  0.0897 -0.2003 -0.0294
 3455SOL    HW121824   0.532   1.956   5.453  1.0083 -2.3210 -1.1163
 3455SOL    HW221825   0.545   1.926   5.311 -3.9256 -0.2821 -0.4688
 3456SOL     OW21826   3.415   1.539  13.242 -0.1854  0.5631  0.1624
 3456SOL    HW121827   3.489   1.538  13.302 -0.5922 -2.7853  0.6107
 3456SOL    HW221828   3.342   1.507  13.295  0.8221  0.0293  1.2092
 3457SOL     OW21829   4.217   4.182   6.966 -0.2116 -0.0765 -0.3400
 3457SOL    HW121830   4.126   4.211   6.969  1.0412  3.9923 -1.6738
 3457SOL    HW221831   4.254   4.218   7.047 -2.0952 -0.2090  0.5789
 3458SOL     OW21832   4.146   2.171   3.784  0.2412  0.1900  0.4113
 3458SOL    HW121833   4.086   2.195   3.855  0.7665 -0.3183  1.0284
 3458SOL    HW221834   4.184   2.092   3.821 -2.1666 -0.5573  1.3326
 3459SOL     OW21835   0.561   4.158  17.240 -0.1531 -0.1811  0.6656
 3459SOL    HW121836   0.595   4.220  17.176 -0.5216 -0.6602  0.0093
 3459SOL    HW221837   0.499   4.215  17.286 -0.2770 -0.4843  0.8814
 3460SOL     OW21838   4.240   3.001   7.809  0.2515 -0.2308  0.4087
 3460SOL    HW121839   4.228   3.006   7.715  1.2875  1.1488  0.3416
 3460SOL    HW221840   4.184   3.073   7.838 -0.4532 -0.1390 -1.2224
 3461SOL     OW21841   3.663   2.629   4.459 -0.5544  0.3098  0.6528
 3461SOL    HW121842   3.708   2.578   4.526  0.4621  0.2621 -0.0731
 3461SOL    HW221843   3.631   2.569   4.392 -1.4563  0.2240  1.1580
 3462SOL     OW21844   2.404   2.117  11.710  0.0242 -0.3433 -0.1115
 3462SOL    HW121845   2.456   2.171  11.769  1.9692 -1.2788 -0.9923
 3462SOL    HW221846   2.358   2.182  11.656  0.8337 -2.0427 -2.8632
 3463SOL     OW21847   3.274   3.597   5.131 -0.4894  0.2133  0.2875
 3463SOL    HW121848   3.311   3.594   5.043 -0.0133 -0.0608  0.4972
 3463SOL    HW221849   3.181   3.617   5.120 -0.5101  0.7417  1.4285
 3464SOL     OW21850   0.853   2.585   6.916 -0.4777 -0.1440 -0.0878
 3464SOL    HW121851   0.858   2.678   6.895 -3.4894 -0.4367 -2.1540
 3464SOL    HW221852   0.867   2.590   7.011  0.0953 -0.4569 -0.1528
 3465SOL     OW21853   0.274   0.329   6.251 -0.0186  0.6510  0.3172
 3465SOL    HW121854   0.353   0.329   6.305  0.0297 -1.4539  0.2489
 3465SOL    HW221855   0.247   0.237   6.258  1.8619  0.0865  0.1881
 3466SOL     OW21856   3.846   1.858   7.295  0.1221  0.2931 -0.4036
 3466SOL    HW121857   3.813   1.780   7.340 -0.3837  0.8854  0.2652
 3466SOL    HW221858   3.783   1.904   7.350 -1.0690 -0.4054 -1.2001
 3467SOL     OW21859   3.972   1.051   6.482 -0.5434 -0.1215 -0.2282
 3467SOL    HW121860   3.958   1.135   6.438 -2.6937  0.0042  0.7118
 3467SOL    HW221861   3.993   0.986   6.414 -1.6711 -0.1477 -0.5377
 3468SOL     OW21862   0.412   1.482   9.317 -0.1213 -0.6428 -0.6256
 3468SOL    HW121863   0.392   1.446   9.231  0.7730 -0.8574 -0.7434
 3468SOL    HW221864   0.328   1.521   9.341 -0.9816 -1.2860 -2.6171
 3469SOL     OW21865   3.672   2.385  17.539  0.3076  0.8599  0.2946
 3469SOL    HW121866   3.695   2.341  17.621 -1.4480  0.5631  0.6136
 3469SOL    HW221867   3.629   2.312  17.495 -0.7669  2.2870 -1.0459
 3470SOL     OW21868   4.356   1.815  15.285  0.6237  0.1079 -0.2839
 3470SOL    HW121869   4.399   1.735  15.315  2.0365  1.5344  1.4335
 3470SOL    HW221870   4.370   1.877  15.356  1.6330 -1.1652  0.6322
 3471SOL     OW21871   2.579   2.915   1.853  0.1228 -0.3597  0.1594
 3471SOL    HW121872   2.637   2.942   1.782 -1.5575  2.5060 -0.1311
 3471SOL    HW221873   2.632   2.923   1.932  1.9342  1.4893 -1.2591
 3472SOL     OW21874   1.842   4.410   6.197  0.6919 -0.3804  0.0915
 3472SOL    HW121875   1.871   4.328   6.238  0.2574 -0.2496  0.6580
 3472SOL    HW221876   1.834   4.378   6.107 -3.1898  2.3893 -0.5366
 3473SOL     OW21877   2.647   1.412   5.879 -0.4317 -0.4539 -0.4872
 3473SOL    HW121878   2.587   1.450   5.943  0.9749 -0.4986  0.8512
 3473SOL    HW221879   2.661   1.493   5.830  0.0726 -0.6348 -0.6333
 3474SOL     OW21880   3.696   1.907  17.232 -0.0825  0.4979 -0.2311
 3474SOL    HW121881   3.711   1.862  17.315 -0.2654 -1.4242 -1.2455
 3474SOL    HW221882   3.600   1.904  17.230 -0.0778 -0.9811  2.4580
 3475SOL     OW21883   4.065   4.022   6.611 -0.5964 -0.3017  0.1808
 3475SOL    HW121884   4.113   3.990   6.687 -1.7255 -0.5197  0.8032
 3475SOL    HW221885   4.001   3.952   6.600 -2.1011  1.0324  0.4526
 3476SOL     OW21886   1.368   2.175  12.486  0.3025  0.5012 -0.6907
 3476SOL    HW121887   1.323   2.091  12.481  0.1418  0.6418 -1.5758
 3476SOL    HW221888   1.339   2.202  12.573 -0.5005  1.9674 -1.4015
 3477SOL     OW21889   3.179   1.774  12.899  0.0753  0.1964  0.0365
 3477SOL    HW121890   3.242   1.785  12.969 -0.5000  1.8737  0.2850
 3477SOL    HW221891   3.107   1.831  12.924  0.9722  0.9268  0.9485
 3478SOL     OW21892   4.301   2.524   1.035 -0.1339  0.0655 -0.5836
 3478SOL    HW121893   4.372   2.522   1.100  0.3856 -0.0104 -1.1481
 3478SOL    HW221894   4.350   2.516   0.953  1.1972 -3.8300  0.5849
 3479SOL     OW21895   3.000   0.300   6.309  0.2579  0.1135 -0.8742
 3479SOL    HW121896   2.922   0.245   6.314  0.8877 -0.7428 -0.3915
 3479SOL    HW221897   3.002   0.336   6.398  0.4079  1.3397 -1.3760
 3480SOL     OW21898   3.283   4.008  15.479  0.1937 -0.1852 -0.9137
 3480SOL    HW121899   3.312   4.092  15.444 -2.3677  1.4948  0.9783
 3480SOL    HW221900   3.365   3.969  15.508  0.7254  0.6751 -1.2541
 3481SOL     OW21901   3.603   2.135   6.059  0.1364  0.0328 -0.3401
 3481SOL    HW121902   3.572   2.216   6.019 -0.4098  0.4436  0.9152
 3481SOL    HW221903   3.570   2.142   6.149 -2.5627  0.3360 -1.3397
 3482SOL     OW21904   0.164   2.263   1.682 -0.0007  0.2196 -0.1762
 3482SOL    HW121905   0.245   2.249   1.731 -1.0361  0.9886  1.7257
 3482SOL    HW221906   0.099   2.220   1.738  0.5594  0.0313  0.3334
 3483SOL     OW21907   1.459   2.862   0.026 -0.1533 -1.0444  0.2484
 3483SOL    HW121908   1.513   2.928   0.069 -0.2365  1.0498 -2.8964
 3483SOL    HW221909   1.411   2.915  17.647  1.4096  1.7298  1.3382
 3484SOL     OW21910   4.537   1.625   4.756  0.2638  0.0352 -0.1398
 3484SOL    HW121911   4.572   1.642   4.844  0.6735  1.0159 -0.4966
 3484SOL    HW221912   4.481   1.549   4.771  1.0990 -0.5256  0.1416
 3485SOL     OW21913   1.592   3.705  15.621  0.0323 -0.6829 -0.0230
 3485SOL    HW121914   1.560   3.615  15.631  0.1936 -0.4910  2.2637
 3485SOL    HW221915   1.666   3.705  15.682  0.0385  1.2134 -0.0315
 3486SOL     OW21916   0.810   3.575   5.228  0.0399 -0.2150 -0.2289
 3486SOL    HW121917   0.767   3.659   5.212 -0.9839 -0.6474  0.2727
 3486SOL    HW221918   0.892   3.587   5.180 -1.1376 -1.5833 -2.6030
 3487SOL     OW21919   1.866   0.080  12.573 -0.6675  0.1072 -0.5710
 3487SOL    HW121920   1.808   0.088  12.498 -1.2165 -1.7724 -0.3593
 3487SOL    HW221921   1.851   4.709  12.595  0.1925  0.4680  1.5021
 3488SOL     OW21922   2.327   4.264   7.164  0.1616  0.5453  0.0727
 3488SOL    HW121923   2.332   4.306   7.079  1.0866  0.7753  0.2399
 3488SOL    HW221924   2.232   4.247   7.168  0.4281 -1.3735 -2.2841
 3489SOL     OW21925   1.665   1.287   6.365  0.3832  0.0535  0.3306
 3489SOL    HW121926   1.700   1.374   6.380  0.8873 -0.2495  0.9060
 3489SOL    HW221927   1.741   1.233   6.342 -0.3377 -0.3590 -1.1288
 3490SOL     OW21928   4.278   3.298   7.618  0.5076  0.2624 -0.9748
 3490SOL    HW121929   4.234   3.345   7.548 -2.5232  0.7632  1.2510
 3490SOL    HW221930   4.249   3.208   7.600 -0.4877  0.4197 -0.1567
 3491SOL     OW21931   1.265   4.469  16.428  0.0271  0.2200 -0.0308
 3491SOL    HW121932   1.350   4.501  16.398  1.2242 -2.3316  0.6118
 3491SOL    HW221933   1.238   4.548  16.474  1.7219  1.9407 -2.0003
 3492SOL     OW21934   4.041   0.342   7.880 -0.5761 -0.6712  0.4271
 3492SOL    HW121935   4.111   0.359   7.817  1.2401  1.0289  2.9013
 3492SOL    HW221936   4.095   0.325   7.957  2.1535 -0.4178 -1.4006
 3493SOL     OW21937   2.399   3.837   5.281  0.4093 -0.4431 -0.1136
 3493SOL    HW121938   2.330   3.801   5.336  0.0258 -2.3894 -1.8934
 3493SOL    HW221939   2.469   3.775   5.303 -0.1763 -1.1028 -0.1458
 3494SOL     OW21940   1.021   1.152   5.711 -0.3829 -0.0475  0.2464
 3494SOL    HW121941   1.116   1.162   5.714 -0.3080 -1.0793  1.2349
 3494SOL    HW221942   0.999   1.221   5.648 -0.5906  0.7662  1.2217
 3495SOL     OW21943   3.338   2.145  16.648 -0.0713  0.0776  0.3582
 3495SOL    HW121944   3.296   2.079  16.592 -0.7235  0.0472  0.8797
 3495SOL    HW221945   3.428   2.115  16.652  0.6055  2.2700  1.3241
 3496SOL     OW21946   2.094   1.076   7.397  0.3240 -0.5738  0.2986
 3496SOL    HW121947   2.101   1.047   7.488 -0.0698 -2.2553 -0.2058
 3496SOL    HW221948   2.087   0.993   7.350 -0.3463 -0.5963  0.4315
 3497SOL     OW21949   0.710   1.822   9.005 -0.4195 -0.5166  0.5529
 3497SOL    HW121950   0.724   1.892   9.068  2.5845 -0.6035 -0.0281
 3497SOL    HW221951   0.730   1.745   9.058  0.5231 -0.4404  0.3129
 3498SOL     OW21952   3.085   2.946   4.238  0.1770 -0.3181 -0.0834
 3498SOL    HW121953   3.135   2.881   4.189 -1.0361 -1.0638 -0.3259
 3498SOL    HW221954   2.997   2.910   4.242 -0.6439  1.5549 -1.7107
 3499SOL     OW21955   2.860   2.446   9.492 -0.5201 -0.0856  0.5311
 3499SOL    HW121956   2.955   2.453   9.487 -0.5617 -0.8317 -1.1448
 3499SOL    HW221957   2.827   2.514   9.433  2.2225 -0.3971 -1.3412
 3500SOL     OW21958   4.038   4.175   3.437 -0.3632  0.5030  0.3966
 3500SOL    HW121959   3.992   4.199   3.518 -1.3263  0.6506 -0.1924
 3500SOL    HW221960   4.015   4.082   3.436  0.6168  0.2707 -0.4820
 3501SOL     OW21961   3.471   2.624   3.708 -0.3679  0.3174 -0.4799
 3501SOL    HW121962   3.550   2.629   3.654  0.0742  1.3687  0.2483
 3501SOL    HW221963   3.426   2.550   3.670 -1.0408  0.3057  0.3421
 3502SOL     OW21964   1.245   4.461   5.347 -0.5656 -0.0905 -0.1031
 3502SOL    HW121965   1.284   4.522   5.285 -0.3588  0.9944  1.0880
 3502SOL    HW221966   1.154   4.462   5.319 -1.2539 -2.2896  2.0833
 3503SOL     OW21967   0.038   4.021   1.263 -0.0466  0.7576 -0.0626
 3503SOL    HW121968   4.703   3.943   1.262  1.0174  0.0044 -0.5623
 3503SOL    HW221969   0.115   3.982   1.222 -2.3651 -2.5642 -1.1836
 3504SOL     OW21970   2.751   2.562  15.986  0.7986 -0.1562 -0.1084
 3504SOL    HW121971   2.803   2.599  15.914  1.6800 -1.6897 -0.2710
 3504SOL    HW221972   2.753   2.632  16.051 -0.5160 -1.0039  0.8257
 3505SOL     OW21973   1.905   0.608  13.346  0.0159 -0.4507 -0.1607
 3505SOL    HW121974   1.980   0.658  13.376  1.4428 -1.8462 -1.4152
 3505SOL    HW221975   1.836   0.652  13.396 -0.7049 -1.1299 -0.5499
 3506SOL     OW21976   3.115   2.197   0.813 -0.2239 -0.2528  0.7511
 3506SOL    HW121977   3.097   2.290   0.805 -1.1773 -0.4416  0.6614
 3506SOL    HW221978   3.029   2.156   0.812 -0.6157  0.6964 -2.3953
 3507SOL     OW21979   1.716   2.883   4.384 -0.1311  0.6203  0.0001
 3507SOL    HW121980   1.790   2.940   4.365 -0.6271  1.5897  1.0188
 3507SOL    HW221981   1.751   2.837   4.461  0.7071 -0.5254 -1.0498
 3508SOL     OW21982   1.820   3.947   8.646 -0.2093 -0.3176 -0.2724
 3508SOL    HW121983   1.782   4.017   8.700  0.4873  0.3904 -0.7045
 3508SOL    HW221984   1.907   3.951   8.686 -0.2144  0.3609 -0.3355
 3509SOL     OW21985   2.585   2.154  12.854  0.0217  0.2569 -0.7980
 3509SOL    HW121986   2.504   2.195  12.825  0.0523  2.1255  1.8119
 3509SOL    HW221987   2.558   2.064  12.837  0.6135 -0.1202  0.2550
 3510SOL     OW21988   0.623   1.752  14.751  0.5272  0.1695  0.2007
 3510SOL    HW121989   0.533   1.742  14.782  0.3601  2.3643  0.4895
 3510SOL    HW221990   0.630   1.678  14.691 -0.4029  0.5101 -0.3425
 3511SOL     OW21991   3.271   0.175   9.555 -0.3378  0.4782  0.0860
 3511SOL    HW121992   3.327   0.185   9.478 -0.7216 -2.0464 -0.5013
 3511SOL    HW221993   3.234   0.263   9.557 -0.2437  0.4997  1.0199
 3512SOL     OW21994   4.301   3.132   5.925 -0.7147 -0.4562 -0.2301
 3512SOL    HW121995   4.374   3.103   5.978 -0.4924 -1.5849 -1.1542
 3512SOL    HW221996   4.344   3.161   5.845 -3.7633  1.2898 -1.2663
 3513SOL     OW21997   3.014   2.568   7.102 -0.0818  0.4693  0.1122
 3513SOL    HW121998   3.032   2.499   7.039  0.7706  2.2611 -1.5895
 3513SOL    HW221999   3.105   2.584   7.124  0.3055 -0.0891 -1.1155
 3514SOL     OW22000   0.979   1.880   4.220  0.1407 -0.3468 -0.0603
 3514SOL    HW122001   0.971   1.937   4.296  0.3934  0.2461 -0.4809
 3514SOL    HW222002   1.056   1.828   4.243  0.1366  0.4172  1.6995
 3515SOL     OW22003   2.173   0.989   4.086  0.2618 -0.4667  0.2504
 3515SOL    HW122004   2.096   0.933   4.093 -0.0303 -0.0237  0.5680
 3515SOL    HW222005   2.214   0.970   4.171 -4.3521 -1.7586  2.2049
 3516SOL     OW22006   0.448   0.015   7.477  0.3358  0.3827  0.4547
 3516SOL    HW122007   0.441   4.644   7.452 -3.4900  0.9716 -0.7636
 3516SOL    HW222008   0.389   0.031   7.551 -0.9087  0.5413 -0.5539
 3517SOL     OW22009   1.110   2.361  13.369 -0.1501  0.2134 -0.3861
 3517SOL    HW122010   1.093   2.268  13.385 -0.5324 -0.2245 -3.2168
 3517SOL    HW222011   1.028   2.389  13.328  1.4340 -0.9457 -4.3411
 3518SOL     OW22012   0.166   2.914  13.312 -0.5077  0.0682 -0.0153
 3518SOL    HW122013   0.235   2.965  13.355 -1.0117  1.1416 -0.4899
 3518SOL    HW222014   0.095   2.978  13.312  0.0011  0.6445 -0.7373
 3519SOL     OW22015   0.465   0.589   8.687  0.0092  0.2782  0.0985
 3519SOL    HW122016   0.465   0.683   8.671 -0.4746  0.0194 -1.5132
 3519SOL    HW222017   0.538   0.587   8.748  1.2905  0.7661 -1.4225
 3520SOL     OW22018   2.024   4.622   1.923 -0.1283  0.5229 -0.0935
 3520SOL    HW122019   1.968   4.700   1.923  0.0574  0.6578  0.9688
 3520SOL    HW222020   2.045   4.621   1.830  0.1746  1.3123 -0.0421
 3521SOL     OW22021   0.712   3.989  16.836 -0.1395  0.2901 -0.2406
 3521SOL    HW122022   0.780   3.922  16.834 -0.7213 -0.3271  0.8089
 3521SOL    HW222023   0.755   4.060  16.788  0.0431  1.2041  1.2484
 3522SOL     OW22024   0.848   2.948   3.114 -0.1699  0.5964  0.1091
 3522SOL    HW122025   0.935   2.909   3.123 -0.2877  0.4928  0.7696
 3522SOL    HW222026   0.860   3.038   3.084  3.4630  0.2393  0.4866
 3523SOL     OW22027   2.189   2.674   7.409  0.0146  0.3947 -0.1432
 3523SOL    HW122028   2.168   2.586   7.441 -0.1915  0.2837 -0.5936
 3523SOL    HW222029   2.221   2.718   7.489 -1.9085 -2.3969  2.1616
 3524SOL     OW22030   1.861   3.947  11.164  0.1254 -0.1505 -0.2154
 3524SOL    HW122031   1.807   3.891  11.220 -0.6291  0.3069 -0.4868
 3524SOL    HW222032   1.831   3.905  11.083  0.3400 -0.5200 -0.1027
 3525SOL     OW22033   0.449   3.660   6.374  0.6741 -0.2351 -0.5143
 3525SOL    HW122034   0.483   3.748   6.360 -0.0821  0.0610 -0.5139
 3525SOL    HW222035   0.360   3.686   6.399  0.8128 -0.0284 -0.2261
 3526SOL     OW22036   0.303   3.013   2.117 -0.1008 -0.2118 -0.3628
 3526SOL    HW122037   0.343   2.950   2.056  0.3463 -1.3527  1.1136
 3526SOL    HW222038   0.384   3.055   2.145  1.5062 -3.0563 -0.7392
 3527SOL     OW22039   4.588   4.061   8.110 -0.3697  0.2650  0.1254
 3527SOL    HW122040   4.652   4.058   8.039 -0.3520  1.0001  0.1137
 3527SOL    HW222041   4.589   3.968   8.134  0.9461  0.4605  0.8296
 3528SOL     OW22042   2.809   3.708  13.911 -0.6072  0.2049  0.7938
 3528SOL    HW122043   2.782   3.799  13.922 -0.4526  0.1398  1.6751
 3528SOL    HW222044   2.728   3.658  13.900  1.5960 -3.2549  0.2754
 3529SOL     OW22045   3.862   2.968  10.886  0.1996 -0.4599 -0.4306
 3529SOL    HW122046   3.770   2.952  10.869  0.3857 -0.1187 -1.7415
 3529SOL    HW222047   3.891   2.877  10.894  2.7342  0.1919 -2.1406
 3530SOL     OW22048   2.123   2.224   2.360  0.3712 -0.2842 -0.0528
 3530SOL    HW122049   2.174   2.145   2.342 -0.4152 -1.1343  1.4744
 3530SOL    HW222050   2.031   2.199   2.363 -0.2323  2.0842  1.4838
 3531SOL     OW22051   2.255   0.358   9.506  0.3951  0.0714 -0.6667
 3531SOL    HW122052   2.331   0.374   9.560 -1.1237  2.2796  0.8399
 3531SOL    HW222053   2.275   0.419   9.434 -3.3748  0.9831 -0.9750
 3532SOL     OW22054   1.949   4.421   1.101  0.1200  0.2414  0.5091
 3532SOL    HW122055   2.042   4.399   1.107  0.4172  1.6838  1.2007
 3532SOL    HW222056   1.917   4.431   1.190  0.2790 -1.4901  0.7712
 3533SOL     OW22057   1.040   1.082  15.187 -0.5426 -0.7025  0.6099
 3533SOL    HW122058   0.976   1.100  15.256 -3.5716 -0.6360 -2.2103
 3533SOL    HW222059   1.055   1.171  15.155  1.2229 -0.7944  1.2120
 3534SOL     OW22060   2.024   4.499   7.825  0.6952  0.5722  0.2137
 3534SOL    HW122061   2.106   4.463   7.859  0.2765  0.4977  1.1451
 3534SOL    HW222062   1.964   4.425   7.820  1.0723  0.2970 -0.1663
 3535SOL     OW22063   0.127   0.145  15.371  0.1948 -0.1542  0.5767
 3535SOL    HW122064   0.104   0.207  15.440 -0.1634  1.5622 -1.1115
 3535SOL    HW222065   0.193   0.184  15.315  0.8978 -0.1836  1.3777
 3536SOL     OW22066   0.051   0.427   3.974 -0.2725  0.9118 -0.4707
 3536SOL    HW122067   4.679   0.446   3.977 -0.5367 -0.3402 -0.4576
 3536SOL    HW222068   0.062   0.417   3.879 -0.4254 -1.1126 -0.2908
 3537SOL     OW22069   1.808   2.829  11.452  0.1356  0.4129  0.0912
 3537SOL    HW122070   1.756   2.866  11.381  0.3314 -0.4999 -0.5285
 3537SOL    HW222071   1.882   2.798  11.400 -0.3964  0.3771 -0.6455
 3538SOL     OW22072   3.083   1.268  13.973 -0.4923 -0.0913  0.6190
 3538SOL    HW122073   3.148   1.271  14.043  0.0576  2.8535 -0.0378
 3538SOL    HW222074   3.069   1.173  13.968  2.5948 -0.4524 -0.9102
 3539SOL     OW22075   4.612   1.252  16.894 -0.3506  0.5662  0.6276
 3539SOL    HW122076   4.577   1.336  16.863  1.0548  1.0130  0.2226
 3539SOL    HW222077   4.593   1.202  16.815 -1.0838  0.7135  0.7097
 3540SOL     OW22078   0.862   3.071  15.660 -0.5300 -0.0281 -0.0421
 3540SOL    HW122079   0.801   3.019  15.713 -0.9420 -0.9818 -1.4627
 3540SOL    HW222080   0.811   3.067  15.580 -0.2371 -2.0742 -0.1214
 3541SOL     OW22081   0.006   2.949   4.836  0.1014 -0.1741 -0.7763
 3541SOL    HW122082   4.645   2.980   4.798 -0.1165 -0.5012 -0.5754
 3541SOL    HW222083   0.055   2.968   4.756 -0.3044 -0.8801 -1.1952
 3542SOL     OW22084   2.212   2.749   4.899  0.2173 -0.4913 -0.2128
 3542SOL    HW122085   2.186   2.723   4.987 -0.5370  4.7489  1.1457
 3542SOL    HW222086   2.308   2.740   4.900  0.3966  1.5217  1.4861
 3543SOL     OW22087   0.991   1.916   5.982 -0.1951 -0.1676  0.4249
 3543SOL    HW122088   1.023   1.836   6.024 -2.6448 -1.2053  0.2777
 3543SOL    HW222089   0.896   1.904   5.975 -0.2173 -0.5626  1.3708
 3544SOL     OW22090   3.346   1.000  14.829 -0.2946 -0.0569  0.4772
 3544SOL    HW122091   3.351   0.974  14.921  1.2507  3.4308  1.3618
 3544SOL    HW222092   3.270   1.058  14.827 -1.1156 -1.1787 -1.1190
 3545SOL     OW22093   2.043   3.281   2.517  0.1481 -0.6596 -0.3971
 3545SOL    HW122094   2.020   3.189   2.509  1.8971 -1.0806 -0.5503
 3545SOL    HW222095   1.963   3.311   2.474  0.5130 -0.1511 -0.7252
 3546SOL     OW22096   1.785   3.067  10.592  0.5233 -0.2469 -0.0238
 3546SOL    HW122097   1.771   2.999  10.525  2.8285 -0.1347 -0.6232
 3546SOL    HW222098   1.750   3.035  10.675  0.8409 -1.9922 -0.5601
 3547SOL     OW22099   0.931   1.493   9.814 -0.1071  0.0394  0.2779
 3547SOL    HW122100   0.991   1.518   9.884  0.7658 -2.5615  0.4807
 3547SOL    HW222101   0.847   1.532   9.837 -0.9340 -1.0363 -0.8817
 3548SOL     OW22102   4.666   1.176   4.233 -0.2651 -0.2367 -0.5005
 3548SOL    HW122103   4.608   1.163   4.158 -2.5948  1.7249  0.9530
 3548SOL    HW222104   4.660   1.270   4.248  0.7877 -0.5488  1.8750
 3549SOL     OW22105   3.695   3.674   6.235 -0.1471 -0.1159  0.3868
 3549SOL    HW122106   3.761   3.729   6.194 -0.9340  0.8153  0.3628
 3549SOL    HW222107   3.673   3.730   6.309  0.3663  0.6592 -0.0587
 3550SOL     OW22108   1.227   2.338   9.374 -0.0690  0.1393  1.1755
 3550SOL    HW122109   1.294   2.301   9.431  1.3674  0.1241 -0.5367
 3550SOL    HW222110   1.162   2.270   9.391 -1.0575  1.6608  3.7093
 3551SOL     OW22111   0.718   2.494   6.358  0.6288  0.2378 -0.4206
 3551SOL    HW122112   0.722   2.558   6.430 -0.4175 -0.7043  0.4718
 3551SOL    HW222113   0.806   2.458   6.373  0.4981  0.1385  0.1212
 3552SOL     OW22114   3.404   0.168  12.477 -0.1712  0.1938  0.3073
 3552SOL    HW122115   3.388   0.261  12.486  0.5986  0.3528  0.0203
 3552SOL    HW222116   3.325   0.128  12.514  0.9743 -2.1650  0.2419
 3553SOL     OW22117   1.383   2.853   6.950 -0.1082 -0.1804  0.2630
 3553SOL    HW122118   1.332   2.930   6.928  1.8916  0.8167 -0.8357
 3553SOL    HW222119   1.470   2.891   6.960 -0.4868  0.5825  0.6506
 3554SOL     OW22120   4.416   1.401   5.536  0.4415 -0.2886  0.2626
 3554SOL    HW122121   4.510   1.418   5.544  0.6241 -1.3767  0.4078
 3554SOL    HW222122   4.393   1.359   5.618 -1.8619 -0.7284 -0.6161
 3555SOL     OW22123   3.724   3.583   4.279  0.7644 -0.5252 -0.2095
 3555SOL    HW122124   3.815   3.554   4.277  0.3079 -2.1029  1.2960
 3555SOL    HW222125   3.692   3.540   4.358  0.4473  1.5287  0.7726
 3556SOL     OW22126   2.905   2.209  13.035  0.6029  0.1829  0.2871
 3556SOL    HW122127   2.843   2.153  13.082 -0.6001  0.5052 -0.9036
 3556SOL    HW222128   2.880   2.184  12.946 -0.7489 -0.4634  0.8358
 3557SOL     OW22129   1.244   3.276  14.454  0.1651 -0.0382  0.0883
 3557SOL    HW122130   1.320   3.294  14.399 -0.8178 -1.1504 -1.6281
 3557SOL    HW222131   1.183   3.226  14.399 -1.0762  1.7161 -0.1417
 3558SOL     OW22132   2.928   4.399   3.468 -0.3181 -0.2492  0.4150
 3558SOL    HW122133   2.972   4.415   3.385 -0.9171 -1.2590 -0.0952
 3558SOL    HW222134   2.838   4.415   3.440 -0.0888 -2.5884 -1.6121
 3559SOL     OW22135   2.385   0.852   9.188 -0.1067  0.2148  0.1418
 3559SOL    HW122136   2.380   0.832   9.281  1.1033  1.3675  0.4528
 3559SOL    HW222137   2.294   0.875   9.166 -0.6331 -1.6520  0.3435
 3560SOL     OW22138   3.491   4.249  16.043  0.3122  0.0023  0.1509
 3560SOL    HW122139   3.504   4.336  16.007 -0.6486 -0.6685 -1.7959
 3560SOL    HW222140   3.404   4.257  16.083  0.5428  1.2539  0.4003
 3561SOL     OW22141   3.997   1.602   5.583 -0.2929 -0.2174  0.5610
 3561SOL    HW122142   3.980   1.691   5.613  1.0236 -0.1351  1.0289
 3561SOL    HW222143   3.955   1.557   5.656  1.4589 -1.4303  0.8161
 3562SOL     OW22144   3.254   0.025   5.550  0.3100 -0.1397  0.7033
 3562SOL    HW122145   3.282   0.086   5.618 -1.0300  1.8599 -0.5438
 3562SOL    HW222146   3.337   4.702   5.530  0.1536 -0.3864  0.6003
 3563SOL     OW22147   3.958   0.784   1.961  0.1272  0.0678 -0.3691
 3563SOL    HW122148   3.968   0.703   1.910 -1.2820 -1.0598  1.1556
 3563SOL    HW222149   4.045   0.788   2.002 -0.9975  0.9775  1.9214
 3564SOL     OW22150   1.588   2.279   3.418  0.0855 -0.3646 -0.0102
 3564SOL    HW122151   1.570   2.371   3.438  1.2902 -0.2102  0.3598
 3564SOL    HW222152   1.531   2.239   3.484 -1.2422 -2.1484 -2.2458
 3565SOL     OW22153   2.326   2.042   8.421  0.1331  0.1656  0.2266
 3565SOL    HW122154   2.320   2.052   8.516 -2.3834 -0.8790  0.1658
 3565SOL    HW222155   2.326   2.136   8.401  3.1623  0.0834 -0.1883
 3566SOL     OW22156   2.018   1.644  13.819  0.3968 -0.7648 -0.7335
 3566SOL    HW122157   2.069   1.565  13.839 -0.5369 -0.8263  1.3878
 3566SOL    HW222158   1.979   1.659  13.905  0.7587  1.1175 -0.8828
 3567SOL     OW22159   4.503   4.512   5.280  0.0876 -0.2890  0.4890
 3567SOL    HW122160   4.456   4.546   5.356  1.5469  0.6337  0.9750
 3567SOL    HW222161   4.590   4.544   5.302  0.4593 -0.5038 -0.6700
 3568SOL     OW22162   4.039   2.291  14.502 -0.0439  0.3288 -0.0071
 3568SOL    HW122163   4.020   2.361  14.438  0.2651 -0.1224 -0.5944
 3568SOL    HW222164   3.992   2.218  14.461 -0.6247  1.3982 -1.2573
 3569SOL     OW22165   4.569   3.131   6.647 -0.7348  0.2376  0.5803
 3569SOL    HW122166   4.500   3.089   6.698 -0.9618  1.0123  0.9130
 3569SOL    HW222167   4.551   3.225   6.651 -1.3964  0.2035 -1.5600
 3570SOL     OW22168   4.354   0.442   2.014  0.1343 -0.0762 -0.0560
 3570SOL    HW122169   4.371   0.521   1.963  0.5453  1.3195  2.2446
 3570SOL    HW222170   4.278   0.410   1.967 -0.8036  0.4243  1.1082
 3571SOL     OW22171   1.808   3.571   3.579  0.7549 -0.1473  0.3733
 3571SOL    HW122172   1.819   3.554   3.486  0.5657  2.1194 -0.0509
 3571SOL    HW222173   1.850   3.657   3.580 -1.4991  0.9265  1.1847
 3572SOL     OW22174   0.464   3.465   5.967 -0.5890 -0.3573  0.0585
 3572SOL    HW122175   0.397   3.460   6.036  1.3418 -0.1709  1.9663
 3572SOL    HW222176   0.458   3.379   5.925 -0.8612 -1.2953  2.0079
 3573SOL     OW22177   3.787   0.281   7.306 -0.3069 -0.3635 -0.4924
 3573SOL    HW122178   3.746   0.201   7.339  1.8827 -0.7792  1.1912
 3573SOL    HW222179   3.808   0.261   7.215  2.1990 -0.7135  0.1750
 3574SOL     OW22180   3.666   4.532   5.337  0.0515  0.2952 -0.3108
 3574SOL    HW122181   3.634   4.447   5.308 -1.2642  1.4394 -2.2032
 3574SOL    HW222182   3.675   4.564   5.247 -0.3470  1.2888  0.0138
 3575SOL     OW22183   4.237   4.287   5.941 -0.0877  0.1919 -0.0127
 3575SOL    HW122184   4.321   4.249   5.916 -0.5220 -1.8080  1.5095
 3575SOL    HW222185   4.171   4.254   5.880 -0.1716  0.8914 -0.2958
 3576SOL     OW22186   3.670   3.405   6.611  0.0651  0.0781  0.0088
 3576SOL    HW122187   3.626   3.472   6.663  1.7085 -0.1899  1.7530
 3576SOL    HW222188   3.615   3.406   6.533  1.3145  1.8327 -0.8293
 3577SOL     OW22189   1.024   0.933  14.963 -0.0665  0.3105  0.1296
 3577SOL    HW122190   1.049   0.960  15.051  0.1239  0.9862 -0.1315
 3577SOL    HW222191   1.110   0.913  14.925  0.6840  2.8600  0.4797
 3578SOL     OW22192   2.402   1.295   6.212  0.1326  0.5239 -0.5478
 3578SOL    HW122193   2.430   1.220   6.159 -1.3068  0.8696 -1.8045
 3578SOL    HW222194   2.431   1.270   6.300  0.5048  0.7576 -0.6052
 3579SOL     OW22195   1.416   3.762  17.450  0.1203  0.1234  0.6978
 3579SOL    HW122196   1.366   3.839  17.477  1.2244  1.2388 -0.4422
 3579SOL    HW222197   1.440   3.721  17.533  0.6652  0.0143  0.4904
 3580SOL     OW22198   2.066   4.342  11.684  0.0163 -0.1896 -0.3059
 3580SOL    HW122199   2.081   4.435  11.665 -2.2865  0.4969  1.2979
 3580SOL    HW222200   2.143   4.330  11.738 -0.7786  0.7826  1.0313
 3581SOL     OW22201   4.680   1.583   3.231  0.3290 -0.2689  0.1298
 3581SOL    HW122202   0.032   1.540   3.187  0.0584 -0.0320 -0.5523
 3581SOL    HW222203   0.012   1.653   3.269  0.4702 -0.2090 -0.1806
 3582SOL     OW22204   3.853   0.483  14.664  0.2290  0.1801 -0.5800
 3582SOL    HW122205   3.782   0.487  14.600 -0.0596 -1.5290 -0.3577
 3582SOL    HW222206   3.800   0.498  14.742  0.4678 -3.2723  0.2407
 3583SOL     OW22207   1.227   1.060   8.669 -0.0336  0.1221  0.3605
 3583SOL    HW122208   1.242   1.142   8.714 -1.2591 -0.1952  1.3562
 3583SOL    HW222209   1.140   1.070   8.629  1.2346  1.8799 -1.9741
 3584SOL     OW22210   3.295   4.635  13.727  0.5149  0.2263 -0.0185
 3584SOL    HW122211   3.365   4.605  13.669  0.8135  1.8887 -0.5014
 3584SOL    HW222212   3.220   4.641  13.668  0.4742 -3.6185 -0.3864
 3585SOL     OW22213   4.431   3.129  13.588  0.5316  0.3795 -0.1770
 3585SOL    HW122214   4.502   3.193  13.578  1.1861 -0.2734  0.2212
 3585SOL    HW222215   4.345   3.169  13.582  0.3658  0.2157  1.1450
 3586SOL     OW22216   1.315   2.981   4.432  0.3304  0.1932  0.2909
 3586SOL    HW122217   1.242   3.042   4.427  0.5550  0.7195  3.2368
 3586SOL    HW222218   1.391   3.035   4.412 -1.0715  2.3311  0.7768
 3587SOL     OW22219   3.548   3.005  11.983 -0.3029  0.5520  0.0287
 3587SOL    HW122220   3.506   2.992  12.068 -0.5560 -0.9470 -0.3228
 3587SOL    HW222221   3.550   2.913  11.958  2.1136  0.5783  0.1150
 3588SOL     OW22222   3.464   0.600   6.906 -0.3343 -0.3079 -0.3956
 3588SOL    HW122223   3.375   0.635   6.896  1.2641  3.1852 -2.7227
 3588SOL    HW222224   3.519   0.672   6.875  1.0040 -0.3771  1.8558
 3589SOL     OW22225   3.559   2.022   3.226 -0.2458  0.0935 -0.3308
 3589SOL    HW122226   3.482   2.025   3.170 -0.5725  2.2495  0.2067
 3589SOL    HW222227   3.625   1.981   3.171  0.0582  3.0812 -2.1899
 3590SOL     OW22228   1.489   4.151  16.975  0.4235  0.3224 -0.4367
 3590SOL    HW122229   1.553   4.181  17.040 -2.0147 -0.7564  2.4461
 3590SOL    HW222230   1.481   4.058  16.998  2.0155  0.0854 -0.8556
 3591SOL     OW22231   2.053   4.487   1.431  0.1710 -0.0286 -0.3796
 3591SOL    HW122232   2.104   4.508   1.353  1.3110 -2.3222 -0.2374
 3591SOL    HW222233   1.968   4.466   1.394 -0.3427 -0.2372  0.9047
 3592SOL     OW22234   2.374   3.662   3.799  0.1217  0.6929 -0.0113
 3592SOL    HW122235   2.332   3.637   3.882  1.7415  0.1619  0.6487
 3592SOL    HW222236   2.317   3.618   3.736 -0.3172  3.1638 -1.3336
 3593SOL     OW22237   1.347   1.885   7.666  0.2389  0.4099 -0.0237
 3593SOL    HW122238   1.266   1.852   7.627  0.8502 -0.6781 -0.3635
 3593SOL    HW222239   1.309   1.953   7.721 -1.5380 -0.4059 -0.2162
 3594SOL     OW22240   1.294   4.265   8.487  0.4229  0.0786 -0.4534
 3594SOL    HW122241   1.369   4.252   8.545  0.4802  1.2400 -0.2681
 3594SOL    HW222242   1.218   4.258   8.546  1.0922  0.6261  0.4756
 3595SOL     OW22243   1.600   4.029   6.255 -0.2762  0.1333 -0.7474
 3595SOL    HW122244   1.541   3.987   6.193  0.7315 -1.1487 -0.8489
 3595SOL    HW222245   1.672   4.050   6.196 -0.0854  1.5443 -0.0156
 3596SOL     OW22246   3.080   0.790   0.992  0.0140  0.1357  0.3724
 3596SOL    HW122247   2.991   0.797   1.026 -0.0577  1.0414  0.0011
 3596SOL    HW222248   3.076   0.697   0.972  2.9142 -0.3411  2.0840
 3597SOL     OW22249   2.017   1.476  15.607  0.3289  0.0812 -0.1678
 3597SOL    HW122250   2.080   1.512  15.545 -1.0282  1.6012 -0.6495
 3597SOL    HW222251   2.038   1.383  15.605 -1.0307 -0.2917  2.9467
 3598SOL     OW22252   1.180   3.310   2.582 -0.7515  0.1883  0.0871
 3598SOL    HW122253   1.180   3.217   2.557  0.0467  0.1330  0.3111
 3598SOL    HW222254   1.255   3.308   2.641  0.0322 -1.5680 -0.9679
 3599SOL     OW22255   3.953   3.701   4.076  0.6224  0.0384  0.2441
 3599SOL    HW122256   3.865   3.705   4.040  0.9025  1.6300 -0.2820
 3599SOL    HW222257   3.949   3.773   4.138  2.0515  0.4566 -0.1474
 3600SOL     OW22258   2.840   2.168   5.608  0.2004 -0.6311  0.2100
 3600SOL    HW122259   2.843   2.124   5.693 -1.3629  1.6493  1.4367
 3600SOL    HW222260   2.819   2.098   5.546  0.2561 -0.0468 -0.4705
 3601SOL     OW22261   2.663   1.933   8.828 -0.0789 -0.3862  0.0815
 3601SOL    HW122262   2.668   1.912   8.921  0.6934 -0.0357  0.1187
 3601SOL    HW222263   2.624   1.852   8.794  1.2173  0.0459 -2.3890
 3602SOL     OW22264   2.447   3.772   0.864 -0.6093 -0.3431 -0.0316
 3602SOL    HW122265   2.493   3.696   0.900  0.2467 -0.6182 -1.7304
 3602SOL    HW222266   2.362   3.730   0.875 -0.6038  0.1758  1.9750
 3603SOL     OW22267   0.102   4.629   4.180 -0.2439 -0.1028 -0.0693
 3603SOL    HW122268   0.162   4.695   4.215 -2.2169  0.7323  1.6987
 3603SOL    HW222269   0.069   4.677   4.105 -0.7333  1.4513  1.1324
 3604SOL     OW22270   4.551   2.983   2.914  0.2365 -0.7384  0.3754
 3604SOL    HW122271   4.608   3.043   2.866  1.7644 -1.4569  1.2866
 3604SOL    HW222272   4.600   2.990   2.997  0.6271  1.9894 -0.0772
 3605SOL     OW22273   1.015   3.905   3.382  0.7685 -0.0979 -0.2450
 3605SOL    HW122274   1.091   3.951   3.348 -0.1146  0.5743 -1.2991
 3605SOL    HW222275   0.970   3.868   3.306  0.3566 -0.1926  0.0405
 3606SOL     OW22276   2.915   1.077   6.486 -0.4599 -0.3863  0.1519
 3606SOL    HW122277   2.936   1.162   6.525  1.0206 -0.6060 -0.1724
 3606SOL    HW222278   2.934   1.082   6.392 -1.2312 -1.9887 -0.0904
 3607SOL     OW22279   4.566   4.419   6.329 -0.1038  0.2933  0.2079
 3607SOL    HW122280   4.641   4.396   6.273  1.4165  2.1738  1.4477
 3607SOL    HW222281   4.569   4.515   6.318 -0.9365  0.2807 -0.0809
 3608SOL     OW22282   3.017   1.958  12.632 -0.2775  0.1691  0.6210
 3608SOL    HW122283   2.940   2.001  12.670 -0.3315  1.1966 -0.6650
 3608SOL    HW222284   3.089   2.010  12.666  0.8269 -2.4903  2.4299
 3609SOL     OW22285   2.700   2.993   7.944  0.0175 -0.0662 -0.1288
 3609SOL    HW122286   2.722   2.910   7.987  0.4720 -0.5067 -1.2248
 3609SOL    HW222287   2.767   2.986   7.876  1.5632  1.9232  1.1912
 3610SOL     OW22288   4.695   1.522   2.705 -0.2203  0.5859 -0.5674
 3610SOL    HW122289   4.666   1.605   2.745 -0.1325  1.3279 -2.0517
 3610SOL    HW222290   0.069   1.533   2.707  0.1320 -2.4190 -0.6578
 3611SOL     OW22291   2.777   1.494   9.108  0.5565 -0.0267 -0.0179
 3611SOL    HW122292   2.728   1.422   9.069 -0.0312 -0.4749  1.5182
 3611SOL    HW222293   2.821   1.446   9.178  0.4002  0.4840  0.4309
 3612SOL     OW22294   3.715   4.485  12.568 -0.3429 -0.2802 -0.1664
 3612SOL    HW122295   3.713   4.511  12.660  0.1390  0.7227 -0.4341
 3612SOL    HW222296   3.799   4.439  12.572  0.2288  0.7789  0.1469
 3613SOL     OW22297   0.387   4.543   2.872 -0.3058 -0.3814 -0.6476
 3613SOL    HW122298   0.350   4.541   2.960 -0.8268  0.0496 -0.8538
 3613SOL    HW222299   0.311   4.571   2.821 -1.7680 -4.1708 -0.5494
 3614SOL     OW22300   1.100   0.182  16.383 -0.2023 -0.2193  0.1450
 3614SOL    HW122301   1.054   0.265  16.368 -0.5959 -0.4793 -0.0653
 3614SOL    HW222302   1.085   0.134  16.302  2.3521 -0.2701 -0.3115
 3615SOL     OW22303   2.178   3.974   6.166 -0.1930 -0.1302 -0.0803
 3615SOL    HW122304   2.194   4.069   6.166 -0.1870 -0.1291 -0.6434
 3615SOL    HW222305   2.183   3.957   6.260  1.6078  2.3174  0.2586
 3616SOL     OW22306   2.958   3.964   3.808 -0.3997 -0.2932  0.4621
 3616SOL    HW122307   2.931   3.997   3.893  0.2148 -0.6697  0.8070
 3616SOL    HW222308   2.914   3.879   3.805 -2.1363  0.5944  1.2688
 3617SOL     OW22309   1.054   1.265   3.762  0.2712 -0.5225  0.6249
 3617SOL    HW122310   1.145   1.253   3.736  0.6112 -0.1951  1.6381
 3617SOL    HW222311   1.077   1.307   3.845  0.2304  0.1650  0.2886
 3618SOL     OW22312   0.747   1.519   9.062 -0.0447 -0.4840 -0.2642
 3618SOL    HW122313   0.656   1.518   9.034 -0.1523  0.5845  0.0458
 3618SOL    HW222314   0.724   1.531   9.154 -0.3418 -0.2843 -0.3646
 3619SOL     OW22315   2.875   1.629   2.011 -0.4200 -0.1060 -0.3005
 3619SOL    HW122316   2.899   1.543   2.045 -0.9416  0.5109  1.6005
 3619SOL    HW222317   2.799   1.655   2.062  1.4713  1.1911  1.8380
 3620SOL     OW22318   2.295   4.385   5.048 -0.0547 -0.1476  0.8177
 3620SOL    HW122319   2.349   4.315   5.010  0.6447  0.7974  0.0556
 3620SOL    HW222320   2.210   4.343   5.041 -0.4972  0.9516 -0.4788
 3621SOL     OW22321   2.786   2.872  15.892 -0.1217 -0.2626 -0.2632
 3621SOL    HW122322   2.846   2.818  15.842  1.1986  1.2514 -0.3419
 3621SOL    HW222323   2.841   2.895  15.967 -1.8589  2.8414  0.0794
 3622SOL     OW22324   2.480   2.730   4.901  0.0467 -0.3315 -0.2532
 3622SOL    HW122325   2.573   2.706   4.902 -0.2031 -1.1078  2.2263
 3622SOL    HW222326   2.455   2.692   4.816  0.5849  2.8113 -1.8327
 3623SOL     OW22327   1.664   3.194   2.796  0.4611  0.3479  0.3865
 3623SOL    HW122328   1.682   3.166   2.706 -1.9581 -0.0818  0.0363
 3623SOL    HW222329   1.723   3.267   2.816 -0.4126  1.1919 -0.0956
 3624SOL     OW22330   3.129   1.507  13.034 -0.3499  0.0940  0.3937
 3624SOL    HW122331   3.125   1.550  12.948  2.4338 -0.6890 -0.1326
 3624SOL    HW222332   3.223   1.512  13.052 -0.6939  3.4891  1.2536
 3625SOL     OW22333   3.102   0.000   3.236  1.2401 -0.9979  0.3735
 3625SOL    HW122334   3.160   0.073   3.212 -3.0747  1.8287 -1.3838
 3625SOL    HW222335   3.074   0.016   3.326  2.1107  0.0755  0.4633
 3626SOL     OW22336   2.907   0.004  12.943  0.2600  0.0708 -0.0209
 3626SOL    HW122337   2.858   4.643  12.941 -2.1187  1.4733  0.4391
 3626SOL    HW222338   2.883   0.030  12.854  4.1629 -1.0567 -1.3925
 3627SOL     OW22339   2.410   1.869  12.220  0.4992  0.7626  0.3482
 3627SOL    HW122340   2.355   1.876  12.297 -0.4913 -0.0633 -0.2957
 3627SOL    HW222341   2.455   1.785  12.229 -1.2512 -0.2650 -0.5121
 3628SOL     OW22342   3.034   2.908   9.278  0.7952 -0.0053 -0.5492
 3628SOL    HW122343   2.985   2.953   9.347  0.8017  0.4163 -0.8269
 3628SOL    HW222344   3.040   2.976   9.211  1.0580  0.8292  0.3212
 3629SOL     OW22345   2.887   4.149   5.310  0.0769  0.0486  0.3255
 3629SOL    HW122346   2.913   4.095   5.235  0.5108  2.5733 -1.3198
 3629SOL    HW222347   2.962   4.207   5.312 -0.3244  0.6091 -1.1883
 3630SOL     OW22348   0.970   1.860   5.716 -0.0409 -0.7159 -0.2467
 3630SOL    HW122349   0.973   1.885   5.808  1.0505  1.5913 -0.9010
 3630SOL    HW222350   1.058   1.828   5.696  0.5471  0.4432  0.4872
 3631SOL     OW22351   2.286   0.046   7.553 -0.0307  0.6629 -0.5855
 3631SOL    HW122352   2.220   0.026   7.486  2.0204 -3.5626 -1.3513
 3631SOL    HW222353   2.343   0.111   7.514  4.0781 -1.4885  1.9074
 3632SOL     OW22354   2.786   3.522   7.193  0.2421 -0.2129  0.2719
 3632SOL    HW122355   2.703   3.566   7.173  0.9573 -1.1142 -4.6802
 3632SOL    HW222356   2.756   3.433   7.208  0.7542 -1.0277 -3.5036
 3633SOL     OW22357   4.500   1.341   6.236  0.2278 -0.4050 -0.0215
 3633SOL    HW122358   4.562   1.378   6.173  1.3551 -0.6243  0.9528
 3633SOL    HW222359   4.544   1.362   6.319  0.1310 -2.0709  0.4451
 3634SOL     OW22360   1.229   1.589   2.882  0.2255 -0.4853  0.3397
 3634SOL    HW122361   1.185   1.506   2.902  0.0262 -0.2325  0.9374
 3634SOL    HW222362   1.223   1.630   2.968 -0.7905 -1.4800  0.7503
 3635SOL     OW22363   1.323   2.518   3.666  0.3648  0.2193  0.0271
 3635SOL    HW122364   1.397   2.568   3.632 -0.9004  1.8190 -0.3681
 3635SOL    HW222365   1.355   2.434   3.633  0.9304  0.4590 -0.0201
 3636SOL     OW22366   0.497   1.877   2.770 -0.1923 -0.3198 -0.7987
 3636SOL    HW122367   0.551   1.902   2.845 -1.4326 -1.4939  0.4965
 3636SOL    HW222368   0.558   1.837   2.709  0.0024 -2.1361  0.5971
 3637SOL     OW22369   1.911   2.288   9.603  0.2706  0.2907 -0.3656
 3637SOL    HW122370   1.984   2.234   9.632 -0.6170 -0.9569 -0.4442
 3637SOL    HW222371   1.853   2.285   9.680  1.3731 -1.7555  0.3948
 3638SOL     OW22372   2.675   0.578  17.612 -0.0133 -0.5035  0.1420
 3638SOL    HW122373   2.602   0.615  17.663 -0.4088 -0.9424 -0.1138
 3638SOL    HW222374   2.642   0.568  17.523 -0.8805 -0.9688  0.5192
 3639SOL     OW22375   0.807   1.403   5.262 -0.2170 -0.0081 -0.6249
 3639SOL    HW122376   0.712   1.396   5.247  0.0814 -1.5498 -1.8626
 3639SOL    HW222377   0.845   1.448   5.186  0.3183  0.6889  0.0604
 3640SOL     OW22378   3.464   2.703  11.184  0.3338  0.0513 -0.0742
 3640SOL    HW122379   3.534   2.672  11.126 -0.1543  0.7869 -1.0647
 3640SOL    HW222380   3.501   2.724  11.270  0.3129  2.6437 -0.7031
 3641SOL     OW22381   2.862   4.377  11.154  0.0168  0.5264  0.6039
 3641SOL    HW122382   2.786   4.319  11.160  1.3690 -1.3669 -0.5322
 3641SOL    HW222383   2.936   4.317  11.144 -1.2675 -1.1174  0.7934
 3642SOL     OW22384   2.931   1.068   2.251  0.2872  0.9388 -0.2365
 3642SOL    HW122385   2.992   1.104   2.186 -2.3616  1.7505 -2.2802
 3642SOL    HW222386   2.994   1.072   2.323  0.1997 -0.1905 -0.1076
 3643SOL     OW22387   0.585   0.216  10.037  0.5556  0.2161  0.6867
 3643SOL    HW122388   0.629   0.210   9.952 -0.1544  2.6222  0.1627
 3643SOL    HW222389   0.491   0.226  10.020  1.1305  1.9554 -1.3816
 3644SOL     OW22390   1.573   2.107  10.840 -0.1845  0.4669  0.2323
 3644SOL    HW122391   1.617   2.176  10.889 -0.2927 -0.8875  2.2687
 3644SOL    HW222392   1.542   2.046  10.908  0.7104  2.3817  2.3531
 3645SOL     OW22393   0.388   1.195   7.303 -0.3435  0.1662  0.3213
 3645SOL    HW122394   0.477   1.167   7.325 -0.7119 -1.7074 -0.5271
 3645SOL    HW222395   0.392   1.225   7.212 -0.6808 -0.6196  0.0468
 3646SOL     OW22396   0.258   2.181   4.565 -0.0412  0.0928  0.3538
 3646SOL    HW122397   0.247   2.152   4.655  1.0901 -0.5310  0.3059
 3646SOL    HW222398   0.263   2.098   4.516 -1.7211  0.3798 -0.2879
 3647SOL     OW22399   1.827   4.128  12.041  0.3501 -0.1847 -0.1656
 3647SOL    HW122400   1.886   4.201  12.024 -0.1330 -0.2459 -2.1645
 3647SOL    HW222401   1.784   4.159  12.120  1.4301 -0.5902  0.5811
 3648SOL     OW22402   1.086   2.508   5.983 -0.4596  0.1907 -0.4964
 3648SOL    HW122403   1.049   2.452   5.914 -0.3486  0.8605 -1.1011
 3648SOL    HW222404   1.137   2.448   6.038  0.6940  0.4602 -1.2722
 3649SOL     OW22405   0.276   2.928   8.960  0.0314  0.1570  0.7961
 3649SOL    HW122406   0.318   2.985   9.024  0.2874  0.2154  0.5776
 3649SOL    HW222407   0.309   2.974   8.882  1.2885 -0.8548  0.7401
 3650SOL     OW22408   2.277   3.789   8.384 -0.1573 -0.1586  0.4945
 3650SOL    HW122409   2.215   3.741   8.439 -3.2526  2.4483 -0.7511
 3650SOL    HW222410   2.265   3.750   8.297 -2.0424 -1.8918  1.5303
 3651SOL     OW22411   2.715   0.947  11.583 -0.0773 -0.4229 -0.0234
 3651SOL    HW122412   2.705   0.965  11.490 -1.9247 -0.9563  0.0623
 3651SOL    HW222413   2.654   1.005  11.630 -1.4056 -2.1846  0.4503
 3652SOL     OW22414   4.401   2.493   3.235  0.1144 -0.3165 -0.0210
 3652SOL    HW122415   4.469   2.557   3.218 -1.2828  1.1635 -0.0083
 3652SOL    HW222416   4.426   2.418   3.180  1.6951 -1.1233  1.8156
 3653SOL     OW22417   0.592   3.101   7.324 -0.1904 -0.0650  0.2244
 3653SOL    HW122418   0.652   3.085   7.397  1.0157  0.4096 -0.6711
 3653SOL    HW222419   0.557   3.015   7.301  2.1821 -0.8013 -0.6694
 3654SOL     OW22420   3.311   2.398   7.948 -0.1717  0.0345  0.7406
 3654SOL    HW122421   3.263   2.357   7.876 -0.6029  1.4588  0.2161
 3654SOL    HW222422   3.280   2.356   8.027 -2.5480  1.9421  0.8301
 3655SOL     OW22423   3.971   3.914   5.949  0.2526 -0.6667 -0.3064
 3655SOL    HW122424   4.029   3.840   5.966  1.5031  0.3842 -0.0722
 3655SOL    HW222425   3.916   3.894   6.025 -2.3067 -2.9405 -2.7374
 3656SOL     OW22426   1.177   0.932   6.433 -0.1587  0.0681 -0.0554
 3656SOL    HW122427   1.254   0.982   6.459 -0.4643  0.5387 -0.0619
 3656SOL    HW222428   1.195   0.901   6.344 -1.9371 -1.8541  0.2405
 3657SOL     OW22429   4.305   2.472   2.337 -0.6079 -0.1007 -0.3518
 3657SOL    HW122430   4.304   2.438   2.426 -2.1724 -0.1170 -0.3825
 3657SOL    HW222431   4.388   2.441   2.300 -0.8989 -0.9302 -0.2954
 3658SOL     OW22432   2.662   3.209   8.139 -0.9441  0.0470 -0.5012
 3658SOL    HW122433   2.646   3.130   8.088  1.1509  0.1229 -1.2744
 3658SOL    HW222434   2.675   3.269   8.065  0.0397 -0.0181 -0.3880
 3659SOL     OW22435   3.673   0.223   3.935  0.0972 -0.0235  0.9127
 3659SOL    HW122436   3.579   0.208   3.945  0.1867 -0.8385  0.5436
 3659SOL    HW222437   3.681   0.286   3.863 -0.5276 -1.6656 -0.6035
 3660SOL     OW22438   3.999   0.210   1.411  0.0266 -0.0678 -0.3484
 3660SOL    HW122439   4.030   0.120   1.408  1.9640  0.6548 -1.9031
 3660SOL    HW222440   3.906   0.189   1.421 -0.3059  0.6189 -1.8187
 3661SOL     OW22441   1.284   0.727   5.611 -0.1622 -0.7124 -0.1612
 3661SOL    HW122442   1.196   0.714   5.576 -1.7210  1.1801  2.9939
 3661SOL    HW222443   1.268   0.718   5.705 -1.0727  0.1268 -0.2398
 3662SOL     OW22444   3.161   1.040  10.540 -0.2944  0.6724  0.1139
 3662SOL    HW122445   3.189   0.952  10.513 -0.9278 -0.0990  1.9586
 3662SOL    HW222446   3.123   1.068  10.457  3.8575 -2.4996 -2.8723
 3663SOL     OW22447   4.176   3.462   7.406 -0.0810  0.5742  0.3625
 3663SOL    HW122448   4.156   3.534   7.466  0.1052  2.4188 -1.7881
 3663SOL    HW222449   4.262   3.491   7.375 -0.3438  1.4257  0.4349
 3664SOL     OW22450   1.278   1.448   8.380  0.2546 -0.3076 -0.0601
 3664SOL    HW122451   1.234   1.517   8.430 -1.0850 -1.1545 -0.0785
 3664SOL    HW222452   1.246   1.467   8.292  0.4068  1.2337  0.2148
 3665SOL     OW22453   1.078   4.202   6.366  0.0303 -0.3433 -0.1711
 3665SOL    HW122454   1.050   4.284   6.406 -0.4229 -1.7588  2.3979
 3665SOL    HW222455   1.054   4.137   6.431  2.0561 -0.8320  0.0753
 3666SOL     OW22456   1.135   1.120   3.367 -0.2032  0.2075  0.2986
 3666SOL    HW122457   1.054   1.143   3.320  0.8538  2.2674 -0.5200
 3666SOL    HW222458   1.167   1.202   3.403  3.7502 -0.0878 -2.5728
 3667SOL     OW22459   4.450   4.223   5.245 -0.0564  0.4201  0.4639
 3667SOL    HW122460   4.451   4.314   5.272  0.4438  0.6309 -0.2678
 3667SOL    HW222461   4.491   4.188   5.324 -0.3289 -0.2938  0.2884
 3668SOL     OW22462   0.360   3.618  11.736 -0.2819  0.1087  0.2961
 3668SOL    HW122463   0.294   3.575  11.682  0.5787  0.5056 -1.0587
 3668SOL    HW222464   0.330   3.709  11.734  1.2975  0.6211  0.3401
 3669SOL     OW22465   1.114   4.705   5.546  0.0033  0.3803  0.1320
 3669SOL    HW122466   1.093   0.011   5.457 -0.2743  4.0988  1.3221
 3669SOL    HW222467   1.142   0.064   5.590 -0.7426 -0.3853  2.0345
 3670SOL     OW22468   4.106   2.034   2.021 -0.1801  0.3644  0.5193
 3670SOL    HW122469   4.077   2.121   1.992 -2.1037 -0.4287  0.0628
 3670SOL    HW222470   4.098   1.986   1.939  0.3689  1.9752 -0.4835
 3671SOL     OW22471   2.392   1.342  16.980  0.3647 -0.1902  0.4709
 3671SOL    HW122472   2.484   1.345  17.008 -0.3039 -0.3872  2.6969
 3671SOL    HW222473   2.380   1.436  16.991  0.3296 -0.0341 -1.0025
 3672SOL     OW22474   2.557   3.353   2.012 -0.0744 -0.2619 -0.4418
 3672SOL    HW122475   2.594   3.383   1.929  0.5704 -0.7428 -0.3267
 3672SOL    HW222476   2.622   3.290   2.045  0.5934 -0.4749 -2.1856
 3673SOL     OW22477   0.078   1.399  16.729 -0.0704  0.7726 -0.1105
 3673SOL    HW122478   0.157   1.453  16.732 -0.0577  0.9253 -3.0033
 3673SOL    HW222479   0.085   1.352  16.812  1.4043  0.8444 -0.1924
 3674SOL     OW22480   1.820   0.396   1.875  0.2738  0.0592  0.8369
 3674SOL    HW122481   1.770   0.357   1.947  1.0398  0.2285  1.4593
 3674SOL    HW222482   1.853   0.314   1.838  0.0406 -0.2950  1.4129
 3675SOL     OW22483   0.700   2.834   6.776  0.3926  0.0844 -0.2960
 3675SOL    HW122484   0.655   2.790   6.849 -0.6558 -1.4940 -1.8753
 3675SOL    HW222485   0.783   2.860   6.814 -0.5399 -0.5642  2.2484
 3676SOL     OW22486   2.460   3.036   1.512  0.5575 -0.2630 -0.4382
 3676SOL    HW122487   2.499   2.949   1.517 -1.2388 -1.0497 -0.4961
 3676SOL    HW222488   2.402   3.039   1.588  2.6150 -0.9791  1.1648
 3677SOL     OW22489   0.005   2.542   9.459 -0.1008  0.2307  0.3020
 3677SOL    HW122490   0.041   2.465   9.503 -0.7683 -0.9742 -1.2652
 3677SOL    HW222491   4.695   2.488   9.386  0.0430  2.9063 -1.7651
 3678SOL     OW22492   3.167   2.362   3.389  0.0465  0.4891  0.7234
 3678SOL    HW122493   3.262   2.375   3.384  0.3569 -2.3361 -0.6603
 3678SOL    HW222494   3.167   2.268   3.371 -1.8884  0.6861 -0.2664
 3679SOL     OW22495   1.041   0.906  10.861 -0.7379 -0.1326  0.3449
 3679SOL    HW122496   0.962   0.899  10.914 -1.6089  0.0094 -0.9268
 3679SOL    HW222497   1.107   0.910  10.931  0.6245  0.0028 -0.9272
 3680SOL     OW22498   1.159   1.675   3.481 -0.2632 -0.0933  0.5056
 3680SOL    HW122499   1.189   1.585   3.469  1.5286  0.5763 -0.0824
 3680SOL    HW222500   1.093   1.678   3.412 -0.5217  1.7177  0.8286
 3681SOL     OW22501   3.755   0.943   9.199 -0.3374  0.2039 -0.2447
 3681SOL    HW122502   3.806   0.863   9.215  0.7735  1.0769  0.5580
 3681SOL    HW222503   3.779   0.950   9.107 -0.1659  2.8037  0.0034
 3682SOL     OW22504   3.781   0.838  11.616  0.2159  0.1034 -0.2540
 3682SOL    HW122505   3.824   0.845  11.531 -1.8171  2.7247 -1.0737
 3682SOL    HW222506   3.833   0.891  11.676  0.9507 -0.7253 -0.1629
 3683SOL     OW22507   2.960   0.338   8.229  0.1282 -0.1756  0.0165
 3683SOL    HW122508   3.030   0.401   8.242  1.7204 -1.3115 -2.9815
 3683SOL    HW222509   2.987   0.264   8.283  0.3565 -1.9947 -2.6022
 3684SOL     OW22510   2.472   2.144   7.816 -0.3155 -0.2354 -0.0238
 3684SOL    HW122511   2.510   2.095   7.743 -0.2926  0.0643 -0.2145
 3684SOL    HW222512   2.533   2.217   7.829  0.8558 -1.4326  1.1846
 3685SOL     OW22513   1.660   2.819   8.021  0.3878  0.2833  0.0327
 3685SOL    HW122514   1.667   2.828   8.116 -3.0857 -0.9789  0.4151
 3685SOL    HW222515   1.592   2.884   8.006 -0.8614 -0.3033  2.9458
 3686SOL     OW22516   2.481   1.600   5.509 -0.0780 -0.0196 -0.1792
 3686SOL    HW122517   2.473   1.607   5.414 -1.4278 -0.6909 -0.1093
 3686SOL    HW222518   2.421   1.669   5.539  0.1095  1.0799 -2.3521
 3687SOL     OW22519   0.802   0.774   7.593 -0.2431 -0.1592 -0.0683
 3687SOL    HW122520   0.787   0.680   7.592  4.3488 -0.9049  0.7707
 3687SOL    HW222521   0.857   0.781   7.671  1.9444 -2.6689 -1.3730
 3688SOL     OW22522   3.091   1.207   7.453 -0.5149  0.4576  0.7810
 3688SOL    HW122523   3.181   1.180   7.433 -0.5455  0.7975  0.1792
 3688SOL    HW222524   3.084   1.176   7.543 -0.8817 -0.0853  0.5623
 3689SOL     OW22525   3.316   4.473   7.670  0.1784  0.6317 -0.3301
 3689SOL    HW122526   3.298   4.451   7.762 -1.1945 -1.8316 -1.1748
 3689SOL    HW222527   3.299   4.566   7.661 -1.5393  0.4182  0.6810
 3690SOL     OW22528   1.449   1.523  16.230 -0.3471 -0.6557 -0.0823
 3690SOL    HW122529   1.527   1.491  16.275 -0.0288 -1.9753 -1.5851
 3690SOL    HW222530   1.385   1.526  16.302  1.7341 -2.8868  1.8507
 3691SOL     OW22531   0.646   0.213   2.601 -0.0399  0.0769 -0.2220
 3691SOL    HW122532   0.728   0.256   2.626 -0.1485 -0.2787  0.7784
 3691SOL    HW222533   0.589   0.286   2.575 -3.0232 -2.1070  0.2040
 3692SOL     OW22534   0.543   0.596  14.160 -0.0790 -0.1274 -0.8554
 3692SOL    HW122535   0.458   0.571  14.198  0.2037 -2.3020 -1.6556
 3692SOL    HW222536   0.579   0.508  14.153 -1.5338 -1.1003  3.7786
 3693SOL     OW22537   4.511   0.506   3.922 -0.0359  0.9019  0.3864
 3693SOL    HW122538   4.534   0.577   3.981 -0.0211  1.2239 -0.0063
 3693SOL    HW222539   4.465   0.564   3.861 -0.4012  1.3556  1.1013
 3694SOL     OW22540   3.686   1.567   1.077  0.2938 -0.2265 -0.5515
 3694SOL    HW122541   3.774   1.598   1.054 -0.1770  1.8700  0.4077
 3694SOL    HW222542   3.652   1.555   0.989  1.6844 -0.5008 -1.0452
 3695SOL     OW22543   0.225   4.704   0.202  0.2044  0.4081  0.3332
 3695SOL    HW122544   0.300   4.701   0.143  0.8067 -0.6786  1.1315
 3695SOL    HW222545   0.154   4.694   0.139  1.8489 -0.0026 -1.4659
 3696SOL     OW22546   0.935   2.368  14.028  0.1857  0.1103  0.2793
 3696SOL    HW122547   1.010   2.427  14.037 -0.2688  0.9272 -1.2386
 3696SOL    HW222548   0.958   2.353  13.936  0.5962  0.7272  0.2784
 3697SOL     OW22549   3.644   2.376   5.354  0.8565  0.4489  0.5928
 3697SOL    HW122550   3.660   2.452   5.409 -2.2482  1.1193  0.5262
 3697SOL    HW222551   3.550   2.365   5.365  1.1835 -0.4558  2.4900
 3698SOL     OW22552   3.709   3.377   6.981 -0.4837  0.1051  0.4396
 3698SOL    HW122553   3.772   3.441   7.013 -0.2017 -1.1781  2.4191
 3698SOL    HW222554   3.674   3.347   7.064  0.8726 -0.3192  0.8511
 3699SOL     OW22555   1.524   0.855   3.826 -0.5025 -0.4146 -0.2536
 3699SOL    HW122556   1.449   0.805   3.857 -0.0366  0.1452  1.7425
 3699SOL    HW222557   1.534   0.821   3.737  1.4779  0.2680 -0.3074
 3700SOL     OW22558   1.423   4.014  11.949 -0.5927  0.5868  0.5773
 3700SOL    HW122559   1.503   4.064  11.965  0.4366 -0.7887 -0.2717
 3700SOL    HW222560   1.404   3.978  12.035  0.6341  2.2248  1.5426
 3701SOL     OW22561   4.626   0.674  12.371 -0.0249 -1.1190  0.8281
 3701SOL    HW122562   4.652   0.621  12.446  1.5233 -1.3778  0.1085
 3701SOL    HW222563   4.551   0.623  12.340  2.0801 -0.2483 -5.8380
 3702SOL     OW22564   1.131   0.771   8.156  0.9369  0.0078 -0.3918
 3702SOL    HW122565   1.134   0.857   8.196  0.1000 -0.6480  1.0691
 3702SOL    HW222566   1.109   0.724   8.236 -0.3691 -0.9120 -1.2788
 3703SOL     OW22567   1.565   0.910  13.576 -0.1016 -0.2236 -0.0876
 3703SOL    HW122568   1.492   0.890  13.634  0.6036  0.5555  1.0930
 3703SOL    HW222569   1.619   0.831  13.569  1.5357  0.8635  0.1462
 3704SOL     OW22570   1.856   0.816   2.196  0.1419 -0.3735 -0.0895
 3704SOL    HW122571   1.775   0.769   2.215 -0.0763  0.4010  0.8764
 3704SOL    HW222572   1.888   0.765   2.121  0.4942  1.0483 -0.9216
 3705SOL     OW22573   3.486   4.120   5.694 -0.0204  0.6922  0.7930
 3705SOL    HW122574   3.464   4.205   5.657 -1.4967  0.0735  0.2219
 3705SOL    HW222575   3.453   4.118   5.784 -0.4846  2.0872  0.6445
 3706SOL     OW22576   2.507   4.100  15.910 -0.0026 -0.5372 -0.1330
 3706SOL    HW122577   2.464   4.185  15.914  0.4066 -0.3950  1.0742
 3706SOL    HW222578   2.440   4.041  15.945  0.3795 -1.2797 -0.6378
 3707SOL     OW22579   1.313   3.292   6.054 -0.7657 -0.7017  0.2169
 3707SOL    HW122580   1.365   3.215   6.030 -0.5211 -0.6333  0.5224
 3707SOL    HW222581   1.273   3.308   5.969 -0.2061  1.5668  0.3851
 3708SOL     OW22582   4.619   4.583   5.616  0.1888  0.5365 -0.1591
 3708SOL    HW122583   4.699   4.559   5.662 -0.5395 -1.5116  0.0388
 3708SOL    HW222584   4.569   4.627   5.685  2.5186 -0.4877  2.1579
 3709SOL     OW22585   3.550   2.648   1.783 -0.0495  0.2491 -0.1530
 3709SOL    HW122586   3.462   2.644   1.820 -0.3597 -0.4974 -0.9649
 3709SOL    HW222587   3.554   2.742   1.764 -1.3179  0.2571 -0.3712
 3710SOL     OW22588   0.095   4.235   8.100 -0.1696 -0.3201 -0.5471
 3710SOL    HW122589   0.076   4.317   8.055 -0.4124 -0.0155  0.1203
 3710SOL    HW222590   0.129   4.191   8.022  2.5562  0.4380  0.2321
 3711SOL     OW22591   2.100   0.737   1.501  0.8977  0.0786  0.3631
 3711SOL    HW122592   2.021   0.781   1.533 -0.1852 -0.7767 -1.1761
 3711SOL    HW222593   2.110   0.663   1.560  0.0844  0.3514  0.8423
 3712SOL     OW22594   2.600   1.386   1.014 -0.2876  0.1885 -0.3389
 3712SOL    HW122595   2.510   1.420   1.016 -0.3197  0.0433  0.5418
 3712SOL    HW222596   2.621   1.412   0.924 -1.0311 -1.4137 -0.9651
 3713SOL     OW22597   2.532   1.727   8.680  0.4262  0.1264  0.0591
 3713SOL    HW122598   2.467   1.742   8.612  0.1077  1.2261  0.6019
 3713SOL    HW222599   2.600   1.680   8.633  1.1181  0.1241  1.0444
 3714SOL     OW22600   1.569   3.014   5.730  0.5569 -0.3343  0.3096
 3714SOL    HW122601   1.655   2.974   5.745  0.4520 -1.0508 -0.9733
 3714SOL    HW222602   1.515   2.936   5.722  2.6133 -1.7917  0.4766
 3715SOL     OW22603   2.952   3.709   2.301  0.6908 -0.0134  0.0691
 3715SOL    HW122604   2.886   3.778   2.312  1.2852  0.7849 -1.2746
 3715SOL    HW222605   2.978   3.712   2.209  0.5896  0.2321  0.0477
 3716SOL     OW22606   0.466   0.608   0.859  0.4611  0.0579 -0.4775
 3716SOL    HW122607   0.496   0.524   0.826  1.9803  0.2397  0.4397
 3716SOL    HW222608   0.431   0.584   0.945  0.4300 -1.1489 -0.8249
 3717SOL     OW22609   4.455   2.007   6.465  0.1332  0.0548 -0.4358
 3717SOL    HW122610   4.363   1.999   6.489 -0.2587 -0.3291 -2.0297
 3717SOL    HW222611   4.483   2.015   6.556  2.2994  0.7151 -1.1752
 3718SOL     OW22612   2.893   4.707   5.555  0.3850 -0.3286  0.5729
 3718SOL    HW122613   2.961   0.030   5.504 -0.7171 -0.8262 -1.3391
 3718SOL    HW222614   2.827   4.710   5.486 -0.2680  0.8709  1.2612
 3719SOL     OW22615   1.390   3.057   7.663  0.1413 -0.5467 -0.2306
 3719SOL    HW122616   1.296   3.042   7.649  0.3442 -0.1551 -2.1149
 3719SOL    HW222617   1.410   3.002   7.738 -1.6542  0.3313  0.8751
 3720SOL     OW22618   1.828   3.097   9.080 -0.1458  0.2122  0.0574
 3720SOL    HW122619   1.878   3.016   9.077  1.6463  1.4294 -4.5107
 3720SOL    HW222620   1.878   3.166   9.123 -1.0640  0.8691  0.0869
 3721SOL     OW22621   0.532   1.480   7.217  1.2262 -0.0022  0.6290
 3721SOL    HW122622   0.505   1.397   7.178  2.3863 -0.5225  0.9277
 3721SOL    HW222623   0.627   1.469   7.230  1.3710  1.3193  0.6851
 3722SOL     OW22624   1.519   2.223  15.811  0.6455 -0.0551  0.1278
 3722SOL    HW122625   1.426   2.231  15.834  0.3509  0.2512 -1.1786
 3722SOL    HW222626   1.515   2.164  15.736  0.9077  0.4946 -0.3138
 3723SOL     OW22627   0.412   2.982  15.721 -0.9579  0.0965  0.1874
 3723SOL    HW122628   0.463   2.986  15.640  0.7878  2.3222  1.3933
 3723SOL    HW222629   0.344   3.047  15.703 -2.4374 -2.0166 -1.8594
 3724SOL     OW22630   1.491   0.432   7.371 -0.0294 -0.2527 -0.5593
 3724SOL    HW122631   1.504   0.477   7.287  0.3639  0.7925  0.0594
 3724SOL    HW222632   1.397   0.416   7.377 -0.0517 -0.0079 -0.2946
 3725SOL     OW22633   1.018   3.267  15.037 -0.7813  0.2686  0.7759
 3725SOL    HW122634   1.000   3.284  15.129  2.3119 -2.0331  1.8011
 3725SOL    HW222635   0.938   3.233  14.997 -1.5355  1.0979  1.5674
 3726SOL     OW22636   4.599   3.577  11.902 -0.2131  0.1965 -0.7080
 3726SOL    HW122637   4.686   3.599  11.936  0.0288 -0.9874 -0.5368
 3726SOL    HW222638   4.594   3.648  11.838 -1.3302 -0.2248 -1.0839
 3727SOL     OW22639   0.810   1.856  15.215  0.1373  0.4285  0.0706
 3727SOL    HW122640   0.853   1.937  15.243 -0.6813  1.1090 -0.6250
 3727SOL    HW222641   0.784   1.890  15.129 -0.0180 -0.0227 -0.0579
 3728SOL     OW22642   2.100   2.315   8.676  0.0711 -0.3421 -0.3533
 3728SOL    HW122643   2.074   2.333   8.766  2.3383  2.9223 -0.3404
 3728SOL    HW222644   2.163   2.383   8.653 -0.8917  0.9322  0.8043
 3729SOL     OW22645   1.607   0.015   7.474  0.0210  0.2179 -0.1256
 3729SOL    HW122646   1.624   4.685   7.395  3.5692 -0.1489  0.8433
 3729SOL    HW222647   1.698   0.038   7.496  0.0683  0.0541 -0.1428
 3730SOL     OW22648   1.382   2.787   3.491 -0.1742  0.0055 -0.4054
 3730SOL    HW122649   1.429   2.859   3.448 -1.9337  0.2741 -1.9236
 3730SOL    HW222650   1.399   2.798   3.584 -0.3078  0.6123 -0.4488
 3731SOL     OW22651   1.240   2.504   3.937  0.1280  0.0034 -0.0717
 3731SOL    HW122652   1.258   2.592   3.970 -0.6541 -0.1292  0.7097
 3731SOL    HW222653   1.243   2.530   3.845 -0.3050  0.4981  0.0528
 3732SOL     OW22654   3.537   4.644  16.096  0.1714 -0.1544  0.1651
 3732SOL    HW122655   3.539   4.570  16.035  1.2945  1.6529 -1.9655
 3732SOL    HW222656   3.465   4.620  16.154  0.1295 -0.2922  0.0552
 3733SOL     OW22657   3.357   2.030   3.038  0.5249 -0.3712  0.1371
 3733SOL    HW122658   3.271   1.988   3.028  0.7735 -0.4768 -1.5775
 3733SOL    HW222659   3.411   1.961   3.000  0.2022 -1.1974  1.1927
 3734SOL     OW22660   1.873   1.820  14.906  0.1578 -0.6306 -0.5579
 3734SOL    HW122661   1.830   1.735  14.906  1.9663 -1.5269  0.3843
 3734SOL    HW222662   1.904   1.813  14.816  1.1650 -0.5461 -0.2145
 3735SOL     OW22663   3.675   4.340   7.207  0.5591 -0.1735  0.4524
 3735SOL    HW122664   3.675   4.245   7.218  0.4666 -0.3886 -1.5311
 3735SOL    HW222665   3.602   4.340   7.146  0.2937  1.9952  0.7390
 3736SOL     OW22666   3.648   1.906  15.314 -0.1931  0.2547 -0.0647
 3736SOL    HW122667   3.553   1.920  15.313 -0.2925 -0.5007 -2.0952
 3736SOL    HW222668   3.678   1.978  15.370 -0.5833  1.7870 -1.8154
 3737SOL     OW22669   3.526   1.553   3.983  0.1028  0.0012  0.1767
 3737SOL    HW122670   3.612   1.582   4.013  1.0331  0.0923 -2.5598
 3737SOL    HW222671   3.477   1.633   3.966 -0.1768  0.3902  2.8896
 3738SOL     OW22672   4.052   4.161   5.534 -0.3159 -0.5194  0.2400
 3738SOL    HW122673   4.008   4.140   5.617 -1.2534 -2.6577 -0.7793
 3738SOL    HW222674   4.026   4.083   5.485  2.7445 -0.6667 -1.1118
 3739SOL     OW22675   0.267   0.414  10.573  0.0797 -0.0539 -0.3536
 3739SOL    HW122676   0.243   0.331  10.613  0.8953  0.1781  0.6272
 3739SOL    HW222677   0.325   0.442  10.644 -0.1094  0.4108 -0.3816
 3740SOL     OW22678   3.944   1.756   9.217  0.2032  0.1046  0.0688
 3740SOL    HW122679   3.912   1.761   9.126  1.8024 -1.0691 -0.5639
 3740SOL    HW222680   3.860   1.742   9.260  0.3119 -2.6500 -0.5616
 3741SOL     OW22681   0.175   1.316   3.395  0.1444  0.2818 -0.3892
 3741SOL    HW122682   0.197   1.288   3.307 -0.4041  0.3980 -0.5614
 3741SOL    HW222683   0.089   1.274   3.398  0.0709  0.4621  0.0883
 3742SOL     OW22684   4.180   3.662  14.143  0.0160  0.0665 -0.8159
 3742SOL    HW122685   4.091   3.656  14.177  0.6905 -1.5140  0.7091
 3742SOL    HW222686   4.216   3.742  14.181  0.9640 -1.3521  1.2656
 3743SOL     OW22687   3.084   2.962  10.249  0.6986  0.7154  0.5359
 3743SOL    HW122688   3.007   2.907  10.238  1.0211  0.3490  0.1109
 3743SOL    HW222689   3.120   2.950  10.161  3.3109 -0.9074  1.8212
 3744SOL     OW22690   2.863   2.665   2.940  0.1326 -0.1570  0.0389
 3744SOL    HW122691   2.938   2.717   2.968  0.8024  0.3034 -2.5492
 3744SOL    HW222692   2.811   2.652   3.019 -0.4246 -0.2393 -0.3387
 3745SOL     OW22693   1.309   1.238   6.944 -0.0940 -0.2375 -0.5519
 3745SOL    HW122694   1.375   1.206   6.883  1.5517 -0.5537  1.3812
 3745SOL    HW222695   1.283   1.323   6.909  0.7822 -0.0813 -0.8333
 3746SOL     OW22696   3.593   2.734   6.431  0.3708 -0.1169  0.1079
 3746SOL    HW122697   3.650   2.657   6.436  0.3741 -0.3031 -2.5240
 3746SOL    HW222698   3.523   2.707   6.491  0.5457 -0.9880 -0.0761
 3747SOL     OW22699   3.425   1.997   5.571  0.0976 -0.0646  0.3037
 3747SOL    HW122700   3.400   2.089   5.578 -1.2713 -0.1939 -2.8301
 3747SOL    HW222701   3.499   2.002   5.510  1.6383  1.7944  2.3204
 3748SOL     OW22702   4.101   3.603   3.001  0.0353  0.3384  0.1818
 3748SOL    HW122703   4.131   3.598   2.910 -0.6527  1.1866 -0.0857
 3748SOL    HW222704   4.128   3.517   3.034 -1.5266 -0.2782 -0.1160
 3749SOL     OW22705   1.843   4.212   3.306  0.4520 -0.1103 -0.2492
 3749SOL    HW122706   1.862   4.247   3.219  0.3522  0.8551  0.1277
 3749SOL    HW222707   1.776   4.276   3.330  1.2795  0.9321 -0.7132
 3750SOL     OW22708   2.505   4.163   2.447  0.2749 -0.1006  0.2404
 3750SOL    HW122709   2.513   4.111   2.367 -0.4636 -2.2164  1.5325
 3750SOL    HW222710   2.563   4.237   2.433  1.1466 -1.0739 -1.2947
 3751SOL     OW22711   3.246   0.498   4.496  0.1733  0.2610 -0.3334
 3751SOL    HW122712   3.194   0.419   4.509  0.7298 -0.3097 -1.5479
 3751SOL    HW222713   3.194   0.553   4.554 -2.0939 -1.6321 -0.5865
 3752SOL     OW22714   1.613   2.167   4.422  0.4714  0.7833 -0.1724
 3752SOL    HW122715   1.527   2.166   4.381 -0.1124 -3.2026  1.1616
 3752SOL    HW222716   1.591   2.232   4.488 -1.7446  1.6330 -1.7580
 3753SOL     OW22717   4.545   4.090   0.729 -0.1555 -0.2453 -0.0602
 3753SOL    HW122718   4.507   4.043   0.655 -0.9032  0.1802  0.0527
 3753SOL    HW222719   4.626   4.116   0.686 -1.5115  0.7604 -2.0291
 3754SOL     OW22720   0.862   4.521   3.825  0.2418  0.3845 -0.3749
 3754SOL    HW122721   0.912   4.533   3.906  2.5324  2.2238 -2.0628
 3754SOL    HW222722   0.934   4.487   3.772 -0.1290  0.5755 -0.9908
 3755SOL     OW22723   4.248   3.143   4.838  0.0122 -0.5378  0.2187
 3755SOL    HW122724   4.255   3.077   4.908 -1.9938  0.0272  0.9660
 3755SOL    HW222725   4.275   3.226   4.878  2.5223 -0.6432 -1.2921
 3756SOL     OW22726   3.284   0.541  15.803 -0.0114  0.6594  0.3685
 3756SOL    HW122727   3.302   0.470  15.741 -2.1777 -0.6366  1.2488
 3756SOL    HW222728   3.370   0.583  15.811  0.5146 -0.1887 -0.8005
 3757SOL     OW22729   0.019   2.511  12.548  0.3790  0.3794 -0.3107
 3757SOL    HW122730   0.088   2.444  12.546 -1.7581 -1.8286  0.9923
 3757SOL    HW222731   0.052   2.574  12.484  0.0055  0.5601 -0.3212
 3758SOL     OW22732   0.321   2.148   6.673 -0.5311  0.0503  0.4834
 3758SOL    HW122733   0.323   2.233   6.717 -2.2526 -0.1848  1.0102
 3758SOL    HW222734   0.405   2.164   6.629 -0.1287  1.0178  1.6062
 3759SOL     OW22735   4.322   1.960   2.549  0.3647 -0.1972  0.5812
 3759SOL    HW122736   4.239   1.912   2.553  0.5496 -0.4112  1.8194
 3759SOL    HW222737   4.382   1.886   2.536  0.5550  0.0214  0.2215
 3760SOL     OW22738   0.985   3.403  16.430  0.7587 -0.3716  0.7854
 3760SOL    HW122739   0.992   3.369  16.341  1.7322 -0.5500  0.9185
 3760SOL    HW222740   1.027   3.489  16.425  1.3398 -0.6634  0.6282
 3761SOL     OW22741   3.101   1.978   7.583 -0.2970 -0.3088  0.0270
 3761SOL    HW122742   3.016   2.005   7.616 -1.4758 -2.2065 -1.4634
 3761SOL    HW222743   3.094   2.004   7.491 -1.0044 -0.9049 -0.0834
 3762SOL     OW22744   0.975   2.318   5.792  0.3336 -0.7590 -0.5079
 3762SOL    HW122745   1.011   2.330   5.704  0.3906 -0.0657 -0.3862
 3762SOL    HW222746   0.883   2.333   5.771  0.6187 -0.9959 -1.9494
 3763SOL     OW22747   2.352   0.327   3.578 -0.1187 -0.0373  0.3035
 3763SOL    HW122748   2.316   0.283   3.502  0.2117  2.5503 -1.3746
 3763SOL    HW222749   2.428   0.271   3.591  1.2553  1.8052  0.2604
 3764SOL     OW22750   1.228   3.393   6.319 -0.4359 -0.3223 -0.2567
 3764SOL    HW122751   1.313   3.353   6.336 -0.4356  0.7289  2.2063
 3764SOL    HW222752   1.224   3.383   6.224 -0.1512 -0.4242 -0.2556
 3765SOL     OW22753   1.310   4.445   6.363 -0.0785 -0.0485 -0.2877
 3765SOL    HW122754   1.346   4.490   6.287  1.4874  0.4476  0.7473
 3765SOL    HW222755   1.296   4.527   6.410  1.9306 -1.4629  2.7732
 3766SOL     OW22756   3.685   1.468   7.029 -0.1778 -0.3431 -0.5404
 3766SOL    HW122757   3.599   1.508   7.042 -0.7405 -1.8466  0.4142
 3766SOL    HW222758   3.658   1.383   6.996  0.4089 -0.1744 -1.4459
 3767SOL     OW22759   1.669   0.857  13.858 -0.2213 -0.2237  0.1597
 3767SOL    HW122760   1.619   0.856  13.939  0.4077 -0.3161  0.5519
 3767SOL    HW222761   1.606   0.895  13.797 -0.5629  0.0467  0.6767
 3768SOL     OW22762   0.743   0.818   0.458 -0.3504  0.3924 -0.4232
 3768SOL    HW122763   0.823   0.790   0.504  0.3688  0.4916 -1.5965
 3768SOL    HW222764   0.677   0.759   0.494 -0.4302  0.4443 -0.4859
 3769SOL     OW22765   3.198   0.360  14.346  0.5502 -0.0751  0.4478
 3769SOL    HW122766   3.232   0.434  14.295  1.8322 -0.0082  1.3850
 3769SOL    HW222767   3.267   0.305  14.308  1.1820 -0.9512  2.8336
 3770SOL     OW22768   4.366   2.569   5.166  0.8325 -0.2536 -0.4527
 3770SOL    HW122769   4.429   2.629   5.125  0.9861  0.0419  0.2145
 3770SOL    HW222770   4.409   2.573   5.252 -0.9388 -0.2312  0.4190
 3771SOL     OW22771   3.278   1.998  10.300  0.2689  0.5765 -0.4815
 3771SOL    HW122772   3.286   1.911  10.261  0.3465  0.7670 -0.8925
 3771SOL    HW222773   3.297   1.984  10.393 -2.1160 -0.8326 -0.1969
 3772SOL     OW22774   4.394   2.668   0.686  0.4474  0.9010  0.2308
 3772SOL    HW122775   4.364   2.693   0.599  1.6495  2.4707  0.2674
 3772SOL    HW222776   4.319   2.696   0.737 -0.4320 -1.4971  0.2809
 3773SOL     OW22777   3.712   0.255   4.199 -0.3375 -0.0561  0.3465
 3773SOL    HW122778   3.731   0.235   4.107 -1.2146 -0.2935  0.2149
 3773SOL    HW222779   3.631   0.305   4.196 -1.2662 -1.5279  0.6680
 3774SOL     OW22780   3.062   3.105   7.658 -0.2290  0.3816  0.0658
 3774SOL    HW122781   3.157   3.092   7.661 -0.1019  1.4305  0.6794
 3774SOL    HW222782   3.042   3.167   7.588 -1.4560  1.0492  1.0113
 3775SOL     OW22783   1.360   0.489  10.281 -0.2055  0.8107  0.4749
 3775SOL    HW122784   1.453   0.500  10.263 -0.6817  1.3888 -1.5847
 3775SOL    HW222785   1.342   0.421  10.216  0.8871  0.4737  0.5247
 3776SOL     OW22786   1.117   0.925   6.778 -0.1360  0.1459  0.0877
 3776SOL    HW122787   1.065   0.849   6.804 -0.3723  1.2551  2.8829
 3776SOL    HW222788   1.205   0.910   6.814 -1.6123  0.3637  3.8354
 3777SOL     OW22789   1.899   0.729   8.389  0.3304 -0.3624  0.3067
 3777SOL    HW122790   1.907   0.809   8.336  1.2433 -1.5155 -1.2788
 3777SOL    HW222791   1.853   0.771   8.462  0.8440 -0.0819  0.4710
 3778SOL     OW22792   2.657   1.637   1.667  0.2376 -0.1383 -0.5094
 3778SOL    HW122793   2.586   1.609   1.608 -0.0616 -0.1788 -0.1330
 3778SOL    HW222794   2.643   1.584   1.745  3.2774  1.3702  1.0429
 3779SOL     OW22795   0.746   0.443   3.576 -0.3241  0.5836  0.4928
 3779SOL    HW122796   0.836   0.422   3.602  0.1216 -0.3440 -1.7748
 3779SOL    HW222797   0.728   0.359   3.536 -2.7138 -0.0824  2.9742
 3780SOL     OW22798   3.742   3.067   5.170  0.3590 -0.4255 -0.0251
 3780SOL    HW122799   3.651   3.046   5.153  0.7095 -2.2887  0.4146
 3780SOL    HW222800   3.758   3.002   5.238  0.8546  0.1819  0.4425
 3781SOL     OW22801   1.630   1.798   5.791  0.0443 -0.2561  0.2448
 3781SOL    HW122802   1.635   1.769   5.700  0.0946 -0.7406  0.4018
 3781SOL    HW222803   1.720   1.787   5.822  0.1185  0.6632  0.3738
 3782SOL     OW22804   4.515   0.444   0.302 -0.4850 -0.7902  0.9445
 3782SOL    HW122805   4.591   0.398   0.268  0.0436  1.1270 -0.4610
 3782SOL    HW222806   4.457   0.371   0.322 -0.8110 -1.1761 -1.4247
 3783SOL     OW22807   4.521   4.251  10.774  0.0287  0.8524  0.3997
 3783SOL    HW122808   4.517   4.197  10.853  4.0099 -0.2927 -0.1798
 3783SOL    HW222809   4.530   4.190  10.701 -3.1046 -0.6605  1.2759
 3784SOL     OW22810   3.286   2.514  16.943  0.5614 -0.2273  0.1667
 3784SOL    HW122811   3.198   2.549  16.934  0.3997 -0.6676  0.0273
 3784SOL    HW222812   3.271   2.420  16.930  0.9405 -0.3006  0.2589
 3785SOL     OW22813   3.898   3.741  13.905  0.1086  0.4089 -0.8320
 3785SOL    HW122814   3.892   3.699  13.991  1.5355 -0.0859 -0.9866
 3785SOL    HW222815   3.986   3.717  13.879  0.4735  0.2545  0.5369
 3786SOL     OW22816   4.713   0.400  13.070 -0.8333 -0.0498  0.7022
 3786SOL    HW122817   0.026   0.487  13.091 -0.4094  0.2610 -1.2267
 3786SOL    HW222818   0.068   0.345  13.092  0.9118  2.0913 -0.0150
 3787SOL     OW22819   2.064   0.659   1.236 -0.6970 -0.1030 -0.1434
 3787SOL    HW122820   2.053   0.702   1.321 -2.5899  0.7012 -0.7794
 3787SOL    HW222821   2.120   0.586   1.261  0.7859  0.4646 -1.8291
 3788SOL     OW22822   2.759   1.580   4.694  0.2286 -0.4509 -0.1293
 3788SOL    HW122823   2.786   1.644   4.760  0.1111  0.2646 -0.7802
 3788SOL    HW222824   2.663   1.583   4.693  0.2188 -0.9325 -0.7920
 3789SOL     OW22825   0.101   2.646  14.731  0.3196  0.2649 -0.3095
 3789SOL    HW122826   0.189   2.683  14.723  0.1047  0.9881  0.6729
 3789SOL    HW222827   0.041   2.718  14.748  1.8200  1.7218 -1.2239
 3790SOL     OW22828   3.796   2.355   2.394  0.1398  0.2072 -0.0376
 3790SOL    HW122829   3.704   2.372   2.375  0.7746  2.1967 -1.2154
 3790SOL    HW222830   3.812   2.275   2.343 -1.7132  1.1129 -2.0206
 3791SOL     OW22831   2.731   2.093  14.103  0.0873  0.3482  0.2652
 3791SOL    HW122832   2.749   2.002  14.079  1.9151  1.1760 -1.5512
 3791SOL    HW222833   2.793   2.107  14.174  0.7404 -1.9392  0.1328
 3792SOL     OW22834   0.759   4.276   3.031  0.1883  0.2468  0.3506
 3792SOL    HW122835   0.689   4.263   2.967  0.1921  2.1689 -0.0261
 3792SOL    HW222836   0.714   4.313   3.107  0.9941  0.9990  0.4635
 3793SOL     OW22837   1.451   0.891   6.464  0.5482 -0.2449  0.1708
 3793SOL    HW122838   1.475   0.886   6.372  0.6309  2.8665  0.0197
 3793SOL    HW222839   1.495   0.814   6.499 -1.6808 -0.6823  1.9788
 3794SOL     OW22840   2.692   3.920   8.242  0.1853  0.3889 -0.3409
 3794SOL    HW122841   2.679   3.980   8.315  0.5566  1.6858 -1.3370
 3794SOL    HW222842   2.691   3.834   8.283  0.6994  1.3026  1.5478
 3795SOL     OW22843   3.065   0.775   8.234  0.1575  0.4065 -0.2809
 3795SOL    HW122844   2.978   0.762   8.271  0.0203  1.6609 -0.1588
 3795SOL    HW222845   3.098   0.852   8.280  2.3558  0.0223 -1.2530
 3796SOL     OW22846   1.005   3.493   1.881 -0.4670  0.3480  0.1447
 3796SOL    HW122847   1.085   3.500   1.829  1.1778  2.2248  2.9434
 3796SOL    HW222848   0.966   3.412   1.849 -0.5060  0.0156  1.0370
 3797SOL     OW22849   2.110   2.899  16.390  0.3596 -0.2415  0.5684
 3797SOL    HW122850   2.191   2.889  16.341 -0.2280  2.6807 -1.0073
 3797SOL    HW222851   2.131   2.876  16.480 -0.9196  0.0682  0.9537
 3798SOL     OW22852   4.046   0.437   3.335 -0.7726 -0.2702  0.3878
 3798SOL    HW122853   4.128   0.436   3.285  0.2778  0.3506  2.0998
 3798SOL    HW222854   4.075   0.396   3.417  1.8006 -0.7030 -0.7336
 3799SOL     OW22855   0.129   4.485  10.827  0.1976 -0.1224 -0.1908
 3799SOL    HW122856   0.042   4.508  10.795  0.2917  0.1505 -0.2528
 3799SOL    HW222857   0.122   4.392  10.807  1.1841 -0.1489 -0.3867
 3800SOL     OW22858   0.385   0.057  17.310  0.1854 -0.0418 -0.3178
 3800SOL    HW122859   0.377   0.091  17.399  0.5871  0.3140 -0.4194
 3800SOL    HW222860   0.312   0.099  17.266 -1.0984 -2.2159 -0.2732
 3801SOL     OW22861   4.684   3.262   2.388 -0.3472  0.2090  0.4807
 3801SOL    HW122862   4.621   3.332   2.372  0.0330  0.2561 -0.8180
 3801SOL    HW222863   4.684   3.205   2.311  0.4465  0.5476  0.2242
 3802SOL     OW22864   4.046   1.563   8.194  0.4557  0.5510 -0.1090
 3802SOL    HW122865   3.971   1.597   8.241  1.9243  0.8027  2.0609
 3802SOL    HW222866   4.114   1.601   8.250 -1.4678  0.1509  2.4804
 3803SOL     OW22867   4.610   1.698   5.956  0.1708  0.4273 -0.0168
 3803SOL    HW122868   4.580   1.607   5.946  0.1262  0.6397 -1.9180
 3803SOL    HW222869   4.630   1.696   6.049 -1.2053 -0.2344  0.2702
 3804SOL     OW22870   0.381   3.486   3.098 -0.2524 -0.1784  0.8204
 3804SOL    HW122871   0.320   3.536   3.152 -1.5064 -1.0571  0.2261
 3804SOL    HW222872   0.313   3.435   3.052  1.6136 -1.6648 -0.2777
 3805SOL     OW22873   3.119   4.084   2.697 -0.7221 -0.1336 -0.4171
 3805SOL    HW122874   3.174   4.033   2.757  0.5467  1.2602 -0.4008
 3805SOL    HW222875   3.073   4.016   2.648 -0.2026  0.4873 -1.7552
 3806SOL     OW22876   3.024   0.035   0.630  0.2551  0.5264  0.6911
 3806SOL    HW122877   2.964   4.695   0.588  0.0513  0.7703  0.6309
 3806SOL    HW222878   2.975   0.048   0.711 -1.0161 -1.2345  0.1919
 3807SOL     OW22879   0.492   0.941   3.737 -0.0940  0.2512 -0.0643
 3807SOL    HW122880   0.561   0.876   3.751 -0.9534 -0.5102  0.6945
 3807SOL    HW222881   0.529   0.980   3.659 -1.3565  1.9383  0.1799
 3808SOL     OW22882   3.450   1.289   3.216  0.0043 -0.0004  0.0983
 3808SOL    HW122883   3.426   1.361   3.274  1.3454 -0.3224  1.0709
 3808SOL    HW222884   3.528   1.318   3.168  0.5152  1.3726  1.7755
 3809SOL     OW22885   3.344   0.742   7.232 -0.0958 -0.4061  0.5136
 3809SOL    HW122886   3.346   0.826   7.278  1.3605  0.4754 -1.1455
 3809SOL    HW222887   3.294   0.766   7.154  2.3892  1.5631 -0.4879
 3810SOL     OW22888   4.314   0.861   8.841 -0.3642  0.2182  0.4206
 3810SOL    HW122889   4.393   0.880   8.892  0.2045  2.1937 -1.1938
 3810SOL    HW222890   4.347   0.891   8.756 -1.6907 -0.6656 -0.4027
 3811SOL     OW22891   3.732   1.134   2.911 -0.6961 -0.1279  0.6474
 3811SOL    HW122892   3.682   1.213   2.933 -0.2780  0.4578 -0.5495
 3811SOL    HW222893   3.816   1.145   2.955  0.2785 -0.2748 -1.2053
 3812SOL     OW22894   4.371   2.176  10.273 -0.4738  0.3319  0.1348
 3812SOL    HW122895   4.344   2.118  10.202  0.3672  1.5564 -1.1892
 3812SOL    HW222896   4.461   2.200  10.250 -0.4315  1.6072  1.6508
 3813SOL     OW22897   3.382   2.856   0.827  0.3445 -0.3680 -0.3318
 3813SOL    HW122898   3.434   2.920   0.778 -2.2185  1.0197 -1.2407
 3813SOL    HW222899   3.351   2.801   0.755 -1.3297  1.0430 -0.6945
 3814SOL     OW22900   1.882   1.901   7.370  0.2568 -0.0927 -0.4716
 3814SOL    HW122901   1.820   1.848   7.420 -0.0257  2.3568  1.7681
 3814SOL    HW222902   1.916   1.956   7.440 -1.3737  2.5021 -1.6994
 3815SOL     OW22903   3.844   4.679  16.895  0.1240 -0.4967 -0.0035
 3815SOL    HW122904   3.801   4.712  16.816 -1.0949  0.0858  0.8961
 3815SOL    HW222905   3.771   4.663  16.956  1.0007  1.9089  1.6541
 3816SOL     OW22906   0.999   4.076  17.066  0.1464 -0.3117 -0.5217
 3816SOL    HW122907   0.971   4.163  17.038  1.6776 -0.0063 -1.0597
 3816SOL    HW222908   0.959   4.026  16.994 -1.5491  0.5513 -0.1840
 3817SOL     OW22909   3.393   3.346   5.308 -0.0665 -0.2621 -0.3940
 3817SOL    HW122910   3.313   3.390   5.339  1.6599  2.4958  0.1769
 3817SOL    HW222911   3.353   3.260   5.296  0.2553 -0.3127 -1.0720
 3818SOL     OW22912   1.703   1.736   6.237  0.4871 -0.2781  0.4873
 3818SOL    HW122913   1.623   1.699   6.273 -0.0404  0.0465 -0.3616
 3818SOL    HW222914   1.728   1.673   6.170 -0.4114 -0.2908  0.1631
 3819SOL     OW22915   0.910   4.443  13.557  0.2969 -0.0098 -0.3969
 3819SOL    HW122916   0.904   4.502  13.481 -0.2748 -2.4940 -2.2628
 3819SOL    HW222917   0.925   4.355  13.523  0.4276  0.2185 -0.9315
 3820SOL     OW22918   1.922   1.923  10.191  0.0845 -0.0148 -0.0251
 3820SOL    HW122919   1.828   1.917  10.173  0.6411 -3.5671 -1.8107
 3820SOL    HW222920   1.937   1.935  10.285 -0.4108  0.3076  0.0120
 3821SOL     OW22921   0.937   0.036   3.444  0.2104  0.1841  0.2900
 3821SOL    HW122922   0.916   4.671   3.409  0.6468  0.6117 -1.0082
 3821SOL    HW222923   1.013   0.062   3.392  1.2215 -0.2737  1.5350
 3822SOL     OW22924   4.593   1.179   7.393 -0.5504 -0.0524 -0.0482
 3822SOL    HW122925   4.670   1.152   7.443  0.2923 -1.3889 -2.0838
 3822SOL    HW222926   4.551   1.093   7.399  1.2039 -0.8827  0.1380
 3823SOL     OW22927   2.646   4.040   0.487  0.5095 -0.3347 -0.0547
 3823SOL    HW122928   2.571   3.995   0.526  0.0185  1.0592  0.6104
 3823SOL    HW222929   2.597   4.059   0.407 -1.6144  0.5329  1.4760
 3824SOL     OW22930   3.569   0.984   5.918 -0.5381 -0.2960 -0.4069
 3824SOL    HW122931   3.520   1.065   5.934 -1.8295 -0.6877 -2.2922
 3824SOL    HW222932   3.506   0.915   5.940 -0.0047 -0.0484  1.8077
 3825SOL     OW22933   1.436   4.352   3.156  0.1721 -0.1127 -0.0302
 3825SOL    HW122934   1.440   4.429   3.098 -1.9368 -1.9041 -2.5494
 3825SOL    HW222935   1.514   4.372   3.209 -0.3767 -0.9616  1.0933
 3826SOL     OW22936   3.679   4.257  13.411  0.2136  0.1215  0.3778
 3826SOL    HW122937   3.699   4.166  13.392 -0.2691  0.3484 -1.1730
 3826SOL    HW222938   3.753   4.287  13.464  2.6569 -0.5997 -2.6593
 3827SOL     OW22939   2.514   0.108  10.457 -0.1376  0.0617  0.2666
 3827SOL    HW122940   2.445   0.173  10.444  0.0589 -0.5268 -3.7949
 3827SOL    HW222941   2.546   0.094  10.367  0.3006  0.4276  0.3667
 3828SOL     OW22942   4.658   0.109   3.573 -0.4292 -0.2060  0.0055
 3828SOL    HW122943   4.591   0.041   3.562 -1.3627  0.8418 -0.7566
 3828SOL    HW222944   4.627   0.165   3.644  0.8407 -1.4115  1.5059
 3829SOL     OW22945   0.740   3.955   5.336  0.0110  0.0218 -0.2337
 3829SOL    HW122946   0.684   3.885   5.301 -1.3043 -0.6802  3.3177
 3829SOL    HW222947   0.742   4.007   5.255  0.0422 -2.0022 -1.5348
 3830SOL     OW22948   0.755   4.553  16.887 -1.0554 -0.0393  0.0441
 3830SOL    HW122949   0.850   4.550  16.874 -1.0634 -0.3339  0.0439
 3830SOL    HW222950   0.719   4.575  16.802  0.3818  2.5563  0.1047
 3831SOL     OW22951   3.713   4.340  14.769 -0.0895 -0.1681 -0.3425
 3831SOL    HW122952   3.770   4.400  14.817 -0.0388  0.5942 -1.3660
 3831SOL    HW222953   3.772   4.295  14.709 -0.9840 -0.4398 -1.0239
 3832SOL     OW22954   1.857   2.302   2.234  0.1200  0.0955  0.0362
 3832SOL    HW122955   1.840   2.210   2.254 -0.8224  0.7161  2.1421
 3832SOL    HW222956   1.859   2.321   2.141 -1.6872 -1.0331 -0.2359
 3833SOL     OW22957   3.183   2.258  10.175  0.1381 -0.3770  0.0919
 3833SOL    HW122958   3.182   2.353  10.164 -0.3605 -0.0390  3.0913
 3833SOL    HW222959   3.126   2.230  10.104  0.3987 -0.0011 -0.2664
 3834SOL     OW22960   4.557   3.937   2.341  0.3240  0.2206 -0.1743
 3834SOL    HW122961   4.530   4.028   2.329 -0.9951  0.0699  1.6565
 3834SOL    HW222962   4.543   3.900   2.254 -1.5111  3.2633 -1.1483
 3835SOL     OW22963   0.443   2.918   1.620 -0.4653  0.2077  0.1209
 3835SOL    HW122964   0.419   2.861   1.547 -0.7207 -1.6134  1.6064
 3835SOL    HW222965   0.509   2.975   1.581 -0.6313  1.1273  1.1769
 3836SOL     OW22966   3.178   2.509   4.419 -1.0498  0.6281 -0.0279
 3836SOL    HW122967   3.113   2.579   4.413 -1.0203  0.6481 -0.1116
 3836SOL    HW222968   3.127   2.431   4.395  0.1836 -0.8085  2.0981
 3837SOL     OW22969   2.395   2.370  17.251 -0.2507  0.9876 -0.1747
 3837SOL    HW122970   2.364   2.455  17.219 -0.0976  0.7289 -0.9927
 3837SOL    HW222971   2.447   2.400  17.325  0.7494 -1.2888  0.0493
 3838SOL     OW22972   0.608   2.119   4.550  0.3074  0.5146  0.0166
 3838SOL    HW122973   0.656   2.188   4.504  1.6516 -1.1735 -1.0857
 3838SOL    HW222974   0.587   2.174   4.626  2.2711  0.7173  0.4164
 3839SOL     OW22975   4.085   0.155   8.971  0.1595  0.4511  0.8819
 3839SOL    HW122976   4.101   0.096   9.045 -1.7764 -0.8602  0.2694
 3839SOL    HW222977   4.123   0.109   8.896 -0.0275  0.6529  0.6641
 3840SOL     OW22978   2.216   2.366  13.180 -0.1659  0.8771  0.3032
 3840SOL    HW122979   2.305   2.339  13.157 -0.5061  1.4350 -1.7164
 3840SOL    HW222980   2.194   2.325  13.263  1.9209 -2.6894 -0.8976
 3841SOL     OW22981   2.230   0.639  11.971  0.6590  0.1873 -0.0520
 3841SOL    HW122982   2.163   0.586  11.928  1.5099 -1.4485  0.6212
 3841SOL    HW222983   2.202   0.626  12.062 -0.7473 -0.4694 -0.5827
 3842SOL     OW22984   1.592   2.417  16.759 -0.5107  0.1402  0.1308
 3842SOL    HW122985   1.535   2.344  16.782 -1.4624 -0.0389 -2.7661
 3842SOL    HW222986   1.627   2.374  16.681 -0.2047 -1.8157  1.3507
 3843SOL     OW22987   4.051   2.294   8.412  0.3325 -0.1691 -0.2861
 3843SOL    HW122988   4.078   2.378   8.373 -0.4794  0.0802 -0.3191
 3843SOL    HW222989   4.023   2.239   8.338 -3.4981  1.5605 -0.1579
 3844SOL     OW22990   1.976   4.299   3.054 -0.1334  0.2885 -0.0439
 3844SOL    HW122991   2.014   4.233   2.996 -0.8240  0.5611 -0.8188
 3844SOL    HW222992   1.935   4.357   2.989 -2.2098  0.6373  1.5700
 3845SOL     OW22993   0.537   0.539  17.132 -0.4568 -0.2592  0.5064
 3845SOL    HW122994   0.518   0.460  17.082 -0.8060  0.8502 -1.1192
 3845SOL    HW222995   0.537   0.490  17.215 -3.5607 -0.5095  0.3753
 3846SOL     OW22996   1.067   2.583   9.806  0.3770 -0.4683 -0.0367
 3846SOL    HW122997   1.071   2.591   9.902  0.7238  0.9207 -0.1736
 3846SOL    HW222998   1.029   2.496   9.812  0.4118 -0.5594 -1.1386
 3847SOL     OW22999   0.926   1.200   1.669 -0.4577 -0.3471 -0.0222
 3847SOL    HW123000   0.911   1.155   1.586  3.3516 -0.7208 -0.4654
 3847SOL    HW223001   1.011   1.161   1.689  0.2453  1.1925 -0.0078
 3848SOL     OW23002   2.559   0.473   1.271 -0.4217 -0.1415 -0.2706
 3848SOL    HW123003   2.629   0.488   1.208 -0.4848  1.5253  0.0593
 3848SOL    HW223004   2.553   0.378   1.278  2.3589 -0.2856  0.2610
 3849SOL     OW23005   0.273   4.151   1.041 -0.0874  0.3795  0.4822
 3849SOL    HW123006   0.258   4.057   1.037  0.7929  0.3180 -1.4090
 3849SOL    HW223007   0.204   4.185   0.984 -0.2749 -1.3075 -0.2871
 3850SOL     OW23008   4.219   1.222   4.926 -0.2866 -0.1366 -0.1028
 3850SOL    HW123009   4.175   1.219   4.841 -0.3619 -0.0303 -0.0675
 3850SOL    HW223010   4.157   1.263   4.985  1.0111  0.4426  0.8473
 3851SOL     OW23011   4.157   4.169   7.924 -0.3558 -0.5059 -0.4976
 3851SOL    HW123012   4.227   4.186   7.860 -0.5684 -2.8204 -1.3619
 3851SOL    HW223013   4.196   4.217   7.997  2.6161 -3.3814 -0.2157
 3852SOL     OW23014   1.089   2.232  12.244  0.0105 -0.2342 -0.7491
 3852SOL    HW123015   1.051   2.304  12.194  0.3436  0.5517  0.1326
 3852SOL    HW223016   1.083   2.271  12.331  2.1564  0.4411 -0.9018
 3853SOL     OW23017   3.480   2.800   7.467 -0.2153 -0.1008 -0.3084
 3853SOL    HW123018   3.442   2.868   7.524  0.3759 -1.8316  2.1482
 3853SOL    HW223019   3.437   2.722   7.502 -0.4986  0.3290  0.3110
 3854SOL     OW23020   3.402   4.244   8.721  0.0054  0.5556  0.2396
 3854SOL    HW123021   3.387   4.159   8.762  1.4787  1.1414  2.0079
 3854SOL    HW223022   3.484   4.222   8.677 -1.5497 -1.0220 -1.8495
 3855SOL     OW23023   0.020   0.346   3.032 -0.5194 -0.4157 -0.4074
 3855SOL    HW123024   0.004   0.418   3.093 -4.1104  1.5269 -3.6970
 3855SOL    HW223025   0.067   0.280   3.083  0.2373  0.6729  0.2999
 3856SOL     OW23026   2.818   0.459  12.061 -0.0453  0.0823  0.1189
 3856SOL    HW123027   2.818   0.428  12.152 -0.5390 -0.5201 -0.0892
 3856SOL    HW223028   2.775   0.544  12.070 -0.0134  0.0047  1.0061
 3857SOL     OW23029   1.658   4.203   9.095 -0.1713 -0.7462  0.0962
 3857SOL    HW123030   1.570   4.213   9.060 -0.6122  1.3517  1.8341
 3857SOL    HW223031   1.685   4.294   9.087 -0.2636 -0.8819 -1.7122
 3858SOL     OW23032   3.837   2.299  15.987 -0.0265 -0.2102 -0.1974
 3858SOL    HW123033   3.827   2.374  16.045  1.4368 -0.4178  0.3071
 3858SOL    HW223034   3.931   2.298  15.971 -0.3106  1.3184 -1.8684
 3859SOL     OW23035   4.268   1.105  12.895  0.7084 -0.0897 -0.0951
 3859SOL    HW123036   4.190   1.160  12.902  0.6890 -0.1710  0.3473
 3859SOL    HW223037   4.338   1.137  12.952  0.2264 -0.3434  0.6365
 3860SOL     OW23038   2.453   3.857   3.625  0.0092  0.0459 -0.6051
 3860SOL    HW123039   2.407   3.812   3.696  0.0721  0.5985 -0.2169
 3860SOL    HW223040   2.529   3.800   3.611 -1.6606 -2.2218 -0.4663
 3861SOL     OW23041   3.128   0.298   0.617  0.1538 -0.0395  0.2393
 3861SOL    HW123042   3.200   0.300   0.554 -1.0456 -1.6953 -1.1965
 3861SOL    HW223043   3.124   0.205   0.640  1.6571 -0.4604 -1.2012
 3862SOL     OW23044   3.921   1.037   5.019 -0.2252  0.4366  0.0846
 3862SOL    HW123045   3.983   1.045   4.946 -1.4394 -0.7795 -1.0740
 3862SOL    HW223046   3.921   1.125   5.056  1.7866  0.0310  1.0293
 3863SOL     OW23047   3.201   2.167   1.708  0.4828  0.2432 -0.3212
 3863SOL    HW123048   3.110   2.176   1.734  0.8148  1.0984  0.5392
 3863SOL    HW223049   3.217   2.074   1.695  1.1693  0.6240 -2.2878
 3864SOL     OW23050   1.819   0.597   1.659  0.1190 -0.2068 -0.2464
 3864SOL    HW123051   1.809   0.516   1.709 -2.3425  1.0423  1.2964
 3864SOL    HW223052   1.911   0.613   1.681 -0.1060 -1.5725  1.7188
 3865SOL     OW23053   2.328   1.059   5.182 -0.4244 -0.4037  0.2611
 3865SOL    HW123054   2.332   0.978   5.132  0.3001 -0.8464  1.0577
 3865SOL    HW223055   2.332   1.033   5.274 -1.2762  0.7130  0.6233
 3866SOL     OW23056   2.942   4.594   2.627 -0.3113 -0.1373 -0.0044
 3866SOL    HW123057   2.988   4.522   2.583  3.1103  0.5504  2.4049
 3866SOL    HW223058   2.867   4.601   2.568  0.1101 -0.9805 -0.6567
 3867SOL     OW23059   0.542   3.071   9.608  0.0340 -0.7619  0.0924
 3867SOL    HW123060   0.596   3.041   9.535 -0.2652  0.9913 -0.8534
 3867SOL    HW223061   0.451   3.054   9.586 -0.0089  0.1141 -0.4052
 3868SOL     OW23062   1.039   1.801  13.344  0.7907 -0.5072 -0.0112
 3868SOL    HW123063   1.114   1.852  13.316  1.7195 -2.5769 -1.2948
 3868SOL    HW223064   0.979   1.821  13.272  1.9382 -0.2289 -0.8857
 3869SOL     OW23065   3.889   2.689  12.566 -0.2796 -0.1411 -0.0621
 3869SOL    HW123066   3.862   2.764  12.618 -0.9702  1.5841 -2.9564
 3869SOL    HW223067   3.868   2.618  12.627  3.3843 -1.6003 -0.4522
 3870SOL     OW23068   0.124   3.267  11.666 -0.2423 -0.1177  0.2096
 3870SOL    HW123069   0.055   3.326  11.695  0.0134  0.3611 -0.1497
 3870SOL    HW223070   0.175   3.255  11.746 -0.0920 -0.5940  0.0382
 3871SOL     OW23071   0.673   3.688   6.592 -0.4040  0.2266 -0.3860
 3871SOL    HW123072   0.582   3.660   6.604 -0.1289 -0.7175 -0.5278
 3871SOL    HW223073   0.701   3.626   6.524 -2.9927 -1.4281  0.0699
 3872SOL     OW23074   1.869   2.103   8.907  0.5617  0.3086 -0.2547
 3872SOL    HW123075   1.925   2.042   8.860  0.1849 -1.7662  1.9787
 3872SOL    HW223076   1.838   2.046   8.977  0.5894 -0.5613 -0.9491
 3873SOL     OW23077   0.724   3.573   0.039  0.3052  0.3411 -0.1329
 3873SOL    HW123078   0.785   3.501   0.051  0.0332  0.0519 -0.4911
 3873SOL    HW223079   0.657   3.527  17.676  0.0850  0.9497 -0.4038
 3874SOL     OW23080   1.009   2.814   9.993  0.0795 -1.1321 -0.4805
 3874SOL    HW123081   1.009   2.898  10.039  4.1060 -1.1951 -0.4063
 3874SOL    HW223082   1.064   2.756  10.046  0.8935  0.5037  0.4617
 3875SOL     OW23083   3.289   0.092  16.587 -0.1481  0.1185 -0.6331
 3875SOL    HW123084   3.202   0.131  16.599  0.0379  0.1765  0.5149
 3875SOL    HW223085   3.325   0.101  16.675 -2.8413 -0.3226  0.5182
 3876SOL     OW23086   2.108   3.570   5.130  0.1566 -0.1472  0.0842
 3876SOL    HW123087   2.073   3.525   5.053  1.1858 -0.3805 -0.2410
 3876SOL    HW223088   2.131   3.505   5.196 -0.4378 -0.4087  0.0318
 3877SOL     OW23089   0.521   2.408   9.071 -0.2621  0.5889  0.5027
 3877SOL    HW123090   0.461   2.483   9.079 -3.4577 -1.7725 -1.1130
 3877SOL    HW223091   0.511   2.366   9.157 -0.2767  1.3989  0.8950
 3878SOL     OW23092   4.551   2.878   1.811  0.0497  0.1145 -0.3501
 3878SOL    HW123093   4.577   2.841   1.726  0.4631  1.3844 -0.7884
 3878SOL    HW223094   4.617   2.947   1.812 -0.2304  0.3817 -0.2759
 3879SOL     OW23095   1.382   0.607   2.462 -0.9601  0.4847  0.0853
 3879SOL    HW123096   1.403   0.666   2.389 -0.8693  0.6655  0.2574
 3879SOL    HW223097   1.311   0.554   2.426  1.1644 -0.1676 -3.1029
 3880SOL     OW23098   3.341   0.049  11.636 -0.3274 -0.3293 -0.3965
 3880SOL    HW123099   3.422   0.098  11.627 -0.6732  0.2241 -0.5450
 3880SOL    HW223100   3.329   0.066  11.729  1.5686 -2.5791  0.2349
 3881SOL     OW23101   1.658   3.702   9.927 -0.5546  0.4385 -0.2578
 3881SOL    HW123102   1.709   3.653   9.864 -1.3020  0.3531 -0.8028
 3881SOL    HW223103   1.669   3.792   9.897  1.7093  0.0935 -0.4183
 3882SOL     OW23104   3.166   1.731  12.485  0.0522  0.2268 -0.5119
 3882SOL    HW123105   3.105   1.784  12.535  0.0838 -0.8042  0.6141
 3882SOL    HW223106   3.229   1.726  12.556 -0.6635  0.4171  0.1363
 3883SOL     OW23107   0.723   2.206  16.283 -0.0811 -0.2044 -0.1328
 3883SOL    HW123108   0.656   2.217  16.350  0.3498  0.8501  0.1202
 3883SOL    HW223109   0.712   2.119  16.243 -0.8587 -0.3743  0.4416
 3884SOL     OW23110   0.954   0.405  12.709  0.1036  0.7523 -0.6623
 3884SOL    HW123111   0.883   0.365  12.658 -0.3370 -0.8864  1.2493
 3884SOL    HW223112   0.938   0.498  12.693 -0.0528  0.4771 -2.1563
 3885SOL     OW23113   3.217   1.811   8.280  0.1873 -0.2233  0.0336
 3885SOL    HW123114   3.220   1.789   8.373  2.0845  2.3369  0.5674
 3885SOL    HW223115   3.198   1.725   8.242 -2.9521  0.7955 -0.7006
 3886SOL     OW23116   0.972   0.718   8.793  0.4443 -0.5823 -0.3278
 3886SOL    HW123117   1.047   0.695   8.848  0.1638 -2.2789 -0.6457
 3886SOL    HW223118   0.920   0.776   8.848  0.3871 -1.0891  0.1497
 3887SOL     OW23119   4.403   3.866   7.078 -0.1317 -0.4625  0.1015
 3887SOL    HW123120   4.369   3.778   7.060 -1.7556  0.0559  0.7284
 3887SOL    HW223121   4.422   3.881   6.986  0.3402 -2.3489 -0.1142
 3888SOL     OW23122   2.960   0.885  11.697  0.4723 -0.9629 -0.5307
 3888SOL    HW123123   3.005   0.968  11.681 -1.8505  0.3932 -0.1674
 3888SOL    HW223124   2.875   0.916  11.665 -0.0042  0.6145  2.3135
 3889SOL     OW23125   0.536   2.562  16.788 -0.0832 -0.0496  0.0267
 3889SOL    HW123126   0.454   2.524  16.819 -0.4056  0.5681 -0.0609
 3889SOL    HW223127   0.531   2.542  16.695  1.5078  1.5139 -0.4091
 3890SOL     OW23128   2.632   3.310  12.479  0.5221 -0.5719 -0.3263
 3890SOL    HW123129   2.645   3.220  12.449 -1.2615 -0.1008 -2.5294
 3890SOL    HW223130   2.662   3.357  12.401  0.2138  0.8156  0.3797
 3891SOL     OW23131   2.734   3.895   1.033  0.0678 -0.3481  0.3959
 3891SOL    HW123132   2.720   3.839   0.956 -0.7618  0.0121  0.2890
 3891SOL    HW223133   2.649   3.937   1.042 -0.3843 -1.4288  1.2082
 3892SOL     OW23134   0.356   4.651  14.621 -0.2425 -0.7848  0.1470
 3892SOL    HW123135   0.396   0.013  14.645  1.2133 -1.6066  0.5841
 3892SOL    HW223136   0.276   4.676  14.576 -0.6378  1.7858  2.2961
 3893SOL     OW23137   4.290   1.513  16.218 -0.1114  0.0911 -0.2416
 3893SOL    HW123138   4.287   1.595  16.169  0.4664 -0.6252 -1.4662
 3893SOL    HW223139   4.384   1.496  16.217 -0.2067 -0.2903 -1.9561
 3894SOL     OW23140   3.309   1.407   6.849 -0.0662 -0.0022 -0.4348
 3894SOL    HW123141   3.250   1.369   6.915 -1.0316 -0.2906 -1.4542
 3894SOL    HW223142   3.323   1.492   6.891 -2.0093 -0.5399  1.3290
 3895SOL     OW23143   4.322   3.043   8.237  0.1796 -0.0846 -0.0513
 3895SOL    HW123144   4.245   3.005   8.196  0.3515 -0.1123 -0.3464
 3895SOL    HW223145   4.298   3.133   8.260 -2.4293 -1.0451  1.0429
 3896SOL     OW23146   4.322   2.226   9.093 -0.5347  0.0130  0.5388
 3896SOL    HW123147   4.228   2.209   9.093 -0.4538 -0.4412 -1.3422
 3896SOL    HW223148   4.357   2.140   9.114 -0.6245  0.1000  1.0508
 3897SOL     OW23149   3.691   0.360  12.918  0.7339  0.4678 -0.0644
 3897SOL    HW123150   3.723   0.303  12.849  2.0008  0.2443  0.7090
 3897SOL    HW223151   3.695   0.307  12.998  0.8369 -2.9110 -2.3023
 3898SOL     OW23152   1.790   1.884  15.611 -0.0534 -0.0807  0.2969
 3898SOL    HW123153   1.846   1.819  15.568 -1.9589 -2.0033  0.7212
 3898SOL    HW223154   1.775   1.841  15.695 -1.7260  1.9241  1.0272
 3899SOL     OW23155   2.030   2.954  10.901  0.9488 -0.3486  0.1171
 3899SOL    HW123156   2.007   2.905  10.822 -0.4856  2.8178 -1.4168
 3899SOL    HW223157   2.123   2.977  10.897  0.9815 -0.7694 -1.4480
 3900SOL     OW23158   3.190   2.076  12.960  0.6585  0.1613 -0.2325
 3900SOL    HW123159   3.257   2.008  12.952  1.5471  0.6523  2.9372
 3900SOL    HW223160   3.183   2.103  12.869 -1.7975 -0.0653 -0.1122
 3901SOL     OW23161   0.862   1.300  14.025 -0.4944 -0.4368 -0.0756
 3901SOL    HW123162   0.936   1.303  14.086 -0.8160 -1.0411  0.3395
 3901SOL    HW223163   0.791   1.311  14.088 -0.3728 -0.3697  0.0508
 3902SOL     OW23164   3.680   2.974   6.365 -0.0186  0.4054  0.2885
 3902SOL    HW123165   3.640   2.888   6.373 -0.0510  0.5390  1.5353
 3902SOL    HW223166   3.606   3.021   6.325 -1.4192 -0.9317  1.3441
 3903SOL     OW23167   3.819   3.712   3.031  0.3253  0.0373 -0.2575
 3903SOL    HW123168   3.810   3.676   3.119 -0.1621 -3.6033 -1.7921
 3903SOL    HW223169   3.914   3.712   3.023  0.3388 -0.7431 -0.1358
 3904SOL     OW23170   0.182   0.802   2.367 -0.2161  0.2778 -0.2168
 3904SOL    HW123171   0.104   0.758   2.400  0.7083 -2.0235 -1.0928
 3904SOL    HW223172   0.196   0.885   2.412 -0.3779  0.1834  0.0083
 3905SOL     OW23173   0.694   4.411  13.718 -0.8585 -0.0083  0.1719
 3905SOL    HW123174   0.777   4.410  13.669 -0.6700  1.4502  0.4654
 3905SOL    HW223175   0.661   4.493  13.681 -0.5542  0.3044  0.5833
 3906SOL     OW23176   1.077   0.011   4.592  0.3027 -0.0256  0.1667
 3906SOL    HW123177   1.142   0.080   4.601 -0.1879  0.6511 -1.5367
 3906SOL    HW223178   1.122   4.680   4.525 -0.4685 -0.5695  0.0699
 3907SOL     OW23179   3.494   4.052   9.197  0.1418  0.0306 -0.3873
 3907SOL    HW123180   3.540   3.992   9.256 -0.2206  1.0048  0.8705
 3907SOL    HW223181   3.567   4.086   9.145 -2.0909  4.2303 -0.7699
 3908SOL     OW23182   4.391   3.862   7.536  0.6453 -0.5144 -0.2091
 3908SOL    HW123183   4.301   3.869   7.506  0.9046  1.2417 -0.6121
 3908SOL    HW223184   4.389   3.910   7.619 -1.2321 -1.9617  0.5687
 3909SOL     OW23185   1.541   3.088   8.008  0.3044  0.0091  0.3820
 3909SOL    HW123186   1.524   3.166   7.954 -1.2245 -0.4375  0.2295
 3909SOL    HW223187   1.535   3.125   8.096  2.1069  1.7085 -0.2023
 3910SOL     OW23188   0.119   4.205   7.418 -0.5281  0.9014  0.0880
 3910SOL    HW123189   0.137   4.256   7.497  0.1838 -0.8439  1.0404
 3910SOL    HW223190   0.100   4.121   7.461  0.5938 -0.0134 -1.2034
 3911SOL     OW23191   2.636   3.061   8.393 -0.4632  0.1555 -0.2960
 3911SOL    HW123192   2.698   3.124   8.358  1.6371 -1.1434  1.0675
 3911SOL    HW223193   2.571   3.054   8.323 -1.0740 -0.1058  0.2919
 3912SOL     OW23194   2.730   4.161   5.548  0.0642 -0.1966 -0.3685
 3912SOL    HW123195   2.817   4.197   5.567  0.1633  0.0989 -1.4182
 3912SOL    HW223196   2.744   4.140   5.456 -1.7607 -1.1224 -0.4509
 3913SOL     OW23197   3.851   2.518   8.599  0.2510 -0.1879 -0.2587
 3913SOL    HW123198   3.838   2.500   8.506  1.1126  1.8901 -0.7693
 3913SOL    HW223199   3.924   2.460   8.622  0.4233  0.1053 -0.0636
 3914SOL     OW23200   4.193   3.616   2.739 -0.3690 -0.5049 -0.2230
 3914SOL    HW123201   4.190   3.566   2.658  1.8197  0.1973 -0.7467
 3914SOL    HW223202   4.282   3.649   2.726 -0.7708  0.5435 -0.2968
 3915SOL     OW23203   4.426   3.599   3.454 -0.5445  0.2497  0.1011
 3915SOL    HW123204   4.451   3.631   3.368  2.0184 -1.2962  0.2617
 3915SOL    HW223205   4.349   3.654   3.467 -1.9304 -2.0546  1.6357
 3916SOL     OW23206   0.866   2.106   8.702 -0.1302  0.1961  0.1044
 3916SOL    HW123207   0.774   2.126   8.685 -0.1666 -1.2333 -1.4040
 3916SOL    HW223208   0.895   2.192   8.733 -2.8061  1.4116 -0.7094
 3917SOL     OW23209   2.947   4.462   6.721  0.3158  0.4103  0.4487
 3917SOL    HW123210   3.024   4.482   6.775 -1.4272  2.0687  2.3035
 3917SOL    HW223211   2.884   4.451   6.792 -2.3712 -0.3875 -2.0446
 3918SOL     OW23212   2.354   0.839   5.051  0.4898 -0.2084  0.1105
 3918SOL    HW123213   2.308   0.757   5.069  1.3318 -0.6537  0.2263
 3918SOL    HW223214   2.443   0.819   5.021  0.1811  0.2101 -1.0690
 3919SOL     OW23215   3.128   2.000  10.964 -0.3952 -0.1198  0.4683
 3919SOL    HW123216   3.093   1.944  11.033  1.3753 -1.8531 -0.0589
 3919SOL    HW223217   3.081   1.964  10.888  0.9630 -1.4939  0.2960
 3920SOL     OW23218   1.285   4.353  12.023 -0.2179  0.5041  0.0502
 3920SOL    HW123219   1.354   4.300  12.063 -1.4568 -1.2861 -0.1697
 3920SOL    HW223220   1.313   4.351  11.932 -0.8304  0.4274 -0.1359
 3921SOL     OW23221   0.280   3.168   4.449 -0.1103  0.5305 -0.3857
 3921SOL    HW123222   0.251   3.103   4.513 -0.4554  2.0847  1.0346
 3921SOL    HW223223   0.242   3.134   4.368  3.3547 -0.0925 -1.7647
 3922SOL     OW23224   3.533   0.497  15.530 -0.5167  0.3880 -0.0987
 3922SOL    HW123225   3.562   0.588  15.520  0.8740 -0.1574 -0.9682
 3922SOL    HW223226   3.479   0.483  15.451 -1.0689  0.4688  0.2623
 3923SOL     OW23227   0.059   0.375   1.966  0.1945  0.3388  0.0809
 3923SOL    HW123228   4.699   0.326   1.947  1.6033 -1.8351 -0.3965
 3923SOL    HW223229   0.040   0.459   1.925  2.1180  0.5903 -0.3151
 3924SOL     OW23230   4.698   1.374   7.200  0.3315 -0.2767 -0.0555
 3924SOL    HW123231   4.644   1.295   7.204  0.4191 -0.4167 -1.5696
 3924SOL    HW223232   4.628   1.439   7.202  1.7868  1.3688 -1.8669
 3925SOL     OW23233   3.214   1.268   5.698  0.0428  0.1319  0.4780
 3925SOL    HW123234   3.161   1.272   5.777  1.5202  1.6864  1.3956
 3925SOL    HW223235   3.258   1.183   5.707  0.7539  0.3397 -1.0454
 3926SOL     OW23236   0.205   1.713   4.490 -0.5522  0.1538 -0.7821
 3926SOL    HW123237   0.252   1.672   4.418  1.9302  0.7463  0.4919
 3926SOL    HW223238   0.267   1.680   4.555 -0.7065 -1.3828 -1.4367
 3927SOL     OW23239   2.504   0.973   3.956  0.4115  0.2540 -0.2045
 3927SOL    HW123240   2.565   1.044   3.935  0.6853  0.2104  0.4287
 3927SOL    HW223241   2.516   0.978   4.051  1.5942 -1.2785 -0.2689
 3928SOL     OW23242   0.477   4.274   2.368 -0.0156 -0.5386 -0.1379
 3928SOL    HW123243   0.503   4.315   2.286  1.3255 -0.5603  0.2655
 3928SOL    HW223244   0.457   4.353   2.419 -1.0360 -1.3690  0.7545
 3929SOL     OW23245   4.592   4.520   8.215  0.3490  0.9390 -0.4898
 3929SOL    HW123246   4.546   4.437   8.230  0.9807  0.9736  1.6029
 3929SOL    HW223247   4.596   4.530   8.120  1.2427  0.2723 -0.5197
 3930SOL     OW23248   0.599   2.452   0.046 -0.0897 -0.2438  0.1535
 3930SOL    HW123249   0.665   2.507   0.003  0.5312 -0.8712  0.2864
 3930SOL    HW223250   0.522   2.508   0.039 -0.4716 -0.7044  0.7338
 3931SOL     OW23251   2.620   1.409   3.243  0.2241 -0.4043  0.4051
 3931SOL    HW123252   2.561   1.360   3.300 -0.1245 -2.3286 -1.6223
 3931SOL    HW223253   2.660   1.472   3.304 -1.6024  0.5334  0.6380
 3932SOL     OW23254   2.939   4.376   1.586 -0.6972  0.2508  1.4739
 3932SOL    HW123255   2.977   4.449   1.635  2.0926 -0.3947  0.2297
 3932SOL    HW223256   3.018   4.325   1.571 -0.2786  0.5955  2.5032
 3933SOL     OW23257   3.489   1.276  17.621  0.9526  0.0079  0.2042
 3933SOL    HW123258   3.424   1.216  17.657  1.3371 -1.6126 -1.8433
 3933SOL    HW223259   3.491   1.270  17.526  4.2158 -0.5352  0.2984
 3934SOL     OW23260   4.292   1.219   2.187 -0.0473 -0.4947  0.1548
 3934SOL    HW123261   4.255   1.300   2.222  0.3881 -0.3833  0.3614
 3934SOL    HW223262   4.313   1.185   2.274 -2.4113  1.4131  1.4722
 3935SOL     OW23263   0.688   3.326   9.045 -0.8670  0.2702 -0.6863
 3935SOL    HW123264   0.782   3.327   9.063 -0.9723 -0.8062 -0.0453
 3935SOL    HW223265   0.655   3.373   9.121  1.0452 -1.1304  0.9953
 3936SOL     OW23266   4.379   1.090  15.378 -0.2962 -0.2598  0.2557
 3936SOL    HW123267   4.444   1.114  15.312  0.1507 -0.1187  0.7528
 3936SOL    HW223268   4.421   1.119  15.459  0.3604 -0.8996  0.1411
 3937SOL     OW23269   4.681   2.021   3.434 -0.4434 -0.2407  0.3852
 3937SOL    HW123270   4.700   2.113   3.420  1.4273 -0.9371 -1.5515
 3937SOL    HW223271   4.687   1.988   3.344 -0.9066 -0.6609  0.5080
 3938SOL     OW23272   2.397   4.493  11.208 -0.0716  0.1826  0.1506
 3938SOL    HW123273   2.343   4.415  11.192  1.1901 -0.8576  0.9630
 3938SOL    HW223274   2.330   4.561  11.210 -0.6167 -0.3855  1.1991
 3939SOL     OW23275   0.971   0.895   3.526  0.2930 -0.1552  0.3517
 3939SOL    HW123276   0.975   0.990   3.515  0.8991 -0.0460  1.5074
 3939SOL    HW223277   0.982   0.884   3.432  0.0662  1.6690  0.0993
 3940SOL     OW23278   3.467   0.284   9.025 -0.3495 -0.5206 -0.4647
 3940SOL    HW123279   3.488   0.370   8.989 -1.1323 -0.3609 -0.5525
 3940SOL    HW223280   3.536   0.288   9.092  1.3227 -0.3960 -2.1971
 3941SOL     OW23281   0.544   4.320   2.847 -0.2414 -0.2807 -0.2970
 3941SOL    HW123282   0.582   4.316   2.760  0.9619  0.4219  0.1924
 3941SOL    HW223283   0.494   4.401   2.843 -1.9322 -1.3658 -1.2310
 3942SOL     OW23284   2.347   2.857   2.097  0.0917 -0.1447  0.4377
 3942SOL    HW123285   2.417   2.897   2.046 -0.1747  0.8140  0.8321
 3942SOL    HW223286   2.281   2.843   2.028 -0.3709 -2.1442  1.2612
 3943SOL     OW23287   3.455   2.932  15.344 -0.1108 -0.0392  0.0160
 3943SOL    HW123288   3.541   2.949  15.307 -1.2917  0.6564 -2.4036
 3943SOL    HW223289   3.441   3.025  15.366 -3.1158 -0.9667  2.0494
 3944SOL     OW23290   2.307   1.295   5.873 -0.3879 -0.2635 -0.4416
 3944SOL    HW123291   2.379   1.350   5.902 -2.4332  3.4812 -2.3873
 3944SOL    HW223292   2.339   1.208   5.896 -1.2176 -0.0191  1.6476
 3945SOL     OW23293   2.850   3.580  12.921 -0.6727  0.8513 -0.4211
 3945SOL    HW123294   2.797   3.530  12.859  1.3744  0.8552 -2.1437
 3945SOL    HW223295   2.861   3.668  12.885 -1.4867  2.2471  2.7314
 3946SOL     OW23296   3.807   3.111   7.295  0.1152  0.2108  0.3966
 3946SOL    HW123297   3.738   3.122   7.230 -1.5213 -1.4817  1.8603
 3946SOL    HW223298   3.789   3.191   7.343  1.4595  1.4982 -1.2498
 3947SOL     OW23299   1.539   0.802   5.643  0.1123 -0.3825  0.4646
 3947SOL    HW123300   1.447   0.784   5.621  0.1757  0.9889 -0.8754
 3947SOL    HW223301   1.564   0.878   5.590 -2.3002  0.1193  0.0244
 3948SOL     OW23302   4.049   0.676  14.628  0.9818 -0.3689  0.3553
 3948SOL    HW123303   3.981   0.612  14.608  1.0658  0.0002 -1.0727
 3948SOL    HW223304   4.122   0.629  14.668  0.4371 -0.4141  1.3172
 3949SOL     OW23305   1.387   2.711   2.233 -0.3828 -0.7556  0.2850
 3949SOL    HW123306   1.317   2.654   2.265 -0.9097  0.1481  0.7581
 3949SOL    HW223307   1.333   2.757   2.169 -1.0868  0.6480  1.8708
 3950SOL     OW23308   4.230   3.173  11.519  0.3667 -0.5178 -0.0522
 3950SOL    HW123309   4.145   3.201  11.554 -0.1512 -0.0519 -1.6699
 3950SOL    HW223310   4.245   3.241  11.454 -0.7276  1.3325  1.6493
 3951SOL     OW23311   0.827   4.680   5.541 -0.4202  0.2627  0.1331
 3951SOL    HW123312   0.773   4.622   5.595  0.6099 -2.0573 -1.3292
 3951SOL    HW223313   0.915   4.673   5.578 -0.3624  0.9961  0.1217
 3952SOL     OW23314   2.649   3.584   2.895  0.3671 -0.8451 -0.4583
 3952SOL    HW123315   2.573   3.612   2.845 -0.4410 -3.2310 -0.5608
 3952SOL    HW223316   2.656   3.490   2.878 -1.1412 -1.2961  1.3859
 3953SOL     OW23317   0.019   2.197   7.407  0.0650 -0.3333  0.1270
 3953SOL    HW123318   0.008   2.290   7.426  0.3540  0.1754 -2.2471
 3953SOL    HW223319   4.695   2.189   7.323 -0.9159  1.1876  0.5125
 3954SOL     OW23320   3.756   0.613   6.720  0.2547 -0.4650 -0.3259
 3954SOL    HW123321   3.829   0.646   6.668 -0.1247  1.1583  0.1755
 3954SOL    HW223322   3.741   0.527   6.680  2.4827  0.0541 -2.2536
 3955SOL     OW23323   0.328   0.807   8.205  0.0154 -0.8292  0.0204
 3955SOL    HW123324   0.377   0.725   8.210 -0.7676 -1.3215 -0.3493
 3955SOL    HW223325   0.255   0.776   8.151  1.9938 -0.8451 -2.6915
 3956SOL     OW23326   3.135   1.292   3.577  0.5627 -0.0321  0.1336
 3956SOL    HW123327   3.195   1.222   3.602 -1.1651 -1.9970 -1.1542
 3956SOL    HW223328   3.174   1.370   3.616 -0.2688  0.5575 -0.2128
 3957SOL     OW23329   0.895   0.792  16.133 -0.4218  0.2951  0.0923
 3957SOL    HW123330   0.874   0.779  16.040  1.1330 -0.9724 -0.1034
 3957SOL    HW223331   0.941   0.874  16.118 -1.7880  1.9498  5.1680
 3958SOL     OW23332   4.457   3.347  11.106  0.3692 -0.0078 -0.3311
 3958SOL    HW123333   4.545   3.355  11.142  0.0671 -0.8233  0.5934
 3958SOL    HW223334   4.480   3.378  11.018  0.5635  0.7313 -0.0195
 3959SOL     OW23335   1.096   4.396   7.476  0.0655 -0.3568  0.3401
 3959SOL    HW123336   1.150   4.473   7.460 -1.4360  0.4897 -0.6624
 3959SOL    HW223337   1.159   4.336   7.516 -1.4816 -0.7139  2.2432
 3960SOL     OW23338   1.449   2.403   5.946 -0.0360 -0.3805 -0.2821
 3960SOL    HW123339   1.370   2.361   5.979  1.6526 -2.4838  1.0504
 3960SOL    HW223340   1.451   2.480   6.002  0.2484 -2.0778  2.0190
 3961SOL     OW23341   0.102   3.065   8.602 -0.2598  0.0907  0.4746
 3961SOL    HW123342   0.106   3.144   8.548 -1.0382  0.0691  0.3942
 3961SOL    HW223343   0.130   2.998   8.540 -0.2677 -1.0697  1.7443
 3962SOL     OW23344   1.534   3.759   5.461  0.6831  0.5091  0.4384
 3962SOL    HW123345   1.567   3.736   5.547 -0.5476 -2.7611  0.0256
 3962SOL    HW223346   1.467   3.696   5.437  0.3797  0.7108  0.7637
 3963SOL     OW23347   0.631   3.606  10.253 -0.4264  0.2270  0.2342
 3963SOL    HW123348   0.565   3.624  10.320  0.7178 -0.5782  1.5692
 3963SOL    HW223349   0.665   3.693  10.233 -0.4027 -0.2681 -1.9409
 3964SOL     OW23350   4.611   4.637   8.638  0.3259 -0.0149 -0.3819
 3964SOL    HW123351   4.705   4.619   8.645  0.2841  0.0745  0.4985
 3964SOL    HW223352   4.607   4.675   8.551 -1.7009  1.6811  0.4396
 3965SOL     OW23353   1.903   1.034   4.002 -0.3715 -0.1061 -0.2694
 3965SOL    HW123354   1.840   1.043   3.930 -0.8358 -0.7338  0.0594
 3965SOL    HW223355   1.957   1.114   4.000 -1.7820  0.8532  0.0120
 3966SOL     OW23356   1.506   2.499   5.682  0.0661  0.1939  0.1248
 3966SOL    HW123357   1.477   2.458   5.763 -0.4857 -2.7009 -1.5291
 3966SOL    HW223358   1.442   2.463   5.620  2.5046 -0.0149 -2.2479
 3967SOL     OW23359   2.903   2.230  17.492 -0.1760  0.0593 -0.2242
 3967SOL    HW123360   2.836   2.246  17.426 -0.5164  0.0216  0.1065
 3967SOL    HW223361   2.882   2.297  17.558  1.5287  0.3094  0.0517
 3968SOL     OW23362   3.922   0.046   9.545 -0.1239 -0.2567  0.5193
 3968SOL    HW123363   3.917   0.060   9.640 -1.2256  1.8518  0.1334
 3968SOL    HW223364   3.860   0.111   9.514 -0.1696  0.6501  2.5228
 3969SOL     OW23365   4.219   0.123  12.642  0.1342 -0.1763  0.2954
 3969SOL    HW123366   4.251   0.083  12.722 -1.8902 -0.8232  0.7783
 3969SOL    HW223367   4.215   0.217  12.659 -2.9121 -0.2634  0.0127
 3970SOL     OW23368   0.965   0.371  10.308 -0.0543  0.1619 -0.3551
 3970SOL    HW123369   0.959   0.316  10.230  2.4342 -0.6054  0.0035
 3970SOL    HW223370   0.877   0.346  10.337 -0.1777 -0.5142 -1.3098
 3971SOL     OW23371   4.301   2.173  17.247  0.1236 -0.3994 -0.1659
 3971SOL    HW123372   4.385   2.130  17.232  0.2501 -0.2578  0.1230
 3971SOL    HW223373   4.307   2.206  17.337  2.5251 -2.4207  0.4056
 3972SOL     OW23374   1.982   1.579  11.834 -0.4863 -0.0296  0.1870
 3972SOL    HW123375   1.948   1.660  11.796  0.4774  1.0292  1.5792
 3972SOL    HW223376   2.073   1.599  11.855  0.0917 -1.0080 -1.3624
 3973SOL     OW23377   1.750   2.963   1.925 -0.7524  0.0641  0.6856
 3973SOL    HW123378   1.807   2.949   1.850  0.6820 -3.7797  2.4973
 3973SOL    HW223379   1.753   2.878   1.970  2.4112  0.4504  1.1886
 3974SOL     OW23380   4.496   0.087   9.565  0.1533 -0.0118  0.1804
 3974SOL    HW123381   4.407   0.116   9.585  0.2238  1.6866 -1.8669
 3974SOL    HW223382   4.512   0.141   9.487  0.6743  1.1772  1.1071
 3975SOL     OW23383   1.788   3.265   5.332  0.2961 -1.0230  0.0313
 3975SOL    HW123384   1.798   3.173   5.308  3.0704 -0.3755 -1.3015
 3975SOL    HW223385   1.758   3.262   5.422 -0.8376 -0.3717 -0.3293
 3976SOL     OW23386   0.625   0.133   6.518  0.2516 -0.1594  0.5148
 3976SOL    HW123387   0.609   0.152   6.611  0.1677  0.8178  0.2984
 3976SOL    HW223388   0.684   0.058   6.510  1.6462  1.0690 -0.5476
 3977SOL     OW23389   1.529   2.423   3.115 -0.6659  0.5720  0.2981
 3977SOL    HW123390   1.603   2.476   3.146 -2.5340  2.7820  0.9818
 3977SOL    HW223391   1.520   2.368   3.193 -2.5100 -0.2509 -0.5096
 3978SOL     OW23392   3.169   2.596   7.411 -0.2668  0.0196 -0.6327
 3978SOL    HW123393   3.088   2.631   7.449  0.3620  1.1841 -0.3580
 3978SOL    HW223394   3.171   2.633   7.323 -1.3089 -1.7040 -1.3759
 3979SOL     OW23395   4.528   2.146   8.538 -0.6947  0.0706  0.2152
 3979SOL    HW123396   4.449   2.124   8.588 -2.2315 -0.7176 -2.5105
 3979SOL    HW223397   4.530   2.238   8.563  2.7966  0.0216  0.0581
 3980SOL     OW23398   3.935   0.181   8.565  0.1419  0.1418  0.8363
 3980SOL    HW123399   3.979   0.187   8.650 -1.2425 -1.1281  1.6535
 3980SOL    HW223400   3.846   0.204   8.593 -0.4862 -2.4170  0.9486
 3981SOL     OW23401   4.570   1.092   7.027 -0.2652  0.0575 -0.0303
 3981SOL    HW123402   4.589   1.120   6.937 -0.6183  4.2031  1.1696
 3981SOL    HW223403   4.487   1.140   7.030  0.7339  1.8351 -0.5843
 3982SOL     OW23404   2.488   4.705   1.572 -0.0006 -0.7919 -0.2415
 3982SOL    HW123405   2.581   4.692   1.553  0.4330 -0.7148  1.8545
 3982SOL    HW223406   2.499   0.060   1.629 -0.1639 -1.4566  0.6689
 3983SOL     OW23407   3.067   2.389   6.606  0.1674 -0.6107 -0.5385
 3983SOL    HW123408   3.138   2.363   6.546  0.0249 -2.5282  0.1187
 3983SOL    HW223409   3.103   2.462   6.656 -1.1365 -1.0129  0.9711
 3984SOL     OW23410   0.329   0.126   6.720 -0.3276  0.5798  0.5870
 3984SOL    HW123411   0.263   0.061   6.744 -0.1772  0.3263  0.3128
 3984SOL    HW223412   0.322   0.106   6.627  0.0980 -0.2508  0.7328
 3985SOL     OW23413   4.304   0.052  12.930 -0.2607  0.2498 -0.0801
 3985SOL    HW123414   4.286   0.142  12.960 -0.4126  0.4482 -0.7680
 3985SOL    HW223415   4.237   4.717  12.970  2.0224 -0.1887  3.1807
 3986SOL     OW23416   2.087   0.516   9.270 -0.4910 -0.2683  0.6165
 3986SOL    HW123417   2.099   0.457   9.195 -1.3146  1.6492 -1.0271
 3986SOL    HW223418   2.177   0.539   9.292 -0.6145  1.0808 -0.3258
 3987SOL     OW23419   4.542   3.894   5.764 -0.2482  0.6793  0.2030
 3987SOL    HW123420   4.564   3.801   5.773  0.9598  0.9671  0.1446
 3987SOL    HW223421   4.623   3.921   5.722 -0.1863  1.3749  0.7837
 3988SOL     OW23422   2.594   1.793   6.425 -0.2695  0.0134 -0.0890
 3988SOL    HW123423   2.633   1.727   6.482 -0.7013  0.9635  1.3094
 3988SOL    HW223424   2.666   1.832   6.376 -1.8985 -0.0160 -2.5068
 3989SOL     OW23425   2.747   4.497   6.953  0.1014 -0.9984  0.3732
 3989SOL    HW123426   2.685   4.425   6.952  0.0529 -0.9264 -1.6046
 3989SOL    HW223427   2.709   4.555   6.887 -1.4818 -1.3903  0.9655
 3990SOL     OW23428   0.982   1.530   5.105  0.6983 -0.4185  0.8634
 3990SOL    HW123429   0.920   1.590   5.065  0.0513 -2.6039 -1.4054
 3990SOL    HW223430   1.054   1.551   5.045 -0.6483  0.8780 -0.2931
 3991SOL     OW23431   3.467   2.628   5.104  0.0969  0.2063  0.0424
 3991SOL    HW123432   3.400   2.609   5.038 -1.6633 -1.4702  2.3059
 3991SOL    HW223433   3.534   2.567   5.075  0.6925  0.9506 -0.1670
 3992SOL     OW23434   2.343   1.792   6.560  0.0050  0.2567  0.2167
 3992SOL    HW123435   2.435   1.786   6.535 -0.6029 -0.6952 -1.8373
 3992SOL    HW223436   2.308   1.865   6.508  0.7749  0.2255 -0.3472
 3993SOL     OW23437   0.545   0.209  11.933  0.0091  0.5288  0.1648
 3993SOL    HW123438   0.587   0.289  11.963  1.3967  0.1992 -0.8858
 3993SOL    HW223439   0.460   0.250  11.917  0.8970  2.7002  1.0158
 3994SOL     OW23440   1.634   0.020   6.822  0.3337 -0.2446  0.1376
 3994SOL    HW123441   1.690   4.701   6.755 -1.3169 -0.5728 -1.0321
 3994SOL    HW223442   1.592   0.094   6.779 -0.8138 -0.8092  0.3126
 3995SOL     OW23443   0.262   3.551   7.964 -0.0938 -0.0199 -0.6454
 3995SOL    HW123444   0.345   3.511   7.992 -0.7385  0.5469  2.0193
 3995SOL    HW223445   0.278   3.644   7.976 -0.7209  0.2786 -2.0871
 3996SOL     OW23446   0.388   1.969  13.222 -0.3075 -0.5973  0.1077
 3996SOL    HW123447   0.438   1.923  13.154 -1.4547  0.2234 -1.3043
 3996SOL    HW223448   0.321   2.010  13.167 -1.1598 -0.6181  1.1381
 3997SOL     OW23449   1.003   1.459   9.357 -0.3879  0.7285  0.0250
 3997SOL    HW123450   0.938   1.438   9.424 -1.0487 -3.1407 -1.8017
 3997SOL    HW223451   1.028   1.546   9.387  1.1818  0.2388  0.1260
 3998SOL     OW23452   2.790   2.255  16.658  0.1645 -0.2468 -0.4335
 3998SOL    HW123453   2.705   2.230  16.623 -0.6857  1.8493  0.1451
 3998SOL    HW223454   2.772   2.238  16.751  1.0125  4.3361  0.5635
 3999SOL     OW23455   0.709   3.501   3.843 -0.3447  0.8512  0.6435
 3999SOL    HW123456   0.756   3.495   3.926 -0.5536 -0.9795  0.6273
 3999SOL    HW223457   0.754   3.576   3.805  0.3584  0.0813 -0.0355
 4000SOL     OW23458   3.667   3.853   0.075 -0.3165  0.0052 -0.5135
 4000SOL    HW123459   3.644   3.762   0.093 -0.0542 -0.5782 -3.0667
 4000SOL    HW223460   3.683   3.892   0.160 -3.3599  1.7125 -0.7527
 4001SOL     OW23461   4.154   3.666   6.427  0.7121  0.2621  0.4572
 4001SOL    HW123462   4.218   3.687   6.360  0.8674  0.6086  0.7121
 4001SOL    HW223463   4.082   3.625   6.380  1.9796  0.4739 -1.6402
 4002SOL     OW23464   0.601   3.214   3.753 -0.4530  0.1943  0.2308
 4002SOL    HW123465   0.684   3.256   3.728  0.7413 -1.5130  1.2939
 4002SOL    HW223466   0.568   3.263   3.828  1.6978  2.5992 -0.4156
 4003SOL     OW23467   2.623   4.305   5.269 -0.6140  0.6138 -0.1493
 4003SOL    HW123468   2.665   4.387   5.242 -0.6325  1.4600  2.3935
 4003SOL    HW223469   2.702   4.251   5.276 -0.5783  1.0301  2.5360
 4004SOL     OW23470   0.265   1.976   1.511  0.6013 -0.1636 -0.3516
 4004SOL    HW123471   0.264   2.065   1.547  0.1887  0.5445 -2.1453
 4004SOL    HW223472   0.346   1.934   1.540  0.9282  0.5705 -0.1956
 4005SOL     OW23473   2.620   2.193  11.833  0.2110 -0.0318 -0.0544
 4005SOL    HW123474   2.610   2.132  11.906  1.7898 -0.4356 -0.1751
 4005SOL    HW223475   2.659   2.259  11.891 -0.6176 -0.8579  1.4471
 4006SOL     OW23476   1.068   2.787   1.271 -0.2143  0.2039  0.5073
 4006SOL    HW123477   0.985   2.747   1.244  0.7039 -0.9393 -0.6450
 4006SOL    HW223478   1.033   2.875   1.269 -0.5955  0.0352 -0.1212
 4007SOL     OW23479   0.524   0.553  13.721  0.0797  0.7030 -0.9464
 4007SOL    HW123480   0.487   0.618  13.781  1.8880 -0.9461  1.9711
 4007SOL    HW223481   0.470   0.476  13.736  2.6396 -0.7516  0.8383
 4008SOL     OW23482   2.246   1.433   8.102 -0.2426 -0.5505  0.6556
 4008SOL    HW123483   2.202   1.409   8.020  0.7496  1.2330 -0.3964
 4008SOL    HW223484   2.333   1.395   8.094 -2.4541 -5.4119 -0.3900
 4009SOL     OW23485   2.030   1.915   8.814  0.2856  0.1329  0.1133
 4009SOL    HW123486   1.988   1.865   8.744  1.1747 -1.0391  0.4241
 4009SOL    HW223487   2.049   1.839   8.870  2.1612  1.8239  1.7920
 4010SOL     OW23488   2.953   3.006  10.997 -0.3206 -0.5500 -0.2166
 4010SOL    HW123489   2.957   2.935  10.933 -1.2987 -0.1385 -0.7449
 4010SOL    HW223490   3.038   2.991  11.039  0.2438  1.4212 -0.6450
 4011SOL     OW23491   3.838   1.691   2.511 -0.0484 -0.0124  0.7715
 4011SOL    HW123492   3.754   1.707   2.468  0.7237 -1.2697 -1.2051
 4011SOL    HW223493   3.903   1.674   2.443 -1.2784  2.4275 -0.9742
 4012SOL     OW23494   4.363   4.474   9.061  0.3622 -0.2953 -0.4695
 4012SOL    HW123495   4.444   4.515   9.093 -0.1331 -0.0809  0.4974
 4012SOL    HW223496   4.354   4.512   8.973 -2.7938  0.9061  0.3865
 4013SOL     OW23497   1.233   3.825   7.248 -0.0670 -0.6187 -0.1025
 4013SOL    HW123498   1.165   3.890   7.228 -1.1749 -0.9077  2.8228
 4013SOL    HW223499   1.190   3.747   7.213  1.2285 -0.5591 -1.8521
 4014SOL     OW23500   0.660   0.962   2.616  0.0796  0.5498 -0.1383
 4014SOL    HW123501   0.694   1.049   2.597 -0.5867  0.6427 -0.9246
 4014SOL    HW223502   0.565   0.975   2.608 -0.2845 -1.1567  1.2688
 4015SOL     OW23503   1.476   2.736  15.207 -0.1525  0.2390  0.1928
 4015SOL    HW123504   1.416   2.766  15.274 -1.3999 -1.6807 -0.0775
 4015SOL    HW223505   1.406   2.730  15.142  0.3342  0.8817 -0.4011
 4016SOL     OW23506   1.151   4.518   8.639 -0.1753 -0.3872  0.4854
 4016SOL    HW123507   1.086   4.483   8.579  1.1086 -0.9774 -0.5678
 4016SOL    HW223508   1.100   4.588   8.679 -0.0448 -0.0632  0.0834
 4017SOL     OW23509   0.724   4.696   6.792  0.1188 -0.0393 -0.5374
 4017SOL    HW123510   0.651   4.720   6.849  1.2910  1.3970  0.3628
 4017SOL    HW223511   0.678   4.630   6.740  2.3926 -1.9769 -0.0787
 4018SOL     OW23512   3.258   2.779  14.596 -0.1453  0.2382 -0.3882
 4018SOL    HW123513   3.172   2.799  14.633 -0.3593 -0.4011 -0.5416
 4018SOL    HW223514   3.312   2.856  14.614 -1.3321  1.2847 -1.3330
 4019SOL     OW23515   1.699   3.911   4.127 -0.4498 -0.9377  0.0611
 4019SOL    HW123516   1.612   3.920   4.165 -1.4282 -0.6707 -2.2871
 4019SOL    HW223517   1.744   3.870   4.202  0.8102  1.3176  0.5381
 4020SOL     OW23518   4.250   3.561  13.102  0.0710 -0.5308  0.4315
 4020SOL    HW123519   4.320   3.511  13.143  0.7420  0.6359  0.7319
 4020SOL    HW223520   4.244   3.510  13.022 -1.9602 -0.5660  0.6067
 4021SOL     OW23521   0.294   1.214   4.833 -0.2608 -0.1259 -0.4407
 4021SOL    HW123522   0.230   1.216   4.762  1.7264  1.6319 -2.1764
 4021SOL    HW223523   0.376   1.223   4.784  0.6213 -1.1357  0.8413
 4022SOL     OW23524   3.839   2.211   4.425 -0.1133  0.0170  0.3397
 4022SOL    HW123525   3.899   2.137   4.412 -0.3643 -0.7366  3.2786
 4022SOL    HW223526   3.772   2.175   4.367 -0.9617  2.5629 -0.2166
 4023SOL     OW23527   2.650   4.258   8.189 -0.2150  0.3577 -0.3694
 4023SOL    HW123528   2.648   4.212   8.105  1.6413 -0.5644  0.0873
 4023SOL    HW223529   2.744   4.273   8.203  0.3482 -1.0199 -2.7545
 4024SOL     OW23530   2.621   4.285   6.779  0.5123 -0.0408 -0.3331
 4024SOL    HW123531   2.582   4.230   6.712  0.5505  0.9179 -1.1429
 4024SOL    HW223532   2.663   4.221   6.837 -0.1440 -0.4789 -0.3356
 4025SOL     OW23533   4.254   3.291   5.388 -0.3555  0.0041  0.1549
 4025SOL    HW123534   4.175   3.337   5.415 -1.4203 -0.5531 -2.0023
 4025SOL    HW223535   4.309   3.362   5.355  0.0816 -0.2560  0.3258
 4026SOL     OW23536   1.230   3.907   5.422  0.3651 -0.1505  0.2707
 4026SOL    HW123537   1.169   3.969   5.460  0.4284 -0.6638  1.2134
 4026SOL    HW223538   1.280   3.885   5.501  2.2338  0.1292 -0.8457
 4027SOL     OW23539   1.222   2.628   6.322 -0.2791  0.3633  0.7036
 4027SOL    HW123540   1.187   2.542   6.299 -0.4989  0.4172  0.8431
 4027SOL    HW223541   1.147   2.671   6.280  0.9387  2.0894  0.2903
 4028SOL     OW23542   4.692   0.556   3.499 -0.3285  0.0476  0.1985
 4028SOL    HW123543   0.013   0.492   3.441  1.2690  1.0464  0.2420
 4028SOL    HW223544   4.609   0.509   3.505  1.0029 -2.6473 -2.2056
 4029SOL     OW23545   1.328   3.794   3.448  0.2666  0.1205 -0.1065
 4029SOL    HW123546   1.302   3.879   3.415 -0.9095  0.3551  1.4050
 4029SOL    HW223547   1.283   3.737   3.387  1.0131 -0.2659 -0.2957
 4030SOL     OW23548   3.586   2.444   7.938  0.5285 -0.4913 -0.8071
 4030SOL    HW123549   3.492   2.462   7.935  0.5011 -0.7598 -1.4769
 4030SOL    HW223550   3.576   2.350   7.950 -0.0313 -0.0101  2.5177
 4031SOL     OW23551   3.245   1.169  16.673  0.1917  0.2316 -0.2574
 4031SOL    HW123552   3.211   1.165  16.583  1.0168 -1.0145 -0.5136
 4031SOL    HW223553   3.325   1.218  16.655 -0.3778  1.1283 -0.3411
 4032SOL     OW23554   2.841   3.723   0.468 -0.2806  0.3993  0.7554
 4032SOL    HW123555   2.899   3.649   0.487  1.1214  1.5814  1.0928
 4032SOL    HW223556   2.777   3.675   0.416  1.3749  1.5544 -2.3256
 4033SOL     OW23557   1.498   2.379   7.847  0.6048 -0.0333 -0.2163
 4033SOL    HW123558   1.526   2.470   7.844 -2.1801  0.8446  0.0584
 4033SOL    HW223559   1.429   2.391   7.781  0.1524  0.3173  0.3183
 4034SOL     OW23560   3.067   3.047   3.663  0.1207 -0.1621 -0.0729
 4034SOL    HW123561   3.149   3.063   3.615  0.5753  0.4790  0.9182
 4034SOL    HW223562   3.013   3.085   3.593  0.2619  0.0802 -0.0508
 4035SOL     OW23563   1.185   2.369   6.184 -0.1947 -0.0257 -0.1329
 4035SOL    HW123564   1.248   2.349   6.254 -1.9011  2.1704  2.0474
 4035SOL    HW223565   1.178   2.279   6.153 -0.4485  0.5737 -1.7990
 4036SOL     OW23566   3.617   0.272   6.097 -0.0161 -0.0600  0.1516
 4036SOL    HW123567   3.687   0.213   6.069  0.3970  0.2526  0.5393
 4036SOL    HW223568   3.647   0.296   6.184  0.6678  1.6287 -0.5573
 4037SOL     OW23569   4.627   0.300   8.383 -0.3486  0.5188  0.4572
 4037SOL    HW123570   4.681   0.310   8.461 -0.6102 -1.7083  0.9128
 4037SOL    HW223571   4.614   0.206   8.386 -0.6023  0.5289 -0.3570
 4038SOL     OW23572   3.496   4.612   4.931  0.2050  0.0949 -0.2827
 4038SOL    HW123573   3.542   4.541   4.976  1.0405  2.0320  1.9244
 4038SOL    HW223574   3.446   4.561   4.868  0.8087  1.0458 -1.5361
 4039SOL     OW23575   3.714   1.293   3.722  0.2580 -0.0108 -0.1337
 4039SOL    HW123576   3.732   1.316   3.813 -1.1330  1.9262 -0.3429
 4039SOL    HW223577   3.665   1.371   3.696  1.0429  0.0554 -1.4246
 4040SOL     OW23578   0.735   1.411   3.403  0.0907  0.1787  0.2189
 4040SOL    HW123579   0.817   1.440   3.444  1.5759 -2.1424 -1.1609
 4040SOL    HW223580   0.766   1.332   3.360 -0.6780  0.7984 -1.5077
 4041SOL     OW23581   3.703   2.497   2.796  0.3316 -0.4707  0.0536
 4041SOL    HW123582   3.685   2.528   2.707 -1.7062  1.0820  1.0118
 4041SOL    HW223583   3.706   2.582   2.841 -1.0053 -1.4464  1.9570
 4042SOL     OW23584   0.875   2.491  14.403  0.2566 -0.1646 -0.7901
 4042SOL    HW123585   0.818   2.531  14.338  0.7392 -0.8543 -1.6437
 4042SOL    HW223586   0.883   2.398  14.384 -0.2501 -0.0263 -1.6561
 4043SOL     OW23587   0.064   0.981   8.603  0.0648  0.0765 -0.7506
 4043SOL    HW123588   0.073   1.066   8.645  0.7502 -0.5157  0.3184
 4043SOL    HW223589   4.707   1.007   8.555 -0.6470 -1.2712 -0.3270
 4044SOL     OW23590   4.164   3.024   0.036 -0.0846 -0.0973 -0.1277
 4044SOL    HW123591   4.106   3.008  17.647 -0.0613  2.8855 -0.7885
 4044SOL    HW223592   4.250   3.014  17.682  0.7129  0.7118  1.3874
 4045SOL     OW23593   0.282   2.395   9.346  1.2744 -0.6718  0.0796
 4045SOL    HW123594   0.245   2.341   9.417 -1.1829  2.3513  1.0974
 4045SOL    HW223595   0.368   2.417   9.382  0.6500  1.9133 -0.0449
 4046SOL     OW23596   4.585   0.821   7.008 -0.1577  0.5548 -0.2585
 4046SOL    HW123597   4.568   0.775   7.090  1.3847  1.0918  0.3615
 4046SOL    HW223598   4.597   0.911   7.037 -1.0379 -0.2716  2.6502
 4047SOL     OW23599   0.755   2.838  14.351  0.0720 -0.0391 -0.2873
 4047SOL    HW123600   0.818   2.803  14.415 -0.7470  0.5061  0.8085
 4047SOL    HW223601   0.740   2.766  14.290 -1.0372  0.4509 -0.5839
 4048SOL     OW23602   4.411   2.636  16.991  0.2658 -0.0829  0.8240
 4048SOL    HW123603   4.408   2.701  17.061  1.0178 -0.1635  0.9285
 4048SOL    HW223604   4.425   2.556  17.042  0.0306 -0.4080  0.3804
 4049SOL     OW23605   4.191   2.838   3.346 -0.4595  0.8228 -0.2850
 4049SOL    HW123606   4.165   2.921   3.387 -2.3821  0.7372 -1.3484
 4049SOL    HW223607   4.249   2.868   3.276 -2.8993  0.7364 -2.3344
 4050SOL     OW23608   0.207   4.277  11.619 -0.2422 -0.2137 -0.2150
 4050SOL    HW123609   0.203   4.372  11.605  0.7602 -0.1417  0.0328
 4050SOL    HW223610   0.291   4.262  11.661 -0.3618 -2.3934 -0.7295
 4051SOL     OW23611   3.648   1.470   2.426 -0.2583 -0.0459 -0.8366
 4051SOL    HW123612   3.680   1.542   2.373  2.2315 -1.4926 -1.2826
 4051SOL    HW223613   3.648   1.396   2.366 -1.3299 -1.2809  0.6701
 4052SOL     OW23614   4.123   3.230   1.312  0.0773  0.2528 -0.2261
 4052SOL    HW123615   4.053   3.175   1.278  0.6397 -1.1565  0.9327
 4052SOL    HW223616   4.137   3.214   1.406 -3.1011  0.1569  0.2451
 4053SOL     OW23617   2.042   2.285   6.469 -0.3124  0.0511  0.6849
 4053SOL    HW123618   2.077   2.250   6.551 -2.6186 -1.0733  1.1687
 4053SOL    HW223619   1.996   2.365   6.495 -1.7954 -1.3621  2.3804
 4054SOL     OW23620   3.703   2.932   4.636  0.0152  0.0501  0.1550
 4054SOL    HW123621   3.742   2.931   4.548  0.1995 -1.2307  0.2497
 4054SOL    HW223622   3.781   2.959   4.684  0.0676 -2.1727  1.3193
 4055SOL     OW23623   0.034   4.642   7.620  0.3392 -0.6288  0.1879
 4055SOL    HW123624   0.113   4.668   7.668 -0.3664 -0.0020  1.0199
 4055SOL    HW223625   0.082   4.605   7.547 -1.2774 -0.7930 -0.7975
 4056SOL     OW23626   0.382   0.281   7.674  0.4193  0.0688 -0.3594
 4056SOL    HW123627   0.385   0.364   7.722  1.6951 -0.0635 -0.2087
 4056SOL    HW223628   0.402   0.309   7.585 -2.0734  1.8958 -0.3535
 4057SOL     OW23629   3.266   0.266  12.792  0.4580 -0.0673 -0.3409
 4057SOL    HW123630   3.330   0.323  12.836  1.2439 -0.7963 -0.5416
 4057SOL    HW223631   3.304   0.179  12.797  2.8878  1.0352  0.7289
 4058SOL     OW23632   4.456   1.605   6.851  0.0711 -0.3588 -0.0842
 4058SOL    HW123633   4.429   1.615   6.942  0.0514 -0.5039 -0.0745
 4058SOL    HW223634   4.525   1.669   6.835  1.1514 -0.5616  4.0218
 4059SOL     OW23635   3.728   0.915   0.552  0.7021 -0.1397 -0.1180
 4059SOL    HW123636   3.654   0.931   0.611  0.5541 -1.5998  0.0771
 4059SOL    HW223637   3.793   0.962   0.604 -0.0137 -1.0029  1.5749
 4060SOL     OW23638   2.666   4.310   5.966 -0.1747 -0.2754 -0.2670
 4060SOL    HW123639   2.619   4.302   5.883 -1.2269 -1.4892  0.4484
 4060SOL    HW223640   2.738   4.371   5.947  0.0801 -0.3936  0.3385
 4061SOL     OW23641   3.281   3.002   4.468  0.2934  0.2130 -0.5362
 4061SOL    HW123642   3.214   2.957   4.418 -0.3794  0.1792  0.3984
 4061SOL    HW223643   3.339   2.927   4.482 -2.3908 -1.2991  2.4071
 4062SOL     OW23644   2.257   1.446   2.131  0.0556  0.5824  0.0897
 4062SOL    HW123645   2.306   1.525   2.153 -1.6490  0.9781  2.4699
 4062SOL    HW223646   2.203   1.469   2.055  0.5453 -1.1828 -0.7917
 4063SOL     OW23647   2.346   0.507   0.351 -0.1037  0.2551 -0.1671
 4063SOL    HW123648   2.337   0.592   0.394  1.1344  0.4885 -0.3724
 4063SOL    HW223649   2.275   0.452   0.384  0.7516  0.1064  1.4153
 4064SOL     OW23650   0.323   0.401  11.360  0.1880  0.7315  0.6134
 4064SOL    HW123651   0.244   0.405  11.413  0.6561 -0.5209  1.3831
 4064SOL    HW223652   0.362   0.320  11.393  0.3482  0.6323  0.1854
 4065SOL     OW23653   4.403   0.513   2.654 -0.6856 -0.3613  0.0385
 4065SOL    HW123654   4.494   0.508   2.624 -0.4497 -0.3603  0.7489
 4065SOL    HW223655   4.365   0.459   2.585 -0.2271 -1.5405  0.6984
 4066SOL     OW23656   0.845   2.122  16.714  0.4705  0.6019  0.0609
 4066SOL    HW123657   0.830   2.205  16.670 -0.3541 -0.1027 -0.9961
 4066SOL    HW223658   0.831   2.065  16.639  0.0216  2.5424 -1.3125
 4067SOL     OW23659   2.860   2.921   3.451 -1.2567  0.1150  0.1726
 4067SOL    HW123660   2.876   2.829   3.469 -2.0256  0.4011  2.3773
 4067SOL    HW223661   2.853   2.917   3.356  0.2402  2.2693 -0.0369
 4068SOL     OW23662   0.645   0.965   6.122  0.4163 -0.0399 -0.7409
 4068SOL    HW123663   0.736   0.945   6.102  0.3200 -0.1973 -1.0257
 4068SOL    HW223664   0.662   1.056   6.098  1.4540 -0.1589 -0.4658
 4069SOL     OW23665   0.670   1.783  13.457 -0.3820  0.4190 -0.2871
 4069SOL    HW123666   0.620   1.864  13.465 -0.2904  0.5438 -0.9744
 4069SOL    HW223667   0.614   1.742  13.390  0.8374 -0.4370 -0.7842
 4070SOL     OW23668   3.106   3.614  10.669  0.1223  0.0231  0.3804
 4070SOL    HW123669   3.174   3.667  10.710  2.0499 -1.0222 -1.4440
 4070SOL    HW223670   3.092   3.545  10.734 -1.2777 -1.0078 -1.0031
 4071SOL     OW23671   3.676   1.628   3.081  0.3770  0.7277 -0.3433
 4071SOL    HW123672   3.746   1.623   3.147 -0.6559  2.0171  0.8372
 4071SOL    HW223673   3.674   1.723   3.068 -1.0524  0.4276 -2.2912
 4072SOL     OW23674   1.733   0.898   6.607 -0.4650 -0.6885 -0.2373
 4072SOL    HW123675   1.747   0.842   6.530 -0.5469 -1.5463  0.3764
 4072SOL    HW223676   1.716   0.827   6.669  1.0444 -0.1324  0.7958
 4073SOL     OW23677   2.606   2.652   6.694  0.3242 -0.2135  0.0981
 4073SOL    HW123678   2.694   2.671   6.726  0.6734  0.6817 -1.4103
 4073SOL    HW223679   2.553   2.674   6.770 -0.7649 -0.5558 -0.5672
 4074SOL     OW23680   3.524   3.384   6.381 -0.7359  0.3469  0.1111
 4074SOL    HW123681   3.523   3.476   6.355 -3.4258  0.5876  1.0812
 4074SOL    HW223682   3.594   3.356   6.322  0.8547  1.2986  1.5672
 4075SOL     OW23683   4.051   0.675   7.880 -0.6963  0.7282 -0.2032
 4075SOL    HW123684   4.078   0.681   7.971  0.2536  3.4720 -0.6657
 4075SOL    HW223685   4.065   0.767   7.857  1.3056  0.3487 -0.5431
 4076SOL     OW23686   4.011   3.262   7.475 -0.1005  0.7915 -0.4547
 4076SOL    HW123687   3.921   3.293   7.484 -0.6787 -0.7494 -0.8788
 4076SOL    HW223688   4.055   3.332   7.426 -1.2320  2.4924  0.9770
 4077SOL     OW23689   3.113   2.507   9.446 -0.2167  0.3575  0.8940
 4077SOL    HW123690   3.128   2.601   9.457  0.1661  0.3907  0.0533
 4077SOL    HW223691   3.181   2.478   9.385  0.0747  0.5938  1.1016
 4078SOL     OW23692   3.016   1.974   8.056  0.3217  0.0010 -0.0828
 4078SOL    HW123693   3.059   1.900   8.014  0.0762  0.1270 -0.5592
 4078SOL    HW223694   3.010   1.942   8.146  2.2113 -1.5087 -0.4945
 4079SOL     OW23695   2.756   1.434   2.959 -0.0171 -0.2933  0.3861
 4079SOL    HW123696   2.850   1.427   2.943  0.1740  1.4235  0.7505
 4079SOL    HW223697   2.751   1.437   3.055 -0.2196 -0.9589  0.3983
 4080SOL     OW23698   1.226   1.988  13.272 -0.8381  0.3082  0.4885
 4080SOL    HW123699   1.284   1.933  13.323 -1.7349 -0.4667  0.6775
 4080SOL    HW223700   1.292   2.027  13.214 -0.0559 -1.8735 -0.0896
 4081SOL     OW23701   1.735   4.207  12.278 -0.1631 -0.0948 -0.3713
 4081SOL    HW123702   1.687   4.287  12.296  1.9694  1.5839 -2.0492
 4081SOL    HW223703   1.740   4.173  12.367 -1.2969 -2.6724 -1.2898
 4082SOL     OW23704   4.508   4.096   7.160  0.4538  0.6895  0.6440
 4082SOL    HW123705   4.455   4.030   7.116  3.5443 -1.1921 -0.2440
 4082SOL    HW223706   4.566   4.043   7.215  0.0984 -0.6084 -0.2266
 4083SOL     OW23707   0.465   4.662   3.694  0.2861  0.0265 -0.2375
 4083SOL    HW123708   0.553   4.697   3.709  0.8822 -1.4126 -0.3578
 4083SOL    HW223709   0.478   4.569   3.674  2.1537 -0.7494  4.5539
 4084SOL     OW23710   2.217   0.062   1.433  0.1538 -0.6954  0.4011
 4084SOL    HW123711   2.270   0.092   1.506  1.2589  1.8824 -1.4856
 4084SOL    HW223712   2.275   4.717   1.394  0.9909  1.4211 -1.9579
 4085SOL     OW23713   1.772   3.962   9.483  0.1507  0.0223 -0.2631
 4085SOL    HW123714   1.849   4.017   9.465 -0.2969  0.4826 -0.7784
 4085SOL    HW223715   1.732   3.959   9.397  0.3438 -2.5115 -0.2505
 4086SOL     OW23716   2.274   2.613   2.751 -0.0088 -0.1560 -0.1589
 4086SOL    HW123717   2.232   2.541   2.797 -1.5722  1.8704  1.6232
 4086SOL    HW223718   2.271   2.570   2.665 -2.0641  2.0826 -1.2354
 4087SOL     OW23719   0.517   0.432   2.376 -0.2306  0.2825  0.0873
 4087SOL    HW123720   0.526   0.449   2.282  0.6379 -0.7498 -0.0276
 4087SOL    HW223721   0.422   0.419   2.375 -0.2283  0.2116  1.1268
 4088SOL     OW23722   2.021   2.905   6.545  0.1791 -0.1042 -0.5796
 4088SOL    HW123723   2.029   2.884   6.452 -3.0743  2.9072 -1.5211
 4088SOL    HW223724   1.938   2.952   6.540 -0.5622 -1.3330  0.1475
 4089SOL     OW23725   2.063   2.888   2.897  0.6007  0.1317  0.1028
 4089SOL    HW123726   1.980   2.923   2.930  0.0039  0.5490 -1.8555
 4089SOL    HW223727   2.069   2.808   2.949 -2.2822  0.0842  0.3770
 4090SOL     OW23728   0.253   0.385   8.218 -0.5380 -0.5555  0.0985
 4090SOL    HW123729   0.166   0.410   8.188  0.8392  2.1600 -1.5410
 4090SOL    HW223730   0.237   0.293   8.242 -3.5905 -0.1893 -0.4410
 4091SOL     OW23731   1.449   1.982   3.807 -0.0232  0.2446 -0.1859
 4091SOL    HW123732   1.373   1.965   3.751  0.3945 -0.7891 -0.4328
 4091SOL    HW223733   1.514   1.963   3.739 -1.2982 -0.3330 -1.2435
 4092SOL     OW23734   2.047   0.276   3.850  0.1729 -0.6996  0.2157
 4092SOL    HW123735   2.041   0.181   3.860 -0.1246 -0.7825 -0.7548
 4092SOL    HW223736   2.142   0.282   3.859  0.1932 -0.4618 -0.1783
 4093SOL     OW23737   3.206   1.816  12.055 -0.2981 -0.2873 -0.3794
 4093SOL    HW123738   3.268   1.870  12.007  0.0903  0.9567  1.4942
 4093SOL    HW223739   3.148   1.882  12.093  0.1659  2.2142 -4.0376
 4094SOL     OW23740   3.322   1.996   4.332  0.4663 -0.0994 -0.6933
 4094SOL    HW123741   3.236   2.015   4.370  2.3726 -1.7343  4.3422
 4094SOL    HW223742   3.317   1.901   4.316  2.9282 -0.2840 -0.3219
 4095SOL     OW23743   3.079   0.086   7.213 -0.2648  0.2237 -0.1946
 4095SOL    HW123744   3.021   0.157   7.183 -1.3151 -1.5316 -2.2977
 4095SOL    HW223745   3.009   0.021   7.211  0.2659 -0.3177 -1.0250
 4096SOL     OW23746   4.277   4.088   8.325 -0.6093 -0.2668  0.2696
 4096SOL    HW123747   4.186   4.096   8.353 -0.4689  0.6143  0.4900
 4096SOL    HW223748   4.268   4.096   8.230 -2.0687  1.6675  0.5800
 4097SOL     OW23749   3.078   4.014   9.091 -0.4624  0.1590 -0.7358
 4097SOL    HW123750   3.151   3.956   9.114  1.1114  0.9368 -3.7172
 4097SOL    HW223751   3.013   4.007   9.161 -1.1566  1.2689 -1.2738
 4098SOL     OW23752   0.452   2.120   6.967  0.0530  0.3371  0.0379
 4098SOL    HW123753   0.536   2.160   6.947  0.2871  1.6740  3.8153
 4098SOL    HW223754   0.487   2.034   6.993  1.2816  0.2298 -1.9329
 4099SOL     OW23755   0.077   3.909   6.639 -0.2151 -0.7129 -0.2677
 4099SOL    HW123756   0.066   3.887   6.731  0.4134 -1.9107 -0.4826
 4099SOL    HW223757   4.717   3.959   6.629  0.3359  0.6566  2.1931
 4100SOL     OW23758   4.528   1.107   8.051  0.0876 -0.1606  0.3416
 4100SOL    HW123759   4.572   1.178   8.006 -1.3209  1.0856  0.9380
 4100SOL    HW223760   4.450   1.153   8.080 -0.0922 -0.9674  1.1449
 4101SOL     OW23761   2.544   4.414   4.368  0.0863  0.1325  0.3341
 4101SOL    HW123762   2.489   4.415   4.447 -0.3713 -0.5015  0.0233
 4101SOL    HW223763   2.580   4.502   4.372 -0.4759  0.3612  0.4394
 4102SOL     OW23764   1.935   1.438   8.995  0.9967 -0.1906  0.1407
 4102SOL    HW123765   1.951   1.524   8.954 -1.9831  0.3132  0.0382
 4102SOL    HW223766   1.990   1.386   8.936  2.0591 -0.6676  1.5662
 4103SOL     OW23767   2.275   3.705   4.052 -0.2311 -0.3535 -0.3489
 4103SOL    HW123768   2.214   3.750   4.110  0.9203  0.5848  0.1286
 4103SOL    HW223769   2.309   3.779   4.002  1.5362 -0.4790  0.6431
 4104SOL     OW23770   1.140   2.288   6.472  0.1972  0.2679  0.0088
 4104SOL    HW123771   1.199   2.298   6.547 -1.8105  0.6467  1.5693
 4104SOL    HW223772   1.088   2.366   6.489 -1.4659 -0.8167 -0.0118
 4105SOL     OW23773   2.982   3.643   0.814 -0.3381 -1.1500 -0.7256
 4105SOL    HW123774   2.988   3.602   0.900  1.3492 -0.2123 -0.3919
 4105SOL    HW223775   3.074   3.663   0.796 -0.6752  1.5270  0.5271
 4106SOL     OW23776   0.183   3.761  16.950 -0.5921  0.1753  0.2454
 4106SOL    HW123777   0.240   3.748  17.026  1.4677  2.9967 -0.8157
 4106SOL    HW223778   0.238   3.820  16.898 -2.1806  1.6654  0.2697
 4107SOL     OW23779   3.700   1.857  13.641 -0.4334  0.1100 -0.0494
 4107SOL    HW123780   3.611   1.850  13.609 -0.6080 -0.6947  0.5966
 4107SOL    HW223781   3.757   1.900  13.577 -0.3646 -0.4656 -0.3782
 4108SOL     OW23782   1.438   4.256   3.846  0.1577 -0.5290  0.1069
 4108SOL    HW123783   1.414   4.248   3.939  0.3650  2.4734  0.4214
 4108SOL    HW223784   1.387   4.186   3.805  0.3833 -0.2117 -0.7006
 4109SOL     OW23785   4.610   3.680  16.638  0.1587  0.0877 -0.2584
 4109SOL    HW123786   4.692   3.642  16.670 -0.5863 -1.2629  0.0214
 4109SOL    HW223787   4.628   3.773  16.650  1.2521 -0.4751  2.5424
 4110SOL     OW23788   2.497   2.679   4.214 -1.0118  0.1716  0.0069
 4110SOL    HW123789   2.465   2.640   4.295  2.6576  1.0119  1.8579
 4110SOL    HW223790   2.569   2.620   4.189 -0.0257  0.9561  0.9640
 4111SOL     OW23791   0.161   3.132   1.063  0.1113  0.0206  0.0471
 4111SOL    HW123792   0.251   3.110   1.037  0.9968  0.2302  2.9381
 4111SOL    HW223793   0.112   3.081   0.999  1.7666 -0.0920 -1.1516
 4112SOL     OW23794   0.459   2.350   2.117 -0.4518 -0.0954  0.6970
 4112SOL    HW123795   0.511   2.430   2.127 -0.6920 -0.0064  1.2690
 4112SOL    HW223796   0.529   2.285   2.124 -2.2391 -2.2534 -1.7241
 4113SOL     OW23797   0.126   3.568  16.718 -0.0130  0.3356 -0.2226
 4113SOL    HW123798   0.207   3.518  16.712 -1.0508 -1.2843 -0.8146
 4113SOL    HW223799   0.141   3.610  16.803 -0.8933 -1.2630  0.7129
 4114SOL     OW23800   1.814   1.532   3.389  0.3941  0.6412  0.0136
 4114SOL    HW123801   1.864   1.545   3.470 -0.9720  0.2058  0.9056
 4114SOL    HW223802   1.886   1.568   3.336 -0.9107  2.1884 -0.7185
 4115SOL     OW23803   2.616   0.208   3.581 -0.3512 -0.4450  0.0590
 4115SOL    HW123804   2.669   0.170   3.511  0.8964  2.0572 -0.3444
 4115SOL    HW223805   2.629   0.144   3.651 -2.4163  0.3695  1.1843
 4116SOL     OW23806   4.481   0.467   1.676 -0.2419 -0.0643 -0.4240
 4116SOL    HW123807   4.467   0.382   1.719  0.1150 -0.1693 -0.5062
 4116SOL    HW223808   4.553   0.436   1.620  0.3398  0.7969 -0.1458
 4117SOL     OW23809   0.617   1.030   4.963  0.4268  0.0808  0.0188
 4117SOL    HW123810   0.541   1.035   5.021 -0.4225  1.8942 -1.2566
 4117SOL    HW223811   0.614   1.107   4.906 -0.3259 -0.1945 -0.3151
 4118SOL     OW23812   3.878   1.785   8.948 -0.7869  0.5712 -0.4372
 4118SOL    HW123813   3.956   1.774   8.894  0.3767  1.5120  1.0587
 4118SOL    HW223814   3.816   1.744   8.887  0.8944 -0.2804 -1.5838
 4119SOL     OW23815   2.293   4.538  16.418  0.0983 -0.2770  0.2004
 4119SOL    HW123816   2.222   4.476  16.436 -0.2093  0.1853  0.5564
 4119SOL    HW223817   2.344   4.485  16.357  1.8199 -0.1544  1.5517
 4120SOL     OW23818   2.281   4.007   8.805 -0.0793 -0.3003  0.0760
 4120SOL    HW123819   2.315   4.023   8.717 -0.8749  0.6282 -0.0605
 4120SOL    HW223820   2.347   3.950   8.845  0.1493 -0.8907 -1.1328
 4121SOL     OW23821   4.400   3.278   8.628  0.1934  0.2588 -0.6310
 4121SOL    HW123822   4.485   3.321   8.636 -0.5020  1.4704  0.2769
 4121SOL    HW223823   4.362   3.317   8.707 -2.1573 -2.4275 -0.4198
 4122SOL     OW23824   0.225   2.303   5.684 -0.4452  0.1192 -0.0447
 4122SOL    HW123825   0.248   2.235   5.621  1.9256 -0.7617  1.7726
 4122SOL    HW223826   0.207   2.378   5.627 -1.0954  0.0100  0.0203
 4123SOL     OW23827   2.611   1.687  14.007 -0.2549 -0.1547  0.4121
 4123SOL    HW123828   2.537   1.698  13.947 -0.3271 -0.7831  0.3842
 4123SOL    HW223829   2.567   1.705  14.091 -0.3824  2.1332 -0.1582
 4124SOL     OW23830   1.617   0.905   4.926 -0.2852 -0.1693 -0.0470
 4124SOL    HW123831   1.655   0.924   5.011 -2.1962 -1.4223  1.0644
 4124SOL    HW223832   1.659   0.976   4.877  0.5610  0.2710  1.3147
 4125SOL     OW23833   2.863   1.719   0.871  0.6452  0.4395  0.0479
 4125SOL    HW123834   2.825   1.785   0.814 -2.5763 -0.8775  0.6747
 4125SOL    HW223835   2.916   1.673   0.805 -1.6302 -2.2287  0.0768
 4126SOL     OW23836   3.225   2.011   3.987  0.1098 -0.0676 -0.1617
 4126SOL    HW123837   3.141   1.967   3.978  0.6530 -0.9536 -0.9657
 4126SOL    HW223838   3.202   2.054   4.069 -1.5360 -0.5011 -0.3925
 4127SOL     OW23839   1.876   1.189  17.064  0.1053 -0.3105 -0.1380
 4127SOL    HW123840   1.969   1.210  17.059 -0.0256 -0.0452 -1.5730
 4127SOL    HW223841   1.833   1.223  16.985  0.9550 -2.3582 -1.4619
 4128SOL     OW23842   4.022   1.720   3.762 -0.3146 -0.0940  0.4281
 4128SOL    HW123843   4.005   1.786   3.829  0.5825  0.4479  0.1221
 4128SOL    HW223844   4.083   1.767   3.704 -0.8434  0.4030  0.2810
 4129SOL     OW23845   1.751   2.091  14.256 -0.1871 -0.7323  0.4383
 4129SOL    HW123846   1.721   2.171  14.300 -1.4978 -1.0160  0.0551
 4129SOL    HW223847   1.758   2.119  14.165 -0.9177  2.0560  1.2259
 4130SOL     OW23848   2.861   0.566   0.337  0.1413  0.3549 -0.4330
 4130SOL    HW123849   2.782   0.513   0.325 -0.7100  1.5531 -0.2339
 4130SOL    HW223850   2.891   0.549   0.248 -2.2420 -1.6896 -0.8616
 4131SOL     OW23851   4.057   4.311   1.603 -0.3831  0.2486 -0.2403
 4131SOL    HW123852   3.964   4.290   1.597 -0.0215 -1.1210 -1.1924
 4131SOL    HW223853   4.059   4.388   1.546 -0.4548 -0.3556 -1.0711
 4132SOL     OW23854   4.386   2.243  11.676  0.2622  0.0284 -0.2876
 4132SOL    HW123855   4.376   2.324  11.726 -1.5405 -0.1222 -0.4195
 4132SOL    HW223856   4.367   2.185  11.750  3.1796  1.8445  1.9162
 4133SOL     OW23857   4.001   4.255   2.617  0.7920  0.0640 -0.0240
 4133SOL    HW123858   3.930   4.304   2.577 -1.5817 -2.4562  1.1055
 4133SOL    HW223859   3.989   4.171   2.574  3.5575  1.5741 -3.7833
 4134SOL     OW23860   2.671   0.463  12.958  0.5622  0.2391  0.5839
 4134SOL    HW123861   2.687   0.402  13.030  0.8487 -0.0430  0.2837
 4134SOL    HW223862   2.757   0.501  12.937  0.1711  0.2020 -1.0342
 4135SOL     OW23863   3.498   4.337   5.257 -0.2315 -0.8539  0.0461
 4135SOL    HW123864   3.434   4.365   5.192 -1.1503 -1.6973  0.5884
 4135SOL    HW223865   3.496   4.242   5.251 -0.9117 -0.9233  1.4640
 4136SOL     OW23866   3.450   4.032   9.886  0.4701 -0.3438 -0.2221
 4136SOL    HW123867   3.462   3.944   9.850  1.0589 -1.4908  2.8154
 4136SOL    HW223868   3.432   4.082   9.806  2.5074  1.6589  0.5868
 4137SOL     OW23869   3.579   4.698   3.240  0.0010 -0.5523 -0.5851
 4137SOL    HW123870   3.603   4.612   3.206  1.3695  0.2184 -1.5654
 4137SOL    HW223871   3.634   0.042   3.196 -0.0301 -1.3085 -1.7508
 4138SOL     OW23872   4.702   0.751   5.722  0.3616 -0.2308  0.0045
 4138SOL    HW123873   4.702   0.709   5.808  2.6078 -0.8623 -0.3133
 4138SOL    HW223874   4.663   0.681   5.671 -1.7070 -0.0769  1.3877
 4139SOL     OW23875   3.894   3.019   2.747  0.0590  0.3018  0.2335
 4139SOL    HW123876   3.913   3.110   2.722  1.1715  0.4017  1.4335
 4139SOL    HW223877   3.901   2.972   2.664  3.1163  2.1189 -0.5149
 4140SOL     OW23878   0.696   4.430   8.695 -0.0147  0.4827  0.8376
 4140SOL    HW123879   0.697   4.485   8.774  0.6363 -0.7671  1.7031
 4140SOL    HW223880   0.643   4.355   8.723 -1.4840  0.6616 -1.4703
 4141SOL     OW23881   3.345   2.539  12.105 -0.1342 -0.5269 -0.1270
 4141SOL    HW123882   3.417   2.480  12.125 -0.4934 -0.1670  2.2417
 4141SOL    HW223883   3.323   2.565  12.195 -0.8557  0.9074 -0.7065
 4142SOL     OW23884   0.731   4.002   6.197  0.2809 -0.3254 -0.1039
 4142SOL    HW123885   0.697   4.059   6.266 -0.9405 -1.5060  0.2684
 4142SOL    HW223886   0.803   3.955   6.239  0.5779 -0.4975 -0.8064
 4143SOL     OW23887   4.201   1.727   9.345 -0.4513 -0.5464 -0.0186
 4143SOL    HW123888   4.163   1.655   9.395  1.0401 -1.7142 -0.5786
 4143SOL    HW223889   4.123   1.737   9.291 -1.2447  1.2938  1.4592
 4144SOL     OW23890   4.141   3.585   8.004 -0.0746  0.0187  0.3207
 4144SOL    HW123891   4.192   3.624   7.933  0.7511  0.4780  1.1608
 4144SOL    HW223892   4.062   3.559   7.957 -1.1036  1.8278  1.0253
 4145SOL     OW23893   0.117   4.531   5.763 -0.7122 -0.2332  0.1907
 4145SOL    HW123894   0.196   4.555   5.716 -1.9316 -0.2607 -1.8776
 4145SOL    HW223895   0.154   4.463   5.819  2.0618  0.9483 -0.1937
 4146SOL     OW23896   0.307   0.946   8.452 -0.1556 -0.0149  0.2285
 4146SOL    HW123897   0.219   0.960   8.485 -0.7050 -2.0976 -0.3577
 4146SOL    HW223898   0.301   0.897   8.370 -1.4089 -1.6435  1.2961
 4147SOL     OW23899   2.476   1.131  15.983 -0.1196 -0.7162  0.0024
 4147SOL    HW123900   2.566   1.126  15.950 -0.4006 -3.2881 -0.3056
 4147SOL    HW223901   2.428   1.138  15.901  0.2445 -0.8939 -0.2243
 4148SOL     OW23902   3.625   2.385   5.022 -0.8288 -0.3791  0.3223
 4148SOL    HW123903   3.708   2.385   4.974 -2.5241 -3.0069 -2.6103
 4148SOL    HW223904   3.661   2.388   5.110 -1.1694  0.0682  0.4434
 4149SOL     OW23905   1.681   4.137   8.040 -0.3029 -0.0343 -0.6165
 4149SOL    HW123906   1.702   4.184   8.121 -1.6336 -2.4439  1.1257
 4149SOL    HW223907   1.763   4.094   8.018  1.3078  1.5381  2.3053
 4150SOL     OW23908   2.757   3.145   2.411  0.4381 -0.2351 -0.1421
 4150SOL    HW123909   2.765   3.213   2.344  2.4381 -2.1381 -1.8163
 4150SOL    HW223910   2.721   3.187   2.489  0.9193  2.1488 -1.2066
 4151SOL     OW23911   3.048   1.354   9.754 -0.6280  0.6491 -0.2229
 4151SOL    HW123912   2.969   1.400   9.780  0.4752  1.9060  0.8934
 4151SOL    HW223913   3.033   1.352   9.659  0.0358 -0.1721 -0.3146
 4152SOL     OW23914   4.011   0.760   6.786  0.5087  0.8127  0.4259
 4152SOL    HW123915   3.998   0.854   6.776  3.9478  1.3063  0.4904
 4152SOL    HW223916   4.034   0.770   6.879 -0.3899  1.5915  0.5602
 4153SOL     OW23917   1.297   3.984   1.920  0.3557 -0.1039  0.7442
 4153SOL    HW123918   1.267   4.074   1.905 -0.4996 -0.4470  0.3969
 4153SOL    HW223919   1.267   3.932   1.846  1.6854 -0.3840  0.4053
 4154SOL     OW23920   4.703   4.132  11.579  0.1565 -0.1497 -0.1819
 4154SOL    HW123921   0.040   4.203  11.606  0.2612 -0.1777 -0.3355
 4154SOL    HW223922   0.031   4.090  11.508 -0.4390  1.6956 -1.6681
 4155SOL     OW23923   3.340   0.725   4.357 -0.3546 -0.2675 -0.4160
 4155SOL    HW123924   3.257   0.704   4.315 -0.8846  0.2591  0.3813
 4155SOL    HW223925   3.347   0.659   4.426  0.8272  0.4191  0.1199
 4156SOL     OW23926   1.685   0.420   8.695  0.2261 -0.0316 -0.5294
 4156SOL    HW123927   1.734   0.448   8.618  1.0680  1.8888  0.7019
 4156SOL    HW223928   1.698   0.326   8.684 -2.5518 -0.5714  0.5908
 4157SOL     OW23929   4.095   1.832   2.576 -0.0074  0.3363 -0.5206
 4157SOL    HW123930   4.059   1.756   2.532 -0.9578  0.7391 -0.4334
 4157SOL    HW223931   4.094   1.802   2.667  2.5468  1.2521 -0.1600
 4158SOL     OW23932   3.610   1.729   1.842  0.1639 -0.1286  0.3675
 4158SOL    HW123933   3.521   1.763   1.838  0.0399 -0.2137  2.3480
 4158SOL    HW223934   3.645   1.793   1.904 -0.3536  1.7097 -1.2540
 4159SOL     OW23935   1.598   1.406  12.733  0.4849  0.4495  0.1046
 4159SOL    HW123936   1.623   1.437  12.646 -1.5926  1.9155  0.0354
 4159SOL    HW223937   1.504   1.401  12.713  0.3598  0.4478  0.7102
 4160SOL     OW23938   3.252   4.392   3.467 -0.1619 -0.3001  0.4171
 4160SOL    HW123939   3.243   4.383   3.372 -3.4633  1.6003  0.5455
 4160SOL    HW223940   3.294   4.478   3.475 -1.9305  0.8428 -2.5213
 4161SOL     OW23941   2.947   4.277   3.832 -0.1628 -0.0783 -0.5172
 4161SOL    HW123942   2.962   4.229   3.913 -3.9016 -0.8077 -0.2427
 4161SOL    HW223943   2.942   4.366   3.867 -0.4290  0.3903 -1.7166
 4162SOL     OW23944   2.722   1.650   2.518 -0.3592  0.2865 -0.1608
 4162SOL    HW123945   2.812   1.658   2.488  0.1702 -1.5567  0.9243
 4162SOL    HW223946   2.736   1.697   2.600  1.9230 -1.5224  0.4859
 4163SOL     OW23947   3.449   0.095   1.597 -0.1139  0.3377 -0.6568
 4163SOL    HW123948   3.382   0.066   1.659  0.9272 -1.7445 -0.4994
 4163SOL    HW223949   3.463   0.009   1.557  2.9945 -0.2223  1.6062
 4164SOL     OW23950   0.393   1.774  13.404 -0.0881 -0.1754  0.1339
 4164SOL    HW123951   0.357   1.810  13.485  1.0495 -1.1800  1.0843
 4164SOL    HW223952   0.367   1.847  13.348 -0.9968 -0.7512 -0.1954
 4165SOL     OW23953   1.082   3.488   4.501 -0.0324 -0.2012 -0.0063
 4165SOL    HW123954   1.133   3.569   4.506 -0.7212  0.3061 -1.2362
 4165SOL    HW223955   1.038   3.502   4.417  3.4833  0.2195 -1.7629
 4166SOL     OW23956   4.536   0.220   0.513 -0.0254 -0.1554 -0.0055
 4166SOL    HW123957   4.557   0.311   0.536  0.5516 -0.4372  0.5822
 4166SOL    HW223958   4.442   0.215   0.527 -0.4813  2.6608 -2.1072
 4167SOL     OW23959   2.593   2.409   0.603  0.0926  0.4437  0.5151
 4167SOL    HW123960   2.531   2.464   0.651  1.7307  2.3366  0.4573
 4167SOL    HW223961   2.610   2.472   0.533 -0.5325  0.8462  0.7199
 4168SOL     OW23962   4.546   0.649   2.232  0.6599  0.2812  0.4727
 4168SOL    HW123963   4.450   0.653   2.237  0.5545 -0.8570 -0.5003
 4168SOL    HW223964   4.562   0.709   2.304  1.6796  0.0557  0.4367
 4169SOL     OW23965   3.772   0.089   9.236 -0.1102  0.1933 -0.3861
 4169SOL    HW123966   3.843   0.152   9.245  0.3113 -0.5224  1.1238
 4169SOL    HW223967   3.778   0.072   9.142 -1.7678 -0.2790 -0.4133
 4170SOL     OW23968   4.446   0.433   7.085  0.0307  0.4406  0.0443
 4170SOL    HW123969   4.474   0.359   7.138  1.4967 -0.7094 -2.3635
 4170SOL    HW223970   4.484   0.420   6.998 -2.0387 -0.1571 -0.7750
 4171SOL     OW23971   3.306   0.571  14.199 -0.1057 -0.5922  0.1524
 4171SOL    HW123972   3.353   0.650  14.228  2.7547 -1.0338 -3.1791
 4171SOL    HW223973   3.275   0.602  14.114 -0.9997 -1.2298  0.2563
 4172SOL     OW23974   3.611   0.435   2.916  0.3531  0.2162 -0.4457
 4172SOL    HW123975   3.678   0.464   2.979 -1.4220  1.4826  0.8558
 4172SOL    HW223976   3.655   0.380   2.852 -0.2440 -0.2005 -0.4941
 4173SOL     OW23977   1.004   2.309   9.796  0.1473 -0.7268  0.6098
 4173SOL    HW123978   0.931   2.267   9.750 -0.2544  0.7276 -0.0939
 4173SOL    HW223979   1.086   2.274   9.762  0.1648  0.5535 -0.6800
 4174SOL     OW23980   4.452   3.142   7.927  0.2282 -0.2455 -0.5508
 4174SOL    HW123981   4.425   3.115   8.015 -0.3799 -0.1603 -0.7123
 4174SOL    HW223982   4.390   3.089   7.877 -0.0491 -0.5529  0.1282
 4175SOL     OW23983   0.627   2.645  16.389  0.1149 -0.3968  0.3113
 4175SOL    HW123984   0.698   2.600  16.436  1.0442  1.1977  0.4409
 4175SOL    HW223985   0.557   2.624  16.451 -0.4407  0.0294 -0.1775
 4176SOL     OW23986   4.645   3.104   1.236  0.2288 -0.1613  0.4528
 4176SOL    HW123987   4.646   3.181   1.294 -1.2946  1.1693 -1.3128
 4176SOL    HW223988   0.015   3.096   1.207  0.4108  2.5533  0.2384
 4177SOL     OW23989   4.464   3.579  12.570 -0.4520  0.3717 -0.3583
 4177SOL    HW123990   4.525   3.651  12.584  0.0388 -0.0119 -0.5209
 4177SOL    HW223991   4.518   3.514  12.526 -1.0553  0.7487 -1.6368
 4178SOL     OW23992   1.133   4.392  12.706  0.0613 -0.5025 -0.5306
 4178SOL    HW123993   1.101   4.448  12.777  1.1171 -1.1984  0.5020
 4178SOL    HW223994   1.047   4.358  12.681 -1.2102 -0.0877  3.2635
 4179SOL     OW23995   3.663   2.659   3.491 -0.1446 -0.2428 -0.1199
 4179SOL    HW123996   3.666   2.709   3.410 -1.0174  0.8049  0.4897
 4179SOL    HW223997   3.753   2.627   3.490  0.1378  0.6271 -1.6223
 4180SOL     OW23998   3.320   0.175   3.175 -0.9172  0.6479 -0.1964
 4180SOL    HW123999   3.368   0.145   3.097  1.9889  0.8711  1.4972
 4180SOL    HW224000   3.394   0.219   3.218 -1.0768 -0.6925  1.4191
 4181SOL     OW24001   4.546   2.114   9.360  0.4786  0.2702 -0.5354
 4181SOL    HW124002   4.458   2.091   9.329  0.0583  0.7526  0.2839
 4181SOL    HW224003   4.559   2.051   9.431 -0.4705 -0.7564 -1.2767
 4182SOL     OW24004   0.542   2.975   4.388 -0.6482 -0.3482  0.1243
 4182SOL    HW124005   0.487   3.047   4.418  1.2488  1.1020  0.0498
 4182SOL    HW224006   0.585   2.964   4.473 -1.3460  0.7786  0.6342
 4183SOL     OW24007   1.515   1.995   6.654 -0.9049  0.3708 -0.0878
 4183SOL    HW124008   1.607   1.971   6.658 -1.4435 -1.4831  1.1747
 4183SOL    HW224009   1.521   2.081   6.612 -0.7372  0.2711 -0.2665
 4184SOL     OW24010   4.103   4.096   0.405  0.4559 -0.1117 -0.1102
 4184SOL    HW124011   4.090   4.039   0.481 -0.0456 -0.2814 -0.3234
 4184SOL    HW224012   4.120   4.025   0.344 -0.6622  0.8710 -1.5561
 4185SOL     OW24013   2.283   2.363   3.525  0.0122  0.0905 -0.3348
 4185SOL    HW124014   2.276   2.267   3.520  0.6534  0.0062  0.4581
 4185SOL    HW224015   2.370   2.370   3.486 -0.4622  1.6643 -1.1081
 4186SOL     OW24016   1.513   3.593   3.438 -0.1279 -0.0948  0.2339
 4186SOL    HW124017   1.601   3.615   3.406 -0.5441 -0.6379 -1.2889
 4186SOL    HW224018   1.470   3.677   3.453  3.3186  1.5554  0.8639
 4187SOL     OW24019   3.287   0.114  14.999 -0.4025  0.1773  0.5683
 4187SOL    HW124020   3.311   0.178  15.067  0.5592 -0.6429  1.0075
 4187SOL    HW224021   3.373   0.089  14.966 -0.6428  0.1812 -0.0525
 4188SOL     OW24022   1.452   2.459   4.238  0.1503  0.0844 -0.8987
 4188SOL    HW124023   1.414   2.402   4.172 -0.4529 -0.2494 -0.2740
 4188SOL    HW224024   1.401   2.431   4.315 -0.1190  0.3780 -0.9716
 4189SOL     OW24025   3.379   0.601   3.238  0.3316 -0.5978 -0.7928
 4189SOL    HW124026   3.455   0.654   3.212  0.4829 -0.5862 -0.3315
 4189SOL    HW224027   3.403   0.591   3.331  0.3040 -1.2024 -0.8561
 4190SOL     OW24028   0.508   0.348  12.580  0.0240  0.5925 -0.2541
 4190SOL    HW124029   0.517   0.258  12.549 -1.1017  0.8237 -1.2141
 4190SOL    HW224030   0.413   0.343  12.574 -0.0040  2.1635 -1.2828
 4191SOL     OW24031   2.605   0.533   2.785  0.1725  0.1749 -0.0012
 4191SOL    HW124032   2.624   0.616   2.740 -0.3991  0.5800  0.4944
 4191SOL    HW224033   2.699   0.522   2.801 -0.4989 -1.7005  2.6459
 4192SOL     OW24034   0.055   3.700   4.833  0.0024 -0.4585 -0.1867
 4192SOL    HW124035   0.020   3.788   4.846 -2.5996 -1.5554  0.4726
 4192SOL    HW224036   4.697   3.668   4.788  1.0558  1.1228 -3.1271
 4193SOL     OW24037   1.822   4.721   4.424 -0.4567 -0.4913  0.3271
 4193SOL    HW124038   1.825   0.094   4.406 -1.1309 -0.4032  0.6631
 4193SOL    HW224039   1.905   4.694   4.386  0.1404  1.4450  0.2477
 4194SOL     OW24040   4.237   1.596   5.421  0.7328  0.1281 -0.1054
 4194SOL    HW124041   4.155   1.592   5.471 -0.6657  0.6149 -2.3461
 4194SOL    HW224042   4.300   1.544   5.469 -0.0110  0.3695  1.1381
 4195SOL     OW24043   1.662   4.435   6.659  0.1350  0.0256  0.3090
 4195SOL    HW124044   1.727   4.367   6.675 -1.4854 -0.9774  2.5940
 4195SOL    HW224045   1.585   4.380   6.641  0.6256 -0.5309 -0.0632
 4196SOL     OW24046   1.791   1.398   1.653  0.1736  0.3649  0.1298
 4196SOL    HW124047   1.735   1.437   1.720  0.4286  0.1981  0.4442
 4196SOL    HW224048   1.761   1.440   1.573  2.8313  3.1859  0.6174
 4197SOL     OW24049   4.497   2.522   5.394  0.0099 -0.8933  0.0773
 4197SOL    HW124050   4.592   2.529   5.398  0.0045 -0.9754  0.3864
 4197SOL    HW224051   4.492   2.426   5.400 -0.0384 -0.9571 -0.9406
 4198SOL     OW24052   1.640   1.112   5.801 -0.5398  0.5567 -0.1524
 4198SOL    HW124053   1.691   1.193   5.815  1.7276 -0.9634  0.4858
 4198SOL    HW224054   1.645   1.070   5.887 -0.6503  1.0057  0.0782
 4199SOL     OW24055   4.549   2.252   5.468  0.4678 -0.2815  0.4534
 4199SOL    HW124056   4.635   2.218   5.442 -0.5976 -1.8625 -0.9664
 4199SOL    HW224057   4.544   2.228   5.560 -0.8707 -2.9621 -0.3099
 4200SOL     OW24058   0.272   3.834   8.022 -0.3029  0.6043 -0.3339
 4200SOL    HW124059   0.277   3.909   8.082 -1.3344  0.3617  0.0427
 4200SOL    HW224060   0.315   3.873   7.946  0.3176  1.2602  0.3482
 4201SOL     OW24061   3.824   2.268   6.895 -0.1114  0.2551  0.0816
 4201SOL    HW124062   3.892   2.248   6.959  1.2961 -1.7978 -2.0291
 4201SOL    HW224063   3.757   2.320   6.939 -0.8489 -0.6480  0.0195
 4202SOL     OW24064   3.315   0.751   8.461 -0.0024  0.1970 -0.3069
 4202SOL    HW124065   3.302   0.815   8.531 -0.5763  0.4891 -0.6747
 4202SOL    HW224066   3.245   0.686   8.473 -1.4799  1.8341  0.0189
 4203SOL     OW24067   2.479   0.935  14.250  0.1045 -0.0224 -0.3897
 4203SOL    HW124068   2.543   1.006  14.245 -0.5739  0.5244 -1.5760
 4203SOL    HW224069   2.393   0.969  14.223 -0.4289 -1.6470 -0.7146
 4204SOL     OW24070   1.675   3.663  13.381  0.2541  0.6785  0.0096
 4204SOL    HW124071   1.732   3.586  13.390 -0.1327  0.5182  1.0591
 4204SOL    HW224072   1.722   3.706  13.310 -0.5044  0.4460 -0.6363
 4205SOL     OW24073   4.539   2.346   6.680  0.1956  0.2775  0.1475
 4205SOL    HW124074   4.509   2.356   6.590  2.5273  1.3213 -0.5365
 4205SOL    HW224075   4.600   2.272   6.674  0.0503 -0.1228  3.8858
 4206SOL     OW24076   1.242   2.475  15.249 -0.0042 -0.8033  0.0068
 4206SOL    HW124077   1.337   2.471  15.239  0.0705 -2.3689  1.2997
 4206SOL    HW224078   1.232   2.513  15.336  0.3446  1.1375 -0.8080
 4207SOL     OW24079   0.453   3.406   6.303 -0.2417  0.0779  0.3554
 4207SOL    HW124080   0.455   3.499   6.326  1.8931  0.0942  0.1038
 4207SOL    HW224081   0.541   3.379   6.277 -0.4235 -2.1585  2.0200
 4208SOL     OW24082   0.882   2.763   4.368  0.3137 -0.2357  0.0424
 4208SOL    HW124083   0.880   2.792   4.459  2.0003 -3.8516  1.2411
 4208SOL    HW224084   0.932   2.839   4.337 -0.1670 -1.6202 -4.2344
 4209SOL     OW24085   1.913   0.248   4.334  0.1682  0.7598  0.0907
 4209SOL    HW124086   1.885   0.339   4.324 -1.3779  0.1523 -1.0769
 4209SOL    HW224087   2.008   0.258   4.340  0.0746  1.8811 -0.2626
 4210SOL     OW24088   3.974   1.991   4.365  0.5447  0.3179 -0.5012
 4210SOL    HW124089   3.989   1.928   4.295 -0.7019  0.3759 -0.8112
 4210SOL    HW224090   4.066   1.992   4.392  1.0684  1.0773 -2.2707
 4211SOL     OW24091   4.687   0.512   2.617  0.2551  0.3861 -0.5243
 4211SOL    HW124092   0.004   0.434   2.576 -0.8323 -0.3308 -0.1772
 4211SOL    HW224093   0.048   0.559   2.627  0.9909 -1.1299  0.6129
 4212SOL     OW24094   4.422   3.150   3.925  0.0939  0.1581 -0.0306
 4212SOL    HW124095   4.382   3.186   4.005  1.7048 -0.5986  1.1126
 4212SOL    HW224096   4.490   3.096   3.965  2.7747  3.2647 -0.3817
 4213SOL     OW24097   2.215   0.263  16.228 -0.2893  0.1934  0.2068
 4213SOL    HW124098   2.124   0.267  16.197 -0.3174 -0.2454  0.2404
 4213SOL    HW224099   2.226   0.169  16.217 -0.3913  0.1533  0.4686
 4214SOL     OW24100   4.331   0.476   5.849  0.0789  0.1150  0.5905
 4214SOL    HW124101   4.260   0.539   5.838 -0.2992 -0.2378  1.0166
 4214SOL    HW224102   4.400   0.524   5.803 -1.5167  1.5248 -0.3643
 4215SOL     OW24103   4.643   3.340   1.396 -0.0888  0.2248  0.7658
 4215SOL    HW124104   4.629   3.309   1.486  0.2157 -2.8741 -0.2377
 4215SOL    HW224105   4.556   3.363   1.362  1.3173 -0.7686 -3.4371
 4216SOL     OW24106   0.900   0.639  10.977 -0.7695  0.4304 -0.3029
 4216SOL    HW124107   0.919   0.722  11.021 -0.7547 -0.1228  0.7393
 4216SOL    HW224108   0.986   0.628  10.938  0.6005  0.4640  2.7515
 4217SOL     OW24109   4.439   2.169   8.841 -0.2717 -0.1450 -0.5736
 4217SOL    HW124110   4.374   2.231   8.807  0.8140  1.1817 -0.2676
 4217SOL    HW224111   4.424   2.188   8.934  2.5240 -1.1487  0.0827
 4218SOL     OW24112   0.015   2.613   6.640  0.0953 -0.8495 -0.0136
 4218SOL    HW124113   4.678   2.669   6.691  1.5828 -0.0100  0.7623
 4218SOL    HW224114   4.674   2.543   6.620  2.1213 -2.6564 -0.0210
 4219SOL     OW24115   2.791   4.035   5.914  0.2370 -0.0380  0.4348
 4219SOL    HW124116   2.729   4.076   5.974  1.6810  2.7610  0.0315
 4219SOL    HW224117   2.863   4.097   5.905  0.2488 -0.2206 -0.8458
 4220SOL     OW24118   2.778   2.551   1.628  0.1086 -0.1402 -0.3287
 4220SOL    HW124119   2.725   2.581   1.701 -0.4232 -2.3575  0.2099
 4220SOL    HW224120   2.783   2.456   1.638  2.3582  0.1389  1.0922
 4221SOL     OW24121   3.709   3.528  15.397  0.6134 -0.2911  1.3735
 4221SOL    HW124122   3.785   3.500  15.448  1.7984 -0.3810 -0.4061
 4221SOL    HW224123   3.647   3.457  15.411 -0.7091  0.9336  1.7746
 4222SOL     OW24124   1.108   0.144   3.876 -0.0561 -0.0821 -0.4275
 4222SOL    HW124125   1.066   0.173   3.957 -2.6508 -0.9121 -1.4676
 4222SOL    HW224126   1.051   0.179   3.806 -2.0797 -1.4096  0.5681
 4223SOL     OW24127   3.272   4.017   3.891  0.1663  0.9137 -0.4184
 4223SOL    HW124128   3.196   3.976   3.850 -1.4763  1.5995  1.9395
 4223SOL    HW224129   3.354   4.005   3.843  0.4951  2.5948 -0.2794
 4224SOL     OW24130   4.339   4.372   3.713  0.0227 -0.3642  0.2714
 4224SOL    HW124131   4.248   4.342   3.723 -0.4010  0.4275 -1.2355
 4224SOL    HW224132   4.375   4.314   3.780 -1.0082 -0.1175  1.0519
 4225SOL     OW24133   3.200   0.044   2.229  0.6755 -0.0196  0.7359
 4225SOL    HW124134   3.251   0.124   2.243  1.1836  0.0471 -1.3933
 4225SOL    HW224135   3.207   4.715   2.310  1.2478 -2.1916 -0.6469
 4226SOL     OW24136   3.372   1.229   6.657 -0.2088 -0.1152 -0.3244
 4226SOL    HW124137   3.315   1.282   6.714 -0.0223 -0.8844  0.5686
 4226SOL    HW224138   3.447   1.289   6.655 -0.6413  0.4334 -0.0111
 4227SOL     OW24139   2.742   2.688  10.332 -0.0825 -0.0991 -0.1311
 4227SOL    HW124140   2.782   2.673  10.418 -2.2366  2.3335  1.3033
 4227SOL    HW224141   2.665   2.739  10.360 -1.5924 -1.7398 -1.2662
 4228SOL     OW24142   4.374   4.313   4.185  0.2827  0.5362  0.5713
 4228SOL    HW124143   4.432   4.306   4.261 -0.9886  0.9397  1.5857
 4228SOL    HW224144   4.372   4.408   4.173 -0.1139  0.1532 -2.4405
 4229SOL     OW24145   0.426   2.516  16.524 -0.5287  0.2733 -0.2189
 4229SOL    HW124146   0.339   2.537  16.488 -1.3067  0.0877  1.5400
 4229SOL    HW224147   0.422   2.421  16.511  0.3556  0.0556  1.2063
 4230SOL     OW24148   3.108   4.237   6.602 -0.2205  0.3080  0.3635
 4230SOL    HW124149   3.176   4.223   6.667  0.4380  3.5963  0.3627
 4230SOL    HW224150   3.055   4.306   6.643 -1.3371  0.3740 -1.1847
 4231SOL     OW24151   2.965   1.326   6.648 -0.4370  0.1918  0.0751
 4231SOL    HW124152   2.938   1.258   6.709  1.2685 -2.3730 -2.0321
 4231SOL    HW224153   2.923   1.401   6.689 -0.2277  0.8269 -0.8753
 4232SOL     OW24154   3.995   3.463   4.238  0.1585  0.2881 -0.0664
 4232SOL    HW124155   4.075   3.507   4.268  0.5539  1.9350 -3.4337
 4232SOL    HW224156   4.002   3.468   4.142 -0.1256  0.2812 -0.0876
 4233SOL     OW24157   3.574   2.134  17.403  0.0280 -0.2388  0.8429
 4233SOL    HW124158   3.480   2.120  17.416 -0.1849  0.6131  0.2397
 4233SOL    HW224159   3.605   2.071  17.468 -0.1747  1.6868  2.8126
 4234SOL     OW24160   3.381   1.084   8.576  0.1875  0.1593 -0.4002
 4234SOL    HW124161   3.299   1.039   8.557  1.3076 -0.8687 -2.8897
 4234SOL    HW224162   3.380   1.109   8.668 -0.8398 -0.6378 -0.2046
 4235SOL     OW24163   4.557   2.287   6.027 -0.0530 -0.0830 -0.4481
 4235SOL    HW124164   4.579   2.195   6.012 -0.1947 -0.0126 -1.0676
 4235SOL    HW224165   4.647   2.319   6.021 -0.6468  1.0505 -3.0662
 4236SOL     OW24166   3.738   2.570   6.753  0.1500 -0.0378 -0.0786
 4236SOL    HW124167   3.720   2.549   6.661  1.1794  2.7070 -0.9119
 4236SOL    HW224168   3.803   2.501   6.766 -0.4733 -0.2621  1.7612
 4237SOL     OW24169   3.565   3.772   4.195 -0.3346 -0.1121 -0.3340
 4237SOL    HW124170   3.631   3.713   4.231 -0.9699 -0.6246 -0.0302
 4237SOL    HW224171   3.592   3.858   4.228 -2.0051 -0.0045  0.7103
 4238SOL     OW24172   2.279   0.907   6.630 -0.8753  0.1657 -0.0284
 4238SOL    HW124173   2.263   0.917   6.536  0.8432 -2.1810 -0.5754
 4238SOL    HW224174   2.238   0.989   6.657  0.5232  0.5256  0.9861
 4239SOL     OW24175   0.556   3.682   4.100 -0.1153 -0.1110  0.0351
 4239SOL    HW124176   0.544   3.587   4.104  0.3847 -0.1661  0.2030
 4239SOL    HW224177   0.548   3.703   4.007  0.2277  2.6653  0.6450
 4240SOL     OW24178   0.230   3.156  11.972 -0.5120  0.2319  0.0269
 4240SOL    HW124179   0.234   3.190  12.062 -1.3590 -0.6579  0.4032
 4240SOL    HW224180   0.209   3.066  11.996 -0.5632  0.5463  1.1801
 4241SOL     OW24181   2.473   3.516   5.037 -0.1287  0.5328  0.2214
 4241SOL    HW124182   2.427   3.494   5.118 -0.6720 -1.9221 -0.7655
 4241SOL    HW224183   2.405   3.490   4.975 -0.1811  1.5892 -0.1591
 4242SOL     OW24184   3.485   0.507  12.876 -0.1505  0.1830 -0.0358
 4242SOL    HW124185   3.504   0.598  12.896  1.3654 -0.3796  1.0426
 4242SOL    HW224186   3.558   0.469  12.924  0.2961  1.6118  0.3923
 4243SOL     OW24187   1.241   4.615   3.214  0.4634 -0.1160 -0.4049
 4243SOL    HW124188   1.178   4.596   3.144 -1.5961  2.5338  0.7098
 4243SOL    HW224189   1.318   4.626   3.159  0.7162 -0.2977 -0.0863
 4244SOL     OW24190   2.751   0.118   3.369  0.3092 -0.5372 -0.1722
 4244SOL    HW124191   2.707   0.131   3.284  0.3516 -1.7552 -0.3672
 4244SOL    HW224192   2.808   0.195   3.363 -0.7739  0.1563 -1.6689
 4245SOL     OW24193   1.614   2.116  12.709 -0.2306  0.0014 -0.1013
 4245SOL    HW124194   1.576   2.143  12.626 -0.6178 -1.7348 -0.4858
 4245SOL    HW224195   1.568   2.038  12.739 -0.0051 -0.0814  0.0269
 4246SOL     OW24196   2.531   3.519   0.964  0.3841  0.0880 -0.0287
 4246SOL    HW124197   2.524   3.429   0.933 -2.7447  0.9623 -1.8804
 4246SOL    HW224198   2.624   3.524   0.986  0.1773 -2.1864  1.4092
 4247SOL     OW24199   3.030   4.531   5.727 -0.0649 -0.3256 -0.0354
 4247SOL    HW124200   3.124   4.548   5.715 -0.3430  0.3648 -1.2559
 4247SOL    HW224201   2.992   4.592   5.664  1.8218 -0.4897 -1.3072
 4248SOL     OW24202   0.871   1.974   9.177 -0.3826  0.0632  0.4361
 4248SOL    HW124203   0.883   2.051   9.121  2.6805 -1.1181 -0.4942
 4248SOL    HW224204   0.941   1.918   9.144 -0.5197  0.9149 -1.3183
 4249SOL     OW24205   2.715   1.289  12.582 -0.3550  0.4955  0.3001
 4249SOL    HW124206   2.694   1.318  12.670  1.6452 -0.0265  0.9542
 4249SOL    HW224207   2.694   1.196  12.587  1.2497  0.2372  2.0176
 4250SOL     OW24208   2.328   3.252   1.857 -0.2204 -0.3815 -0.2014
 4250SOL    HW124209   2.397   3.283   1.917  0.7621  1.7214 -2.4124
 4250SOL    HW224210   2.261   3.210   1.911 -1.6586  0.2050 -1.5604
 4251SOL     OW24211   1.379   0.490   5.106  0.7098 -0.1773 -0.1518
 4251SOL    HW124212   1.323   0.547   5.053 -2.4327 -1.5545  1.6573
 4251SOL    HW224213   1.373   0.529   5.194  0.1742 -1.5640  0.4277
 4252SOL     OW24214   3.706   3.816   3.950  0.2010 -0.6341  0.2004
 4252SOL    HW124215   3.655   3.764   3.888 -1.2097  1.5008 -0.4065
 4252SOL    HW224216   3.653   3.808   4.029  2.3863 -0.6446  1.6703
 4253SOL     OW24217   0.694   1.009   3.243 -1.0772 -0.3781 -0.0864
 4253SOL    HW124218   0.605   1.029   3.214 -1.7604 -2.8816  0.2700
 4253SOL    HW224219   0.688   0.917   3.267  2.7160 -0.7007 -0.4940
 4254SOL     OW24220   2.254   4.595   4.887  0.1212 -0.3482 -0.2003
 4254SOL    HW124221   2.300   4.553   4.814 -2.2605 -2.6999 -0.3614
 4254SOL    HW224222   2.292   4.537   4.953 -0.3957 -0.1600  0.2615
 4255SOL     OW24223   2.732   2.439   8.838  0.0008  0.2524  0.7700
 4255SOL    HW124224   2.744   2.372   8.770 -0.5954 -0.1589  1.0666
 4255SOL    HW224225   2.656   2.403   8.883 -0.6112  0.1108 -0.3681
 4256SOL     OW24226   4.268   4.340   5.595 -0.0212 -0.7105  0.1918
 4256SOL    HW124227   4.188   4.288   5.593 -2.1349  2.5862  1.7354
 4256SOL    HW224228   4.252   4.385   5.512 -0.4831 -2.0722 -0.4722
 4257SOL     OW24229   4.242   2.510  10.368 -0.2896 -0.4694  0.6527
 4257SOL    HW124230   4.307   2.527  10.436 -0.7466  1.3768  0.6226
 4257SOL    HW224231   4.161   2.486  10.414 -0.2844  0.2878  1.0598
 4258SOL     OW24232   3.651   3.776   8.718 -0.2108 -0.2274  0.0273
 4258SOL    HW124233   3.564   3.740   8.731  0.2464 -1.2002  0.4103
 4258SOL    HW224234   3.686   3.769   8.807  0.8075 -2.2986 -0.5247
 4259SOL     OW24235   2.360   1.377  11.079 -0.3013 -0.0496  0.0905
 4259SOL    HW124236   2.267   1.398  11.081 -0.3607 -0.3299  0.2622
 4259SOL    HW224237   2.376   1.380  10.984  0.6120  2.2985  0.2994
 4260SOL     OW24238   0.013   3.250  14.972 -0.2629 -0.4538 -0.0419
 4260SOL    HW124239   0.029   3.171  14.921  1.8328  0.7422 -1.2078
 4260SOL    HW224240   0.092   3.303  14.961  0.7657 -1.9993  0.0126
 4261SOL     OW24241   0.151   0.625  13.107  0.3356  0.0203 -0.2668
 4261SOL    HW124242   0.244   0.624  13.128  0.6127 -1.0647 -1.5407
 4261SOL    HW224243   0.152   0.713  13.069 -1.4595 -0.5111 -1.5564
 4262SOL     OW24244   0.118   4.195   1.601 -0.5291  0.0777  0.2746
 4262SOL    HW124245   0.148   4.217   1.690 -1.5908 -0.2555  0.7171
 4262SOL    HW224246   0.162   4.265   1.553  1.1376 -0.1870  1.4085
 4263SOL     OW24247   2.351   3.749   6.947 -0.4391  0.2811  0.1899
 4263SOL    HW124248   2.354   3.709   6.860  1.3348  1.1007 -0.1257
 4263SOL    HW224249   2.294   3.687   6.993 -1.3986  2.3925  1.7822
 4264SOL     OW24250   0.104   3.871   3.865 -0.4042 -0.6747  0.2376
 4264SOL    HW124251   0.132   3.782   3.844  2.8674  0.7542 -1.4711
 4264SOL    HW224252   0.010   3.869   3.850 -0.8466  0.2805  2.9301
 4265SOL     OW24253   1.631   2.917   1.241 -0.0655 -0.6666 -0.0706
 4265SOL    HW124254   1.554   2.968   1.265  0.7618  0.7616 -0.4420
 4265SOL    HW224255   1.606   2.835   1.284  2.0334  0.6637  3.6587
 4266SOL     OW24256   0.216   3.412  14.886 -0.8115  0.2758  0.1562
 4266SOL    HW124257   0.287   3.469  14.916  0.2505 -0.2404 -1.4087
 4266SOL    HW224258   0.155   3.475  14.846 -0.5148  0.1635 -0.4657
 4267SOL     OW24259   1.099   1.350   2.909 -0.1470  0.4229  0.4969
 4267SOL    HW124260   1.006   1.364   2.927 -0.3520 -0.8119  0.4191
 4267SOL    HW224261   1.104   1.259   2.938  1.2376 -0.1822 -1.6792
 4268SOL     OW24262   2.784   1.670   1.449 -0.2303  0.3299  0.2546
 4268SOL    HW124263   2.754   1.667   1.540  2.6150 -0.7062  1.1517
 4268SOL    HW224264   2.873   1.705   1.455 -0.2076  0.4297 -0.6332
 4269SOL     OW24265   1.690   3.165   8.386 -0.5966  0.1441  0.8191
 4269SOL    HW124266   1.621   3.212   8.432 -1.2599  0.9504 -1.0049
 4269SOL    HW224267   1.759   3.156   8.452  1.7529  0.9637 -1.5761
 4270SOL     OW24268   3.502   1.723  10.662 -0.5513 -0.1048 -0.6331
 4270SOL    HW124269   3.465   1.804  10.626  1.2569  0.2959 -1.6131
 4270SOL    HW224270   3.510   1.675  10.579 -2.2608 -2.0136  0.3242
 4271SOL     OW24271   3.810   2.546  17.352  0.1073  0.3400  0.0016
 4271SOL    HW124272   3.845   2.484  17.288  0.4698  1.2022 -0.6247
 4271SOL    HW224273   3.762   2.487  17.411  0.6738  0.9082  1.0242
 4272SOL     OW24274   1.971   0.791   8.019  0.0349 -0.3691 -0.5529
 4272SOL    HW124275   1.931   0.878   8.025  0.7567 -0.1297  0.6793
 4272SOL    HW224276   1.899   0.740   7.981  1.0145 -1.4958 -0.8653
 4273SOL     OW24277   1.806   3.630   3.305  0.2264  0.9931  0.3460
 4273SOL    HW124278   1.894   3.642   3.269  0.0835  3.1578  0.7361
 4273SOL    HW224279   1.757   3.704   3.272 -2.6590 -1.3790 -0.7157
 4274SOL     OW24280   0.748   2.934   9.451  0.8071  0.5034 -0.5470
 4274SOL    HW124281   0.759   2.871   9.522  1.2891  1.7639  0.4894
 4274SOL    HW224282   0.831   2.947   9.405  0.8413  0.2302 -0.5619
 4275SOL     OW24283   4.183   0.982   3.613  0.4189  0.6860 -0.1313
 4275SOL    HW124284   4.133   1.047   3.662  1.6923  0.6126  1.2851
 4275SOL    HW224285   4.113   0.934   3.570 -0.5255  3.0027 -1.1020
 4276SOL     OW24286   2.169   1.390   0.484  0.0189  0.1824 -0.4134
 4276SOL    HW124287   2.135   1.479   0.474 -3.1915 -0.8871  1.0886
 4276SOL    HW224288   2.110   1.358   0.553  0.8415  4.3046  2.1576
 4277SOL     OW24289   2.900   0.108  14.566 -0.0478  0.0337  0.0838
 4277SOL    HW124290   2.944   0.028  14.592  0.2864  0.5879  1.2307
 4277SOL    HW224291   2.812   0.069  14.573  0.6078 -1.2956  0.9115
 4278SOL     OW24292   2.297   0.149   1.899 -0.4653 -0.5584 -0.3019
 4278SOL    HW124293   2.261   0.064   1.927  0.1519 -0.2088  1.5479
 4278SOL    HW224294   2.388   0.131   1.922 -1.2390 -1.9228  1.7313
 4279SOL     OW24295   3.601   3.600   7.561  0.1655 -0.5404  0.1462
 4279SOL    HW124296   3.514   3.595   7.520 -1.1258 -2.2249  3.1082
 4279SOL    HW224297   3.592   3.683   7.608 -1.7073 -1.5251  1.5186
 4280SOL     OW24298   0.645   2.440   7.660  0.4364  0.7412  0.0627
 4280SOL    HW124299   0.689   2.362   7.626  2.2764  1.0488  1.7520
 4280SOL    HW224300   0.563   2.431   7.612  0.8186 -2.1184 -0.0689
 4281SOL     OW24301   2.137   0.609   8.100 -0.5606 -0.2966 -0.3505
 4281SOL    HW124302   2.091   0.680   8.055  2.0153  0.8147 -1.2038
 4281SOL    HW224303   2.098   0.613   8.188 -1.6640 -1.3041 -0.7938
 4282SOL     OW24304   4.224   3.884   3.640  0.0258  0.2571  0.3572
 4282SOL    HW124305   4.190   3.837   3.564 -0.3093 -2.5869  2.3000
 4282SOL    HW224306   4.183   3.831   3.708  1.0048  0.2960  0.9771
 4283SOL     OW24307   1.688   4.140   8.430  0.1191  0.1267  0.1707
 4283SOL    HW124308   1.758   4.181   8.380 -0.7171  1.6315  0.2219
 4283SOL    HW224309   1.648   4.218   8.469 -1.0339  0.1074 -0.9687
 4284SOL     OW24310   4.645   0.879   7.941 -0.2322  0.2111 -0.2388
 4284SOL    HW124311   4.616   0.966   7.969 -2.1198 -0.8695  1.1214
 4284SOL    HW224312   4.615   0.876   7.850 -1.4388 -0.7277  0.1908
 4285SOL     OW24313   2.571   2.544   6.972  0.0302 -0.0508  0.1936
 4285SOL    HW124314   2.477   2.529   6.956  0.6163 -3.0333 -0.5651
 4285SOL    HW224315   2.566   2.583   7.059 -2.2021  1.7773 -0.7296
 4286SOL     OW24316   2.605   3.737  16.022  0.6140  0.2085  0.1900
 4286SOL    HW124317   2.603   3.660  16.079 -2.3796 -0.4661 -0.8149
 4286SOL    HW224318   2.666   3.779  16.082  2.6912 -1.0560 -1.0262
 4287SOL     OW24319   2.622   0.621   0.548  0.1667 -0.4249  0.3833
 4287SOL    HW124320   2.536   0.661   0.536 -0.0809 -1.1101 -0.0811
 4287SOL    HW224321   2.595   0.564   0.620 -0.3767  0.2173  0.6911
 4288SOL     OW24322   0.677   2.152   4.140  0.0519 -0.1008  0.5038
 4288SOL    HW124323   0.689   2.108   4.056 -1.4921  0.2214  0.1108
 4288SOL    HW224324   0.654   2.239   4.107 -2.1723 -1.9904 -2.9150
 4289SOL     OW24325   3.891   3.687  10.366 -0.1197  0.8681 -0.4344
 4289SOL    HW124326   3.870   3.780  10.357 -1.2312  0.4559 -2.1508
 4289SOL    HW224327   3.905   3.678  10.460  0.6715 -1.8720 -0.8013
 4290SOL     OW24328   4.715   0.850   4.732  0.4478  0.6540 -0.4386
 4290SOL    HW124329   0.052   0.821   4.802  0.1817  3.9193  1.1609
 4290SOL    HW224330   4.701   0.938   4.769 -0.5975  0.4949 -0.4324
 4291SOL     OW24331   3.412   1.245   2.039 -0.1944 -0.1130 -0.6471
 4291SOL    HW124332   3.426   1.322   2.093  1.9142  0.1276 -1.5180
 4291SOL    HW224333   3.477   1.183   2.072 -0.3186  0.1594  0.1100
 4292SOL     OW24334   3.757   4.087   5.215 -0.0795 -0.6117 -0.1103
 4292SOL    HW124335   3.814   4.083   5.138 -0.5708  1.3039 -0.5703
 4292SOL    HW224336   3.742   4.180   5.230  0.1705 -0.7095  0.7419
 4293SOL     OW24337   4.518   1.316   1.900 -0.2779 -0.7770 -0.3208
 4293SOL    HW124338   4.438   1.341   1.854 -0.4531  1.0223  0.9621
 4293SOL    HW224339   4.525   1.384   1.967 -0.4867 -0.6542 -0.4242
 4294SOL     OW24340   2.305   1.257   2.961 -0.2259 -0.7648  0.0759
 4294SOL    HW124341   2.212   1.277   2.953 -0.1224 -0.9085 -1.4160
 4294SOL    HW224342   2.347   1.340   2.941 -0.0009 -0.4274  1.9151
 4295SOL     OW24343   0.528   2.008  13.473  0.6127  0.4981  0.0992
 4295SOL    HW124344   0.466   2.008  13.400  0.5271 -0.8651  0.1589
 4295SOL    HW224345   0.477   2.029  13.551  1.2892 -0.5863  0.8440
 4296SOL     OW24346   4.317   2.844   2.195  0.1085  0.0807  0.2479
 4296SOL    HW124347   4.264   2.910   2.150 -2.3984 -2.3230 -0.2852
 4296SOL    HW224348   4.408   2.869   2.181 -0.1357  1.1904  0.6045
 4297SOL     OW24349   3.130   2.134   6.725  0.2720 -0.3143 -0.0855
 4297SOL    HW124350   3.106   2.207   6.668  3.4118  0.7308 -0.1085
 4297SOL    HW224351   3.190   2.095   6.661 -0.6882 -4.2768  1.4236
 4298SOL     OW24352   3.727   1.748   7.804 -0.0335  0.1119  0.4314
 4298SOL    HW124353   3.735   1.653   7.799 -3.1368 -0.0803 -0.6367
 4298SOL    HW224354   3.812   1.770   7.842  0.0638 -0.7852  0.7361
 4299SOL     OW24355   0.302   3.906   2.597  0.2806  0.4238  0.1477
 4299SOL    HW124356   0.363   3.958   2.650  2.0042 -0.8050 -0.6301
 4299SOL    HW224357   0.359   3.865   2.532  0.9286  2.4769 -0.6006
 4300SOL     OW24358   2.403   3.493   0.576 -0.0975  0.3065 -0.7507
 4300SOL    HW124359   2.418   3.583   0.548 -2.6053  0.6673 -0.9814
 4300SOL    HW224360   2.492   3.463   0.592 -0.0131  0.2679 -1.2877
 4301SOL     OW24361   2.984   1.504   5.239 -0.4567  0.2079 -0.1549
 4301SOL    HW124362   3.036   1.445   5.294 -0.2084  0.4874 -0.0897
 4301SOL    HW224363   2.916   1.442   5.213 -2.2572  1.8076  0.7585
 4302SOL     OW24364   2.109   0.772   1.916 -0.6831  0.0618 -0.1691
 4302SOL    HW124365   2.067   0.688   1.934 -0.0883 -0.8385 -2.9117
 4302SOL    HW224366   2.054   0.804   1.845  0.0748  0.3970 -0.6003
 4303SOL     OW24367   0.948   4.419  15.204  0.2485 -0.0602 -0.0140
 4303SOL    HW124368   0.907   4.493  15.249  1.1399  0.0554  0.5967
 4303SOL    HW224369   0.891   4.348  15.232  0.4690 -0.1054  0.3169
 4304SOL     OW24370   4.032   2.843   5.004  0.3362  0.0487 -0.3387
 4304SOL    HW124371   3.957   2.795   5.039 -0.2898  1.2394 -0.0624
 4304SOL    HW224372   4.087   2.768   4.981 -0.1223 -0.2753 -0.3812
 4305SOL     OW24373   2.823   2.554   4.647  0.4533 -0.1040 -0.5602
 4305SOL    HW124374   2.892   2.505   4.692  0.1144 -0.8025 -0.8003
 4305SOL    HW224375   2.870   2.589   4.572  0.8750 -3.2042 -1.7552
 4306SOL     OW24376   2.218   4.692  11.179  0.5591  0.1692  0.0374
 4306SOL    HW124377   2.184   0.051  11.219 -2.5816 -1.1724  0.1168
 4306SOL    HW224378   2.147   4.679  11.116 -1.8722 -1.0104  2.9883
 4307SOL     OW24379   2.610   4.565   3.809 -0.4987 -0.4851  0.1068
 4307SOL    HW124380   2.592   4.582   3.716  0.2655  0.3657  0.1198
 4307SOL    HW224381   2.643   4.476   3.823  0.6987 -0.0498  0.0930
 4308SOL     OW24382   3.565   4.153   2.509 -0.0855 -0.6410  0.0648
 4308SOL    HW124383   3.654   4.169   2.477  0.2609 -2.2261  0.2255
 4308SOL    HW224384   3.578   4.169   2.603 -0.6694 -0.6702  0.1477
 4309SOL     OW24385   3.088   0.377  12.631 -0.2812 -0.6039 -0.0669
 4309SOL    HW124386   3.142   0.366  12.553 -0.7794  0.3223 -0.5430
 4309SOL    HW224387   3.140   0.341  12.703  1.1294  1.2801 -0.1350
 4310SOL     OW24388   0.990   0.808   4.499 -0.6445  0.6419  0.0510
 4310SOL    HW124389   0.944   0.743   4.446  0.1535  0.9110 -0.9784
 4310SOL    HW224390   1.077   0.767   4.493 -0.0354  1.8263  0.8411
 4311SOL     OW24391   3.918   4.571  11.125  0.1300 -0.1218  0.0695
 4311SOL    HW124392   3.938   4.644  11.065  1.6343 -0.1212  0.5693
 4311SOL    HW224393   3.834   4.607  11.152  1.0446  0.6080  1.8863
 4312SOL     OW24394   3.149   0.353   0.156 -0.1889 -0.3575 -0.4781
 4312SOL    HW124395   3.150   0.333   0.062 -0.9605 -1.8390 -0.1691
 4312SOL    HW224396   3.085   0.423   0.155 -0.2626 -0.4231 -0.3527
 4313SOL     OW24397   0.860   3.210  12.234  0.0890 -0.3452  0.2023
 4313SOL    HW124398   0.922   3.214  12.161  1.1208  0.4681  1.1226
 4313SOL    HW224399   0.812   3.129  12.221 -1.6556  0.5330  1.1941
 4314SOL     OW24400   1.928   0.636   7.404  0.3078 -0.7594 -0.2686
 4314SOL    HW124401   1.851   0.677   7.363  0.1191 -1.5429 -0.7099
 4314SOL    HW224402   1.913   0.660   7.495 -0.4522  1.9347 -1.0971
 4315SOL     OW24403   1.144   0.769   8.538 -0.0989 -0.5641 -0.2716
 4315SOL    HW124404   1.133   0.789   8.631 -0.6896 -2.0718 -0.0165
 4315SOL    HW224405   1.082   0.826   8.493 -1.5911 -0.7276  1.6058
 4316SOL     OW24406   0.887   3.098  14.812 -0.1408 -0.7238  0.3898
 4316SOL    HW124407   0.852   3.054  14.735 -1.0555  1.8021 -0.6319
 4316SOL    HW224408   0.892   3.022  14.870  1.6823  0.0263  1.1925
 4317SOL     OW24409   0.114   4.554   5.072  0.4243  0.1278 -0.5450
 4317SOL    HW124410   0.198   4.510   5.082 -0.1690 -1.0554 -0.8404
 4317SOL    HW224411   0.102   4.572   5.165  0.4826  3.3762 -1.1655
 4318SOL     OW24412   3.389   2.893   2.558 -0.5520  0.4815  0.3547
 4318SOL    HW124413   3.338   2.970   2.583 -1.5896  0.2297 -0.9950
 4318SOL    HW224414   3.316   2.831   2.563  0.4273 -0.6486  0.6863
 4319SOL     OW24415   3.484   3.558  12.353  0.2989 -0.3339 -0.3642
 4319SOL    HW124416   3.517   3.498  12.286  0.5876 -1.0173  0.3799
 4319SOL    HW224417   3.557   3.620  12.356 -1.8440  2.2476 -1.3020
 4320SOL     OW24418   1.344   2.187  12.144 -0.8612  0.4526  0.3406
 4320SOL    HW124419   1.302   2.108  12.109 -0.5055  0.3770  0.0860
 4320SOL    HW224420   1.271   2.225  12.194 -0.0829  0.5973  1.3837
 4321SOL     OW24421   2.861   4.607   3.664 -0.0632  0.0180  0.1874
 4321SOL    HW124422   2.811   4.596   3.583  0.2408 -1.3740  0.1979
 4321SOL    HW224423   2.790   4.622   3.726  0.4778  0.8905  0.6008
 4322SOL     OW24424   0.307   2.081   4.018  0.3178 -0.1111  1.0090
 4322SOL    HW124425   0.212   2.077   4.025  0.3201  0.3733  1.3449
 4322SOL    HW224426   0.313   2.177   4.019 -0.8002 -0.0311 -0.9763
 4323SOL     OW24427   3.875   4.265   0.366 -0.2148 -0.1133  0.7699
 4323SOL    HW124428   3.947   4.219   0.409  1.0854  1.2587  0.0740
 4323SOL    HW224429   3.819   4.188   0.360  0.8636 -0.8898  0.6293
 4324SOL     OW24430   3.296   3.997   4.156  0.5006 -0.7508  0.2239
 4324SOL    HW124431   3.287   4.013   4.062 -0.7848 -1.2265  0.2498
 4324SOL    HW224432   3.356   4.067   4.181  2.0671 -2.7281  2.0335
 4325SOL     OW24433   2.157   1.461   6.424 -0.2184 -0.0365 -0.0523
 4325SOL    HW124434   2.202   1.376   6.425 -0.8300 -0.3453  0.7216
 4325SOL    HW224435   2.103   1.453   6.502  1.0169 -1.4589  0.6547
 4326SOL     OW24436   2.856   3.796   4.473 -0.3247 -0.0914 -0.3190
 4326SOL    HW124437   2.914   3.773   4.401  1.0218  0.1925  0.6799
 4326SOL    HW224438   2.813   3.712   4.488  1.2739 -1.1986 -2.0437
 4327SOL     OW24439   1.449   1.324   5.514 -0.0060 -0.9592  0.1069
 4327SOL    HW124440   1.405   1.240   5.499 -0.0496 -1.2253  1.6726
 4327SOL    HW224441   1.378   1.382   5.486  0.6386  0.4420  1.4010
 4328SOL     OW24442   1.923   1.829  16.842 -0.2250  0.0547  0.1286
 4328SOL    HW124443   1.895   1.920  16.836  0.3470  0.3084  1.3023
 4328SOL    HW224444   1.836   1.792  16.859 -0.1845 -2.2241 -4.7907
 4329SOL     OW24445   2.589   3.714   8.017  0.2779 -0.7617 -0.5078
 4329SOL    HW124446   2.642   3.636   8.001 -0.8737 -1.8069  0.7693
 4329SOL    HW224447   2.525   3.684   8.081  1.6957  0.9062  1.6899
 4330SOL     OW24448   0.270   1.054   3.847  0.1007 -0.2638  0.1054
 4330SOL    HW124449   0.211   1.054   3.772  0.5060 -0.2856 -0.2092
 4330SOL    HW224450   0.350   1.021   3.806  0.6235  1.5647 -0.3518
 4331SOL     OW24451   0.887   3.612   6.193  0.1588  0.4614  0.0703
 4331SOL    HW124452   0.974   3.585   6.164  0.7787 -0.2705  2.5941
 4331SOL    HW224453   0.833   3.612   6.114  2.0507 -1.8797 -1.2344
 4332SOL     OW24454   3.138   2.013   2.735 -0.2190 -0.0080  0.1081
 4332SOL    HW124455   3.216   1.991   2.685 -0.3416  0.3086 -0.2169
 4332SOL    HW224456   3.072   2.003   2.667 -0.1329 -3.3926  0.4983
 4333SOL     OW24457   4.267   3.700   5.319  0.6016  0.0663 -0.3736
 4333SOL    HW124458   4.240   3.790   5.298 -1.9679 -0.5569  0.2523
 4333SOL    HW224459   4.187   3.657   5.349 -0.4472  1.6127 -0.9821
 4334SOL     OW24460   2.595   4.151   8.839 -0.0710  0.5728  0.0615
 4334SOL    HW124461   2.587   4.129   8.931 -1.3978  4.7188  0.9301
 4334SOL    HW224462   2.515   4.113   8.802  1.9531 -1.1122 -2.5940
 4335SOL     OW24463   3.042   4.579  10.687  0.4081 -0.1619  0.0946
 4335SOL    HW124464   3.130   4.606  10.661 -0.0645  1.1250 -0.1786
 4335SOL    HW224465   3.039   4.488  10.658  2.8960  0.0948 -0.8963
 4336SOL     OW24466   4.174   0.588   9.297 -0.3058 -0.1586 -0.3082
 4336SOL    HW124467   4.166   0.501   9.337  2.4268 -0.9759 -1.5615
 4336SOL    HW224468   4.235   0.573   9.225 -1.5447  1.1830 -1.6378
 4337SOL     OW24469   1.583   2.107  13.420 -0.1132 -0.1811 -0.1237
 4337SOL    HW124470   1.649   2.110  13.350 -1.5879  3.2488 -1.3633
 4337SOL    HW224471   1.506   2.097  13.364  0.6817 -1.0722 -1.0754
 4338SOL     OW24472   0.648   1.018   2.248  0.0420 -0.5604 -0.3359
 4338SOL    HW124473   0.645   1.048   2.157  2.4437  0.4810 -0.0560
 4338SOL    HW224474   0.737   1.042   2.271  0.2196 -0.2056 -1.3846
 4339SOL     OW24475   4.659   4.042   8.448  0.2859  0.2593  0.5782
 4339SOL    HW124476   4.675   4.027   8.542 -0.6287  0.1691  0.7207
 4339SOL    HW224477   0.007   3.996   8.400 -0.2508  1.4170 -1.2666
 4340SOL     OW24478   3.477   1.820   2.321  0.0237  0.4242 -0.1439
 4340SOL    HW124479   3.563   1.784   2.300 -0.3029 -1.9017  2.4164
 4340SOL    HW224480   3.447   1.838   2.232 -0.9821  1.0946  0.3282
 4341SOL     OW24481   2.198   0.040   4.495  0.2373  0.1236 -0.1593
 4341SOL    HW124482   2.183   0.111   4.433  1.8217  0.2055 -0.4556
 4341SOL    HW224483   2.283   0.005   4.467 -0.1955 -1.1199  0.1088
 4342SOL     OW24484   3.813   2.150   5.307 -0.1180  0.4228  0.4910
 4342SOL    HW124485   3.893   2.202   5.318  0.6674 -1.2961  3.0274
 4342SOL    HW224486   3.735   2.199   5.334 -0.3099  0.2386  0.2635
 4343SOL     OW24487   3.147   3.333   4.525  0.3662 -0.0002 -0.1348
 4343SOL    HW124488   3.161   3.257   4.580 -1.6559 -0.1498  0.1408
 4343SOL    HW224489   3.063   3.367   4.556 -0.6689 -1.9063 -0.8903
 4344SOL     OW24490   3.723   1.379   2.694 -0.1559 -0.4733 -0.0729
 4344SOL    HW124491   3.709   1.410   2.604  2.2959  0.2226 -0.2434
 4344SOL    HW224492   3.723   1.286   2.672 -0.2062 -0.9870  2.1336
 4345SOL     OW24493   1.186   3.557  13.115  0.4704  0.2726  0.5071
 4345SOL    HW124494   1.196   3.462  13.112 -1.4403  0.0717  0.3891
 4345SOL    HW224495   1.272   3.588  13.087  0.5332 -1.5173 -1.3022
 4346SOL     OW24496   0.817   3.904  12.072 -0.1573  0.3348 -0.1385
 4346SOL    HW124497   0.805   3.824  12.122  0.1719 -0.1489 -0.8386
 4346SOL    HW224498   0.726   3.929  12.054  0.0701 -0.0627 -1.8280
 4347SOL     OW24499   4.652   3.934   4.901  0.0969 -0.1717 -0.0398
 4347SOL    HW124500   4.673   4.027   4.888  2.0406 -0.7519 -1.0804
 4347SOL    HW224501   4.669   3.911   4.993 -0.6447  1.0017  0.4000
 4348SOL     OW24502   4.082   0.980   7.830  0.2813  0.4749  0.1123
 4348SOL    HW124503   4.013   1.031   7.786 -0.2809  1.4934  2.1744
 4348SOL    HW224504   4.147   1.049   7.842 -0.1972  0.6608  1.6341
 4349SOL     OW24505   1.867   3.658  13.725  0.2228  0.1942  0.3416
 4349SOL    HW124506   1.930   3.674  13.654  1.1445  0.7355  1.2801
 4349SOL    HW224507   1.838   3.747  13.743 -1.2923 -0.6748  2.1862
 4350SOL     OW24508   1.766   0.797   4.637  0.6574  0.4926  0.1000
 4350SOL    HW124509   1.761   0.879   4.687  0.5730  0.4245  0.2050
 4350SOL    HW224510   1.697   0.743   4.677  0.1763  0.8633 -0.2267
 4351SOL     OW24511   1.257   3.528   4.786 -0.2909  0.1369  0.0897
 4351SOL    HW124512   1.240   3.620   4.764  1.1250  0.3777  0.0245
 4351SOL    HW224513   1.244   3.539   4.881 -0.4434 -0.9925  0.1968
 4352SOL     OW24514   2.205   3.995   6.709 -0.0798  0.0914  0.8735
 4352SOL    HW124515   2.146   4.059   6.750 -1.6653 -1.0943  0.4306
 4352SOL    HW224516   2.183   3.916   6.758  0.5970 -0.1747  0.7496
 4353SOL     OW24517   0.550   3.798   5.227 -0.3982 -0.3107  0.2585
 4353SOL    HW124518   0.461   3.823   5.202  0.5708  0.4623 -2.4254
 4353SOL    HW224519   0.531   3.724   5.285 -1.1977  0.7947  1.3830
 4354SOL     OW24520   0.482   3.225  11.837 -0.8301 -0.5184 -0.6728
 4354SOL    HW124521   0.403   3.199  11.884  0.1200  0.0276  1.2452
 4354SOL    HW224522   0.540   3.200  11.909  0.5706 -0.8380 -1.9116
 4355SOL     OW24523   1.703   1.550   6.607 -0.2433  0.5478  0.3172
 4355SOL    HW124524   1.736   1.581   6.522 -0.5768  0.7599  0.2693
 4355SOL    HW224525   1.782   1.505   6.637  0.1434  0.9966 -0.0208
 4356SOL     OW24526   1.845   2.331  13.777 -0.6028 -0.1474  0.5955
 4356SOL    HW124527   1.818   2.327  13.685  2.6943  0.5369 -0.4163
 4356SOL    HW224528   1.940   2.336  13.763 -0.7354  1.1805  0.2521
 4357SOL     OW24529   3.768   3.253   3.875 -0.3120  0.1030  0.4124
 4357SOL    HW124530   3.723   3.181   3.919 -0.1134 -0.4496 -0.2875
 4357SOL    HW224531   3.720   3.329   3.907  1.5508  1.3337  0.2607
 4358SOL     OW24532   1.061   3.550   1.461 -0.3153 -0.6632 -0.1213
 4358SOL    HW124533   0.985   3.491   1.467 -1.0258  0.2381 -0.3396
 4358SOL    HW224534   1.048   3.595   1.545 -0.3924 -1.2026  0.1598
 4359SOL     OW24535   4.252   2.080   9.640  0.5034 -0.2214  0.2852
 4359SOL    HW124536   4.297   2.027   9.574  0.3355 -1.1135  0.8923
 4359SOL    HW224537   4.160   2.064   9.618  0.6254 -1.0829  0.4418
 4360SOL     OW24538   2.808   2.671   3.810  0.3711  0.1802 -0.5285
 4360SOL    HW124539   2.718   2.688   3.783 -0.5991 -1.5950  1.5106
 4360SOL    HW224540   2.835   2.757   3.842 -0.4702  0.3232 -0.2024
 4361SOL     OW24541   2.132   1.426  13.902 -0.0202 -0.2867 -0.2014
 4361SOL    HW124542   2.228   1.429  13.909 -0.1404 -1.2597  2.1081
 4361SOL    HW224543   2.124   1.363  13.974  1.7513 -0.4083 -0.0962
 4362SOL     OW24544   2.120   2.625   8.207 -0.2015 -0.2805  0.4123
 4362SOL    HW124545   2.131   2.676   8.127  0.1515  0.0719  0.6857
 4362SOL    HW224546   2.077   2.690   8.263  0.3693  1.5297 -1.2690
 4363SOL     OW24547   2.206   3.482  13.584 -0.4853  0.1639  0.0277
 4363SOL    HW124548   2.132   3.542  13.574 -0.4781  0.1693  0.0075
 4363SOL    HW224549   2.277   3.540  13.609  2.1491 -1.1891 -4.3013
 4364SOL     OW24550   2.988   2.556  14.321  0.4642 -0.3448 -0.0869
 4364SOL    HW124551   3.004   2.551  14.227 -3.8019  0.1715 -0.8620
 4364SOL    HW224552   2.907   2.607  14.318 -0.0569 -1.1019  1.1944
 4365SOL     OW24553   3.444   0.950   1.458  0.0719  0.3528 -0.2038
 4365SOL    HW124554   3.533   0.939   1.426 -0.9596  1.4764 -3.4614
 4365SOL    HW224555   3.417   1.034   1.421 -0.3887 -0.4348 -1.6453
 4366SOL     OW24556   1.531   2.093   0.024  0.0831 -0.5543  0.3214
 4366SOL    HW124557   1.585   2.056  17.640 -0.5158  1.1228 -1.0392
 4366SOL    HW224558   1.509   2.167  17.654 -0.7777  0.0711  1.4907
 4367SOL     OW24559   3.574   3.710  11.468  0.1222 -0.2671 -0.2517
 4367SOL    HW124560   3.561   3.789  11.416  2.9416 -0.1992 -0.8581
 4367SOL    HW224561   3.669   3.716  11.462  0.0574 -0.0726 -1.0135
 4368SOL     OW24562   0.931   4.194   5.860  0.7010 -0.0858  0.0203
 4368SOL    HW124563   0.868   4.208   5.930  0.4362 -2.1610  0.1902
 4368SOL    HW224564   1.006   4.215   5.915  0.9614 -0.5389 -0.1596
 4369SOL     OW24565   2.291   3.251   3.865 -0.0073 -0.4243 -0.1322
 4369SOL    HW124566   2.359   3.313   3.839 -1.5441  1.7415  1.0767
 4369SOL    HW224567   2.214   3.287   3.821  0.9225  0.0633 -1.3539
 4370SOL     OW24568   3.493   0.741   1.764  0.8059  0.6946  0.1722
 4370SOL    HW124569   3.492   0.653   1.726 -1.2926  1.3820 -1.3926
 4370SOL    HW224570   3.580   0.736   1.803  1.3365  0.5370 -1.0219
 4371SOL     OW24571   2.557   2.710  11.504 -0.4160 -0.4128 -0.8590
 4371SOL    HW124572   2.553   2.699  11.599 -0.4775 -1.4303 -0.9785
 4371SOL    HW224573   2.476   2.666  11.478 -0.4487 -0.6852 -0.3037
 4372SOL     OW24574   1.677   4.630   3.381  0.9792 -0.4678  0.8891
 4372SOL    HW124575   1.684   4.663   3.292  1.6733 -0.5672  0.9044
 4372SOL    HW224576   1.703   4.709   3.429  1.4093 -0.2219  0.2567
 4373SOL     OW24577   1.956   1.507  13.537 -0.1369 -0.0249 -0.1330
 4373SOL    HW124578   1.951   1.565  13.614 -1.0269 -2.2430  1.4678
 4373SOL    HW224579   2.010   1.568  13.487 -1.2841  0.1483 -1.1725
 4374SOL     OW24580   1.754   2.757  13.872  0.3494  0.0202 -0.4145
 4374SOL    HW124581   1.716   2.842  13.896 -1.2531 -0.6382 -0.6122
 4374SOL    HW224582   1.704   2.699  13.930 -0.5592  0.2315 -0.9892
 4375SOL     OW24583   1.859   3.953  10.006  0.7839  0.1769  0.1164
 4375SOL    HW124584   1.826   3.927  10.092  3.4894  2.3853  1.8233
 4375SOL    HW224585   1.856   4.045  10.032  1.3240 -0.5611  2.7922
 4376SOL     OW24586   1.924   2.660   5.524 -0.2059  0.4249  0.2460
 4376SOL    HW124587   1.926   2.630   5.615 -0.5074 -0.2003  0.0443
 4376SOL    HW224588   2.002   2.620   5.486  0.7738  0.8497  1.7997
 4377SOL     OW24589   1.444   0.336   5.652  0.6960  0.6186  0.1146
 4377SOL    HW124590   1.468   0.251   5.690  0.4249  1.4178  2.0750
 4377SOL    HW224591   1.374   0.323   5.588  0.9887  0.3271 -0.1460
 4378SOL     OW24592   1.224   2.750   4.552  0.2998  0.9144 -0.2929
 4378SOL    HW124593   1.208   2.836   4.512  1.9476  0.9998 -0.7700
 4378SOL    HW224594   1.299   2.777   4.606 -0.0438  1.9649 -0.3425
 4379SOL     OW24595   1.125   2.025   2.612  0.2529 -0.7170  0.3519
 4379SOL    HW124596   1.208   2.025   2.563  0.4430  0.2594  0.6825
 4379SOL    HW224597   1.139   2.092   2.678  1.2412  0.4356 -1.0106
 4380SOL     OW24598   3.136   2.593  11.904 -0.4243  0.3506  0.1450
 4380SOL    HW124599   3.200   2.593  11.833 -0.7291  2.1137 -0.1283
 4380SOL    HW224600   3.198   2.606  11.976  0.3982 -0.1428 -0.4805
 4381SOL     OW24601   0.583   0.340   5.249 -0.3775  0.1322 -0.7811
 4381SOL    HW124602   0.652   0.291   5.293  0.3397  0.0958 -1.9317
 4381SOL    HW224603   0.576   0.294   5.165  3.2187 -1.4501 -0.2059
 4382SOL     OW24604   0.845   1.478   7.330  0.7588  1.0332  0.4680
 4382SOL    HW124605   0.935   1.445   7.328  0.6824  0.8173  0.6711
 4382SOL    HW224606   0.853   1.572   7.316 -1.5876  1.2964  0.8958
 4383SOL     OW24607   4.667   1.976  14.573  0.5595  0.1631  0.1866
 4383SOL    HW124608   4.651   1.959  14.480 -1.8970 -1.5251  0.9160
 4383SOL    HW224609   4.661   2.071  14.584  0.5154  0.3151 -1.1374
 4384SOL     OW24610   4.703   2.426   3.759 -0.0701  0.1033 -0.5672
 4384SOL    HW124611   4.662   2.502   3.802  0.0398 -0.3418  0.3300
 4384SOL    HW224612   4.671   2.435   3.670  0.0934 -2.5098 -0.8864
 4385SOL     OW24613   2.640   3.950   5.672 -0.1681  0.0798 -0.0836
 4385SOL    HW124614   2.671   3.981   5.757  0.1896 -2.8499  0.8629
 4385SOL    HW224615   2.654   4.024   5.613  1.1058 -1.4148 -1.6631
 4386SOL     OW24616   0.313   3.438   3.513  0.4793 -0.5927 -0.5265
 4386SOL    HW124617   0.254   3.363   3.504  0.1186 -0.3595 -0.0957
 4386SOL    HW224618   0.340   3.423   3.604 -0.7224 -1.5629 -0.3264
 4387SOL     OW24619   4.117   2.306  15.843 -0.1794 -0.6479  0.3661
 4387SOL    HW124620   4.203   2.280  15.812 -1.1926  0.4860 -3.4144
 4387SOL    HW224621   4.144   2.398  15.851 -0.9296 -0.5068  1.2780
 4388SOL     OW24622   4.212   2.740   0.854 -0.5744 -0.5277 -0.5800
 4388SOL    HW124623   4.133   2.765   0.807 -0.3075 -2.4156 -2.0140
 4388SOL    HW224624   4.177   2.695   0.930  0.3549  0.5528  0.4943
 4389SOL     OW24625   0.125   1.300  12.810 -0.0907  0.0566 -0.5069
 4389SOL    HW124626   0.119   1.212  12.771 -0.0818 -0.8214  1.4620
 4389SOL    HW224627   0.038   1.303  12.849  0.4626  1.5713  0.5875
 4390SOL     OW24628   3.574   0.646   2.764  0.3354 -0.0535 -0.2144
 4390SOL    HW124629   3.585   0.570   2.822 -2.1283 -0.4974 -0.3003
 4390SOL    HW224630   3.571   0.716   2.829 -0.3268 -1.0086  0.7876
 4391SOL     OW24631   4.050   0.284   7.440 -0.0384  0.1189  0.8848
 4391SOL    HW124632   3.961   0.267   7.407  0.7980 -0.8504 -0.8728
 4391SOL    HW224633   4.018   0.344   7.507  0.3012 -0.5697  1.6533
 4392SOL     OW24634   0.068   2.435   5.089 -0.1993  0.1279 -0.0162
 4392SOL    HW124635   0.107   2.397   5.168  0.9260 -0.8954 -1.0693
 4392SOL    HW224636   0.137   2.407   5.029  1.5350  0.6264  1.7152
 4393SOL     OW24637   0.860   2.112   1.608 -0.1439 -0.4076 -0.0517
 4393SOL    HW124638   0.783   2.153   1.647 -0.9756  1.0347 -3.2104
 4393SOL    HW224639   0.822   2.060   1.537 -2.6911  0.4500  0.6878
 4394SOL     OW24640   3.222   4.168   5.206  0.0744  0.0784 -0.4418
 4394SOL    HW124641   3.187   4.243   5.254 -0.3964 -0.7226  0.4615
 4394SOL    HW224642   3.256   4.205   5.124  2.2778 -0.3630  0.2552
 4395SOL     OW24643   0.139   3.297   5.066  0.5015  0.3566  0.2525
 4395SOL    HW124644   0.138   3.271   4.975 -0.5328 -0.4125  0.4938
 4395SOL    HW224645   0.229   3.277   5.094 -0.0624 -0.6982  1.3407
 4396SOL     OW24646   3.915   2.083  14.369 -0.1882  0.2039  0.0408
 4396SOL    HW124647   3.821   2.090  14.387  0.3579  1.6491  2.4037
 4396SOL    HW224648   3.921   1.991  14.346  0.0067  0.7347 -1.9981
 4397SOL     OW24649   4.118   1.783  13.562  0.3778  0.5233  0.7430
 4397SOL    HW124650   4.026   1.797  13.585 -0.2901 -1.6992 -0.5822
 4397SOL    HW224651   4.118   1.784  13.466 -0.7106  1.5942  0.7505
 4398SOL     OW24652   4.005   0.594  13.068 -0.2487  0.0383 -0.7046
 4398SOL    HW124653   4.090   0.638  13.066 -0.1928 -0.0944 -1.1850
 4398SOL    HW224654   3.962   0.629  12.990 -0.5388  2.0109  0.3492
 4399SOL     OW24655   1.364   4.315   7.532 -0.5482  0.5388  0.2989
 4399SOL    HW124656   1.319   4.316   7.616  1.1141 -1.0888  1.2257
 4399SOL    HW224657   1.377   4.409   7.522  1.8293 -0.0285 -1.9837
 4400SOL     OW24658   3.553   0.642  15.848 -0.1414  0.1599 -0.2411
 4400SOL    HW124659   3.606   0.587  15.906  0.4986 -1.4382 -2.3573
 4400SOL    HW224660   3.602   0.627  15.767  1.3135 -0.2637  0.7144
 4401SOL     OW24661   0.322   3.583   5.205 -0.0885 -0.0158  0.6709
 4401SOL    HW124662   0.270   3.618   5.132 -0.6477 -1.8887  0.1735
 4401SOL    HW224663   0.377   3.520   5.159 -0.0540 -0.8845  1.9303
 4402SOL     OW24664   2.614   2.806   2.304 -0.1237 -0.1211  0.7225
 4402SOL    HW124665   2.702   2.768   2.294  0.1294 -0.0582  2.5828
 4402SOL    HW224666   2.590   2.757   2.383 -2.2366 -0.6810 -0.2696
 4403SOL     OW24667   2.673   0.962   1.600  0.3141  0.1733  0.0439
 4403SOL    HW124668   2.628   0.994   1.522  1.0789 -0.0984 -0.5044
 4403SOL    HW224669   2.598   0.947   1.657  0.3217 -2.8014 -0.7466
 4404SOL     OW24670   1.958   2.175  12.934 -0.0880  0.1199 -0.3933
 4404SOL    HW124671   2.053   2.182  12.923  0.2365  0.2584  2.6225
 4404SOL    HW224672   1.957   2.237  13.007 -0.7268 -0.8699  0.4266
 4405SOL     OW24673   4.675   1.399   6.432  0.6310 -0.2329 -0.4547
 4405SOL    HW124674   4.629   1.419   6.513  0.2629 -0.2422 -0.6598
 4405SOL    HW224675   0.044   1.381   6.460  0.0735 -1.2419  0.6809
 4406SOL     OW24676   1.483   1.022   4.219 -0.5006 -0.0823 -0.2395
 4406SOL    HW124677   1.533   0.948   4.184 -1.2693 -1.5954  1.7800
 4406SOL    HW224678   1.489   1.081   4.145 -2.3067 -1.5359 -1.5331
 4407SOL     OW24679   1.319   0.007   3.808 -0.0534  0.0599 -0.1128
 4407SOL    HW124680   1.373   0.075   3.767  3.0074 -1.6062  1.1747
 4407SOL    HW224681   1.248   0.065   3.833  2.2942  1.9742  2.0843
 4408SOL     OW24682   3.570   1.636   0.505 -0.4773  0.1782 -0.2601
 4408SOL    HW124683   3.558   1.672   0.418 -1.8020  0.5840  0.0930
 4408SOL    HW224684   3.587   1.543   0.492 -0.1577  0.0211  1.2276
 4409SOL     OW24685   1.520   0.417  10.034  0.1222 -0.1976  0.1380
 4409SOL    HW124686   1.462   0.475   9.984 -0.8843 -0.7386  0.6676
 4409SOL    HW224687   1.570   0.478  10.088 -0.9727  0.1016  0.8255
 4410SOL     OW24688   4.718   2.525   7.420  1.2211 -0.5200 -0.4604
 4410SOL    HW124689   4.693   2.493   7.333  0.6357 -0.1725 -0.4179
 4410SOL    HW224690   0.056   2.596   7.397  2.4252 -1.7832 -1.2869
 4411SOL     OW24691   3.830   2.302   3.497  0.3192  0.6248  0.3924
 4411SOL    HW124692   3.755   2.310   3.438 -0.6451  0.0162  1.5424
 4411SOL    HW224693   3.879   2.381   3.477 -0.1810  0.6572 -0.7101
 4412SOL     OW24694   1.352   3.708   0.974 -0.5691 -0.5336 -0.1114
 4412SOL    HW124695   1.317   3.780   0.922 -0.6732  0.0134  0.7265
 4412SOL    HW224696   1.395   3.762   1.040 -2.5474  0.7477  0.1216
 4413SOL     OW24697   4.685   2.797   1.032  0.3329 -0.2679  0.4661
 4413SOL    HW124698   4.655   2.706   1.032 -0.6164  0.0433 -1.4558
 4413SOL    HW224699   4.711   2.795   1.124  1.3284  0.9542  0.2124
 4414SOL     OW24700   1.523   4.612   4.497 -0.3585 -0.0563 -0.8449
 4414SOL    HW124701   1.479   4.683   4.451  0.1529  1.1170  0.4835
 4414SOL    HW224702   1.573   4.592   4.418  0.3252 -0.6491 -0.2637
 4415SOL     OW24703   3.897   4.052  16.262  0.1785 -0.2749  0.2199
 4415SOL    HW124704   3.911   4.126  16.203 -0.0577 -0.0226  0.4802
 4415SOL    HW224705   3.921   4.097  16.344 -1.1140  2.9942 -1.2081
 4416SOL     OW24706   0.088   3.453   3.778  0.0742  0.0547 -0.5224
 4416SOL    HW124707   0.154   3.522   3.775  0.5868 -0.4097  0.0274
 4416SOL    HW224708   0.041   3.480   3.699 -2.3260 -1.6879  0.3061
 4417SOL     OW24709   0.022   1.732   5.558 -0.9613  0.1994 -0.4364
 4417SOL    HW124710   0.027   1.637   5.563  0.8891  0.2118 -1.8974
 4417SOL    HW224711   4.660   1.745   5.512 -2.2384  2.7781  2.5817
 4418SOL     OW24712   1.207   3.037   1.818  0.3808 -0.5007  0.6596
 4418SOL    HW124713   1.298   3.035   1.847  1.0134 -1.8011 -1.4224
 4418SOL    HW224714   1.187   2.945   1.800  1.7919 -0.8464  0.8501
 4419SOL     OW24715   3.709   1.409   0.300  0.3974  0.7207 -0.2995
 4419SOL    HW124716   3.772   1.429   0.370 -0.4732 -1.1196  0.9835
 4419SOL    HW224717   3.676   1.327   0.336 -2.4906  0.9427 -2.5047
 4420SOL     OW24718   3.457   3.408   3.609 -0.3490 -0.3878 -0.9942
 4420SOL    HW124719   3.363   3.409   3.629 -0.1608 -2.2755 -0.0556
 4420SOL    HW224720   3.473   3.317   3.634 -3.3947  0.0456  2.4589
 4421SOL     OW24721   0.969   2.638   6.200 -0.5955  0.0940  0.2017
 4421SOL    HW124722   1.008   2.585   6.131  0.1683 -0.0947  0.7798
 4421SOL    HW224723   0.879   2.641   6.165 -0.1107  1.5890 -0.9543
 4422SOL     OW24724   2.688   0.048   5.390 -0.2252 -0.3408  0.7061
 4422SOL    HW124725   2.648   0.090   5.466 -3.4126  2.3363 -2.4987
 4422SOL    HW224726   2.735   0.121   5.350  1.1413 -1.8098 -0.3853
 4423SOL     OW24727   2.832   1.789  11.385 -0.1709 -0.1949 -0.0157
 4423SOL    HW124728   2.746   1.822  11.356  0.5939  1.1969 -0.6786
 4423SOL    HW224729   2.848   1.844  11.462 -0.7389  0.0021 -0.0336
 4424SOL     OW24730   0.422   1.131   6.467  0.5693 -0.2466 -0.4152
 4424SOL    HW124731   0.390   1.054   6.514  0.0425 -0.4916 -1.1697
 4424SOL    HW224732   0.495   1.164   6.520  0.1748 -1.3539  0.8429
 4425SOL     OW24733   3.320   2.270   4.205  0.8456  0.2518  0.0883
 4425SOL    HW124734   3.292   2.302   4.119 -1.4732  0.8195  1.0586
 4425SOL    HW224735   3.248   2.251   4.265  0.8463  0.5678  0.1873
 4426SOL     OW24736   1.915   2.876  15.114 -0.0948  0.1868 -0.1216
 4426SOL    HW124737   1.890   2.968  15.100  3.7283  1.2843  0.3516
 4426SOL    HW224738   1.916   2.867  15.209 -0.3735 -0.1746 -0.1529
 4427SOL     OW24739   3.591   0.807   6.815 -0.4545 -0.3220  0.1487
 4427SOL    HW124740   3.644   0.883   6.840 -0.6766 -0.4511  1.0048
 4427SOL    HW224741   3.650   0.756   6.759  1.4060 -0.5521  2.3199
 4428SOL     OW24742   2.946   1.545   8.480 -0.6558 -0.3572  0.2108
 4428SOL    HW124743   2.900   1.617   8.437  2.6358  3.2855  2.8160
 4428SOL    HW224744   2.913   1.547   8.570 -2.7772 -0.2944 -0.5531
 4429SOL     OW24745   2.678   2.849   2.823 -0.0912  0.3861  0.3263
 4429SOL    HW124746   2.588   2.841   2.855 -0.1288 -0.0043  0.1225
 4429SOL    HW224747   2.721   2.764   2.834  3.5452  2.1983  0.2134
 4430SOL     OW24748   2.500   1.283   3.440 -0.0768 -0.3163 -0.1223
 4430SOL    HW124749   2.408   1.311   3.440  1.0530  3.3299 -0.0211
 4430SOL    HW224750   2.493   1.217   3.509 -2.0121  0.3118  0.2900
 4431SOL     OW24751   4.608   2.067  13.377  0.0673  0.8416  0.4405
 4431SOL    HW124752   4.702   2.064  13.390  0.3028  1.4767 -1.0965
 4431SOL    HW224753   4.583   2.158  13.394 -0.8719  0.4205  1.3318
 4432SOL     OW24754   2.529   3.546  13.919 -0.2091 -0.5839  0.0347
 4432SOL    HW124755   2.472   3.584  13.985 -0.6540 -1.0091 -0.1029
 4432SOL    HW224756   2.472   3.555  13.842  0.6123  1.1265 -0.3793
 4433SOL     OW24757   0.670   2.378   3.447 -0.2738 -0.2292  0.6802
 4433SOL    HW124758   0.746   2.379   3.389 -0.6033 -2.7245  0.2438
 4433SOL    HW224759   0.600   2.410   3.390  2.2843 -1.9354 -3.4146
 4434SOL     OW24760   2.116   1.723   8.992 -0.2107  0.1163  0.0531
 4434SOL    HW124761   2.072   1.719   9.077  1.6903  0.5806  1.0626
 4434SOL    HW224762   2.163   1.640   8.993  1.5177  1.1004 -0.1673
 4435SOL     OW24763   1.242   1.581   7.090  0.0564  0.3378 -0.8163
 4435SOL    HW124764   1.240   1.588   7.185  1.0970  1.2704 -0.8556
 4435SOL    HW224765   1.157   1.543   7.067 -1.0990  2.0925  0.5136
 4436SOL     OW24766   3.059   4.230  11.080  0.3193  0.0448  0.4197
 4436SOL    HW124767   3.022   4.177  11.010  1.8974  0.7223 -0.9026
 4436SOL    HW224768   3.139   4.192  11.116  0.2729  0.0761  0.5566
 4437SOL     OW24769   4.515   1.778   5.436  0.0071  0.0162  0.0278
 4437SOL    HW124770   4.546   1.784   5.346  2.4021 -0.3880  0.8317
 4437SOL    HW224771   4.440   1.720   5.427  0.4538 -0.2603 -1.7386
 4438SOL     OW24772   1.471   1.133   6.563 -0.3430  0.2334  0.0099
 4438SOL    HW124773   1.466   1.042   6.534 -1.5574 -0.1397  1.3579
 4438SOL    HW224774   1.553   1.162   6.523 -0.6309  3.5628  1.8747
 4439SOL     OW24775   2.243   0.546   2.322 -0.2949  0.0282  0.2207
 4439SOL    HW124776   2.318   0.559   2.263 -0.1154  0.3939  0.5311
 4439SOL    HW224777   2.285   0.581   2.401 -0.2330 -1.9504  1.0561
 4440SOL     OW24778   1.559   2.012  10.418  0.1480 -0.0792 -0.0362
 4440SOL    HW124779   1.603   1.930  10.397  2.3994  1.1678 -0.1504
 4440SOL    HW224780   1.557   2.051  10.330  0.2717  0.9779  0.4235
 4441SOL     OW24781   2.903   3.045   5.926 -0.1463  0.1330  0.3166
 4441SOL    HW124782   2.985   3.048   5.877 -0.3568 -1.8058 -0.1176
 4441SOL    HW224783   2.943   3.034   6.013 -0.5545 -1.3947  0.3105
 4442SOL     OW24784   3.996   4.501   4.058 -0.0471 -0.1422  0.7739
 4442SOL    HW124785   3.923   4.538   4.008 -0.5093 -0.5520  1.1432
 4442SOL    HW224786   3.978   4.409   4.039  1.7634 -0.0812 -1.2306
 4443SOL     OW24787   4.046   0.654   3.051  0.4670 -0.2664 -0.5924
 4443SOL    HW124788   4.000   0.733   3.081 -0.8350 -1.5321  0.6926
 4443SOL    HW224789   4.029   0.656   2.957  1.2497  1.3235 -0.7141
 4444SOL     OW24790   4.129   0.811  16.810  0.4207 -0.0471 -1.0106
 4444SOL    HW124791   4.197   0.745  16.816 -0.6050 -0.9882  0.1846
 4444SOL    HW224792   4.181   0.889  16.788  2.6647 -1.6317 -1.3026
 4445SOL     OW24793   2.168   0.524   7.229 -1.1746 -0.5078  0.3315
 4445SOL    HW124794   2.164   0.565   7.316  1.4185  0.6816 -0.1330
 4445SOL    HW224795   2.189   0.607   7.186 -2.8791  0.0846  0.6532
 4446SOL     OW24796   4.709   4.244   4.198  0.2803 -0.1473 -0.1925
 4446SOL    HW124797   4.697   4.149   4.199 -0.9164 -0.0067 -1.0709
 4446SOL    HW224798   4.647   4.269   4.267 -0.2111  0.6255 -0.9133
 4447SOL     OW24799   2.424   1.772   6.830  0.0570 -0.1996 -0.5676
 4447SOL    HW124800   2.392   1.761   6.740 -0.0158 -0.5356 -0.4988
 4447SOL    HW224801   2.347   1.745   6.879  1.9274  0.3952  2.7181
 4448SOL     OW24802   4.288   0.108   8.517 -0.0932  0.2219  0.3987
 4448SOL    HW124803   4.362   0.163   8.542  1.1641 -0.7087 -1.2620
 4448SOL    HW224804   4.336   0.030   8.489  0.6768  0.3178  1.4420
 4449SOL     OW24805   1.000   3.027  11.067 -0.5405 -0.3847 -0.4904
 4449SOL    HW124806   1.021   2.962  11.135  0.5099  0.5906  0.1210
 4449SOL    HW224807   1.046   3.103  11.103  1.5191 -1.4157 -0.9172
 4450SOL     OW24808   3.040   3.950   6.494 -0.0725  0.5974 -0.3972
 4450SOL    HW124809   3.013   4.031   6.449  0.4629  0.6866 -0.5507
 4450SOL    HW224810   2.954   3.926   6.529  0.0984 -0.5392 -0.7847
 4451SOL     OW24811   1.323   0.602   9.959  0.5360 -0.7936  0.3205
 4451SOL    HW124812   1.383   0.669   9.928 -0.6155  0.1998  0.2407
 4451SOL    HW224813   1.260   0.645  10.017 -0.6055  0.7498 -2.0450
 4452SOL     OW24814   0.453   1.949   2.415 -0.5482 -0.1717 -0.0203
 4452SOL    HW124815   0.428   1.875   2.359 -2.8930  0.4129  0.2333
 4452SOL    HW224816   0.470   1.894   2.491 -2.6855 -2.0471 -0.9151
 4453SOL     OW24817   2.222   3.206   4.128  0.1701 -0.2965 -0.1240
 4453SOL    HW124818   2.167   3.283   4.115  0.6874 -0.1220 -1.3067
 4453SOL    HW224819   2.256   3.181   4.042 -2.4890 -1.8276 -0.7382
 4454SOL     OW24820   2.708   3.823   9.242  0.1344 -0.1054  0.2766
 4454SOL    HW124821   2.772   3.886   9.274 -0.1467 -0.1824  0.9821
 4454SOL    HW224822   2.704   3.755   9.309 -3.7086  0.1575  0.3499
 4455SOL     OW24823   3.392   1.508  15.840  0.4500 -0.1612 -0.3225
 4455SOL    HW124824   3.383   1.512  15.745 -2.1469  1.1063 -0.0218
 4455SOL    HW224825   3.337   1.431  15.856 -0.2893  0.4976  0.2925
 4456SOL     OW24826   3.668   1.053   7.341 -0.0090 -0.3573 -0.1639
 4456SOL    HW124827   3.639   0.965   7.319  1.1115 -0.1044 -2.6341
 4456SOL    HW224828   3.584   1.089   7.370  0.8532  0.5790  1.1795
 4457SOL     OW24829   3.817   1.820   1.414 -0.3969  0.0402 -0.5889
 4457SOL    HW124830   3.860   1.824   1.499 -0.1785 -0.7438 -0.6559
 4457SOL    HW224831   3.845   1.730   1.396  2.6928  0.8262  0.2277
 4458SOL     OW24832   0.202   2.802   4.189  0.1357  0.3112  0.6354
 4458SOL    HW124833   0.217   2.897   4.183  0.0498  0.3438  0.9527
 4458SOL    HW224834   0.284   2.776   4.231  0.8604 -0.6456 -1.3504
 4459SOL     OW24835   0.664   1.635  12.407 -0.1967  0.1737  0.9867
 4459SOL    HW124836   0.635   1.643  12.316  2.2388 -2.2857 -0.0314
 4459SOL    HW224837   0.713   1.711  12.434 -0.2268  1.0422 -1.3753
 4460SOL     OW24838   0.688   1.312   1.805  0.0177 -0.3774  0.0168
 4460SOL    HW124839   0.706   1.247   1.737  0.5166  1.9956 -2.1175
 4460SOL    HW224840   0.774   1.355   1.811 -0.4708  0.3714  1.5940
 4461SOL     OW24841   0.936   1.391   6.403 -0.3120 -0.1929  0.0188
 4461SOL    HW124842   0.938   1.425   6.492  0.8874 -2.4015  0.8321
 4461SOL    HW224843   0.879   1.454   6.359 -0.0531 -0.2554 -0.4075
 4462SOL     OW24844   1.102   1.679   1.842  0.2840 -0.2563  0.3374
 4462SOL    HW124845   1.158   1.732   1.899 -0.4146 -0.3385  1.0951
 4462SOL    HW224846   1.033   1.742   1.820  0.5487  0.5918  1.9395
 4463SOL     OW24847   1.474   2.711  16.415  0.5569 -0.2738 -0.2603
 4463SOL    HW124848   1.558   2.746  16.448  0.1214 -0.7123  1.3381
 4463SOL    HW224849   1.438   2.788  16.372  3.7786  0.4173 -1.7316
 4464SOL     OW24850   4.033   3.630   8.927  0.1916  0.3017 -0.0606
 4464SOL    HW124851   4.033   3.726   8.922 -2.0529  0.2407 -1.0586
 4464SOL    HW224852   4.092   3.612   9.000  2.5505 -0.7585 -2.2452
 4465SOL     OW24853   4.182   0.413   3.101  0.1493 -0.5916 -0.7269
 4465SOL    HW124854   4.137   0.497   3.096 -0.2622 -0.6790  1.6470
 4465SOL    HW224855   4.242   0.416   3.026  0.7384  1.8186 -0.1376
 4466SOL     OW24856   4.317   0.921   6.891  0.0971  0.6020  0.9984
 4466SOL    HW124857   4.400   0.955   6.923 -0.4142  3.5710 -0.7451
 4466SOL    HW224858   4.313   0.828   6.910  2.1105  0.5040  0.8721
 4467SOL     OW24859   2.892   1.443  17.319  0.0908 -0.4690 -0.2687
 4467SOL    HW124860   2.861   1.520  17.271  1.4966 -0.4438 -1.1416
 4467SOL    HW224861   2.814   1.416  17.368 -0.1044  2.2027  0.8754
 4468SOL     OW24862   3.310   0.752   5.699  0.2074  0.1751  0.0343
 4468SOL    HW124863   3.252   0.676   5.696  0.1246  0.2996 -1.4578
 4468SOL    HW224864   3.389   0.728   5.747 -0.8314  0.1371  1.7255
 4469SOL     OW24865   0.740   0.495  16.207 -0.3481  0.2534 -0.0329
 4469SOL    HW124866   0.693   0.578  16.209  0.9183  0.9218  1.7672
 4469SOL    HW224867   0.686   0.434  16.157  2.7862 -2.4061 -0.1792
 4470SOL     OW24868   1.332   3.066  12.256 -0.3273  0.0195  0.5200
 4470SOL    HW124869   1.342   3.134  12.190  0.3261 -1.7101 -1.1518
 4470SOL    HW224870   1.268   3.019  12.203 -0.4611 -0.8759  1.4720
 4471SOL     OW24871   1.475   3.440  11.061 -0.0865  0.0626  0.4135
 4471SOL    HW124872   1.498   3.512  11.120 -1.6783  0.2581  0.7780
 4471SOL    HW224873   1.387   3.459  11.030  0.4316  3.8338  1.3232
 4472SOL     OW24874   1.033   3.127   2.029 -0.0237  0.3068 -0.4210
 4472SOL    HW124875   1.115   3.105   1.985 -1.2139  0.2213 -2.5778
 4472SOL    HW224876   0.998   3.040   2.047  1.2057 -0.2365 -0.6846
 4473SOL     OW24877   1.368   1.667   8.012  0.1936  0.4945  0.3862
 4473SOL    HW124878   1.351   1.702   8.100  1.1213  1.2053  0.2788
 4473SOL    HW224879   1.401   1.750   7.977  0.4576 -0.3969 -1.4718
 4474SOL     OW24880   1.001   2.927  12.418 -0.2716 -0.2292  0.4255
 4474SOL    HW124881   1.042   2.964  12.496  0.4681  0.4842 -0.2927
 4474SOL    HW224882   1.034   2.986  12.350 -1.3327  0.3781  0.4253
 4475SOL     OW24883   4.470   0.730  14.968 -0.1845 -0.0510  0.5634
 4475SOL    HW124884   4.481   0.823  14.949  1.2964 -0.4900 -0.6496
 4475SOL    HW224885   4.460   0.723  15.063 -0.1574  0.7698  0.6225
 4476SOL     OW24886   2.203   3.025   2.264 -0.1524  0.0512  0.3671
 4476SOL    HW124887   2.283   3.046   2.312 -1.0060  2.5965  0.7099
 4476SOL    HW224888   2.242   2.973   2.194 -0.4975 -1.4379  1.2770
 4477SOL     OW24889   0.952   4.036  15.345 -0.0965 -0.1143 -0.4096
 4477SOL    HW124890   1.013   3.971  15.311 -0.0360 -0.0408 -0.4424
 4477SOL    HW224891   0.955   3.999  15.433  2.3869 -0.7669 -0.7724
 4478SOL     OW24892   3.853   3.829   5.603  0.0988  0.3682  0.5172
 4478SOL    HW124893   3.830   3.919   5.625  1.4212  0.7372  0.3360
 4478SOL    HW224894   3.831   3.782   5.683  1.9679 -0.8622  0.3179
 4479SOL     OW24895   1.589   3.344   2.425 -0.8242  0.2383 -0.8514
 4479SOL    HW124896   1.575   3.253   2.451 -1.5340  0.5935  0.0031
 4479SOL    HW224897   1.550   3.343   2.338  3.2228 -0.2158 -2.6879
 4480SOL     OW24898   3.131   3.609   3.520 -0.0426 -0.2017  0.5633
 4480SOL    HW124899   3.158   3.539   3.460 -2.5280 -0.0083 -0.7523
 4480SOL    HW224900   3.093   3.556   3.591  0.8890  2.2696  2.8827
 4481SOL     OW24901   0.413   4.201  14.949  0.1014 -0.4023 -0.2893
 4481SOL    HW124902   0.448   4.260  14.882  0.5687 -1.7606 -1.2367
 4481SOL    HW224903   0.425   4.118  14.902 -3.7752 -0.8431 -0.5657
 4482SOL     OW24904   4.082   1.574   4.450 -0.6778  0.2001 -0.3753
 4482SOL    HW124905   4.127   1.601   4.530 -1.6953 -2.4416  1.0867
 4482SOL    HW224906   4.134   1.615   4.381  0.0912 -0.1419 -0.0029
 4483SOL     OW24907   2.541   3.794   7.729 -0.2559 -0.0097 -0.2141
 4483SOL    HW124908   2.531   3.768   7.821 -1.4962  3.9902  0.7525
 4483SOL    HW224909   2.603   3.733   7.689 -0.0316 -0.0185  0.1430
 4484SOL     OW24910   0.238   1.299   2.026 -0.4992 -0.0213  1.0786
 4484SOL    HW124911   0.315   1.302   1.969 -1.2538 -1.9654 -0.0579
 4484SOL    HW224912   0.179   1.265   1.958 -0.8638 -0.0960  1.4312
 4485SOL     OW24913   1.098   2.311   3.794  0.3436 -0.3941 -0.0846
 4485SOL    HW124914   1.154   2.351   3.861  1.3903 -0.2013 -1.0842
 4485SOL    HW224915   1.075   2.386   3.739  0.5923 -0.4113 -0.2127
 4486SOL     OW24916   0.514   4.397  16.656  0.0063  0.4318  0.0779
 4486SOL    HW124917   0.570   4.474  16.640 -0.2505  0.9088  1.4985
 4486SOL    HW224918   0.561   4.357  16.728  1.3627  0.7973 -0.5998
 4487SOL     OW24919   2.688   4.093  15.440  0.4460  0.4013  0.1754
 4487SOL    HW124920   2.735   4.170  15.471 -0.8675  1.1558  0.3134
 4487SOL    HW224921   2.666   4.049  15.523  2.1212  0.7162  0.7684
 4488SOL     OW24922   3.022   2.379   5.595 -0.2321 -0.2981 -0.3094
 4488SOL    HW124923   3.029   2.404   5.687  1.4455 -0.0588 -0.4982
 4488SOL    HW224924   2.959   2.307   5.586  0.3710 -0.9929  1.0353
 4489SOL     OW24925   4.593   4.079   1.615  0.2494  0.0557 -0.0946
 4489SOL    HW124926   4.651   4.004   1.628  0.6612  0.5108  0.6854
 4489SOL    HW224927   4.666   4.140   1.603  1.1804 -0.5936  2.3125
 4490SOL     OW24928   1.316   2.657  15.002 -0.1108 -0.0216 -0.2832
 4490SOL    HW124929   1.341   2.567  14.981  0.8952  0.8447 -2.6687
 4490SOL    HW224930   1.315   2.696  14.915 -0.2731 -0.4794 -0.4864
 4491SOL     OW24931   1.823   4.635   9.281  0.7256  0.6079  0.6447
 4491SOL    HW124932   1.803   4.654   9.372 -1.9998 -1.6970  0.5496
 4491SOL    HW224933   1.783   4.709   9.235  0.1378 -0.8681 -1.2580
 4492SOL     OW24934   2.907   0.948   1.761 -0.3404  0.1523 -0.9350
 4492SOL    HW124935   2.889   1.038   1.734 -1.4113 -0.4016 -2.0622
 4492SOL    HW224936   2.823   0.915   1.728 -1.0702  0.7798  0.2821
 4493SOL     OW24937   0.139   3.748  17.419  0.6262  0.8080 -0.2197
 4493SOL    HW124938   0.131   3.810  17.492 -1.6712 -0.4860  0.6203
 4493SOL    HW224939   0.219   3.784  17.382  1.2239  0.9371  1.1772
 4494SOL     OW24940   1.761   1.504   9.208 -0.5129  0.2607 -0.3273
 4494SOL    HW124941   1.752   1.411   9.230 -1.9350 -0.2319 -2.9925
 4494SOL    HW224942   1.808   1.494   9.125 -0.5052 -2.2156 -0.0314
 4495SOL     OW24943   4.153   3.637   7.609  0.1115  0.4882  0.0689
 4495SOL    HW124944   4.204   3.662   7.686  0.8586 -1.1579  0.1285
 4495SOL    HW224945   4.094   3.706   7.583  0.3047  0.7675  0.3726
 4496SOL     OW24946   3.497   4.606   3.929  0.4605  0.3119 -0.7258
 4496SOL    HW124947   3.447   4.677   3.971 -0.2545 -0.9906  0.6021
 4496SOL    HW224948   3.446   4.603   3.848 -1.7096  1.0134  0.6096
 4497SOL     OW24949   0.119   1.777   3.344 -0.3153  0.0484 -0.0736
 4497SOL    HW124950   0.063   1.828   3.285  2.1702  0.8216 -1.7543
 4497SOL    HW224951   0.210   1.782   3.315 -0.8888 -0.5774 -1.9978
 4498SOL     OW24952   0.312   3.667   4.371  0.3592 -0.7014  0.1738
 4498SOL    HW124953   0.361   3.615   4.434  0.3842  0.5570  1.2078
 4498SOL    HW224954   0.270   3.731   4.429 -0.9753 -1.7005  0.2868
 4499SOL     OW24955   0.693   3.717   9.981  0.7625  0.4802  0.1953
 4499SOL    HW124956   0.608   3.689  10.014  1.9536 -0.2172  2.6837
 4499SOL    HW224957   0.726   3.636   9.943 -0.9049 -0.2693  0.3635
 4500SOL     OW24958   1.083   4.636  16.833  0.1813 -0.4652  0.4112
 4500SOL    HW124959   1.156   4.574  16.830  1.9466  1.6569 -0.4267
 4500SOL    HW224960   1.125   4.701  16.890  0.4759  0.7536 -1.1779
 4501SOL     OW24961   0.714   2.979   4.170  0.1496 -0.5833  0.0343
 4501SOL    HW124962   0.769   2.991   4.248  1.8851  0.7895 -1.3947
 4501SOL    HW224963   0.635   2.961   4.220  0.3853 -1.4535  0.1017
 4502SOL     OW24964   2.349   2.997   1.748 -0.0992 -0.3849 -0.5676
 4502SOL    HW124965   2.431   2.960   1.779 -1.5636 -2.6052  0.6148
 4502SOL    HW224966   2.343   3.088   1.777 -1.6056 -0.5369 -0.4082
 4503SOL     OW24967   0.463   3.079   6.567  0.2287  0.1185  0.2645
 4503SOL    HW124968   0.503   3.059   6.651  1.6736 -0.4987 -0.5552
 4503SOL    HW224969   0.536   3.088   6.505  1.8270 -1.8913  1.8526
 4504SOL     OW24970   4.615   3.255  11.414 -0.3352 -0.0095 -0.0347
 4504SOL    HW124971   4.645   3.314  11.345  1.3948  0.9661  1.5188
 4504SOL    HW224972   4.655   3.297  11.491  0.9062 -0.8763 -0.2104
 4505SOL     OW24973   0.654   1.487   6.420  0.4239  0.0106 -0.1177
 4505SOL    HW124974   0.612   1.445   6.344  2.9144 -0.8725 -0.9868
 4505SOL    HW224975   0.658   1.579   6.394 -1.3234  0.0889 -0.1409
 4506SOL     OW24976   1.588   1.012  10.190  0.0543 -0.4408  0.0788
 4506SOL    HW124977   1.622   1.093  10.227  0.7726  0.4228 -2.5069
 4506SOL    HW224978   1.661   0.958  10.219 -0.0587 -1.0290 -0.7178
 4507SOL     OW24979   0.054   1.229   8.252  0.1164 -0.0893 -0.2545
 4507SOL    HW124980   4.691   1.273   8.239 -0.0825 -0.5219 -0.4227
 4507SOL    HW224981   0.087   1.261   8.168 -0.4060  0.4935 -0.2450
 4508SOL     OW24982   2.386   4.272   8.617 -0.5184  0.3006  0.2847
 4508SOL    HW124983   2.429   4.198   8.576 -3.2986 -1.4438  0.5320
 4508SOL    HW224984   2.363   4.335   8.549  3.4131  0.4512 -0.9355
 4509SOL     OW24985   0.951   0.620   4.927 -0.2078 -0.0423 -0.1390
 4509SOL    HW124986   0.916   0.709   4.931  1.3209  0.4709  1.7177
 4509SOL    HW224987   1.044   0.640   4.924 -0.4907  1.1773 -0.8557
 4510SOL     OW24988   3.392   2.961   6.898  0.0181  0.0627 -0.1411
 4510SOL    HW124989   3.488   2.970   6.895  0.2001 -2.3627 -2.0682
 4510SOL    HW224990   3.362   3.049   6.920 -1.2774 -0.5752  0.5980
 4511SOL     OW24991   2.590   2.144   5.188  0.0851  0.0351  0.1519
 4511SOL    HW124992   2.637   2.226   5.173 -1.3905  0.6949 -0.8320
 4511SOL    HW224993   2.664   2.093   5.223  0.0861  1.2210  1.8341
 4512SOL     OW24994   0.447   4.680   8.374 -0.9556 -0.3157  0.0955
 4512SOL    HW124995   0.515   4.713   8.316 -0.8660 -1.1787 -0.2897
 4512SOL    HW224996   0.450   4.586   8.355 -0.7683 -0.5087  1.0606
 4513SOL     OW24997   3.225   1.427   4.412 -0.1647 -0.5437 -0.4603
 4513SOL    HW124998   3.220   1.336   4.443  0.6040 -0.4968 -0.2074
 4513SOL    HW224999   3.133   1.440   4.389 -0.1790 -0.1079 -0.1588
 4514SOL     OW25000   4.639   0.432  13.904 -0.3937  0.1024 -0.4107
 4514SOL    HW125001   4.632   0.414  13.811  1.3354  0.3037 -0.5724
 4514SOL    HW225002   4.580   0.506  13.921 -0.7013  0.5525 -3.4966
 4515SOL     OW25003   3.168   0.786   9.491  0.1229 -0.3765 -0.7558
 4515SOL    HW125004   3.102   0.815   9.554 -0.4425 -3.6671  0.1671
 4515SOL    HW225005   3.146   0.845   9.419 -0.9207  0.7780  0.5249
 4516SOL     OW25006   3.712   3.624   9.604  0.2359  0.2858 -0.3932
 4516SOL    HW125007   3.646   3.567   9.563  1.4949 -1.0201 -0.6117
 4516SOL    HW225008   3.682   3.704   9.561 -0.2648  0.1033 -0.3901
 4517SOL     OW25009   1.830   1.768   7.845 -0.3296 -1.4853 -0.5030
 4517SOL    HW125010   1.787   1.709   7.906 -0.3218 -0.2182  0.7288
 4517SOL    HW225011   1.913   1.787   7.888 -0.7011  1.3584 -0.9869
 4518SOL     OW25012   1.191   0.773  14.116  0.2840  0.3970 -0.4382
 4518SOL    HW125013   1.143   0.709  14.168 -0.4841  0.2159 -1.3596
 4518SOL    HW225014   1.184   0.853  14.169 -1.1691 -1.1628  1.7250
 4519SOL     OW25015   4.569   2.838   2.083 -0.1389  0.2158  0.0422
 4519SOL    HW125016   4.642   2.783   2.112 -0.0298  0.1862 -0.2844
 4519SOL    HW225017   4.566   2.821   1.989 -0.5846 -2.7078  0.5631
 4520SOL     OW25018   1.436   0.734   9.246 -0.6226  0.2662  0.9419
 4520SOL    HW125019   1.432   0.659   9.306 -4.7865 -1.0569 -0.9544
 4520SOL    HW225020   1.447   0.683   9.165 -0.5821 -1.2298  1.8914
 4521SOL     OW25021   2.616   0.450   0.267  0.2160 -0.0443  0.3631
 4521SOL    HW125022   2.537   0.487   0.305  0.1413  0.3079 -0.1333
 4521SOL    HW225023   2.598   0.356   0.277  0.0763 -0.0551  0.0118
 4522SOL     OW25024   3.825   1.423  17.459  0.0279 -0.1972 -0.6661
 4522SOL    HW125025   3.853   1.334  17.438  0.3034 -0.3112  0.1927
 4522SOL    HW225026   3.808   1.417  17.553 -1.8601 -1.1523 -1.0690
 4523SOL     OW25027   4.595   0.840   8.922  0.4088  0.3519 -0.1877
 4523SOL    HW125028   4.598   0.935   8.929  0.6527  0.3641 -0.4687
 4523SOL    HW225029   4.677   0.825   8.875  0.9703  1.3649  0.4544
 4524SOL     OW25030   2.172   2.397   2.895 -0.3661 -0.4359 -0.2449
 4524SOL    HW125031   2.218   2.326   2.849 -0.4991 -0.2946 -0.5968
 4524SOL    HW225032   2.192   2.387   2.988  0.9170 -0.2315 -0.5061
 4525SOL     OW25033   3.169   4.609   5.302 -0.0078  0.9981 -0.1684
 4525SOL    HW125034   3.189   4.662   5.380  0.6501 -1.1237  1.1111
 4525SOL    HW225035   3.110   4.672   5.260  0.0679 -0.2665 -2.1150
 4526SOL     OW25036   3.379   0.766   5.994 -1.1677 -0.1633  0.0953
 4526SOL    HW125037   3.420   0.717   6.065  0.7227  1.1341 -0.1092
 4526SOL    HW225038   3.325   0.829   6.042 -1.6562 -1.7515  1.6127
 4527SOL     OW25039   2.611   1.018   9.098  0.2372  0.3145 -0.3068
 4527SOL    HW125040   2.535   0.978   9.139 -0.5580 -1.7383 -3.8068
 4527SOL    HW225041   2.686   0.963   9.123 -0.6468 -1.0990 -0.7603
 4528SOL     OW25042   1.414   4.710   4.876  0.0490  0.5329 -0.6738
 4528SOL    HW125043   1.357   0.041   4.819 -0.4915 -0.0489 -0.6612
 4528SOL    HW225044   1.498   0.034   4.868 -0.9015  3.0264  3.5491
 4529SOL     OW25045   1.774   2.570   3.282 -0.0369  0.2092 -0.0796
 4529SOL    HW125046   1.869   2.571   3.294  0.0543  3.3573 -1.0276
 4529SOL    HW225047   1.764   2.627   3.205 -1.0058 -1.0083 -0.8597
 4530SOL     OW25048   0.535   0.674   0.540 -0.2774 -0.2723 -0.1578
 4530SOL    HW125049   0.468   0.644   0.479  0.9242 -2.4324 -0.4220
 4530SOL    HW225050   0.486   0.725   0.603 -0.5286  0.5393 -1.0011
 4531SOL     OW25051   1.149   4.341   8.895 -0.1100  0.8117 -0.5282
 4531SOL    HW125052   1.062   4.330   8.934  0.4136  1.1971  0.7361
 4531SOL    HW225053   1.159   4.432   8.921 -0.4123  0.8865 -0.6721
 4532SOL     OW25054   1.741   3.951   5.767  0.1419  0.3316  0.2690
 4532SOL    HW125055   1.745   4.004   5.847  2.4092  1.0417 -0.3088
 4532SOL    HW225056   1.802   3.989   5.703 -1.4814  0.2696 -1.3195
 4533SOL     OW25057   1.282   3.335   3.807 -0.0180  0.6021  0.4745
 4533SOL    HW125058   1.292   3.369   3.718 -0.5988  0.7358  0.4584
 4533SOL    HW225059   1.222   3.264   3.786 -0.0367  0.6517  0.3627
 4534SOL     OW25060   1.672   0.639   3.564  0.0663 -0.5850  0.3029
 4534SOL    HW125061   1.614   0.564   3.574 -1.8375  0.8991  0.2892
 4534SOL    HW225062   1.684   0.656   3.470 -1.1219  0.5346  0.3556
 4535SOL     OW25063   1.792   1.165   6.599 -0.6193 -0.0080  0.3819
 4535SOL    HW125064   1.820   1.154   6.508  3.1407 -1.6600  1.6881
 4535SOL    HW225065   1.763   1.077   6.626  0.0888 -0.8670 -1.6535
 4536SOL     OW25066   3.120   2.370   2.977  0.2566  0.1343 -0.0811
 4536SOL    HW125067   3.212   2.349   2.994  0.1479 -0.1316  0.1674
 4536SOL    HW225068   3.102   2.438   3.041 -1.4748 -1.2134  0.8595
 4537SOL     OW25069   0.743   0.198  10.266  1.1757  0.4448  0.4703
 4537SOL    HW125070   0.677   0.167  10.328  0.3166  1.9754  0.3232
 4537SOL    HW225071   0.697   0.218  10.185  1.5718 -2.9459 -0.5849
 4538SOL     OW25072   0.197   4.619   8.634 -0.4366 -0.0511 -0.5337
 4538SOL    HW125073   0.221   4.603   8.543 -0.4585  0.2027 -0.5831
 4538SOL    HW225074   0.255   4.555   8.674 -0.0746  1.5024  1.3765
 4539SOL     OW25075   1.063   3.694  16.138 -0.2547  0.1107  0.4458
 4539SOL    HW125076   1.142   3.692  16.085 -0.6886  0.3725 -0.2045
 4539SOL    HW225077   1.044   3.788  16.137 -0.6774  0.0218  0.3826
 4540SOL     OW25078   4.640   2.987  12.596  0.1509 -0.4918  0.0736
 4540SOL    HW125079   0.005   3.005  12.633  0.8659 -2.7179 -0.4852
 4540SOL    HW225080   4.616   2.910  12.646  3.6641 -0.6317  1.5145
 4541SOL     OW25081   1.761   4.652  14.331 -0.3698 -0.3514  0.3685
 4541SOL    HW125082   1.727   4.663  14.243  2.9665 -1.5272 -1.0461
 4541SOL    HW225083   1.854   4.670  14.321 -0.4600  0.4650  0.9827
 4542SOL     OW25084   4.535   1.942  12.640  0.3421  0.3990  0.2167
 4542SOL    HW125085   4.524   1.950  12.546 -1.3366  0.4069  0.4182
 4542SOL    HW225086   4.485   2.007  12.689 -1.5140 -0.2017 -0.8980
 4543SOL     OW25087   1.719   0.540  11.200 -0.4882 -0.1836 -0.1477
 4543SOL    HW125088   1.753   0.459  11.161 -0.6853 -0.7157  0.7721
 4543SOL    HW225089   1.792   0.569  11.254  0.7586 -0.0390 -1.9218
 4544SOL     OW25090   1.637   1.208   4.356  0.2531  0.0902  0.4636
 4544SOL    HW125091   1.591   1.140   4.307  0.6711  0.5745 -0.5940
 4544SOL    HW225092   1.728   1.179   4.346  0.3355  0.0154  1.3585
 4545SOL     OW25093   1.149   1.795  16.650 -0.2936 -0.0475 -0.0958
 4545SOL    HW125094   1.060   1.770  16.673 -0.5369  1.1252  0.1847
 4545SOL    HW225095   1.133   1.813  16.557 -0.7538  0.4293  0.0789
 4546SOL     OW25096   2.873   0.924   5.812  0.0057  0.0712  0.2068
 4546SOL    HW125097   2.880   0.829   5.801 -0.5886  0.1342 -0.7109
 4546SOL    HW225098   2.789   0.931   5.767  0.3748 -0.3232 -0.5271
 4547SOL     OW25099   2.023   3.984   3.278  0.2712 -0.3968 -0.5840
 4547SOL    HW125100   2.087   4.013   3.342  1.0888 -2.1703 -0.5857
 4547SOL    HW225101   1.950   4.032   3.317  0.3105  0.5828 -1.7211
 4548SOL     OW25102   2.453   2.235   2.015 -0.0821  0.6153 -0.2789
 4548SOL    HW125103   2.406   2.171   1.962 -0.9160  0.7570  0.2852
 4548SOL    HW225104   2.530   2.259   1.963  1.5047 -1.5089  1.0728
 4549SOL     OW25105   2.709   3.286   3.805 -0.6311  0.1921 -0.3830
 4549SOL    HW125106   2.696   3.196   3.776  2.8456  0.8573 -3.9895
 4549SOL    HW225107   2.617   3.314   3.805 -0.4787  0.6920 -0.4589
 4550SOL     OW25108   4.624   1.823   9.240 -0.1433 -0.3628 -0.1030
 4550SOL    HW125109   4.610   1.839   9.333 -2.5443 -1.8267 -0.2082
 4550SOL    HW225110   4.689   1.891   9.225 -0.5147  0.3331  1.4561
 4551SOL     OW25111   2.528   0.253   2.864 -0.1912  0.2675 -0.5398
 4551SOL    HW125112   2.507   0.228   2.774 -2.5445 -0.1394  0.1093
 4551SOL    HW225113   2.551   0.345   2.849  1.7677 -0.1431 -0.0137
 4552SOL     OW25114   1.239   3.251  15.669 -0.5627  0.3952 -0.7938
 4552SOL    HW125115   1.329   3.233  15.696 -0.5646  1.5256 -0.0647
 4552SOL    HW225116   1.233   3.216  15.580  3.1057 -0.0148 -0.8808
 4553SOL     OW25117   2.808   3.743   5.400  0.1716  0.3179 -0.0345
 4553SOL    HW125118   2.725   3.791   5.407 -0.2111 -0.0569 -1.7878
 4553SOL    HW225119   2.791   3.691   5.321 -1.3094 -0.3710  0.7355
 4554SOL     OW25120   0.813   2.516  10.082 -0.8145  0.3433 -0.1308
 4554SOL    HW125121   0.788   2.502   9.990  0.5177 -0.6286 -0.3525
 4554SOL    HW225122   0.906   2.536  10.073 -0.7884  1.0701  1.8185
 4555SOL     OW25123   2.587   2.079   6.918 -0.1451  0.3860  0.2750
 4555SOL    HW125124   2.571   1.996   6.962  0.6645  0.2368  0.2975
 4555SOL    HW225125   2.511   2.132   6.942 -0.3571 -0.3852  1.3159
 4556SOL     OW25126   4.561   0.218   1.986 -0.2601  0.3684 -0.6024
 4556SOL    HW125127   4.522   0.199   1.900  1.3699 -0.0065 -1.2613
 4556SOL    HW225128   4.590   0.129   2.008 -0.9405  0.1783 -0.4656
 4557SOL     OW25129   2.502   0.776   6.727 -0.2894  0.1447 -0.4823
 4557SOL    HW125130   2.475   0.691   6.762  3.1416 -0.1825  1.3904
 4557SOL    HW225131   2.419   0.807   6.692 -1.4053  0.6887  2.6724
 4558SOL     OW25132   1.378   0.498   3.588  0.4620 -0.1870  0.5650
 4558SOL    HW125133   1.358   0.562   3.519 -1.4317 -0.9263  0.4213
 4558SOL    HW225134   1.291   0.458   3.592 -0.2045  1.0124 -1.8768
 4559SOL     OW25135   2.688   0.722   8.597 -0.8355  0.1950 -0.7437
 4559SOL    HW125136   2.702   0.657   8.665  0.6156  0.6242 -0.6378
 4559SOL    HW225137   2.623   0.785   8.628  0.0943 -0.0529  1.6552
 4560SOL     OW25138   2.971   2.141   3.068  0.9084  0.6578  0.4944
 4560SOL    HW125139   3.028   2.204   3.023 -0.3038 -0.3868 -2.5413
 4560SOL    HW225140   2.896   2.199   3.062 -0.1899 -0.7117  1.0928
 4561SOL     OW25141   0.997   0.096   5.004 -0.6280 -0.2975 -0.1288
 4561SOL    HW125142   0.902   0.106   4.998 -0.7600 -0.4721  1.5449
 4561SOL    HW225143   1.020   0.166   4.944 -3.4079  1.3619  0.7604
 4562SOL     OW25144   0.889   2.829   9.747 -0.0075  0.2892  0.8485
 4562SOL    HW125145   0.936   2.829   9.830 -1.0127  3.5711  1.4262
 4562SOL    HW225146   0.894   2.735   9.732 -2.8301 -0.1171  2.5058
 4563SOL     OW25147   2.431   4.390   1.288  0.3074 -0.1021 -0.1552
 4563SOL    HW125148   2.488   4.315   1.270 -3.0581 -2.4193 -1.3579
 4563SOL    HW225149   2.412   4.399   1.382 -0.6410  2.7288 -0.6282
 4564SOL     OW25150   3.415   2.537  13.413  0.4646  0.2834 -0.0901
 4564SOL    HW125151   3.354   2.501  13.478  0.4494  0.4489 -0.0141
 4564SOL    HW225152   3.356   2.540  13.338  1.8186  0.8439 -1.1250
 4565SOL     OW25153   1.150   1.959   9.085  0.0270 -0.0537 -0.0853
 4565SOL    HW125154   1.142   1.865   9.101 -0.0651 -0.3182 -1.7098
 4565SOL    HW225155   1.241   1.973   9.109 -0.6495  2.0714  1.2300
 4566SOL     OW25156   2.107   4.042   2.171  0.5625 -0.2415  0.0067
 4566SOL    HW125157   2.144   4.121   2.130  3.2319 -2.7384 -2.3851
 4566SOL    HW225158   2.012   4.051   2.166  0.9335  3.8537  0.0125
 4567SOL     OW25159   3.697   1.861  17.566 -0.3758  0.1949 -0.2130
 4567SOL    HW125160   3.698   1.948  17.606 -1.6839  0.1681 -0.1073
 4567SOL    HW225161   3.615   1.831  17.607 -0.4293  2.5255  1.3594
 4568SOL     OW25162   2.141   4.353   9.840  0.0110 -0.2066  0.6097
 4568SOL    HW125163   2.047   4.373   9.841  0.0603  0.0249 -0.3631
 4568SOL    HW225164   2.142   4.281   9.905  0.2786 -0.3392  0.4584
 4569SOL     OW25165   1.629   1.142  17.408 -0.2107  0.0227 -0.1962
 4569SOL    HW125166   1.536   1.119  17.413  0.0296 -0.9015  0.0646
 4569SOL    HW225167   1.652   1.124  17.499 -0.1500  2.0301  0.1940
 4570SOL     OW25168   0.052   3.304   4.769  0.6452 -0.2561  0.5144
 4570SOL    HW125169   0.025   3.368   4.703 -0.2294  0.6601  1.7875
 4570SOL    HW225170   4.693   3.252   4.776 -0.8368  2.0915  0.9153
 4571SOL     OW25171   0.180   1.905   9.372 -0.3139 -0.0468  0.2481
 4571SOL    HW125172   0.246   1.954   9.420 -1.5251  0.3181  1.5446
 4571SOL    HW225173   0.131   1.982   9.344  1.6129  1.7644  1.9477
 4572SOL     OW25174   2.846   2.826  10.141  0.0771  0.1442  0.4325
 4572SOL    HW125175   2.800   2.794  10.063 -1.0588 -1.2067  1.6589
 4572SOL    HW225176   2.817   2.769  10.211  1.3135 -2.9525 -1.5833
 4573SOL     OW25177   4.681   2.817  15.929  0.3449  0.3423 -0.1564
 4573SOL    HW125178   4.649   2.898  15.888  1.4667  0.7725 -0.1718
 4573SOL    HW225179   0.052   2.811  15.902  0.1914  1.1840 -0.8869
 4574SOL     OW25180   0.924   3.525   7.271  0.4360 -0.0329 -0.5537
 4574SOL    HW125181   0.884   3.446   7.234 -0.4115  1.1031 -2.0753
 4574SOL    HW225182   0.966   3.494   7.351  1.0650  0.8747 -0.5377
 4575SOL     OW25183   4.110   1.278   7.466 -0.1706  0.2018  0.6768
 4575SOL    HW125184   4.103   1.251   7.374  1.7569  0.2050  0.5221
 4575SOL    HW225185   4.017   1.287   7.489  0.0007  2.7095  0.4177
 4576SOL     OW25186   2.713   2.022   2.640 -0.4520 -0.5088 -0.3237
 4576SOL    HW125187   2.712   2.116   2.660 -0.3829 -0.8467  1.3383
 4576SOL    HW225188   2.789   2.009   2.583 -1.2208  0.2730 -1.5195
 4577SOL     OW25189   0.642   4.123   8.183  0.1584  0.3661  0.1180
 4577SOL    HW125190   0.721   4.128   8.236  0.6425  1.9280 -0.7317
 4577SOL    HW225191   0.659   4.181   8.109  3.3517 -0.2562  0.3807
 4578SOL     OW25192   1.467   3.492   6.141  0.1914 -0.3022  0.2809
 4578SOL    HW125193   1.423   3.420   6.097  1.2420  0.3101 -1.7820
 4578SOL    HW225194   1.514   3.442   6.209 -0.3748 -2.8899 -1.2179
 4579SOL     OW25195   3.820   0.086  11.948 -0.3331  0.3161 -0.3693
 4579SOL    HW125196   3.821   4.712  11.938 -2.1634  0.4598 -1.8451
 4579SOL    HW225197   3.875   0.110  11.873  1.0600 -3.7865 -0.6405
 4580SOL     OW25198   1.164   1.286   1.377  0.4518 -0.2231  0.3156
 4580SOL    HW125199   1.190   1.208   1.330  0.6049  0.3783 -0.5989
 4580SOL    HW225200   1.231   1.289   1.445 -0.2615 -1.6898  1.0985
 4581SOL     OW25201   0.008   4.184   4.759 -1.0516 -0.7582  0.2459
 4581SOL    HW125202   0.074   4.173   4.690  0.7000  2.5695  1.4030
 4581SOL    HW225203   0.009   4.279   4.754  0.7566 -0.8404 -1.1260
 4582SOL     OW25204   1.057   2.280   2.866 -0.6944  0.4289  0.3265
 4582SOL    HW125205   1.076   2.370   2.894 -0.3801 -0.0819  1.7713
 4582SOL    HW225206   1.136   2.266   2.815 -0.9213 -2.0764  0.6843
 4583SOL     OW25207   3.675   2.291   5.650  0.3215  0.9243  0.5510
 4583SOL    HW125208   3.597   2.317   5.699  0.2741 -1.0902  1.5102
 4583SOL    HW225209   3.673   2.362   5.586 -0.3507  0.2009 -0.2164
 4584SOL     OW25210   2.285   4.419   5.535  0.2868  0.7151 -0.3522
 4584SOL    HW125211   2.277   4.325   5.518  0.8593  0.5971  0.0489
 4584SOL    HW225212   2.331   4.444   5.455 -0.7575  1.2425 -0.7978
 4585SOL     OW25213   0.893   1.929  12.464  0.3400  0.1488 -0.0111
 4585SOL    HW125214   0.956   1.873  12.418  1.0537  0.2222  0.8811
 4585SOL    HW225215   0.815   1.920  12.410 -0.5367 -1.2112  1.4941
 4586SOL     OW25216   1.133   2.203  16.079  0.1117  0.1225 -0.1452
 4586SOL    HW125217   1.053   2.231  16.124 -0.3016 -0.6835 -0.3818
 4586SOL    HW225218   1.190   2.240  16.146  0.1932  0.4024 -0.3704
 4587SOL     OW25219   4.446   3.129   5.263 -0.1951  0.0508  0.5555
 4587SOL    HW125220   4.366   3.167   5.298  0.2114  0.1177  1.3923
 4587SOL    HW225221   4.517   3.180   5.302 -0.1370  0.6230 -0.2890
 4588SOL     OW25222   2.970   1.022   3.522 -0.3769  0.6244  0.0276
 4588SOL    HW125223   2.889   1.054   3.482 -1.4166 -0.7668  1.0288
 4588SOL    HW225224   2.938   1.030   3.612  0.2698  1.0554  0.2132
 4589SOL     OW25225   1.273   2.102   7.886 -0.0290 -0.4650  0.1504
 4589SOL    HW125226   1.307   2.191   7.888  0.8716 -0.7453 -2.9565
 4589SOL    HW225227   1.193   2.110   7.938  1.1420  0.5658  1.8101
 4590SOL     OW25228   3.615   1.057  10.822 -0.2269  0.1418 -0.6453
 4590SOL    HW125229   3.571   1.017  10.897 -1.5367 -2.0700 -2.6108
 4590SOL    HW225230   3.536   1.066  10.769 -2.0806 -0.6812  1.9727
 4591SOL     OW25231   3.615   0.766   0.807  0.3679 -0.2713 -0.5327
 4591SOL    HW125232   3.684   0.771   0.873 -0.7362  0.4203  0.5716
 4591SOL    HW225233   3.539   0.805   0.852 -0.0091 -0.0278 -1.3768
 4592SOL     OW25234   2.569   4.518   0.966 -0.0845  0.1799  0.4917
 4592SOL    HW125235   2.538   4.430   0.945 -0.0611  0.3913 -0.4301
 4592SOL    HW225236   2.655   4.517   0.923 -0.3675 -1.9669 -0.0003
 4593SOL     OW25237   4.716   0.307   4.384 -0.0033  0.8840 -0.3305
 4593SOL    HW125238   0.036   0.390   4.360  4.2359 -1.6188 -1.8113
 4593SOL    HW225239   4.691   0.268   4.300  2.6505 -0.9500 -0.2824
 4594SOL     OW25240   2.163   0.108   3.504 -0.3610 -0.3610  0.2418
 4594SOL    HW125241   2.233   0.056   3.464 -1.2012 -1.4361  0.1507
 4594SOL    HW225242   2.151   0.171   3.433  0.6268  0.9267  1.2298
 4595SOL     OW25243   3.850   3.627  11.199  0.1101 -0.2665  0.3557
 4595SOL    HW125244   3.916   3.563  11.174 -1.5134 -1.4363 -0.9016
 4595SOL    HW225245   3.811   3.598  11.281 -1.6893 -1.2483 -0.8412
 4596SOL     OW25246   0.451   0.496   3.443 -0.7963  0.1744 -0.2014
 4596SOL    HW125247   0.444   0.470   3.535 -0.4468  0.8248  0.0160
 4596SOL    HW225248   0.482   0.413   3.408 -0.2738 -0.4044  1.6519
 4597SOL     OW25249   1.350   1.200   9.142 -0.2622  0.6532 -0.1463
 4597SOL    HW125250   1.398   1.122   9.170 -2.3916 -0.4347  0.4823
 4597SOL    HW225251   1.318   1.234   9.226  1.7262  1.4752  0.2921
 4598SOL     OW25252   3.284   2.624   1.896  0.3797 -0.0898 -0.3148
 4598SOL    HW125253   3.254   2.714   1.883 -0.1450 -0.3452 -0.8702
 4598SOL    HW225254   3.205   2.571   1.906  0.7874 -0.8211 -0.9803
 4599SOL     OW25255   2.771   1.871   1.766 -0.3718  0.3554  0.3565
 4599SOL    HW125256   2.744   1.783   1.738  2.0709 -0.1573 -0.3497
 4599SOL    HW225257   2.836   1.842   1.830  0.4912 -0.3053 -0.8154
 4600SOL     OW25258   4.281   3.726  11.648 -0.2042  0.2278 -0.2505
 4600SOL    HW125259   4.371   3.743  11.675  0.1268  0.0865 -1.2657
 4600SOL    HW225260   4.294   3.692  11.560 -1.2113  0.6036 -0.5388
 4601SOL     OW25261   3.570   1.185   7.751 -0.1569 -0.2510 -0.1372
 4601SOL    HW125262   3.599   1.184   7.842  0.1322  0.8901 -0.2060
 4601SOL    HW225263   3.519   1.266   7.747 -0.4571 -0.3459  1.7743
 4602SOL     OW25264   3.957   2.065   8.064  0.3722 -0.4400 -0.3555
 4602SOL    HW125265   3.962   2.047   7.970 -0.2485  2.2069 -0.8824
 4602SOL    HW225266   4.020   2.136   8.079 -2.2077  1.8184 -0.2410
 4603SOL     OW25267   1.246   1.564   2.283  0.2783  0.3527 -0.4632
 4603SOL    HW125268   1.334   1.581   2.248 -0.1627  0.0329 -1.7034
 4603SOL    HW225269   1.200   1.630   2.232  0.4922  0.6447 -0.2792
 4604SOL     OW25270   4.501   0.709  14.640 -0.2469 -0.1417  0.0059
 4604SOL    HW125271   4.576   0.758  14.673  1.6140 -1.5528 -2.1796
 4604SOL    HW225272   4.518   0.714  14.547 -0.7023  0.4257 -0.0541
 4605SOL     OW25273   2.141   2.732   6.707  0.3336  0.1443  0.3910
 4605SOL    HW125274   2.232   2.725   6.679 -0.3341 -0.2207 -1.6612
 4605SOL    HW225275   2.110   2.802   6.648  0.6476 -0.0966 -0.0538
 4606SOL     OW25276   1.245   1.829   2.001 -0.4713 -0.2155 -0.0858
 4606SOL    HW125277   1.213   1.839   2.091  0.2715  0.5935  0.0879
 4606SOL    HW225278   1.262   1.921   1.980 -2.0468  0.0102 -0.4250
 4607SOL     OW25279   4.172   2.617   7.726  0.3606 -0.1241  0.0607
 4607SOL    HW125280   4.140   2.636   7.638  0.5443 -3.5138 -0.7357
 4607SOL    HW225281   4.135   2.532   7.748  0.1950  0.1303  0.7756
 4608SOL     OW25282   1.568   0.686  14.710  0.3291 -0.1011 -0.1262
 4608SOL    HW125283   1.499   0.639  14.664 -1.3454  0.1750  2.1468
 4608SOL    HW225284   1.561   0.773  14.670  0.2048 -0.0629 -0.0195
 4609SOL     OW25285   1.246   4.394   3.434 -0.1252 -0.0513  0.3705
 4609SOL    HW125286   1.271   4.453   3.363  0.1143 -1.0903 -0.4168
 4609SOL    HW225287   1.226   4.321   3.375  0.5170 -0.5199  0.7398
 4610SOL     OW25288   2.342   0.567   9.341 -0.4764 -0.3285 -0.6048
 4610SOL    HW125289   2.373   0.632   9.404  0.3209 -0.2898 -1.0407
 4610SOL    HW225290   2.409   0.572   9.274  0.4310 -1.6558  0.1982
 4611SOL     OW25291   1.874   2.080  14.958  0.9992  0.1315  0.1818
 4611SOL    HW125292   1.874   1.990  14.928 -2.6479  0.2209 -0.0578
 4611SOL    HW225293   1.917   2.132  14.890  2.2531 -1.6485 -0.3884
 4612SOL     OW25294   0.200   1.576   3.027 -0.4400 -0.7967  0.0306
 4612SOL    HW125295   0.264   1.554   2.960  1.5336  0.4655  1.4844
 4612SOL    HW225296   0.251   1.646   3.068 -2.4946  1.1219 -0.6668
 4613SOL     OW25297   2.171   1.198  17.052  0.1397 -0.4229 -0.2661
 4613SOL    HW125298   2.204   1.158  17.133 -0.1326  0.9603  0.5156
 4613SOL    HW225299   2.251   1.238  17.018  1.0118  0.0029  2.2654
 4614SOL     OW25300   1.008   2.163   6.070  0.3100  0.0346  0.5362
 4614SOL    HW125301   0.970   2.219   6.002 -1.3199 -0.1916  1.2584
 4614SOL    HW225302   0.989   2.076   6.037 -0.7032  0.4358  0.0681
 4615SOL     OW25303   1.807   4.417   5.480 -0.5389  0.6473  0.1287
 4615SOL    HW125304   1.885   4.467   5.455 -0.9287  1.0575 -0.2638
 4615SOL    HW225305   1.797   4.367   5.400  0.5339  0.0858  0.3439
 4616SOL     OW25306   1.704   4.507   4.301 -0.0756 -0.1788 -0.0799
 4616SOL    HW125307   1.767   4.566   4.343 -1.7400  1.0000  0.7234
 4616SOL    HW225308   1.715   4.527   4.208 -2.8507  0.6915 -0.2264
 4617SOL     OW25309   0.159   3.290  12.241 -0.8440 -0.0505 -0.1501
 4617SOL    HW125310   0.192   3.371  12.203  1.8077 -0.3227  1.5315
 4617SOL    HW225311   0.133   3.318  12.329  0.8791  0.6646  0.1306
 4618SOL     OW25312   3.737   0.594   6.125 -0.2021  0.6793  0.2989
 4618SOL    HW125313   3.832   0.588   6.116 -0.2732  0.6596 -0.5030
 4618SOL    HW225314   3.722   0.534   6.197 -1.4131 -2.1224 -2.2898
 4619SOL     OW25315   3.922   0.734   9.244 -0.1872  0.5075 -0.1145
 4619SOL    HW125316   3.992   0.688   9.291  0.5063 -0.1679 -1.7829
 4619SOL    HW225317   3.977   0.769   9.174 -0.4943 -3.3923 -2.3463
 4620SOL     OW25318   1.744   2.523   8.263  0.1151  0.7671 -0.1422
 4620SOL    HW125319   1.727   2.558   8.351 -0.2076  2.1556 -0.7560
 4620SOL    HW225320   1.689   2.446   8.251  1.2014  0.1097 -0.9657
 4621SOL     OW25321   3.506   0.996   1.039 -0.5709 -0.2807  0.2781
 4621SOL    HW125322   3.442   0.972   1.106 -0.6380  0.1902  0.3883
 4621SOL    HW225323   3.453   0.974   0.963 -0.7073 -2.7200  1.1041
 4622SOL     OW25324   4.246   1.241   6.528  0.4455  0.2141  0.2036
 4622SOL    HW125325   4.228   1.153   6.563 -2.2572  0.1149 -1.3752
 4622SOL    HW225326   4.249   1.291   6.609 -0.1651  0.5074  0.0490
 4623SOL     OW25327   0.135   1.000   2.808 -0.1046 -0.3927 -0.2252
 4623SOL    HW125328   0.204   0.966   2.865  0.7454 -0.4935 -1.3273
 4623SOL    HW225329   0.071   0.933   2.831 -0.5871 -0.4680 -1.8173
 4624SOL     OW25330   4.530   2.754  10.223 -0.3076  0.1757  0.0397
 4624SOL    HW125331   4.541   2.808  10.145 -0.7165 -0.6281 -0.5669
 4624SOL    HW225332   4.507   2.668  10.190  1.3036  0.0942 -0.8760
 4625SOL     OW25333   0.925   0.179  12.041  0.4220  0.0044  0.0818
 4625SOL    HW125334   1.016   0.202  12.023  0.4080  1.5818  1.9625
 4625SOL    HW225335   0.916   0.221  12.127 -4.1078 -0.8553  0.0670
 4626SOL     OW25336   1.984   1.046   9.832 -0.0906 -0.4852 -0.1514
 4626SOL    HW125337   2.020   1.127   9.868 -0.0049 -0.7369  0.3321
 4626SOL    HW225338   1.943   1.015   9.914  0.2413  1.3416  0.7122
 4627SOL     OW25339   3.206   3.544   8.584 -0.2896 -0.0913 -0.1544
 4627SOL    HW125340   3.147   3.579   8.651 -1.3760  1.0348 -1.6748
 4627SOL    HW225341   3.155   3.472   8.548  1.6368 -1.2199 -0.5775
 4628SOL     OW25342   3.820   4.487  15.164 -0.0900  0.3266 -0.0590
 4628SOL    HW125343   3.882   4.480  15.236 -0.8105  1.0475  0.6419
 4628SOL    HW225344   3.879   4.485  15.089 -2.8045  1.9638 -2.2201
 4629SOL     OW25345   2.519   4.663   2.855 -0.3992 -0.2328 -0.3114
 4629SOL    HW125346   2.613   4.670   2.873 -0.4565 -0.2803 -0.0054
 4629SOL    HW225347   2.503   0.022   2.804 -0.2150 -0.6871 -1.0871
 4630SOL     OW25348   2.214   4.675   9.349  0.1254  0.2540 -0.0900
 4630SOL    HW125349   2.134   4.623   9.344 -0.7047  1.6183 -0.7913
 4630SOL    HW225350   2.200   0.004   9.430  1.1061 -1.6013  1.2349
 4631SOL     OW25351   4.439   1.051   9.778  0.0374 -0.9067 -0.7287
 4631SOL    HW125352   4.376   1.043   9.850  0.0727  1.5706 -0.4261
 4631SOL    HW225353   4.393   1.038   9.695  2.0841 -2.0675 -1.6928
 4632SOL     OW25354   1.539   0.346   9.721 -0.7050 -0.3718  0.2978
 4632SOL    HW125355   1.513   0.365   9.811  0.2600  0.0228  0.4883
 4632SOL    HW225356   1.563   0.432   9.687 -0.9101 -0.4590 -0.0773
 4633SOL     OW25357   2.427   2.638   5.952 -0.5570 -0.3651 -0.2281
 4633SOL    HW125358   2.411   2.551   5.915  0.0837  0.0075 -1.3736
 4633SOL    HW225359   2.452   2.615   6.042 -1.3798  0.6806  0.2665
 4634SOL     OW25360   2.020   3.140  11.885  0.5093  0.1417 -0.1807
 4634SOL    HW125361   2.053   3.083  11.816 -0.5551 -1.8773  0.9631
 4634SOL    HW225362   2.023   3.227  11.846 -0.8771  0.2323 -0.1047
 4635SOL     OW25363   1.233   2.809   9.505  0.2460 -0.5359 -0.2003
 4635SOL    HW125364   1.295   2.757   9.556 -1.9043  1.1923  4.1659
 4635SOL    HW225365   1.288   2.846   9.436 -2.2330 -0.1540 -1.9691
 4636SOL     OW25366   4.648   0.963   5.520  0.1105 -0.1292  0.3314
 4636SOL    HW125367   4.697   0.885   5.546  1.5295 -0.1469 -2.3968
 4636SOL    HW225368   4.619   0.945   5.430  1.8879 -1.4362  0.0346
 4637SOL     OW25369   3.352   3.365   5.771 -0.2764 -0.3649 -0.1350
 4637SOL    HW125370   3.275   3.311   5.758  0.4282 -1.4498  0.1780
 4637SOL    HW225371   3.345   3.431   5.702  3.2777  1.8670  1.6281
 4638SOL     OW25372   1.119   1.731   6.769  0.0935  0.2467  0.0218
 4638SOL    HW125373   1.185   1.765   6.830  0.7276 -0.2354 -0.3957
 4638SOL    HW225374   1.144   1.785   6.694  0.0987  1.2558  0.7551
 4639SOL     OW25375   0.364   4.307   5.575 -0.3262  0.4564  0.4843
 4639SOL    HW125376   0.284   4.311   5.522  2.6549  1.4536 -3.9434
 4639SOL    HW225377   0.360   4.219   5.614  2.9620  0.7280  1.4170
 4640SOL     OW25378   2.304   1.015  13.559  0.3072 -0.0061 -0.0829
 4640SOL    HW125379   2.224   0.999  13.510 -0.8021 -0.8635  2.0052
 4640SOL    HW225380   2.363   0.957  13.510  2.8431  0.1216  2.8209
 4641SOL     OW25381   3.054   4.071   1.826 -0.5402  0.4726 -0.5458
 4641SOL    HW125382   3.106   4.037   1.899  2.7724 -0.4446 -3.3087
 4641SOL    HW225383   3.122   4.126   1.787  0.2217 -0.1871 -0.1697
 4642SOL     OW25384   4.524   2.336   6.964 -0.2975 -0.2243 -0.1359
 4642SOL    HW125385   4.429   2.329   6.957 -0.2694 -1.1403  0.3944
 4642SOL    HW225386   4.552   2.342   6.872  1.7539 -1.8775  0.3790
 4643SOL     OW25387   3.719   3.127   0.785 -0.0780  0.5697 -0.4607
 4643SOL    HW125388   3.783   3.058   0.802 -0.3485  0.3809 -0.2214
 4643SOL    HW225389   3.772   3.197   0.745 -0.6764  2.6685  2.4617
 4644SOL     OW25390   0.926   3.570   3.194 -0.3127 -0.2827 -0.5727
 4644SOL    HW125391   0.877   3.652   3.199 -2.2518 -1.5102  0.2788
 4644SOL    HW225392   0.854   3.508   3.205 -1.5395  1.2136 -0.1207
 4645SOL     OW25393   1.960   0.140   1.395  0.0577  0.4860  0.4484
 4645SOL    HW125394   2.035   0.081   1.388 -0.8590 -0.3440 -2.0455
 4645SOL    HW225395   1.934   0.166   1.307  1.6126  0.6859  0.0609
 4646SOL     OW25396   1.902   0.089   5.161 -0.2518  0.2698 -0.4763
 4646SOL    HW125397   1.986   0.046   5.143 -1.3755 -1.2240 -2.1796
 4646SOL    HW225398   1.845   0.057   5.091  0.1783 -0.4994 -0.4716
 4647SOL     OW25399   2.436   3.977   3.239 -0.7178  0.3071  0.6766
 4647SOL    HW125400   2.429   4.016   3.326  1.3782 -1.0053  1.4227
 4647SOL    HW225401   2.509   4.029   3.205 -2.5103  1.7123 -1.0628
 4648SOL     OW25402   1.488   0.370   1.693 -0.0416 -0.0590  0.2340
 4648SOL    HW125403   1.496   0.286   1.739  0.9751  0.2472  0.6173
 4648SOL    HW225404   1.554   0.358   1.625 -0.9686  0.2819 -0.7196
 4649SOL     OW25405   1.476   3.897  17.050 -0.8784  0.0253  0.0701
 4649SOL    HW125406   1.540   3.855  17.107  0.0486 -0.4836 -1.3367
 4649SOL    HW225407   1.393   3.877  17.093 -1.6858 -0.2554 -1.6087
 4650SOL     OW25408   2.750   4.557   8.422 -0.7160  0.3874 -0.3648
 4650SOL    HW125409   2.726   4.469   8.449 -0.4719  0.2038 -0.7548
 4650SOL    HW225410   2.707   4.552   8.336  2.4583  1.9998 -2.0608
 4651SOL     OW25411   0.983   2.974   4.221  0.8730  0.3734 -0.4935
 4651SOL    HW125412   0.976   3.036   4.294  2.8984 -0.0714  0.0576
 4651SOL    HW225413   1.026   3.020   4.149  0.9210  0.1292 -0.6213
 4652SOL     OW25414   0.215   1.861   2.726 -0.3122 -0.1735  0.8599
 4652SOL    HW125415   0.308   1.874   2.746  0.3030 -0.2719 -1.9551
 4652SOL    HW225416   0.205   1.903   2.640  0.1940 -0.4143  0.6847
 4653SOL     OW25417   1.414   0.954  11.332 -0.1762  0.3282 -0.1720
 4653SOL    HW125418   1.431   0.883  11.394  0.5033  3.3517  3.0826
 4653SOL    HW225419   1.468   1.024  11.369 -1.7977  0.0081  2.7783
 4654SOL     OW25420   4.088   1.661   7.227  0.1943 -0.1325 -0.3596
 4654SOL    HW125421   4.041   1.626   7.303  0.6043  1.1820  0.5024
 4654SOL    HW225422   4.179   1.666   7.257  0.3332 -2.5552 -0.3233
 4655SOL     OW25423   3.712   0.789  14.810  0.1362  0.4177  0.0191
 4655SOL    HW125424   3.794   0.754  14.844 -0.0040 -2.0337 -2.2321
 4655SOL    HW225425   3.665   0.710  14.786  0.8051  0.1335 -0.3492
 4656SOL     OW25426   2.708   0.608   4.854  0.3625  0.3683  0.5946
 4656SOL    HW125427   2.796   0.589   4.822  0.8132  2.2560  0.7073
 4656SOL    HW225428   2.694   0.696   4.820 -0.0786  0.6076  1.3752
 4657SOL     OW25429   1.761   0.135   9.106 -0.4719  0.2149  0.8908
 4657SOL    HW125430   1.756   0.129   9.011 -0.4951 -1.2987  0.9875
 4657SOL    HW225431   1.850   0.164   9.126 -0.0286  0.0898 -0.9583
 4658SOL     OW25432   4.017   0.466  11.518  0.3478  0.0999  0.0957
 4658SOL    HW125433   4.031   0.455  11.612 -3.9603 -0.7133  0.6376
 4658SOL    HW225434   4.056   0.551  11.499  0.8533 -0.0955  0.2649
 4659SOL     OW25435   3.545   0.216   5.618  0.4498  0.5299 -0.2397
 4659SOL    HW125436   3.613   0.236   5.682 -0.8930  1.9669  0.7363
 4659SOL    HW225437   3.565   0.125   5.597 -1.5698  0.0081  0.0677
 4660SOL     OW25438   3.205   3.846   3.636 -0.0692 -0.0079 -0.0694
 4660SOL    HW125439   3.165   3.773   3.589  0.0501 -0.5323  0.6440
 4660SOL    HW225440   3.191   3.815   3.726 -0.8679 -2.2187 -0.9498
 4661SOL     OW25441   0.161   0.951   5.778 -0.1092 -0.2768  0.0677
 4661SOL    HW125442   0.199   0.934   5.865  0.3418  0.0494 -0.0659
 4661SOL    HW225443   0.083   0.896   5.773 -0.1018 -0.0866 -1.9829
 4662SOL     OW25444   1.052   2.350   7.609 -0.5599 -0.2466  0.0818
 4662SOL    HW125445   0.991   2.404   7.659  1.1140  0.6807  1.1342
 4662SOL    HW225446   1.014   2.343   7.522 -2.1481  2.0042  0.5873
 4663SOL     OW25447   1.212   4.067   0.060 -0.1751 -0.4253  0.3086
 4663SOL    HW125448   1.236   3.986   0.104 -0.1414 -1.4130 -1.5087
 4663SOL    HW225449   1.271   4.063  17.670 -2.4769  1.4595 -1.5736
 4664SOL     OW25450   2.638   1.084   2.241  0.0157 -0.0035 -1.2552
 4664SOL    HW125451   2.724   1.104   2.278 -0.7513  3.1032 -1.1323
 4664SOL    HW225452   2.589   1.070   2.321  0.0817 -0.8055 -1.3590
 4665SOL     OW25453   3.669   1.013   2.412 -0.1211  0.2867 -0.5425
 4665SOL    HW125454   3.695   1.048   2.496 -3.3922  3.1672 -0.7139
 4665SOL    HW225455   3.716   0.930   2.418 -0.8946 -0.1991 -1.2190
 4666SOL     OW25456   2.330   0.718   7.082  0.3809  0.5799 -0.1592
 4666SOL    HW125457   2.272   0.791   7.104 -0.9855 -0.3281 -0.7605
 4666SOL    HW225458   2.409   0.728   7.135  0.9227 -0.2538 -0.8089
 4667SOL     OW25459   3.250   2.969   5.623  0.4052  0.2670 -0.5144
 4667SOL    HW125460   3.213   3.025   5.555 -0.8907  0.8957  0.7053
 4667SOL    HW225461   3.205   2.885   5.614  1.3804 -0.0464 -2.3058
 4668SOL     OW25462   4.536   1.726   7.262  0.1050  0.4630 -0.2996
 4668SOL    HW125463   4.499   1.788   7.325  0.9234  0.7507 -0.1119
 4668SOL    HW225464   4.619   1.704   7.303 -0.6175 -2.1117 -0.2516
 4669SOL     OW25465   3.414   0.348   8.116 -0.5677 -0.1684  0.0498
 4669SOL    HW125466   3.509   0.340   8.113 -0.3210  1.6188  3.5385
 4669SOL    HW225467   3.404   0.417   8.182  2.4009 -0.2774  0.5931
 4670SOL     OW25468   0.717   2.524   9.820 -0.1848 -0.1095 -0.4902
 4670SOL    HW125469   0.720   2.531   9.724 -0.0095 -0.4705 -0.5119
 4670SOL    HW225470   0.644   2.581   9.842  1.8600  1.7086  1.6481
 4671SOL     OW25471   0.299   3.438  10.624  0.4381  0.0218 -0.0186
 4671SOL    HW125472   0.315   3.399  10.538  0.1918  0.4646 -0.2619
 4671SOL    HW225473   0.384   3.445  10.666  0.1940 -1.2749  0.7146
 4672SOL     OW25474   2.824   1.122   0.076 -0.2135  0.1408 -0.1389
 4672SOL    HW125475   2.891   1.062   0.109  0.7117  2.4359  2.0962
 4672SOL    HW225476   2.761   1.055   0.051  4.0274 -2.8948 -2.8069
 4673SOL     OW25477   0.361   2.745  14.787  0.3384 -0.2828  0.4556
 4673SOL    HW125478   0.361   2.816  14.851 -1.2578 -0.8449  1.0711
 4673SOL    HW225479   0.453   2.746  14.761  0.8827  2.7395  2.4870
 4674SOL     OW25480   4.135   0.007   4.091  0.2217 -0.6933  0.1758
 4674SOL    HW125481   4.086   4.653   4.058  0.4084 -0.0835 -1.4672
 4674SOL    HW225482   4.160   0.040   4.005  0.6818  0.5048  0.7654
 4675SOL     OW25483   2.653   0.472   8.103  0.4243  0.4416  0.2682
 4675SOL    HW125484   2.634   0.380   8.125 -0.3645  0.5417 -0.0046
 4675SOL    HW225485   2.612   0.508   8.181 -2.1684  1.7904 -1.7199
 4676SOL     OW25486   4.456   2.287   3.064 -0.0697  0.0796 -0.1332
 4676SOL    HW125487   4.467   2.352   2.995  1.7421 -0.3255 -0.2043
 4676SOL    HW225488   4.538   2.239   3.051 -0.2122  0.0224 -0.8266
 4677SOL     OW25489   2.009   4.008   7.511 -0.2089  0.0725  0.3910
 4677SOL    HW125490   2.044   4.006   7.600  0.7112  1.6242  0.0673
 4677SOL    HW225491   2.099   4.003   7.478 -0.9854 -1.0953 -1.5038
 4678SOL     OW25492   4.187   0.310   9.315 -0.4439  0.0229 -0.0222
 4678SOL    HW125493   4.215   0.327   9.225 -0.5248  2.6516  0.4473
 4678SOL    HW225494   4.242   0.236   9.341  2.0308  2.1862  0.8607
 4679SOL     OW25495   1.342   3.766   5.754  0.5445 -0.4209 -0.3019
 4679SOL    HW125496   1.374   3.856   5.750 -0.7004 -0.0042 -0.9739
 4679SOL    HW225497   1.423   3.717   5.744  2.2000  2.2174  0.3523
 4680SOL     OW25498   0.792   2.577  15.638 -0.4587 -0.0302 -0.1466
 4680SOL    HW125499   0.800   2.535  15.724  0.6644  1.5481  0.5122
 4680SOL    HW225500   0.837   2.515  15.581 -0.9104 -0.8826  0.4014
 4681SOL     OW25501   0.610   2.216   8.614 -0.2818  0.1831  0.3677
 4681SOL    HW125502   0.645   2.222   8.525  4.4401 -0.8930  2.1940
 4681SOL    HW225503   0.546   2.287   8.608  0.8036  1.2020  0.9321
 4682SOL     OW25504   1.976   2.665   4.202  0.4800 -0.2318 -0.3522
 4682SOL    HW125505   1.887   2.630   4.205  0.0790  0.9276  1.3449
 4682SOL    HW225506   1.964   2.757   4.181  3.5141  0.2321 -0.0828
 4683SOL     OW25507   3.382   2.894   3.667 -0.7105  0.0180 -0.3471
 4683SOL    HW125508   3.422   2.822   3.715 -1.5840 -0.7381 -0.7709
 4683SOL    HW225509   3.291   2.868   3.672 -0.2680 -1.1959  1.1983
 4684SOL     OW25510   3.640   0.262   8.737  0.3489  0.0329 -0.0903
 4684SOL    HW125511   3.729   0.258   8.772 -0.0805 -1.8975  0.8107
 4684SOL    HW225512   3.600   0.333   8.787  1.0197  0.6031 -0.3832
 4685SOL     OW25513   1.730   0.568  13.747 -0.2443  0.2035 -0.4903
 4685SOL    HW125514   1.701   0.629  13.816 -0.3365 -0.9932  0.5305
 4685SOL    HW225515   1.820   0.556  13.777 -1.1073  0.2550  2.1461
 4686SOL     OW25516   1.665   2.304  14.391 -0.2690 -0.0559 -0.4172
 4686SOL    HW125517   1.573   2.330  14.393  0.0903  1.1868 -0.5283
 4686SOL    HW225518   1.707   2.389  14.403  0.0998 -0.3312  0.2244
 4687SOL     OW25519   3.825   2.177  13.176  0.1289  0.3552  0.9484
 4687SOL    HW125520   3.799   2.124  13.252  0.8039 -1.9811 -0.4417
 4687SOL    HW225521   3.896   2.125  13.140 -1.0999 -0.2711 -0.5514
 4688SOL     OW25522   1.800   1.723  15.183 -0.0990  0.0911  0.1661
 4688SOL    HW125523   1.713   1.740  15.148  0.3638 -0.0747 -1.0630
 4688SOL    HW225524   1.847   1.731  15.100  0.4171  2.9641  0.7284
 4689SOL     OW25525   3.294   4.458   8.318  0.1980  0.5940 -0.6808
 4689SOL    HW125526   3.355   4.502   8.378 -0.6831  2.3379 -1.0613
 4689SOL    HW225527   3.281   4.380   8.372  0.5266  0.3668 -0.9306
 4690SOL     OW25528   3.346   0.280  10.483 -0.1442  0.2349  0.1354
 4690SOL    HW125529   3.252   0.262  10.486 -0.2136  0.8657  2.0965
 4690SOL    HW225530   3.379   0.197  10.515 -0.4750 -0.3607 -1.0643
 4691SOL     OW25531   0.613   2.010   7.451 -0.0032  0.3249 -0.3618
 4691SOL    HW125532   0.654   1.956   7.519 -0.8021 -0.3876 -0.4520
 4691SOL    HW225533   0.653   2.096   7.460 -0.8180  0.6840 -0.1486
 4692SOL     OW25534   1.028   0.669   5.490 -0.3882 -0.2106  0.5253
 4692SOL    HW125535   1.031   0.625   5.405 -1.0787  0.9952 -0.1189
 4692SOL    HW225536   0.935   0.665   5.514 -0.7377  2.3133 -0.4295
 4693SOL     OW25537   0.729   2.445  10.712  0.5430 -0.5375  0.3866
 4693SOL    HW125538   0.700   2.527  10.753  0.3797  0.3216 -1.4889
 4693SOL    HW225539   0.805   2.421  10.765  0.5238 -1.4592 -0.0036
 4694SOL     OW25540   4.395   1.716   4.465 -0.1155  0.0469  0.3828
 4694SOL    HW125541   4.483   1.688   4.439 -0.3113 -1.3380  1.2632
 4694SOL    HW225542   4.376   1.652   4.533  1.4083 -1.5351 -0.6896
 4695SOL     OW25543   2.288   4.071   1.344 -0.0200 -0.1881 -0.2050
 4695SOL    HW125544   2.336   3.994   1.313  1.0576 -0.1238  1.3104
 4695SOL    HW225545   2.203   4.050   1.304  1.5206  0.5966 -3.9135
 4696SOL     OW25546   1.411   1.222  13.215  0.7033 -0.1835  0.5340
 4696SOL    HW125547   1.429   1.137  13.256 -0.8520 -0.4121  0.7534
 4696SOL    HW225548   1.375   1.273  13.287 -1.6690  0.4119 -1.0827
 4697SOL     OW25549   2.705   4.368   2.442  0.5378  0.4451 -0.4450
 4697SOL    HW125550   2.775   4.334   2.498  0.4782 -0.9848 -1.2410
 4697SOL    HW225551   2.732   4.460   2.437 -2.7834  1.4098 -0.2058
 4698SOL     OW25552   3.988   3.284   8.841  0.1530 -0.1350  0.4230
 4698SOL    HW125553   4.043   3.206   8.841  1.3027  0.6593 -0.3902
 4698SOL    HW225554   3.913   3.261   8.895 -0.9362 -0.0679 -1.0430
 4699SOL     OW25555   3.845   3.647   6.996  0.3410 -0.3271  0.0160
 4699SOL    HW125556   3.796   3.641   6.913  0.8067 -1.7911 -0.1539
 4699SOL    HW225557   3.888   3.731   6.982 -0.2172  0.0662  0.6847
 4700SOL     OW25558   3.595   4.082   8.181 -0.5519 -0.1138  0.3636
 4700SOL    HW125559   3.500   4.074   8.176 -0.7880  3.0540 -0.3528
 4700SOL    HW225560   3.609   4.146   8.111 -1.2726  0.9305  1.1799
 4701SOL     OW25561   3.534   0.507   4.065 -0.0281 -0.1331  0.2017
 4701SOL    HW125562   3.618   0.527   4.025  0.0810  0.4275  0.7168
 4701SOL    HW225563   3.477   0.553   4.004  0.4924 -0.0837 -0.2438
 4702SOL     OW25564   1.708   2.379   5.474 -0.3962 -0.1046 -0.6857
 4702SOL    HW125565   1.620   2.385   5.436 -0.1976 -1.1979 -1.2985
 4702SOL    HW225566   1.728   2.473   5.477 -0.2891 -0.1164 -1.0905
 4703SOL     OW25567   1.684   4.079   4.429 -0.0568 -0.3291  0.3867
 4703SOL    HW125568   1.716   4.125   4.507  2.3476 -1.2162 -0.0546
 4703SOL    HW225569   1.730   3.995   4.439  0.1673 -0.1268  1.0937
 4704SOL     OW25570   4.696   4.131   0.500  0.3494 -0.5141 -0.7103
 4704SOL    HW125571   4.613   4.166   0.468  0.8853  1.0997 -0.3139
 4704SOL    HW225572   4.681   4.043   0.467 -3.4764 -0.3786  0.7096
 4705SOL     OW25573   2.424   4.376  11.565 -0.1871 -0.3909 -0.4385
 4705SOL    HW125574   2.409   4.461  11.524  4.3539 -0.1520 -1.6364
 4705SOL    HW225575   2.385   4.312  11.505 -1.0963  0.9672 -1.2929
 4706SOL     OW25576   1.217   3.845   1.687 -0.0066 -0.1237 -0.0276
 4706SOL    HW125577   1.283   3.792   1.643  0.2673  0.2406 -0.0553
 4706SOL    HW225578   1.140   3.791   1.670 -0.0061 -0.3941  0.8076
 4707SOL     OW25579   4.032   4.088   1.989  0.0837 -0.0892  0.1454
 4707SOL    HW125580   4.097   4.018   1.986 -0.3080 -0.3558 -1.9836
 4707SOL    HW225581   4.077   4.160   1.946 -2.6322  1.2361 -0.4485
 4708SOL     OW25582   2.747   2.619   3.171  0.5359 -0.2290 -0.4616
 4708SOL    HW125583   2.722   2.708   3.194  0.4062 -0.2323 -0.5890
 4708SOL    HW225584   2.820   2.615   3.232  0.2792 -1.1995 -0.2182
 4709SOL     OW25585   0.612   2.231   8.883 -0.1576 -0.4193 -0.2214
 4709SOL    HW125586   0.585   2.319   8.908 -0.6640 -0.7153  0.2951
 4709SOL    HW225587   0.596   2.239   8.789 -0.1259 -0.2256 -0.2100
 4710SOL     OW25588   2.290   1.167  13.785  0.4353  1.1261 -0.1211
 4710SOL    HW125589   2.298   1.262  13.776 -0.5314  1.1163 -1.0837
 4710SOL    HW225590   2.299   1.141  13.693  0.8858  1.4424 -0.1678
 4711SOL     OW25591   2.369   0.024   5.342 -0.0397  0.6396  0.3339
 4711SOL    HW125592   2.381   4.650   5.344 -0.4398  0.4637 -4.1621
 4711SOL    HW225593   2.432   0.038   5.271  0.2012 -0.3686  0.3398
 4712SOL     OW25594   3.649   0.805   3.831 -0.4309 -0.2522  0.3202
 4712SOL    HW125595   3.661   0.887   3.784 -0.7540 -0.2458  0.2480
 4712SOL    HW225596   3.643   0.835   3.921  0.5291  0.6813  0.0721
 4713SOL     OW25597   3.356   2.690   5.851  0.1129  0.0699 -0.0676
 4713SOL    HW125598   3.312   2.697   5.936  0.8530  0.0307  0.3217
 4713SOL    HW225599   3.439   2.732   5.875 -0.3271  0.1926  1.2458
 4714SOL     OW25600   4.555   1.861   7.910 -0.1997  0.3013  0.5623
 4714SOL    HW125601   4.592   1.816   7.834 -1.5967 -1.9259  1.2026
 4714SOL    HW225602   4.610   1.818   7.976  0.3048 -1.4594 -1.0029
 4715SOL     OW25603   1.359   1.849   6.913 -0.1402  0.5186 -0.3937
 4715SOL    HW125604   1.426   1.794   6.873  1.6501  2.1098  0.4424
 4715SOL    HW225605   1.405   1.925   6.949  0.2296  0.9556 -1.8131
 4716SOL     OW25606   2.754   3.166  16.716 -0.2149  0.3161  0.5260
 4716SOL    HW125607   2.735   3.184  16.624  1.0129  1.3960  0.4823
 4716SOL    HW225608   2.669   3.197  16.746 -1.1639 -0.6904 -1.0598
 4717SOL     OW25609   4.595   3.554   1.862  0.2138  0.1089 -0.0946
 4717SOL    HW125610   4.665   3.523   1.920 -0.5015  1.4062  1.4455
 4717SOL    HW225611   4.528   3.489   1.882  0.8814  0.3080  2.7189
 4718SOL     OW25612   2.362   2.176   7.532 -0.1405  0.4816  0.9141
 4718SOL    HW125613   2.456   2.160   7.546 -0.3234  0.5995  2.2668
 4718SOL    HW225614   2.362   2.220   7.447  0.5165  0.7009  1.0261
 4719SOL     OW25615   0.527   3.967  10.651  0.3520 -0.0198  0.0518
 4719SOL    HW125616   0.507   4.061  10.652 -0.6946 -0.2570  0.6392
 4719SOL    HW225617   0.570   3.967  10.737 -0.3016  3.2859  0.3717
 4720SOL     OW25618   3.125   0.638   0.282  0.0059  0.3597  0.2899
 4720SOL    HW125619   3.189   0.598   0.342  0.6879  0.8065 -0.1296
 4720SOL    HW225620   3.043   0.629   0.329 -0.1247  0.2650  0.0391
 4721SOL     OW25621   4.226   0.781  10.003 -0.6081 -0.2625  0.0689
 4721SOL    HW125622   4.200   0.804  10.093  0.2665 -0.0876  0.2755
 4721SOL    HW225623   4.309   0.738  10.024  0.3336  0.8950 -1.3317
 4722SOL     OW25624   2.165   3.770  17.192 -0.1006 -0.0592  0.2436
 4722SOL    HW125625   2.116   3.829  17.249 -1.3550  0.2685 -1.1724
 4722SOL    HW225626   2.204   3.830  17.128 -0.3961  1.4142  1.4306
 4723SOL     OW25627   2.598   1.406   2.554 -0.4007  0.0193  0.1442
 4723SOL    HW125628   2.649   1.487   2.560 -0.0329 -0.1245 -1.0604
 4723SOL    HW225629   2.512   1.440   2.530 -1.1469 -2.3448 -0.5140
 4724SOL     OW25630   0.825   1.586   2.163  0.3688  0.5253  0.0455
 4724SOL    HW125631   0.895   1.629   2.113  0.3955  1.3256  0.7650
 4724SOL    HW225632   0.753   1.601   2.101  0.2337  1.3641  0.4109
 4725SOL     OW25633   1.856   3.973   6.457  0.1722  0.3806  0.2783
 4725SOL    HW125634   1.829   3.930   6.376 -1.8848  0.4544  0.9464
 4725SOL    HW225635   1.802   3.927   6.521  0.2971 -0.0241  0.0888
 4726SOL     OW25636   2.742   1.582   6.546  0.8131 -0.4056  0.2486
 4726SOL    HW125637   2.819   1.557   6.496 -0.2815  0.8056 -2.0809
 4726SOL    HW225638   2.766   1.558   6.635 -0.2275 -0.3183  0.5588
 4727SOL     OW25639   1.566   3.622   1.925 -0.3365 -0.4687 -0.7293
 4727SOL    HW125640   1.565   3.716   1.906 -0.6943 -0.2176  0.5451
 4727SOL    HW225641   1.479   3.612   1.963 -0.8488 -0.2943 -1.8823
 4728SOL     OW25642   4.021   3.834   7.465  0.7430  0.3094 -0.5350
 4728SOL    HW125643   3.976   3.918   7.476 -1.7600 -0.9601 -1.1843
 4728SOL    HW225644   4.042   3.857   7.375  0.1952 -2.0213 -1.2560
 4729SOL     OW25645   3.363   0.381   6.733 -0.4875  0.4528  0.2224
 4729SOL    HW125646   3.428   0.429   6.785  1.5685 -1.8109 -0.2679
 4729SOL    HW225647   3.289   0.442   6.734 -0.7650  0.1075  0.7898
 4730SOL     OW25648   4.229   3.837   2.391 -0.2931  0.3907  0.2148
 4730SOL    HW125649   4.299   3.834   2.326  0.4359 -0.4083  1.0367
 4730SOL    HW225650   4.265   3.909   2.442 -2.6830  1.8425 -0.1257
 4731SOL     OW25651   0.798   3.935   4.328 -1.0412 -0.2362  0.4781
 4731SOL    HW125652   0.837   3.997   4.266 -1.2465 -0.2052  0.3800
 4731SOL    HW225653   0.705   3.949   4.313 -1.0432 -0.5588  0.1902
 4732SOL     OW25654   3.137   0.881   8.909  0.0300  0.4073  0.2331
 4732SOL    HW125655   3.196   0.884   8.984  0.5828 -1.1822 -0.1206
 4732SOL    HW225656   3.200   0.860   8.839 -0.7362 -0.9283 -0.0598
 4733SOL     OW25657   2.678   0.741   3.405 -0.3679 -0.1783 -0.0830
 4733SOL    HW125658   2.608   0.690   3.445 -0.6821  1.2302  1.1225
 4733SOL    HW225659   2.714   0.668   3.355 -0.9334 -1.3077  1.1865
 4734SOL     OW25660   1.880   4.034   7.891  0.6600  0.3639  0.5567
 4734SOL    HW125661   1.812   3.991   7.839 -0.3160  1.0367  1.2585
 4734SOL    HW225662   1.958   4.035   7.836  0.7997 -0.1240  0.7467
 4735SOL     OW25663   2.873   0.377   7.548  0.5948 -0.1651 -0.2935
 4735SOL    HW125664   2.827   0.308   7.501 -1.5805  0.5618  0.7639
 4735SOL    HW225665   2.888   0.326   7.628  0.1778  1.4790  0.8509
 4736SOL     OW25666   2.328   1.712   8.000  0.3183 -0.3050 -0.6848
 4736SOL    HW125667   2.286   1.720   7.914 -0.4467 -3.0897 -0.5854
 4736SOL    HW225668   2.291   1.627   8.023  1.3516 -0.5983 -0.1196
 4737SOL     OW25669   1.498   4.101   8.702  0.3145 -0.0359 -0.3559
 4737SOL    HW125670   1.583   4.096   8.746  0.1781  2.2887  0.1931
 4737SOL    HW225671   1.506   4.035   8.634  3.1001 -0.8519  0.7672
 4738SOL     OW25672   0.698   4.030   4.020 -0.1029  0.3241 -0.1697
 4738SOL    HW125673   0.616   3.990   4.047  0.1291  1.6834  2.6265
 4738SOL    HW225674   0.695   4.123   4.046  0.1660 -0.6370  3.3004
 4739SOL     OW25675   3.667   4.067   6.237 -0.0015  0.3051  0.3072
 4739SOL    HW125676   3.583   4.067   6.283 -1.6789 -0.1664 -2.7143
 4739SOL    HW225677   3.686   4.160   6.236  0.1953  0.2399 -2.8751
 4740SOL     OW25678   1.796   2.089   7.876 -0.5953  0.4004 -0.1467
 4740SOL    HW125679   1.710   2.099   7.916 -0.1954 -0.9750  1.0413
 4740SOL    HW225680   1.805   1.997   7.853  0.3421 -0.1030  2.2237
 4741SOL     OW25681   3.392   1.153   9.254  0.8421 -0.3573  0.0100
 4741SOL    HW125682   3.410   1.213   9.182  0.5898  1.2024  1.2585
 4741SOL    HW225683   3.313   1.196   9.286  0.2862  0.0540 -1.9660
 4742SOL     OW25684   2.960   2.714   1.026  0.0197 -0.1265  0.0037
 4742SOL    HW125685   2.942   2.622   1.047 -2.1630  0.3940  0.4409
 4742SOL    HW225686   3.054   2.711   1.040  0.0388  1.3020  0.2283
 4743SOL     OW25687   1.674   0.100   4.962  0.8171 -0.3697  0.5047
 4743SOL    HW125688   1.616   0.175   4.953 -0.8647 -2.0775 -2.8475
 4743SOL    HW225689   1.706   0.080   4.874  1.2259  0.8932  0.3733
 4744SOL     OW25690   2.829   1.577   3.346 -0.5261  0.1151 -0.1745
 4744SOL    HW125691   2.877   1.495   3.334  0.5177 -0.1411  5.9430
 4744SOL    HW225692   2.894   1.630   3.298 -0.6315  1.4409  1.1359
 4745SOL     OW25693   0.466   1.844   1.676 -0.1719  0.2108 -0.0774
 4745SOL    HW125694   0.544   1.789   1.685 -0.2882  0.1879  0.7647
 4745SOL    HW225695   0.416   1.792   1.739  1.1668  0.5019  1.2425
 4746SOL     OW25696   2.811   4.512   3.108 -0.2763  0.1518 -0.5155
 4746SOL    HW125697   2.832   4.593   3.061  1.0555 -0.1037 -0.3700
 4746SOL    HW225698   2.895   4.465   3.104 -0.5471 -0.4110  0.4977
 4747SOL     OW25699   2.583   1.021  13.180 -0.6432  0.3899 -0.6434
 4747SOL    HW125700   2.634   0.982  13.251 -0.3800  0.1108 -0.9837
 4747SOL    HW225701   2.638   1.003  13.104 -0.9883 -3.3181 -0.0251
 4748SOL     OW25702   2.147   0.356   6.055  0.1166  0.0265  0.5411
 4748SOL    HW125703   2.224   0.320   6.010 -0.5124 -0.8493  0.1452
 4748SOL    HW225704   2.180   0.439   6.088  0.4878  0.4097 -0.8053
 4749SOL     OW25705   2.051   0.849   7.241 -0.0616  0.0741  0.2163
 4749SOL    HW125706   1.990   0.816   7.307 -1.3161  0.6057 -0.6596
 4749SOL    HW225707   2.001   0.839   7.160 -1.5822  0.7816  1.0602
 4750SOL     OW25708   0.726   1.677   9.784  0.2489 -0.2810  0.1888
 4750SOL    HW125709   0.814   1.713   9.793  0.4473 -0.7374  0.1094
 4750SOL    HW225710   0.689   1.756   9.746  0.8144 -0.3511 -0.4967
 4751SOL     OW25711   3.820   1.394   5.749  0.0660  0.3415 -0.1946
 4751SOL    HW125712   3.810   1.416   5.841  0.4896 -0.5622  0.0655
 4751SOL    HW225713   3.731   1.419   5.723  0.3465 -0.9599 -2.4335
 4752SOL     OW25714   3.778   4.425   7.833 -0.6983  0.4049 -0.1855
 4752SOL    HW125715   3.867   4.450   7.859 -0.3435 -0.1384 -0.8701
 4752SOL    HW225716   3.781   4.416   7.738  1.7214 -2.5742  0.1797
 4753SOL     OW25717   1.405   1.410   2.483  0.2412 -0.0921 -0.2288
 4753SOL    HW125718   1.344   1.343   2.515 -0.4276  0.5899 -0.1006
 4753SOL    HW225719   1.354   1.466   2.426 -0.2240 -1.9048 -1.5919
 4754SOL     OW25720   3.460   1.761  17.655  0.2493 -0.0943  0.1274
 4754SOL    HW125721   3.414   1.678  17.665 -1.1433  0.8854  1.7732
 4754SOL    HW225722   3.399   1.822  17.613  2.7981  1.5335 -1.2390
 4755SOL     OW25723   2.086   2.056   9.591 -0.1091  0.1314  0.1156
 4755SOL    HW125724   2.086   1.985   9.656 -0.0053 -0.3098 -0.3723
 4755SOL    HW225725   2.156   2.031   9.531 -1.5424 -0.7309 -1.2083
 4756SOL     OW25726   2.644   2.011   1.382 -0.2825  0.0117 -0.4261
 4756SOL    HW125727   2.739   2.000   1.391 -0.1457  1.9565  0.4325
 4756SOL    HW225728   2.634   1.997   1.288  1.2718 -1.3080 -0.3861
 4757SOL     OW25729   1.912   2.813   9.704 -0.4835 -0.3942 -0.1584
 4757SOL    HW125730   1.967   2.855   9.770 -1.9788  2.8798 -1.0013
 4757SOL    HW225731   1.944   2.723   9.701  0.6807  0.0326 -0.3193
 4758SOL     OW25732   2.156   2.610   3.541 -0.0157  0.6770 -0.0957
 4758SOL    HW125733   2.130   2.642   3.627  1.1749 -2.1323  1.3128
 4758SOL    HW225734   2.222   2.543   3.561  0.1059  1.3211  1.6509
 4759SOL     OW25735   2.582   4.703   4.695  0.2467 -0.7327 -0.0983
 4759SOL    HW125736   2.528   0.055   4.725 -0.9946 -2.1377  1.1130
 4759SOL    HW225737   2.520   4.629   4.702  0.0080 -0.7476 -2.5190
 4760SOL     OW25738   4.720   2.574   5.906  0.2501  0.0615 -0.6523
 4760SOL    HW125739   0.034   2.662   5.919 -1.3004  0.5284  0.3355
 4760SOL    HW225740   4.712   2.574   5.810  0.9145 -1.6776 -0.6982
 4761SOL     OW25741   1.505   0.025   4.060 -0.3701 -0.0875  0.2194
 4761SOL    HW125742   1.592   0.064   4.052 -0.1189  0.0235  3.4185
 4761SOL    HW225743   1.502   4.719   3.968  0.8279  0.7472 -0.0803
 4762SOL     OW25744   1.933   4.317   1.630 -0.7526 -0.6128 -0.3024
 4762SOL    HW125745   1.982   4.384   1.582  1.1051 -0.9833  1.0829
 4762SOL    HW225746   1.998   4.247   1.623 -0.7461 -0.6084 -0.2866
 4763SOL     OW25747   3.087   0.545  17.104  0.2525 -0.3674 -0.2026
 4763SOL    HW125748   3.001   0.508  17.125  0.4222  1.0738  3.0302
 4763SOL    HW225749   3.056   0.636  17.097  1.2798  0.0076  0.2044
 4764SOL     OW25750   4.393   2.148   5.269  0.8078 -0.2788  0.1845
 4764SOL    HW125751   4.302   2.152   5.297 -0.1600 -2.7293 -2.6287
 4764SOL    HW225752   4.435   2.181   5.348  0.3406  1.1563 -0.1818
 4765SOL     OW25753   3.053   0.226  13.073  0.5780  0.6009 -0.1053
 4765SOL    HW125754   3.146   0.204  13.077 -0.1541 -2.4453  0.3897
 4765SOL    HW225755   3.008   0.142  13.074 -0.8570  1.3646 -1.5441
 4766SOL     OW25756   4.575   4.317   5.553 -0.2554 -0.6982  0.1879
 4766SOL    HW125757   4.579   4.411   5.569  2.1146 -1.1895  2.4905
 4766SOL    HW225758   4.485   4.296   5.578 -0.2298 -1.7794 -0.6493
 4767SOL     OW25759   1.338   3.262  12.059 -0.0241 -0.7769 -0.0053
 4767SOL    HW125760   1.384   3.315  11.993  0.1370 -0.6603  0.2000
 4767SOL    HW225761   1.245   3.280  12.051 -0.0831 -0.3891  1.6399
 4768SOL     OW25762   4.069   3.080   0.827 -0.0007  0.2349 -0.2526
 4768SOL    HW125763   4.079   3.172   0.852  0.0523  0.6827 -1.8694
 4768SOL    HW225764   4.152   3.043   0.855 -0.2268 -2.0930 -2.6178
 4769SOL     OW25765   1.341   4.705  10.465  0.9196 -0.5274 -0.0692
 4769SOL    HW125766   1.318   0.001  10.556  0.9097  1.7827 -0.4805
 4769SOL    HW225767   1.326   0.071  10.426 -2.5663 -3.2740 -4.8030
 4770SOL     OW25768   3.277   4.697  11.385 -0.0780  0.7512 -0.2575
 4770SOL    HW125769   3.314   4.714  11.472 -0.9442 -0.5600  0.3619
 4770SOL    HW225770   3.347   4.643  11.346  0.3903  1.4347 -0.3676
 4771SOL     OW25771   4.318   0.801   2.664 -0.1769 -0.3391  0.0196
 4771SOL    HW125772   4.376   0.759   2.728  1.0229  2.4095  0.7103
 4771SOL    HW225773   4.335   0.735   2.596  0.2802 -1.5939  1.3635
 4772SOL     OW25774   2.562   2.182   8.707 -0.1853 -0.0424 -0.2501
 4772SOL    HW125775   2.612   2.109   8.741  1.8164  0.9927 -0.9831
 4772SOL    HW225776   2.470   2.159   8.722 -0.3621  1.2773  0.6671
 4773SOL     OW25777   3.259   4.088   7.135  0.2418  0.2381  0.0150
 4773SOL    HW125778   3.322   4.060   7.068  0.2446 -1.0835  0.5513
 4773SOL    HW225779   3.301   4.146   7.199 -0.7950  2.3073 -1.1855
 4774SOL     OW25780   1.702   0.411   6.580  0.2856  0.1316 -0.2334
 4774SOL    HW125781   1.773   0.360   6.619  0.8229  1.4588  0.5041
 4774SOL    HW225782   1.659   0.348   6.522  0.8782  1.7033 -2.3445
 4775SOL     OW25783   1.441   1.470   7.867 -0.1781 -0.4681 -0.2093
 4775SOL    HW125784   1.393   1.536   7.918 -0.5712  1.0252 -2.5170
 4775SOL    HW225785   1.387   1.391   7.877 -1.5555  0.6687  1.2948
 4776SOL     OW25786   1.954   1.260   7.217  0.1570  1.4028 -0.0999
 4776SOL    HW125787   1.984   1.209   7.292  0.6637  0.2921 -1.0372
 4776SOL    HW225788   2.035   1.281   7.169  2.4628 -2.5404  2.0902
 4777SOL     OW25789   4.531   1.358   8.234  0.4105  0.2745  0.1367
 4777SOL    HW125790   4.455   1.401   8.195 -0.6498  0.3774  2.3226
 4777SOL    HW225791   4.523   1.401   8.319 -1.6907  0.1483  0.0149
 4778SOL     OW25792   2.780   3.126   4.406 -0.1203 -0.1978  1.1226
 4778SOL    HW125793   2.701   3.174   4.382  0.6641  0.6989  0.3340
 4778SOL    HW225794   2.843   3.163   4.344  0.1474 -0.5671  1.1727
 4779SOL     OW25795   0.585   0.993  15.686  0.3593 -0.5503 -0.4535
 4779SOL    HW125796   0.581   0.962  15.776  1.2554 -0.5313 -0.4010
 4779SOL    HW225797   0.606   1.086  15.699  0.1522 -0.4170 -1.0598
 4780SOL     OW25798   3.881   3.668   8.262 -0.1929  0.2799 -0.7123
 4780SOL    HW125799   3.818   3.724   8.307  1.1864  0.1102  1.4504
 4780SOL    HW225800   3.961   3.719   8.278 -0.5937  1.4686 -2.5297
 4781SOL     OW25801   3.181   2.395  13.476 -0.3939 -0.1108 -0.3197
 4781SOL    HW125802   3.175   2.324  13.413  1.4034 -2.9137  2.6386
 4781SOL    HW225803   3.135   2.354  13.549  1.9963  0.7108  1.6370
 4782SOL     OW25804   3.576   3.497   7.874  0.2055 -0.1312  0.1958
 4782SOL    HW125805   3.514   3.562   7.906  2.7431  2.9982 -1.2116
 4782SOL    HW225806   3.583   3.433   7.945  1.5992  0.7828  0.8850
 4783SOL     OW25807   0.320   3.964   2.263  0.1103  0.2775  0.2013
 4783SOL    HW125808   0.238   3.926   2.232  0.5633 -1.6156  1.2842
 4783SOL    HW225809   0.303   4.027   2.333 -1.9867  1.4643 -1.3762
 4784SOL     OW25810   3.983   3.933  12.433  0.0089  0.7491  0.4518
 4784SOL    HW125811   3.931   4.012  12.420 -1.7360 -0.5266 -0.3672
 4784SOL    HW225812   3.921   3.880  12.483  0.8145 -0.8995 -0.2906
 4785SOL     OW25813   3.405   4.206   2.295 -0.2445 -0.2870 -0.0242
 4785SOL    HW125814   3.321   4.174   2.327  0.2418  0.7835  2.3684
 4785SOL    HW225815   3.461   4.209   2.373 -0.3975  0.9609  0.0436
 4786SOL     OW25816   4.018   4.007   0.680 -0.3271 -0.1245 -0.1963
 4786SOL    HW125817   4.028   3.939   0.746 -1.1433 -0.4294 -0.3931
 4786SOL    HW225818   4.016   4.087   0.734  1.1350 -1.7402  2.2400
 4787SOL     OW25819   2.058   3.253   0.555 -0.0078 -0.1189  0.4326
 4787SOL    HW125820   2.119   3.227   0.487 -0.6819 -1.7647  0.4578
 4787SOL    HW225821   2.119   3.286   0.621  0.8498 -4.5255  1.8148
 4788SOL     OW25822   1.791   4.337   5.930  0.6677 -0.2033 -0.1757
 4788SOL    HW125823   1.855   4.326   5.860  1.9340 -0.2070  0.9705
 4788SOL    HW225824   1.759   4.423   5.904  0.2435 -0.1181  0.6239
 4789SOL     OW25825   0.557   2.589  12.027 -0.0551 -0.0554  0.5481
 4789SOL    HW125826   0.504   2.543  12.092  0.9379  0.8707  1.9990
 4789SOL    HW225827   0.648   2.591  12.057 -0.6119  1.7445  2.1503
 4790SOL     OW25828   1.476   3.324  14.299  0.4250 -0.1759  0.0261
 4790SOL    HW125829   1.497   3.273  14.221 -1.0924 -2.2419  0.9717
 4790SOL    HW225830   1.522   3.404  14.271  0.2778 -0.7366 -1.7904
 4791SOL     OW25831   4.133   1.519   9.519 -0.0741  0.0121 -0.3244
 4791SOL    HW125832   4.041   1.515   9.544  0.5489 -1.1703  1.7311
 4791SOL    HW225833   4.166   1.540   9.607  1.8137  3.2475 -1.7726
 4792SOL     OW25834   3.755   4.466   2.831 -0.0398 -0.4259 -0.2423
 4792SOL    HW125835   3.823   4.453   2.764  0.4131 -1.6917  0.4703
 4792SOL    HW225836   3.689   4.400   2.810 -1.0322  0.6396 -0.4565
 4793SOL     OW25837   1.895   3.097   7.439  0.4815 -0.0086  0.2553
 4793SOL    HW125838   1.964   3.164   7.437  0.0857  0.3284 -1.6429
 4793SOL    HW225839   1.906   3.063   7.350 -0.5628  0.2453  0.0336
 4794SOL     OW25840   3.196   0.874   7.749 -0.3766  0.7895  0.1189
 4794SOL    HW125841   3.223   0.857   7.839 -4.2611 -2.0913  0.7321
 4794SOL    HW225842   3.284   0.877   7.711 -0.2356 -1.8449  0.2823
 4795SOL     OW25843   1.179   2.465   1.102  0.1780 -0.1216  0.1074
 4795SOL    HW125844   1.162   2.496   1.013  1.1521  1.4262  0.4736
 4795SOL    HW225845   1.274   2.454   1.097  0.1542  0.2502 -1.0928
 4796SOL     OW25846   3.284   3.724   7.815  0.1964 -0.0757 -0.1333
 4796SOL    HW125847   3.236   3.797   7.853  2.2238  1.1551  0.0473
 4796SOL    HW225848   3.218   3.707   7.747 -0.9399  0.8996  0.7208
 4797SOL     OW25849   4.289   0.715  11.271  0.1182  0.1438 -0.3498
 4797SOL    HW125850   4.328   0.630  11.293 -0.7348  0.0351  0.6985
 4797SOL    HW225851   4.255   0.732  11.359  1.0892  1.0438 -0.1441
 4798SOL     OW25852   4.519   1.385   7.712  0.0187  0.0256  0.0172
 4798SOL    HW125853   4.542   1.414   7.623  1.4960 -0.8964  0.1101
 4798SOL    HW225854   4.560   1.453   7.765 -0.5867  0.5607 -0.1915
 4799SOL     OW25855   1.557   3.847   2.551  0.4727 -0.2174 -0.0614
 4799SOL    HW125856   1.649   3.866   2.535  0.4299  1.6668  1.7849
 4799SOL    HW225857   1.551   3.752   2.542 -0.4992  0.1018 -2.6310
 4800SOL     OW25858   1.056   2.193   2.215  0.2832  0.2549 -1.0707
 4800SOL    HW125859   1.122   2.257   2.186  0.0253  0.8796 -0.3057
 4800SOL    HW225860   1.103   2.132   2.272  1.5961  0.8880 -1.4758
 4801SOL     OW25861   3.655   0.146   3.600  0.2479 -0.0471 -0.2955
 4801SOL    HW125862   3.653   0.050   3.592  1.1410 -0.3017  2.7596
 4801SOL    HW225863   3.715   0.173   3.530  0.0302 -2.1439 -1.2896
 4802SOL     OW25864   0.027   2.949   6.246  0.1983  0.9778  0.2262
 4802SOL    HW125865   0.031   2.944   6.342 -3.1336  0.2454  0.3037
 4802SOL    HW225866   4.660   2.980   6.227  0.5851  1.3740 -0.8518
 4803SOL     OW25867   0.979   4.271   2.734  0.0254  0.6073  0.4176
 4803SOL    HW125868   0.996   4.270   2.640 -0.1188  2.6302  0.3655
 4803SOL    HW225869   0.947   4.358   2.759 -3.1680 -0.3024 -0.5390
 4804SOL     OW25870   1.945   2.564   3.925  0.6620  0.8739 -0.1767
 4804SOL    HW125871   1.853   2.545   3.944  1.4938 -1.9483  1.0203
 4804SOL    HW225872   1.978   2.573   4.014  0.0254 -0.6952  0.2163
 4805SOL     OW25873   2.802   2.592   2.004 -0.8015 -0.2668  0.2838
 4805SOL    HW125874   2.783   2.508   2.045  0.1555 -0.0595  1.1677
 4805SOL    HW225875   2.752   2.597   1.922 -0.0297  0.2173 -0.1587
 4806SOL     OW25876   2.582   0.895   4.518 -0.3623 -0.6887  0.6200
 4806SOL    HW125877   2.494   0.888   4.554 -0.2564 -2.5033  0.5346
 4806SOL    HW225878   2.556   0.926   4.432  0.3553 -0.1150  0.6043
 4807SOL     OW25879   2.844   2.150   7.401  0.4994 -0.4239  0.2497
 4807SOL    HW125880   2.840   2.241   7.371  1.2486  0.0548  1.6335
 4807SOL    HW225881   2.927   2.119   7.363  2.5869  1.7197  3.0789
 4808SOL     OW25882   2.105   0.104   5.820  0.3020  0.2497 -0.2674
 4808SOL    HW125883   2.186   0.060   5.847 -0.0602 -1.6474 -2.2749
 4808SOL    HW225884   2.069   0.099   5.908  0.0070 -0.0311 -0.4054
 4809SOL     OW25885   2.915   1.028   8.935  0.2086  0.0084  0.3322
 4809SOL    HW125886   2.890   1.066   8.851 -0.0046 -0.7579  0.0560
 4809SOL    HW225887   2.961   0.950   8.905 -0.4173 -1.5692  3.5177
 4810SOL     OW25888   1.868   1.227   2.559 -0.7951 -0.0159  0.5904
 4810SOL    HW125889   1.878   1.199   2.468 -1.5935 -0.5731  0.6730
 4810SOL    HW225890   1.782   1.270   2.561 -0.3165  1.1340 -2.8394
 4811SOL     OW25891   0.770   1.263   7.078  0.5314  0.4019 -0.2760
 4811SOL    HW125892   0.705   1.233   7.015  0.2363 -1.6835  1.0040
 4811SOL    HW225893   0.828   1.312   7.020  1.7891 -0.3466  0.3485
 4812SOL     OW25894   2.852   0.708   8.387 -0.4305 -0.0966 -0.3772
 4812SOL    HW125895   2.787   0.717   8.457 -0.4491 -1.9257 -0.1589
 4812SOL    HW225896   2.923   0.671   8.439 -0.8207  1.6566  1.4294
 4813SOL     OW25897   3.292   4.411   7.150 -0.4225 -0.4276 -0.2080
 4813SOL    HW125898   3.244   4.423   7.232 -0.2402  0.5545 -0.2435
 4813SOL    HW225899   3.270   4.497   7.114 -0.4357 -0.4359 -0.2192
 4814SOL     OW25900   2.772   4.650   2.420 -1.0463  0.3838  0.0083
 4814SOL    HW125901   2.806   4.667   2.332 -1.3535 -1.0083 -0.3852
 4814SOL    HW225902   2.712   0.001   2.437 -1.4079  0.6049 -2.1286
 4815SOL     OW25903   3.428   0.314  17.377 -0.3006  0.1487 -0.5716
 4815SOL    HW125904   3.342   0.352  17.359 -0.4698  0.2006  0.3341
 4815SOL    HW225905   3.476   0.393  17.400  2.3483 -1.3499 -0.8633
 4816SOL     OW25906   3.648   4.169  17.111 -0.4211 -0.0255  0.5637
 4816SOL    HW125907   3.723   4.200  17.162  1.7758  1.7084 -3.6355
 4816SOL    HW225908   3.628   4.251  17.065  0.8634 -1.7151 -3.0129
 4817SOL     OW25909   4.496   0.104   8.125  0.0816  0.1935 -0.5717
 4817SOL    HW125910   4.461   0.179   8.076 -2.4895 -0.9487 -0.4901
 4817SOL    HW225911   4.417   0.061   8.157  1.6521 -0.6023  2.2409
 4818SOL     OW25912   3.379   1.425   8.632  0.4596  0.5641 -0.7511
 4818SOL    HW125913   3.304   1.370   8.659  1.2455 -0.9846 -1.7091
 4818SOL    HW225914   3.332   1.476   8.566  0.3145  1.4684  0.0591
 4819SOL     OW25915   1.314   2.196   7.247  0.5622 -0.4571 -0.4133
 4819SOL    HW125916   1.403   2.202   7.280  0.2873  3.7680 -0.4765
 4819SOL    HW225917   1.274   2.153   7.323  1.2870  2.2099  1.4717
 4820SOL     OW25918   3.058   1.612   7.317 -0.2782 -0.2592  0.5782
 4820SOL    HW125919   3.001   1.584   7.388  0.8688 -1.5258  0.9926
 4820SOL    HW225920   3.137   1.629   7.369  0.7498  2.9481 -2.0548
 4821SOL     OW25921   3.320   1.668   1.499 -0.1010  0.2636  0.2700
 4821SOL    HW125922   3.397   1.636   1.452 -0.0531 -1.9251  1.8438
 4821SOL    HW225923   3.328   1.616   1.579  0.1440 -1.5431 -0.9341
 4822SOL     OW25924   4.038   2.760   8.515  0.5995  0.0301 -0.5908
 4822SOL    HW125925   4.027   2.829   8.449  2.0516 -1.2741 -2.1738
 4822SOL    HW225926   3.986   2.689   8.478  0.6043  0.7018 -1.8932
 4823SOL     OW25927   0.699   3.759  14.469  0.1541 -0.1097  0.3882
 4823SOL    HW125928   0.729   3.798  14.551 -0.6802 -0.3119  0.7945
 4823SOL    HW225929   0.753   3.817  14.416 -0.5213 -0.1698 -0.3710
 4824SOL     OW25930   2.747   2.293   3.319 -0.1910 -0.7197  0.1838
 4824SOL    HW125931   2.762   2.279   3.226 -0.8950  2.9949 -0.4487
 4824SOL    HW225932   2.749   2.203   3.354  2.5610 -1.5033 -1.9422
 4825SOL     OW25933   0.737   1.080  12.583 -0.2814  0.3055 -0.3020
 4825SOL    HW125934   0.795   1.007  12.607 -1.5636 -0.9943 -1.1634
 4825SOL    HW225935   0.801   1.147  12.561 -0.2521  0.6043  0.7162
 4826SOL     OW25936   4.089   2.137  11.652 -0.1532  0.1860  0.2945
 4826SOL    HW125937   4.160   2.125  11.590  0.7021  2.1689  0.8683
 4826SOL    HW225938   4.075   2.049  11.687 -0.8295  0.2929  0.3003
 4827SOL     OW25939   0.377   2.022  11.446 -0.1732  0.2360 -0.0579
 4827SOL    HW125940   0.323   2.098  11.424 -1.1658 -0.5949 -0.5395
 4827SOL    HW225941   0.341   1.958  11.384 -2.2092  0.1128  1.2298
 4828SOL     OW25942   2.032   1.592   8.225 -0.3738 -0.1694  0.2194
 4828SOL    HW125943   1.957   1.533   8.233 -2.9673  2.9694 -1.2664
 4828SOL    HW225944   2.101   1.545   8.178 -0.7435  0.3012 -0.7959
 4829SOL     OW25945   4.423   2.907  15.995  0.1431 -0.0254  0.5236
 4829SOL    HW125946   4.497   2.846  15.992 -0.9595 -1.4289  1.4540
 4829SOL    HW225947   4.384   2.905  15.908  0.7973 -0.1265  0.2382
 4830SOL     OW25948   0.394   1.858   3.802  0.2465 -0.6345 -0.0722
 4830SOL    HW125949   0.489   1.872   3.806  0.3008 -1.2119  0.6423
 4830SOL    HW225950   0.405   1.805   3.723  0.8874  0.3159 -0.6362
 4831SOL     OW25951   0.749   2.635  15.220  0.9564 -0.0750  0.1237
 4831SOL    HW125952   0.687   2.582  15.271  2.6456 -1.7083  0.4889
 4831SOL    HW225953   0.817   2.571  15.198  0.5393 -0.2390 -0.6572
 4832SOL     OW25954   4.326   3.611   7.023 -0.5034  0.1691 -0.0297
 4832SOL    HW125955   4.392   3.555   7.063 -1.0723 -0.4120  0.0910
 4832SOL    HW225956   4.256   3.583   7.082  1.1639 -0.5767  1.5891
 4833SOL     OW25957   3.489   4.293   7.011  0.4200 -0.1821 -0.2825
 4833SOL    HW125958   3.417   4.330   7.062 -0.2767 -0.2432 -1.2300
 4833SOL    HW225959   3.452   4.210   6.981  0.7047  0.8340 -3.4386
 4834SOL     OW25960   2.924   3.638   8.063  0.5154 -0.1245 -0.1677
 4834SOL    HW125961   2.934   3.594   7.979  2.8336 -0.0588  0.0784
 4834SOL    HW225962   2.904   3.727   8.034 -0.9360 -0.6194 -0.6818
 4835SOL     OW25963   3.603   2.272   8.917  0.2708  0.3253 -0.1556
 4835SOL    HW125964   3.594   2.216   8.994  1.3869 -0.5651 -0.6679
 4835SOL    HW225965   3.665   2.339   8.944  1.1843 -0.5249 -0.1563
 4836SOL     OW25966   2.380   1.418  10.801  0.3863  0.0260 -0.6079
 4836SOL    HW125967   2.286   1.423  10.786  0.4917  0.5115 -1.1453
 4836SOL    HW225968   2.397   1.324  10.807 -2.3455 -0.3760  0.5151
 4837SOL     OW25969   0.489   1.516   8.974  0.6977  1.1954  0.2226
 4837SOL    HW125970   0.478   1.486   8.884  1.4974  0.0921  0.4917
 4837SOL    HW225971   0.415   1.473   9.016  0.1336  2.4762  0.5406
 4838SOL     OW25972   2.432   2.987   2.428 -0.1344 -0.6171  0.3013
 4838SOL    HW125973   2.453   2.905   2.384 -0.7189 -1.0791  0.8904
 4838SOL    HW225974   2.497   3.050   2.398  0.9414 -1.6144  0.5668
 4839SOL     OW25975   0.465   2.827   6.225  0.1796  0.0742  0.2922
 4839SOL    HW125976   0.453   2.918   6.199  1.3305  0.2340  0.3393
 4839SOL    HW225977   0.431   2.833   6.315  0.6750  1.6071  0.3739
 4840SOL     OW25978   1.527   3.280  14.586  0.0809  0.5168  0.1128
 4840SOL    HW125979   1.533   3.280  14.491  0.1266  0.5042  0.1160
 4840SOL    HW225980   1.575   3.202  14.611 -0.8593  0.0021  0.3157
 4841SOL     OW25981   0.276   3.290   6.597  0.5080  0.0682 -0.3748
 4841SOL    HW125982   0.323   3.210   6.619 -1.9697 -1.4497 -0.7381
 4841SOL    HW225983   0.257   3.275   6.504 -0.6544 -2.6889  0.3111
 4842SOL     OW25984   3.988   0.529   7.637 -0.0465 -0.4274  0.0381
 4842SOL    HW125985   3.997   0.624   7.627  0.2951 -0.4448  0.1609
 4842SOL    HW225986   4.002   0.511   7.730  0.6503  1.2073  0.2476
 4843SOL     OW25987   4.652   2.945   8.199 -0.3667 -0.1225 -0.4229
 4843SOL    HW125988   4.614   2.954   8.287 -1.7489 -1.4703 -0.8727
 4843SOL    HW225989   4.588   2.884   8.160 -0.3939 -0.4918  0.2007
 4844SOL     OW25990   1.172   3.198   9.471 -0.2285  0.0949  0.3323
 4844SOL    HW125991   1.115   3.124   9.489 -0.5630 -0.0402 -1.3286
 4844SOL    HW225992   1.141   3.234   9.388 -1.3864 -4.4127 -1.1763
 4845SOL     OW25993   2.488   1.928   9.586  0.6008 -0.3506  0.4144
 4845SOL    HW125994   2.516   1.890   9.669  1.8403 -0.5736 -0.1164
 4845SOL    HW225995   2.449   1.854   9.540  0.4048 -1.4574  2.3616
 4846SOL     OW25996   1.515   0.796  11.558  0.0186  0.3917  0.1512
 4846SOL    HW125997   1.458   0.827  11.627  0.5769 -0.7623  1.1329
 4846SOL    HW225998   1.503   0.701  11.562  0.4237  0.2863 -0.9310
 4847SOL     OW25999   0.585   0.717   2.789 -0.1348  0.3038 -0.1335
 4847SOL    HW126000   0.629   0.721   2.874 -0.5914  0.2301  0.1059
 4847SOL    HW226001   0.502   0.761   2.805  0.7375  1.7637  0.3268
 4848SOL     OW26002   0.552   2.240   5.250 -0.2610  0.4107  0.3198
 4848SOL    HW126003   0.641   2.239   5.214 -0.8676 -3.1745 -1.0795
 4848SOL    HW226004   0.542   2.151   5.283 -0.7214  0.2951 -0.1248
 4849SOL     OW26005   3.839   1.967  13.376  0.3670 -0.1959  0.6084
 4849SOL    HW126006   3.924   1.953  13.336  0.7214  1.9785  0.5721
 4849SOL    HW226007   3.780   1.904  13.334  2.1199 -1.3646 -0.0871
 4850SOL     OW26008   1.414   4.285   6.610 -0.4948 -0.3235  0.2166
 4850SOL    HW126009   1.480   4.261   6.544 -1.1224  0.2916 -0.6412
 4850SOL    HW226010   1.369   4.347   6.552 -0.1374 -0.0382  0.2368
 4851SOL     OW26011   0.031   1.753  10.943  0.0160  0.4008 -0.7503
 4851SOL    HW126012   0.058   1.752  11.034  0.7029  2.3835 -0.9389
 4851SOL    HW226013   4.698   1.832  10.947 -1.1218 -0.4327  0.4858
 4852SOL     OW26014   2.104   2.708   3.780 -0.0385 -0.1122 -0.3000
 4852SOL    HW126015   2.157   2.741   3.852  1.0139 -2.7111  0.1265
 4852SOL    HW226016   2.038   2.658   3.828 -1.6297  1.7839 -0.5238
 4853SOL     OW26017   1.713   2.330   8.875 -0.5406 -0.2210 -0.0152
 4853SOL    HW126018   1.752   2.245   8.895  0.3048  0.3535  0.7829
 4853SOL    HW226019   1.700   2.315   8.781  3.7419 -1.6380 -0.3942
 4854SOL     OW26020   2.881   4.062   6.804 -0.2958  0.2370  0.8235
 4854SOL    HW126021   2.933   4.132   6.843 -0.2135 -0.0217  1.1777
 4854SOL    HW226022   2.823   4.032   6.874 -3.1809  5.3126  0.6151
 4855SOL     OW26023   0.775   4.637   6.443 -0.4809 -0.0083 -0.3603
 4855SOL    HW126024   0.751   4.577   6.513 -0.9499 -1.4817 -1.7811
 4855SOL    HW226025   0.850   4.588   6.409 -1.1421 -0.2383 -1.4922
 4856SOL     OW26026   2.153   1.930  12.938 -0.2802  0.1097 -0.3663
 4856SOL    HW126027   2.189   2.018  12.936  2.3496 -0.9674 -1.2620
 4856SOL    HW226028   2.065   1.962  12.955  0.6394  1.7356  1.3136
 4857SOL     OW26029   2.216   3.900   2.809 -0.0114 -0.2107  0.0055
 4857SOL    HW126030   2.241   3.952   2.732 -0.1740 -1.4550 -0.8845
 4857SOL    HW226031   2.175   3.822   2.772 -1.9227  0.2947  1.0496
 4858SOL     OW26032   3.221   1.682   6.874  0.2273 -0.2077  0.0112
 4858SOL    HW126033   3.185   1.767   6.848 -0.1503 -0.3905 -0.0654
 4858SOL    HW226034   3.142   1.647   6.914  0.8795 -0.8436  0.7234
 4859SOL     OW26035   1.664   1.775  16.855  0.4479  0.0159  0.0932
 4859SOL    HW126036   1.642   1.855  16.904 -1.0207 -0.3843  0.0940
 4859SOL    HW226037   1.593   1.720  16.887 -0.3944  2.1533  1.9003
 4860SOL     OW26038   2.872   3.384  16.325 -0.4827 -0.0629  0.2811
 4860SOL    HW126039   2.910   3.377  16.237  0.6790  1.7103  0.6354
 4860SOL    HW226040   2.931   3.331  16.379 -0.4314 -1.6812 -1.3653
 4861SOL     OW26041   3.797   1.040   9.475  0.0969  0.4386 -0.0603
 4861SOL    HW126042   3.869   0.979   9.492  0.2002  0.6167  0.1342
 4861SOL    HW226043   3.762   1.042   9.564  0.6105  0.0168  0.1469
 4862SOL     OW26044   0.606   2.396   4.024  0.4213 -0.4982  0.4926
 4862SOL    HW126045   0.522   2.433   4.052 -0.5817 -1.5280 -1.1486
 4862SOL    HW226046   0.663   2.472   4.008 -1.5705  0.3562 -2.5522
 4863SOL     OW26047   3.787   0.522   3.104  0.3101  0.1260 -0.5453
 4863SOL    HW126048   3.871   0.552   3.139 -0.3352  0.5825  0.6281
 4863SOL    HW226049   3.737   0.599   3.131 -1.9589 -1.4778 -0.1184
 4864SOL     OW26050   3.589   0.643   5.634 -0.4644 -0.2832  0.1111
 4864SOL    HW126051   3.637   0.726   5.641 -0.9923  0.2049 -2.1221
 4864SOL    HW226052   3.598   0.617   5.726  0.1123  1.5479  0.5794
 4865SOL     OW26053   4.318   0.581   8.822 -0.0065 -0.1950  0.3409
 4865SOL    HW126054   4.265   0.565   8.745 -1.9024 -0.9727  1.8037
 4865SOL    HW226055   4.300   0.675   8.825 -1.8451 -0.6167  3.1264
 4866SOL     OW26056   3.729   0.193   3.068 -0.1511  0.0125 -0.4650
 4866SOL    HW126057   3.817   0.161   3.089 -1.1493 -0.8362  2.3912
 4866SOL    HW226058   3.739   0.281   3.103  0.4356  0.6525 -2.2557
 4867SOL     OW26059   0.423   4.634   3.412 -0.2472  0.2895  0.8469
 4867SOL    HW126060   0.433   4.632   3.508  1.0480  2.9716  0.7829
 4867SOL    HW226061   0.328   4.643   3.407 -0.0025  1.3649 -1.6321
 4868SOL     OW26062   1.224   4.282   7.778  0.7665 -0.5039  0.4661
 4868SOL    HW126063   1.158   4.226   7.817 -0.2798  1.5653  1.6839
 4868SOL    HW226064   1.296   4.266   7.840  0.6377 -2.1750  0.1831
 4869SOL     OW26065   3.954   4.453   5.740  0.1237 -0.3955  0.5527
 4869SOL    HW126066   4.033   4.506   5.740 -0.1866  0.0862 -0.6222
 4869SOL    HW226067   3.967   4.395   5.814 -2.0778  2.0187  2.8367
 4870SOL     OW26068   3.169   2.949  15.851 -0.8030 -0.7979 -0.3835
 4870SOL    HW126069   3.247   2.977  15.898 -0.0062 -1.4010 -1.3421
 4870SOL    HW226070   3.109   3.011  15.893 -0.3858 -0.8740  0.3226
 4871SOL     OW26071   0.177   0.159  11.675 -0.1194 -0.6723  0.4548
 4871SOL    HW126072   0.158   0.128  11.586 -0.4413 -1.4426  0.7899
 4871SOL    HW226073   0.108   0.222  11.692  0.4859  0.2037 -0.3430
 4872SOL     OW26074   0.289   0.436   6.670  0.9001 -0.1588  0.0389
 4872SOL    HW126075   0.310   0.343   6.678 -1.2618 -0.4169  2.7072
 4872SOL    HW226076   0.376   0.472   6.688  0.9842 -0.5528  0.4111
 4873SOL     OW26077   0.073   3.204  14.058 -0.3963 -0.0825  0.0400
 4873SOL    HW126078   0.105   3.138  13.997 -2.0731  0.7027 -1.7135
 4873SOL    HW226079   0.100   3.170  14.143 -2.1545  1.3384  1.1845
 4874SOL     OW26080   0.086   2.196   0.654  0.1680  0.7620  0.1054
 4874SOL    HW126081   0.066   2.234   0.739 -3.0105  0.8858 -0.6583
 4874SOL    HW226082   0.124   2.271   0.609 -3.7148  2.2213 -0.7796
 4875SOL     OW26083   3.864   3.283   4.995 -0.0731 -0.1872 -0.2816
 4875SOL    HW126084   3.917   3.329   5.059 -1.0875  0.4807  0.0728
 4875SOL    HW226085   3.852   3.196   5.033  2.3619  0.1995  1.3192
 4876SOL     OW26086   1.927   0.234   7.873  0.3912 -0.5111 -0.0894
 4876SOL    HW126087   1.875   0.193   7.943  1.3668 -0.3533  0.7243
 4876SOL    HW226088   2.002   0.176   7.878  0.7760 -0.0163 -0.1409
 4877SOL     OW26089   3.318   0.346  10.220 -0.1265 -0.0860  0.3687
 4877SOL    HW126090   3.354   0.310  10.301 -0.8159 -0.8279  0.3397
 4877SOL    HW226091   3.323   0.272  10.159 -3.1767 -0.8219  1.0207
 4878SOL     OW26092   4.549   4.263   2.779 -0.8714  0.7106  0.1212
 4878SOL    HW126093   4.586   4.224   2.700  1.1106 -0.3105  1.5637
 4878SOL    HW226094   4.622   4.256   2.841  1.1214  2.3558 -2.0482
 4879SOL     OW26095   3.492   3.785   1.699 -0.7667  0.4318  0.1649
 4879SOL    HW126096   3.442   3.850   1.649 -0.9202 -0.3625 -0.7254
 4879SOL    HW226097   3.579   3.787   1.658 -0.1554 -1.0065  1.4210
 4880SOL     OW26098   2.333   0.185   0.360 -0.0921 -0.1348 -0.5594
 4880SOL    HW126099   2.322   0.148   0.447  1.2078  3.0597  1.0063
 4880SOL    HW226100   2.365   0.273   0.383  0.2195 -0.5374  0.5140
 4881SOL     OW26101   4.114   2.490   2.654 -0.5529 -0.2838  0.6945
 4881SOL    HW126102   4.189   2.548   2.664 -0.0618 -0.4375 -2.0881
 4881SOL    HW226103   4.060   2.540   2.715  1.4686  0.0753  2.2096
 4882SOL     OW26104   0.227   4.583   2.654 -0.1316  0.0079  0.1175
 4882SOL    HW126105   0.147   4.552   2.696 -0.1794 -0.7799 -0.5754
 4882SOL    HW226106   0.212   4.676   2.637 -1.0211 -0.4488 -1.5309
 4883SOL     OW26107   0.189   3.981   5.986 -0.0700  0.2642 -0.1947
 4883SOL    HW126108   0.141   3.926   6.048 -0.0121  0.0541 -0.3359
 4883SOL    HW226109   0.275   3.942   6.001 -0.1140  0.2525  0.0231
 4884SOL     OW26110   3.079   3.393  16.943  0.2447 -0.1616  0.3429
 4884SOL    HW126111   3.041   3.473  16.977 -1.9585 -0.2686 -1.8139
 4884SOL    HW226112   3.053   3.387  16.851 -1.5806 -3.2696  1.0412
 4885SOL     OW26113   1.884   3.190  16.704  0.1005 -0.2158  0.5767
 4885SOL    HW126114   1.826   3.177  16.780 -1.8956 -0.6590 -1.0048
 4885SOL    HW226115   1.830   3.165  16.629  1.6509  0.1726 -0.6593
 4886SOL     OW26116   0.478   3.244   1.296 -0.9432  0.1605 -0.2495
 4886SOL    HW126117   0.463   3.321   1.241 -1.3456 -0.5651 -1.1550
 4886SOL    HW226118   0.572   3.227   1.292 -0.5856  1.9651  0.2669
 4887SOL     OW26119   4.100   3.032   8.902  0.6861  0.0556 -0.0732
 4887SOL    HW126120   4.135   2.953   8.943  1.3233  0.2404 -0.2524
 4887SOL    HW226121   4.063   2.985   8.828 -0.8963 -0.0914  0.8305
 4888SOL     OW26122   2.925   4.475  17.038  0.2075  0.2890 -0.1460
 4888SOL    HW126123   2.964   4.417  16.973 -1.0029 -0.6681 -0.0097
 4888SOL    HW226124   3.002   4.490  17.093  1.1836  0.2502 -1.5130
 4889SOL     OW26125   0.868   1.990  14.706 -0.0123  0.1578 -0.3337
 4889SOL    HW126126   0.933   1.954  14.646  0.3156 -0.3240  0.3174
 4889SOL    HW226127   0.910   1.988  14.792  0.0349 -2.5729 -0.4416
 4890SOL     OW26128   0.556   1.878  13.008 -0.2085  0.3334  0.2629
 4890SOL    HW126129   0.594   1.838  12.930 -0.3107 -0.8914  0.8489
 4890SOL    HW226130   0.544   1.967  12.973  1.2163  1.0293  1.5505
 4891SOL     OW26131   1.637   2.583   2.027 -0.6478  0.6023 -0.1094
 4891SOL    HW126132   1.574   2.649   2.001 -0.5767  0.3417 -0.9549
 4891SOL    HW226133   1.723   2.625   2.034 -0.2016 -0.4192  0.5414
 4892SOL     OW26134   0.362   0.551  10.342  0.2611  0.0990  0.1282
 4892SOL    HW126135   0.345   0.475  10.287  0.8164  0.0238  0.0682
 4892SOL    HW226136   0.317   0.516  10.419 -0.8736  0.4387 -0.3765
 4893SOL     OW26137   2.479   4.602  17.553  0.0736 -0.0119  0.1927
 4893SOL    HW126138   2.573   4.612  17.570  0.4306 -2.9581 -0.0269
 4893SOL    HW226139   2.478   4.509  17.576 -0.4231 -0.2978 -1.0138
 4894SOL     OW26140   0.914   3.698   2.044 -0.5104 -0.3954 -0.0648
 4894SOL    HW126141   0.848   3.723   1.979  1.0054 -0.6472 -1.7161
 4894SOL    HW226142   0.961   3.622   2.009  0.8391  0.3645  0.1224
 4895SOL     OW26143   0.994   1.171   8.600  0.4912  0.0001 -0.9043
 4895SOL    HW126144   0.998   1.222   8.681  1.5021  0.6530 -1.3647
 4895SOL    HW226145   0.902   1.144   8.596 -0.2061  2.0487  1.6798
 4896SOL     OW26146   3.670   0.992  14.643  0.1883 -0.4707  0.2601
 4896SOL    HW126147   3.681   0.926  14.712  0.0982 -2.2995 -1.4717
 4896SOL    HW226148   3.710   0.938  14.575 -4.3723 -1.9363 -1.3098
 4897SOL     OW26149   1.179   0.199   7.659  0.5755  0.0011  0.4874
 4897SOL    HW126150   1.233   0.225   7.734  0.3230 -0.8474  0.9541
 4897SOL    HW226151   1.093   0.220   7.694  0.3523 -1.6854  0.9321
 4898SOL     OW26152   1.477   0.314   6.367 -0.1336  0.1954  0.2527
 4898SOL    HW126153   1.392   0.359   6.369 -0.6510 -0.6981 -1.1095
 4898SOL    HW226154   1.475   0.296   6.273 -0.7415  0.5849  0.1904
 4899SOL     OW26155   4.635   3.267   5.435  0.1081 -0.3198  0.1065
 4899SOL    HW126156   4.661   3.359   5.440 -0.8335 -0.1905  2.6359
 4899SOL    HW226157   4.664   3.225   5.516 -2.3072 -2.2407 -0.0449
 4900SOL     OW26158   2.631   0.751   0.256  0.0677  0.7493  0.0045
 4900SOL    HW126159   2.716   0.713   0.279  0.0614  0.3416 -0.6388
 4900SOL    HW226160   2.589   0.674   0.218  1.3816 -0.8233  1.7292
 4901SOL     OW26161   1.904   0.159  16.648  0.3496 -0.6801 -0.5790
 4901SOL    HW126162   1.977   0.136  16.589  0.3719  0.5136 -1.0145
 4901SOL    HW226163   1.902   0.090  16.714 -0.6179 -1.0283 -0.9762
 4902SOL     OW26164   1.285   3.418   6.796  0.0767 -0.5461  0.7737
 4902SOL    HW126165   1.206   3.454   6.754  0.5107  0.7236  1.0696
 4902SOL    HW226166   1.347   3.457   6.734 -0.1640  1.9188  2.1029
 4903SOL     OW26167   1.471   1.078  17.150 -0.1097 -0.0161  0.0731
 4903SOL    HW126168   1.442   1.127  17.072  1.6623  0.7752 -0.0952
 4903SOL    HW226169   1.391   1.072  17.201 -0.0439  0.8772  0.2755
 4904SOL     OW26170   2.033   3.328   6.691  0.0320 -0.1468 -0.5102
 4904SOL    HW126171   2.026   3.287   6.605  0.4068 -1.2900  0.0024
 4904SOL    HW226172   2.072   3.411   6.666 -1.1455  0.9343  1.2322
 4905SOL     OW26173   0.903   2.699   7.162  0.5681 -0.0304 -0.0290
 4905SOL    HW126174   0.935   2.640   7.231  0.4521  0.3758  0.3702
 4905SOL    HW226175   0.947   2.782   7.181  2.1093 -1.0592  0.9633
 4906SOL     OW26176   2.075   0.970   7.646 -0.2416 -0.3261 -0.0721
 4906SOL    HW126177   2.051   1.023   7.721 -0.4978 -0.6725  0.0931
 4906SOL    HW226178   2.008   0.901   7.653  1.8532 -2.3837 -0.2272
 4907SOL     OW26179   1.878   3.083   4.525 -0.8265  0.4292  0.8111
 4907SOL    HW126180   1.963   3.065   4.483 -0.4237  0.6778  1.5219
 4907SOL    HW226181   1.847   3.159   4.476  0.6076  1.5111  1.5809
 4908SOL     OW26182   0.312   1.672  14.726  0.6648  0.2903  0.1972
 4908SOL    HW126183   0.300   1.664  14.631  0.0638  2.0062  0.1246
 4908SOL    HW226184   0.267   1.754  14.746 -0.8302  0.0163 -1.9982
 4909SOL     OW26185   3.901   3.850   0.494 -0.4094  0.2987 -0.0555
 4909SOL    HW126186   3.941   3.906   0.559 -0.0870 -0.4270  0.3742
 4909SOL    HW226187   3.965   3.781   0.475 -1.6874 -0.5470 -1.3190
 4910SOL     OW26188   3.422   0.416  11.698  0.5040  0.0352  0.3220
 4910SOL    HW126189   3.383   0.465  11.770 -0.7951  0.0260 -0.3643
 4910SOL    HW226190   3.479   0.354  11.743  0.1814 -0.9489 -0.6077
 4911SOL     OW26191   1.115   3.150   3.100  0.1206 -0.1138 -0.6687
 4911SOL    HW126192   1.157   3.218   3.153 -0.5506  0.6623 -1.1275
 4911SOL    HW226193   1.187   3.086   3.105  0.0303 -0.2221 -0.7628
 4912SOL     OW26194   0.429   0.790  10.191  0.1620  0.0715 -0.3567
 4912SOL    HW126195   0.474   0.732  10.130 -1.1868 -0.2589 -1.0363
 4912SOL    HW226196   0.393   0.723  10.250  2.6209 -1.3075 -0.4129
 4913SOL     OW26197   0.345   4.335   3.398  0.4358  0.2895 -0.4572
 4913SOL    HW126198   0.358   4.242   3.420 -2.2371  0.2179  0.8148
 4913SOL    HW226199   0.296   4.359   3.476  0.3373  0.2806 -0.5166
 4914SOL     OW26200   1.935   1.744   9.196  0.4549  0.1365  0.3170
 4914SOL    HW126201   1.979   1.753   9.280  2.2751  0.5455 -0.7007
 4914SOL    HW226202   1.886   1.662   9.209 -0.1312  0.0762 -2.1757
 4915SOL     OW26203   0.407   3.036  17.444 -0.0218  0.3883 -0.1174
 4915SOL    HW126204   0.441   2.975  17.510  1.3286  1.1810 -0.0642
 4915SOL    HW226205   0.490   3.057  17.400  0.1090 -1.3510 -0.6669
 4916SOL     OW26206   4.606   0.255  10.678  0.0472 -0.3181  0.2364
 4916SOL    HW126207   4.534   0.194  10.661 -0.4635 -0.0003  1.2466
 4916SOL    HW226208   4.684   0.202  10.660 -1.1787 -0.9894 -2.9960
 4917SOL     OW26209   3.565   3.211   7.194  0.4968  0.4690  0.1215
 4917SOL    HW126210   3.524   3.291   7.228  1.9751  1.0696  0.5004
 4917SOL    HW226211   3.494   3.172   7.144  1.2019  0.5290 -0.9210
 4918SOL     OW26212   0.363   2.062   9.496 -0.0156  0.1483  0.1951
 4918SOL    HW126213   0.450   2.063   9.455  0.1737  0.3094  0.5965
 4918SOL    HW226214   0.376   2.134   9.558  1.8051  1.5858 -1.8533
 4919SOL     OW26215   4.571   3.629   5.784  0.5800 -0.3666  0.2089
 4919SOL    HW126216   4.654   3.585   5.805  1.4228  0.9222 -0.4103
 4919SOL    HW226217   4.534   3.555   5.735 -0.1471  0.9266 -1.1964
 4920SOL     OW26218   3.727   2.505   6.455 -0.3335  0.1771  0.5091
 4920SOL    HW126219   3.779   2.489   6.376  1.2521  1.9681  1.1928
 4920SOL    HW226220   3.737   2.422   6.502 -0.8325 -0.0088  0.2800
 4921SOL     OW26221   2.064   4.143   6.878  0.1324 -0.2046 -0.5446
 4921SOL    HW126222   2.078   4.217   6.938 -0.2765 -0.0067 -0.6937
 4921SOL    HW226223   2.116   4.076   6.923 -3.3420 -1.3005  1.8238
 4922SOL     OW26224   0.319   0.376  15.413 -0.2544  0.4232  0.3975
 4922SOL    HW126225   0.386   0.336  15.357 -2.2808 -2.6828  0.1785
 4922SOL    HW226226   0.317   0.467  15.383  0.1936  0.0107 -0.8998
 4923SOL     OW26227   1.889   0.629  11.380 -0.5526  0.3558  0.2190
 4923SOL    HW126228   1.906   0.588  11.465 -0.9000 -1.0861 -0.4012
 4923SOL    HW226229   1.841   0.702  11.419 -2.2515 -1.2510  1.1428
 4924SOL     OW26230   3.908   0.321   3.788  0.2981  0.2404 -0.2887
 4924SOL    HW126231   3.899   0.231   3.819 -0.9898  0.4471 -0.0771
 4924SOL    HW226232   3.917   0.373   3.868 -2.0774 -0.5947  0.4918
 4925SOL     OW26233   4.521   0.635   5.537  0.2190 -0.4248  0.1578
 4925SOL    HW126234   4.550   0.689   5.463 -1.4067  1.9819  1.2791
 4925SOL    HW226235   4.481   0.564   5.486 -1.9612  0.3349  0.7967
 4926SOL     OW26236   3.005   2.950   8.399  0.1010  0.0912 -0.2479
 4926SOL    HW126237   2.951   2.923   8.325 -0.4715 -3.3215  1.4434
 4926SOL    HW226238   2.997   2.869   8.449 -3.0054 -0.8110 -2.2275
 4927SOL     OW26239   1.824   1.689   2.440  0.7622 -0.2330 -0.3460
 4927SOL    HW126240   1.914   1.673   2.413  1.1436  1.4552 -0.0339
 4927SOL    HW226241   1.844   1.780   2.460 -0.1380 -0.2902  0.8129
 4928SOL     OW26242   2.505   4.091   3.482 -0.1240  0.7318  0.3774
 4928SOL    HW126243   2.599   4.103   3.485  0.0096 -0.3226  0.5394
 4928SOL    HW226244   2.499   4.009   3.532 -0.1774  0.1159 -0.6397
 4929SOL     OW26245   3.929   1.643  10.056 -0.4606 -0.0268 -0.1837
 4929SOL    HW126246   3.921   1.663   9.962 -0.4398  0.4905 -0.0749
 4929SOL    HW226247   3.956   1.552  10.067 -3.8718 -1.2741 -1.8531
 4930SOL     OW26248   0.044   2.717   2.526  0.0853 -0.6047 -0.2758
 4930SOL    HW126249   0.069   2.788   2.468  0.8004 -1.8580 -1.5091
 4930SOL    HW226250   0.000   2.772   2.590 -0.9619 -1.1939 -0.4852
 4931SOL     OW26251   4.243   2.401   1.883  0.1715 -0.4171  0.0837
 4931SOL    HW126252   4.176   2.349   1.927  0.0036  0.4971  0.9262
 4931SOL    HW226253   4.246   2.474   1.946  1.7965  0.1115 -0.6193
 4932SOL     OW26254   1.258   2.407   2.178  0.0870  0.0571 -0.2500
 4932SOL    HW126255   1.283   2.379   2.266 -3.0054 -1.2861  0.2026
 4932SOL    HW226256   1.336   2.383   2.128 -0.6165 -3.9736  0.5831
 4933SOL     OW26257   1.066   2.287   0.679 -0.1253 -0.0138 -0.5666
 4933SOL    HW126258   1.010   2.212   0.701  0.8393 -0.4703  0.3219
 4933SOL    HW226259   1.146   2.259   0.723  1.0953  2.0221 -1.4974
 4934SOL     OW26260   4.102   0.574  13.952 -0.0820  0.6430 -0.1807
 4934SOL    HW126261   4.112   0.506  14.018  2.0121  3.1742  2.0873
 4934SOL    HW226262   4.144   0.545  13.871  3.1593 -1.2586  2.1854
 4935SOL     OW26263   0.179   0.845  11.896  0.7734  0.1013 -0.2785
 4935SOL    HW126264   0.100   0.894  11.874  0.3192 -1.2551 -1.6709
 4935SOL    HW226265   0.164   0.769  11.840  2.0005 -0.5274  0.2372
 4936SOL     OW26266   1.770   2.796   6.731 -0.3993  0.3344 -0.2278
 4936SOL    HW126267   1.805   2.755   6.652  0.9677  0.2623  0.4041
 4936SOL    HW226268   1.728   2.874   6.694 -0.4526  0.3545 -0.1262
 4937SOL     OW26269   3.390   0.488  13.173 -0.2067  0.7017  0.5359
 4937SOL    HW126270   3.301   0.485  13.209  1.9249  0.8427  5.6613
 4937SOL    HW226271   3.366   0.453  13.087 -0.3522  0.6077  0.6151
 4938SOL     OW26272   0.497   2.486   0.355 -0.2943  0.5850 -0.3956
 4938SOL    HW126273   0.573   2.544   0.353 -0.0948  0.2941 -1.3877
 4938SOL    HW226274   0.543   2.406   0.330  0.2188  0.5003  0.8013
 4939SOL     OW26275   4.228   3.665  17.678  0.0155  0.1742  0.1991
 4939SOL    HW126276   4.144   3.694   0.029  0.2277  1.6901 -0.5356
 4939SOL    HW226277   4.236   3.726  17.605  3.2881  1.1642  1.3791
 4940SOL     OW26278   2.026   1.549   5.492  0.2619 -0.8775 -0.1411
 4940SOL    HW126279   2.002   1.624   5.437 -2.4027 -2.0213 -0.5243
 4940SOL    HW226280   2.038   1.482   5.426 -0.7013 -1.6861  0.5089
 4941SOL     OW26281   0.461   3.426   1.831 -0.2510  0.3230 -0.3081
 4941SOL    HW126282   0.503   3.511   1.822  3.6141 -1.6968 -1.5173
 4941SOL    HW226283   0.390   3.442   1.893  0.5998  1.4272  0.3623
 4942SOL     OW26284   3.501   0.996   5.195  0.1514  0.1902 -0.0319
 4942SOL    HW126285   3.590   0.972   5.167 -0.7283 -1.9362 -0.9991
 4942SOL    HW226286   3.473   0.913   5.234 -0.0387  0.5929  0.6744
 4943SOL     OW26287   4.541   1.862   6.269 -0.0538 -0.7380  0.0707
 4943SOL    HW126288   4.502   1.913   6.339  2.5417  0.6742  0.5030
 4943SOL    HW226289   4.626   1.897   6.242  0.5313 -2.4081 -0.2567
 4944SOL     OW26290   0.009   1.383   4.853 -0.3834 -0.2655 -0.2307
 4944SOL    HW126291   4.637   1.407   4.855  0.0096  1.2723 -0.6950
 4944SOL    HW226292   0.050   1.469   4.855 -0.2385 -0.3042 -1.1794
 4945SOL     OW26293   3.181   2.120   7.886  0.0083 -0.1706 -0.0146
 4945SOL    HW126294   3.164   2.027   7.868 -1.1886  0.0757 -0.1831
 4945SOL    HW226295   3.125   2.134   7.963  0.3210 -0.0151  0.1838
 4946SOL     OW26296   3.956   2.376   7.940 -0.3306  0.3279  0.1517
 4946SOL    HW126297   3.863   2.363   7.919 -0.6786 -0.9998  2.5246
 4946SOL    HW226298   3.960   2.471   7.940 -1.3281  0.3856 -2.0301
 4947SOL     OW26299   4.491   3.811   2.962  0.1882  0.1777  0.3195
 4947SOL    HW126300   4.487   3.827   2.867  1.0395  0.7319  0.3768
 4947SOL    HW226301   4.586   3.822   2.971  0.5433 -0.8293 -2.1697
 4948SOL     OW26302   3.423   1.411   0.832  0.0533 -0.0464 -0.6295
 4948SOL    HW126303   3.380   1.330   0.860  2.5042 -1.3090 -0.5022
 4948SOL    HW226304   3.437   1.439   0.922  1.5320  2.7449 -1.7149
 4949SOL     OW26305   2.924   0.588   8.745 -0.5044  0.1426 -0.2359
 4949SOL    HW126306   2.839   0.574   8.787  0.2890  0.9226  1.6297
 4949SOL    HW226307   2.975   0.523   8.793  1.6095  1.6748 -0.4066
 4950SOL     OW26308   1.569   4.620   7.879  0.7328  0.0823  0.3052
 4950SOL    HW126309   1.582   4.713   7.858  0.1399  0.5771  2.0988
 4950SOL    HW226310   1.527   4.589   7.799  0.6268 -0.9169  0.7416
 4951SOL     OW26311   0.147   2.375   8.732  0.3125 -0.2656 -0.3251
 4951SOL    HW126312   0.103   2.438   8.789 -0.1435  0.4658 -1.4888
 4951SOL    HW226313   0.143   2.302   8.794  1.6063 -0.3889 -0.3897
 4952SOL     OW26314   1.129   3.630  16.672  0.2865  0.0438  0.4054
 4952SOL    HW126315   1.179   3.696  16.623 -1.3586 -0.1835 -1.5971
 4952SOL    HW226316   1.185   3.611  16.747  1.0116 -4.4466 -1.3300
 4953SOL     OW26317   3.675   0.346   8.084  0.7125 -0.1488 -0.3165
 4953SOL    HW126318   3.748   0.298   8.124  0.3431 -0.5456 -0.1147
 4953SOL    HW226319   3.719   0.426   8.056  0.6092 -0.8845 -2.5946
 4954SOL     OW26320   2.554   1.928   5.493  0.1908 -0.6812  0.3029
 4954SOL    HW126321   2.494   1.989   5.535 -0.1512 -0.5572 -0.3697
 4954SOL    HW226322   2.500   1.911   5.416 -1.7589 -3.2733  2.2193
 4955SOL     OW26323   4.709   2.253   4.762  0.3095 -0.7697  0.1051
 4955SOL    HW126324   4.639   2.311   4.731  0.8136 -0.6796 -0.8618
 4955SOL    HW226325   0.056   2.312   4.730 -1.2526  1.1245  0.2728
 4956SOL     OW26326   4.063   3.668   0.790 -0.8071  0.1053  0.4370
 4956SOL    HW126327   4.019   3.585   0.806  2.3911 -2.1146 -2.3837
 4956SOL    HW226328   4.014   3.735   0.837 -0.2749  1.9837 -1.6549
 4957SOL     OW26329   0.248   2.508   5.485 -0.0535 -0.4194 -0.2364
 4957SOL    HW126330   0.192   2.578   5.517  1.1214  0.6591 -0.5694
 4957SOL    HW226331   0.326   2.559   5.467 -0.4882  0.8572  1.5988
 4958SOL     OW26332   3.364   0.222   9.799 -0.0125 -0.2239 -0.1611
 4958SOL    HW126333   3.354   0.200   9.707 -0.9405  0.1271 -0.1443
 4958SOL    HW226334   3.389   0.137   9.834 -1.6009 -0.9456 -0.7972
 4959SOL     OW26335   0.669   2.448   6.807 -0.1093  0.0798  0.6602
 4959SOL    HW126336   0.727   2.494   6.867 -0.7642  0.3652  1.0662
 4959SOL    HW226337   0.664   2.362   6.850 -0.8060  0.5596  1.5236
 4960SOL     OW26338   1.742   3.235   8.679  0.6432  0.1938  0.0312
 4960SOL    HW126339   1.685   3.205   8.750 -0.9887 -0.9612 -1.7518
 4960SOL    HW226340   1.740   3.328   8.701 -1.9061  0.7090 -2.3610
 4961SOL     OW26341   4.094   0.111   4.719 -0.0811 -0.8273  0.3666
 4961SOL    HW126342   4.139   0.188   4.683  2.4347 -0.7659  3.6145
 4961SOL    HW226343   4.064   0.075   4.635  0.0322 -2.7321  1.1419
 4962SOL     OW26344   3.413   0.450   6.070 -0.3306  0.0848  0.3535
 4962SOL    HW126345   3.479   0.381   6.075 -0.4969  0.0157  1.4310
 4962SOL    HW226346   3.328   0.411   6.051 -0.0001  0.0219 -0.9954
 4963SOL     OW26347   3.230   4.463   0.918 -0.0055  0.1593  0.4196
 4963SOL    HW126348   3.323   4.441   0.912  0.3836  2.2306 -1.1334
 4963SOL    HW226349   3.200   4.374   0.904  1.7931 -0.7963  2.6465
 4964SOL     OW26350   3.945   2.712  10.890 -0.0181  0.1311  0.1770
 4964SOL    HW126351   4.039   2.727  10.896 -0.6148  3.2154  1.6686
 4964SOL    HW226352   3.949   2.630  10.841 -1.7550 -0.5523  1.1525
 4965SOL     OW26353   0.380   2.626   8.314 -0.2152 -0.2198 -0.4574
 4965SOL    HW126354   0.453   2.676   8.277 -1.0748  0.9619 -0.5520
 4965SOL    HW226355   0.372   2.547   8.260 -0.4898 -1.4257  1.3410
 4966SOL     OW26356   0.433   2.781   4.654  0.2163 -0.1021  0.4024
 4966SOL    HW126357   0.413   2.690   4.673  0.3007 -0.2456 -0.1845
 4966SOL    HW226358   0.504   2.779   4.589  0.5360  1.5881  0.6980
 4967SOL     OW26359   3.403   3.600   4.895  0.0372  0.7593  0.2541
 4967SOL    HW126360   3.480   3.591   4.838 -0.8936  2.2415 -1.2525
 4967SOL    HW226361   3.342   3.600   4.821  0.4604  1.1805 -0.0984
 4968SOL     OW26362   0.783   0.789   3.725  0.2715  0.5353 -0.4270
 4968SOL    HW126363   0.838   0.855   3.684 -0.4284 -0.6257 -3.2050
 4968SOL    HW226364   0.741   0.745   3.651  0.7830 -0.2472 -0.2522
 4969SOL     OW26365   0.890   3.376   0.119 -0.1243 -0.0064 -0.4337
 4969SOL    HW126366   0.944   3.414   0.189  1.1592 -1.7211 -0.4877
 4969SOL    HW226367   0.963   3.355   0.060  2.0408 -1.8683  2.8344
 4970SOL     OW26368   4.235   0.079   5.047 -0.1361  0.0102 -0.0671
 4970SOL    HW126369   4.268   0.145   4.987 -1.6332 -1.0270 -2.0076
 4970SOL    HW226370   4.219   0.132   5.125 -1.0055 -0.2380 -0.0759
 4971SOL     OW26371   3.516   0.930  11.746  0.4872  0.0866 -0.1602
 4971SOL    HW126372   3.591   0.875  11.727  0.7022  1.2838 -2.8483
 4971SOL    HW226373   3.551   1.015  11.773  2.6758 -1.4043  1.6108
 4972SOL     OW26374   3.586   0.660   6.469 -0.7130  0.1834  0.0156
 4972SOL    HW126375   3.605   0.587   6.528 -0.6227 -2.3630 -3.1878
 4972SOL    HW226376   3.677   0.687   6.456 -0.9752  1.3698  0.6696
 4973SOL     OW26377   1.354   0.821  13.740 -0.3745 -0.6389  0.0552
 4973SOL    HW126378   1.296   0.861  13.675  0.2041  1.4899  0.8505
 4973SOL    HW226379   1.327   0.730  13.754  1.8984 -1.2089  0.7938
 4974SOL     OW26380   0.249   3.390   4.213 -0.2140 -0.0530  0.2548
 4974SOL    HW126381   0.316   3.409   4.278 -0.7472  2.9808 -0.0552
 4974SOL    HW226382   0.174   3.402   4.271 -0.7744  1.0464 -0.7005
 4975SOL     OW26383   0.138   1.071  12.677 -0.1950  0.2287 -0.1362
 4975SOL    HW126384   0.209   1.122  12.639 -1.2652  2.1804  0.4768
 4975SOL    HW226385   0.148   0.984  12.638  0.1345  0.4152 -0.4664
 4976SOL     OW26386   2.915   4.136  10.736 -0.4637 -0.3084 -1.0000
 4976SOL    HW126387   2.821   4.143  10.720 -0.0794 -2.3874 -4.1374
 4976SOL    HW226388   2.925   4.068  10.803  1.7789 -0.5248 -1.5605
 4977SOL     OW26389   0.848   3.936  10.957 -0.1679  0.1383  0.3253
 4977SOL    HW126390   0.828   3.861  11.014  1.1698 -1.5633 -1.4493
 4977SOL    HW226391   0.756   3.962  10.945 -0.8495 -2.6057 -0.3651
 4978SOL     OW26392   3.406   0.024   6.482  0.1530  0.0967  0.8562
 4978SOL    HW126393   3.318   0.039   6.449  1.4402  2.2076 -1.6470
 4978SOL    HW226394   3.449   4.717   6.401 -1.1330  1.0596 -0.1597
 4979SOL     OW26395   1.082   4.214  10.063 -0.1084 -0.1238 -0.2309
 4979SOL    HW126396   1.045   4.176   9.983  2.6589 -0.2519 -1.4588
 4979SOL    HW226397   1.153   4.272  10.032 -0.9202  0.2269 -1.4444
 4980SOL     OW26398   1.706   0.032   2.001 -0.5207  0.1082 -0.7227
 4980SOL    HW126399   1.699   0.121   2.036 -2.4939 -1.0587  1.8827
 4980SOL    HW226400   1.708   4.707   2.085  2.8601  1.7455  0.0866
 4981SOL     OW26401   4.511   3.484   2.370 -0.3550  0.1384 -0.0815
 4981SOL    HW126402   4.456   3.480   2.448 -1.0650 -1.8839 -0.6835
 4981SOL    HW226403   4.467   3.546   2.311 -1.4893  0.1644  0.7723
 4982SOL     OW26404   4.160   0.690   8.126  0.2858  0.3397  0.0456
 4982SOL    HW126405   4.234   0.739   8.161  0.0550  1.3720 -0.9390
 4982SOL    HW226406   4.181   0.602   8.158 -1.6424 -0.1788 -0.1410
 4983SOL     OW26407   0.102   2.188  15.758  0.1481  0.3496  0.0215
 4983SOL    HW126408   0.051   2.153  15.685  1.6652  0.1795 -0.9754
 4983SOL    HW226409   0.037   2.245  15.797  0.2614 -0.4691  1.4269
 4984SOL     OW26410   1.966   2.873   9.106  0.1356 -0.1221  0.4364
 4984SOL    HW126411   2.060   2.882   9.124 -0.0683  2.1446  0.3322
 4984SOL    HW226412   1.955   2.792   9.156  0.0046  0.8514  1.9904
 4985SOL     OW26413   2.849   3.847  12.790 -0.3051 -0.3249 -0.2257
 4985SOL    HW126414   2.941   3.827  12.771 -0.0364  0.0144  0.7093
 4985SOL    HW226415   2.811   3.817  12.708 -2.7649  2.5646 -0.1832
 4986SOL     OW26416   3.170   0.383   7.283 -0.4543 -0.1321 -0.1555
 4986SOL    HW126417   3.205   0.384   7.372  2.6668  0.8192 -1.3969
 4986SOL    HW226418   3.128   0.468   7.269  0.0831  0.3599  1.1982
 4987SOL     OW26419   3.685   0.293  12.097  0.1702 -0.4368 -0.0167
 4987SOL    HW126420   3.671   0.286  12.002  2.7987  2.8491 -0.6602
 4987SOL    HW226421   3.780   0.304  12.088 -0.3473  1.9825 -2.4747
 4988SOL     OW26422   1.515   3.890  10.527 -0.6378  0.4667  0.1463
 4988SOL    HW126423   1.530   3.842  10.446  3.9193 -1.2217  1.9749
 4988SOL    HW226424   1.449   3.951  10.495 -1.7771 -0.4951  0.6783
 4989SOL     OW26425   4.534   3.834  10.692 -0.8799 -0.2021 -0.1936
 4989SOL    HW126426   4.458   3.798  10.645 -1.3021 -0.7664  0.9402
 4989SOL    HW226427   4.532   3.920  10.649 -0.0867  0.0572  0.3115
 4990SOL     OW26428   4.402   3.359   3.566 -0.5588  0.5221  0.0821
 4990SOL    HW126429   4.405   3.400   3.479  0.4852 -0.5152 -0.3768
 4990SOL    HW226430   4.416   3.441   3.614 -0.0162  0.4582  0.0352
 4991SOL     OW26431   2.810   1.987  11.605 -0.0582  0.0492  0.0839
 4991SOL    HW126432   2.824   1.981  11.699  1.2540  4.2993  0.1611
 4991SOL    HW226433   2.786   2.079  11.590  1.0556  0.1448 -1.1379
 4992SOL     OW26434   2.413   3.626   2.711  0.2755  0.1767 -0.1842
 4992SOL    HW126435   2.410   3.545   2.660 -2.4844 -1.0152  1.8640
 4992SOL    HW226436   2.361   3.589   2.782  1.2922 -1.5059 -0.3145
 4993SOL     OW26437   1.813   4.678   6.265 -0.4197  0.4133  0.2117
 4993SOL    HW126438   1.731   4.690   6.313 -0.6205 -0.4048  0.0678
 4993SOL    HW226439   1.822   4.585   6.246  0.0386  0.1498  1.7304
 4994SOL     OW26440   4.407   1.043   4.861  0.0776 -0.4230  0.3036
 4994SOL    HW126441   4.341   1.108   4.886  0.2965  0.0888 -0.4409
 4994SOL    HW226442   4.357   0.962   4.852  1.1112 -0.8019 -1.8831
 4995SOL     OW26443   3.295   0.817  14.642 -0.5079  0.2745 -0.1789
 4995SOL    HW126444   3.315   0.890  14.700 -1.8979  0.5726 -0.0653
 4995SOL    HW226445   3.371   0.759  14.650 -1.4239 -1.2814 -2.5371
 4996SOL     OW26446   0.282   2.966  14.151 -0.0114  0.5932 -0.7098
 4996SOL    HW126447   0.190   2.964  14.175 -0.2162 -0.1273 -1.5581
 4996SOL    HW226448   0.279   2.941  14.059 -0.9354  0.5806 -0.6724
 4997SOL     OW26449   0.275   1.010   1.910  0.5247 -0.4356 -0.4467
 4997SOL    HW126450   0.249   1.065   1.836 -2.3794 -0.4310  0.5580
 4997SOL    HW226451   0.229   0.930   1.884 -0.6068  0.7302 -2.0679
 4998SOL     OW26452   2.407   0.644   8.982 -0.4138 -0.0210  0.3734
 4998SOL    HW126453   2.419   0.714   9.046  1.8495  1.6866 -1.8829
 4998SOL    HW226454   2.340   0.681   8.926 -0.4555 -0.1560  0.3348
 4999SOL     OW26455   0.868   1.814   4.508  0.3559 -0.0459  0.2864
 4999SOL    HW126456   0.886   1.895   4.460  0.5173 -1.2290 -1.6570
 4999SOL    HW226457   0.817   1.761   4.446 -0.2430  1.3215 -0.3908
 5000SOL     OW26458   0.221   0.108   2.570  0.4256  0.6842 -0.6752
 5000SOL    HW126459   0.267   0.165   2.632 -0.5844  1.4234 -0.5925
 5000SOL    HW226460   0.154   0.169   2.539 -1.0498 -0.4591  0.2359
 5001SOL     OW26461   0.870   0.966   7.170  0.1876 -0.5893 -0.1121
 5001SOL    HW126462   0.839   0.949   7.081  0.0060 -0.4730 -0.0715
 5001SOL    HW226463   0.796   1.025   7.184 -0.6481 -1.5532 -0.4237
 5002SOL     OW26464   3.654   0.167  12.466  0.5906 -0.0917  0.1907
 5002SOL    HW126465   3.694   0.118  12.394  1.6017  0.6799  0.2243
 5002SOL    HW226466   3.562   0.147  12.450  0.5483  1.6825 -1.8829
 5003SOL     OW26467   2.914   2.539   6.108 -0.2948 -0.1501 -0.0873
 5003SOL    HW126468   2.975   2.611   6.094  0.8622 -1.2279 -0.5559
 5003SOL    HW226469   2.969   2.493   6.171  3.0711  2.3038 -1.2062
 5004SOL     OW26470   2.593   3.676  15.738  0.2101 -0.4379 -0.0990
 5004SOL    HW126471   2.598   3.655  15.832 -0.1653  0.4826  0.1272
 5004SOL    HW226472   2.604   3.771  15.739  0.6465 -0.4865 -0.4206
 5005SOL     OW26473   1.632   3.050   4.615 -0.6377 -0.3858  0.3692
 5005SOL    HW126474   1.603   3.096   4.537  0.4191 -0.6569 -0.1822
 5005SOL    HW226475   1.727   3.053   4.607 -0.5475 -0.1765  1.4738
 5006SOL     OW26476   1.977   2.418   4.978 -0.1521  0.2041 -0.0440
 5006SOL    HW126477   1.975   2.323   4.988 -1.1590  0.2185 -0.0934
 5006SOL    HW226478   2.037   2.448   5.046  1.1023 -0.9467 -0.6332
 5007SOL     OW26479   3.986   2.579   5.719  0.3915  0.5052 -0.0625
 5007SOL    HW126480   3.952   2.581   5.630  1.2383  2.6456 -0.3369
 5007SOL    HW226481   3.958   2.665   5.750  0.9508 -0.1844  2.3541
 5008SOL     OW26482   3.686   0.349   5.805 -0.4489 -0.3872 -0.0815
 5008SOL    HW126483   3.681   0.444   5.815 -1.8101 -0.7090  2.1325
 5008SOL    HW226484   3.674   0.328   5.897 -1.6898  1.9871  0.3248
 5009SOL     OW26485   0.823   3.135   5.863  1.2593  0.4618 -0.7691
 5009SOL    HW126486   0.812   3.041   5.855  1.6354  0.4345 -0.9852
 5009SOL    HW226487   0.897   3.147   5.803  1.5206  2.0998 -0.1235
 5010SOL     OW26488   1.314   0.154   8.752 -0.2763  0.2220 -0.1190
 5010SOL    HW126489   1.330   0.081   8.693 -2.4532  0.2949 -0.8232
 5010SOL    HW226490   1.346   0.115   8.833 -3.5693  0.2714  1.2154
 5011SOL     OW26491   0.805   1.002   1.814 -0.1023 -0.3650  0.4732
 5011SOL    HW126492   0.859   1.070   1.773 -1.3740  0.6304  0.4284
 5011SOL    HW226493   0.870   0.949   1.859 -0.3815 -2.3106 -1.4223
 5012SOL     OW26494   0.246   0.266   3.676  0.1458  0.4662  0.5222
 5012SOL    HW126495   0.309   0.325   3.716  0.3859  0.0978  0.6937
 5012SOL    HW226496   0.234   0.302   3.588 -1.6290 -0.2141  0.4872
 5013SOL     OW26497   2.788   1.939   6.760 -0.0217  0.2222 -0.7360
 5013SOL    HW126498   2.730   2.010   6.786 -0.2116  0.2946 -1.3532
 5013SOL    HW226499   2.784   1.940   6.664  0.7529  3.3209 -0.7173
 5014SOL     OW26500   4.540   1.872   5.176  0.0680 -0.1370 -0.1415
 5014SOL    HW126501   4.483   1.867   5.099 -1.4197  1.6701  0.8503
 5014SOL    HW226502   4.586   1.955   5.183  0.1833 -0.1699 -0.4904
 5015SOL     OW26503   0.578   2.465   5.454  0.2872 -0.3475 -0.1353
 5015SOL    HW126504   0.647   2.487   5.392  1.3566 -0.8466  0.8865
 5015SOL    HW226505   0.534   2.390   5.414  2.4852 -0.9118 -1.4811
 5016SOL     OW26506   3.614   4.118   4.534 -0.0381  0.1033  0.0713
 5016SOL    HW126507   3.575   4.043   4.578  1.6930 -0.8264  0.0104
 5016SOL    HW226508   3.545   4.181   4.555 -0.5676 -0.2553 -0.6244
 5017SOL     OW26509   1.964   2.513   6.624 -0.0564 -0.0682 -0.0112
 5017SOL    HW126510   2.043   2.563   6.645 -0.8426  1.9373 -1.8111
 5017SOL    HW226511   1.954   2.479   6.712  1.8001  2.5988  1.2439
 5018SOL     OW26512   0.294   3.786   5.381 -0.1779  0.0968 -0.5381
 5018SOL    HW126513   0.302   3.833   5.299 -1.1363 -1.0088 -1.2718
 5018SOL    HW226514   0.287   3.698   5.344 -0.0747 -0.4353  0.6810
 5019SOL     OW26515   2.197   2.717   6.046 -0.1154  0.1351  0.1564
 5019SOL    HW126516   2.150   2.637   6.025 -1.1038  0.6714  0.3113
 5019SOL    HW226517   2.285   2.700   6.012  0.0047 -0.5427  0.8159
 5020SOL     OW26518   1.229   2.485   4.498 -0.2697 -0.3110 -0.5054
 5020SOL    HW126519   1.140   2.462   4.474 -0.8747  1.1014  0.3720
 5020SOL    HW226520   1.230   2.578   4.520 -1.2079 -0.2387 -0.7704
 5021SOL     OW26521   3.534   3.179  15.175  0.5086  0.5251  0.5713
 5021SOL    HW126522   3.547   3.254  15.116 -0.4326  2.6578  3.0561
 5021SOL    HW226523   3.558   3.229  15.253 -1.2225  2.4319 -0.1149
 5022SOL     OW26524   0.818   3.112   4.410  0.6262 -0.3700  0.0494
 5022SOL    HW126525   0.767   3.193   4.405  0.7956 -0.3270 -0.9124
 5022SOL    HW226526   0.904   3.141   4.441 -0.3139  3.2486 -0.7889
 5023SOL     OW26527   0.093   1.945   6.208 -0.3551 -0.0817  0.2623
 5023SOL    HW126528   0.139   2.019   6.248 -0.8922  1.3493 -1.7282
 5023SOL    HW226529   0.111   1.971   6.117  0.1312 -0.4623  0.2480
 5024SOL     OW26530   1.908   0.293   8.552 -0.2051  0.5832  0.9455
 5024SOL    HW126531   1.962   0.292   8.631 -0.0584 -1.4058  0.8278
 5024SOL    HW226532   1.976   0.314   8.487 -0.2261 -2.4684 -0.0846
 5025SOL     OW26533   1.520   0.146   5.245  0.6588  0.0245 -0.0864
 5025SOL    HW126534   1.596   0.131   5.188  0.3150  0.0778 -0.5529
 5025SOL    HW226535   1.558   0.143   5.333  0.0857  0.6051  0.1804
 5026SOL     OW26536   4.083   3.999   6.236 -0.2241 -0.2181 -0.3827
 5026SOL    HW126537   4.103   3.914   6.197  1.9746  0.0401  0.1760
 5026SOL    HW226538   4.170   4.039   6.243  0.0577 -1.1582  1.4212
 5027SOL     OW26539   3.380   2.749   0.217 -0.3581 -0.2639 -0.5146
 5027SOL    HW126540   3.402   2.839   0.193 -0.3463 -0.6910 -2.1149
 5027SOL    HW226541   3.306   2.768   0.274 -1.1093  3.1278 -2.6265
 5028SOL     OW26542   0.551   1.092   8.945  0.0237  0.4356 -0.3437
 5028SOL    HW126543   0.639   1.093   8.984  0.4520 -2.3746 -1.2466
 5028SOL    HW226544   0.582   1.134   8.865 -0.0100  0.3063 -0.4240
 5029SOL     OW26545   4.583   3.222   0.902 -0.3590 -0.5126 -0.1170
 5029SOL    HW126546   4.639   3.147   0.881  0.3848 -0.4396  1.5684
 5029SOL    HW226547   4.646   3.294   0.894  0.1135 -0.7554  1.4555
 5030SOL     OW26548   2.376   0.346   6.541 -0.2520  0.2418 -0.1927
 5030SOL    HW126549   2.344   0.376   6.626  1.7200  2.6886 -0.3345
 5030SOL    HW226550   2.358   0.252   6.543  2.7445 -0.3235  0.0080
 5031SOL     OW26551   0.723   0.503   0.640 -0.1612 -0.1286  0.0473
 5031SOL    HW126552   0.685   0.487   0.726 -0.1039  0.1408  0.1225
 5031SOL    HW226553   0.664   0.569   0.602 -1.3314 -1.2051  0.0026
 5032SOL     OW26554   1.696   2.716   7.544  0.1115  0.3308 -0.4322
 5032SOL    HW126555   1.761   2.777   7.580  1.7283 -2.2423  1.0912
 5032SOL    HW226556   1.744   2.636   7.565  0.0167  1.2263  3.2619
 5033SOL     OW26557   3.454   3.090   6.252  0.4496  0.6464 -0.2187
 5033SOL    HW126558   3.424   3.028   6.186  1.1880  0.3621 -0.2884
 5033SOL    HW226559   3.373   3.140   6.260 -1.2529 -1.6758 -2.6322
 5034SOL     OW26560   3.012   1.512   1.269 -0.3619 -0.1996  0.8074
 5034SOL    HW126561   3.072   1.587   1.263 -2.6151  1.4655 -0.8981
 5034SOL    HW226562   2.954   1.514   1.193 -0.7143  0.8674  1.1094
 5035SOL     OW26563   1.076   0.051   6.145  0.6546  0.1008 -0.7602
 5035SOL    HW126564   1.092   4.681   6.171 -1.6544 -0.2380 -0.5286
 5035SOL    HW226565   1.150   0.093   6.189  0.2268  0.0689 -0.0025
 5036SOL     OW26566   4.329   1.496   2.878 -0.6210 -0.7940 -0.0835
 5036SOL    HW126567   4.353   1.460   2.792 -0.8493 -1.5289  0.1565
 5036SOL    HW226568   4.367   1.583   2.871 -0.2711 -0.7154  2.8021
 5037SOL     OW26569   3.487   2.647  15.241 -0.3932 -0.0823  0.1685
 5037SOL    HW126570   3.538   2.726  15.262 -1.5619  0.6906  0.0513
 5037SOL    HW226571   3.475   2.612  15.330 -0.5195 -0.2504  0.0855
 5038SOL     OW26572   4.100   0.710   2.370 -0.3855  0.0319  0.0467
 5038SOL    HW126573   4.102   0.640   2.435 -2.0917 -0.2133 -0.1562
 5038SOL    HW226574   4.173   0.678   2.318 -1.1744 -2.3022  0.3901
 5039SOL     OW26575   3.108   3.466   7.823 -0.4170  0.3299  0.3074
 5039SOL    HW126576   3.054   3.539   7.791 -1.1982 -0.6949 -0.6980
 5039SOL    HW226577   3.035   3.408   7.846 -0.3369  0.6642  1.4269
 5040SOL     OW26578   3.283   1.631  17.383 -0.2436 -0.3482  0.1362
 5040SOL    HW126579   3.210   1.577  17.353  0.0304 -1.5077  1.5763
 5040SOL    HW226580   3.319   1.586  17.459  2.3788  0.4581 -0.5998
 5041SOL     OW26581   4.118   2.229   5.318 -0.1486 -0.1926  0.3206
 5041SOL    HW126582   4.101   2.163   5.251  0.6271 -0.0692 -0.0079
 5041SOL    HW226583   4.083   2.308   5.277  2.0083 -0.5035 -2.1030
 5042SOL     OW26584   0.322   0.063   6.177 -0.4933 -0.3280 -0.5901
 5042SOL    HW126585   0.371   0.110   6.110 -0.9361 -1.2017 -1.5245
 5042SOL    HW226586   0.348   4.697   6.148 -0.0270 -0.7772  1.1640
 5043SOL     OW26587   2.706   3.590   7.625  0.1550  0.3564  0.2927
 5043SOL    HW126588   2.653   3.523   7.581  0.0127  0.1861  0.7310
 5043SOL    HW226589   2.743   3.629   7.546 -1.6906  0.4435 -0.5479
 5044SOL     OW26590   3.592   2.736  13.115 -0.7425 -0.1591 -0.0375
 5044SOL    HW126591   3.687   2.736  13.125 -0.9172 -4.0918  1.8563
 5044SOL    HW226592   3.565   2.823  13.085 -0.5968 -0.9749 -2.5016
 5045SOL     OW26593   0.593   0.348   2.098  0.1389  0.1047  0.0318
 5045SOL    HW126594   0.528   0.278   2.106  1.8056 -1.4581 -0.0849
 5045SOL    HW226595   0.598   0.372   2.006 -0.0065  3.2497  0.8401
 5046SOL     OW26596   2.447   0.118   2.648  0.0788 -0.1346  0.0445
 5046SOL    HW126597   2.358   0.085   2.637  0.1104  0.0908 -0.9711
 5046SOL    HW226598   2.480   0.132   2.559 -0.2075 -0.6685 -0.1452
 5047SOL     OW26599   0.656   1.089   3.539 -0.0444 -0.8182  0.3187
 5047SOL    HW126600   0.635   1.174   3.578 -0.0683 -0.2762 -0.8584
 5047SOL    HW226601   0.649   1.118   3.448  0.6006 -2.7547 -0.3345
 5048SOL     OW26602   2.351   3.442   7.230  0.3739  0.6485 -0.3582
 5048SOL    HW126603   2.321   3.445   7.321  0.2531  3.5917 -0.5041
 5048SOL    HW226604   2.344   3.347   7.221  1.8449  0.6874 -1.8306
 5049SOL     OW26605   4.359   3.836  12.026 -0.1477  0.0242  0.3030
 5049SOL    HW126606   4.435   3.850  11.970  1.3949 -0.3516  2.2838
 5049SOL    HW226607   4.394   3.782  12.097 -0.6078  1.1434  1.4003
 5050SOL     OW26608   3.446   2.395   5.767 -0.8496 -0.0192 -0.0389
 5050SOL    HW126609   3.378   2.347   5.720  0.3677 -0.1268 -1.7175
 5050SOL    HW226610   3.430   2.483   5.733  1.4227  1.8825  3.8152
 5051SOL     OW26611   3.924   3.963   4.508 -0.1888  0.3991 -0.9523
 5051SOL    HW126612   3.894   4.022   4.577  0.8801 -0.2615  0.0820
 5051SOL    HW226613   4.009   3.931   4.538 -2.8618 -3.2312  2.8095
 5052SOL     OW26614   1.954   0.976  15.756  0.2258  0.2538  0.0129
 5052SOL    HW126615   1.973   0.899  15.703 -1.6413 -1.8421  2.3517
 5052SOL    HW226616   1.859   0.991  15.751  0.6865  3.6362  1.6228
 5053SOL     OW26617   1.115   0.995  14.251  0.0205 -0.2991 -0.0145
 5053SOL    HW126618   1.105   1.091  14.252 -1.8256 -0.5250  2.0680
 5053SOL    HW226619   1.039   0.971  14.198 -0.7585  1.0105  0.5148
 5054SOL     OW26620   2.852   0.008   4.729 -0.3801  0.7423  0.5306
 5054SOL    HW126621   2.837   0.085   4.674 -0.1164  0.2631 -0.2218
 5054SOL    HW226622   2.767   4.686   4.728  0.8322 -1.6571 -1.3035
 5055SOL     OW26623   1.205   4.466  10.910 -0.2331 -0.3215  0.8036
 5055SOL    HW126624   1.268   4.431  10.973 -0.2105 -2.1618 -0.2174
 5055SOL    HW226625   1.239   4.441  10.823  1.4370  0.8790  1.1206
 5056SOL     OW26626   3.898   1.710   6.857 -0.9269 -0.6528 -0.0377
 5056SOL    HW126627   3.871   1.774   6.923  1.0133  0.3762 -0.2497
 5056SOL    HW226628   3.982   1.682   6.892 -0.6623  1.3096  0.8851
 5057SOL     OW26629   3.389   1.271   8.375 -0.2761  0.8510  0.4254
 5057SOL    HW126630   3.313   1.329   8.385  0.0526  0.9809  2.3084
 5057SOL    HW226631   3.374   1.213   8.449 -0.3291 -1.7944 -1.6898
 5058SOL     OW26632   3.354   3.527   7.453  0.0017  0.2247  0.5255
 5058SOL    HW126633   3.342   3.488   7.540  1.1875  1.4384  1.2370
 5058SOL    HW226634   3.276   3.582   7.443  0.3975 -0.2354 -4.8422
 5059SOL     OW26635   3.111   3.400   0.688 -0.1419  0.2954  0.0209
 5059SOL    HW126636   3.173   3.472   0.697  1.8006 -1.2651 -0.7418
 5059SOL    HW226637   3.055   3.428   0.616 -0.8122 -0.5596  0.2115
 5060SOL     OW26638   1.158   0.244   2.987  0.1203 -0.3287 -0.4315
 5060SOL    HW126639   1.176   0.226   2.895 -2.2115  1.5494 -1.2397
 5060SOL    HW226640   1.068   0.211   2.991 -0.1661  0.2575 -2.3484
 5061SOL     OW26641   3.162   3.719   6.393  0.1118 -0.1175 -0.2039
 5061SOL    HW126642   3.113   3.786   6.439  0.2884 -0.3878  0.3722
 5061SOL    HW226643   3.156   3.747   6.301 -0.7486  1.4477  0.3419
 5062SOL     OW26644   1.593   2.419   6.386 -0.2947 -0.2690  0.6522
 5062SOL    HW126645   1.653   2.350   6.359  1.5884  1.6146  0.0648
 5062SOL    HW226646   1.570   2.464   6.305  1.6837  0.3937  0.4691
 5063SOL     OW26647   0.494   0.464   5.616  0.2085  0.7058 -0.5662
 5063SOL    HW126648   0.474   0.371   5.604 -1.2676  0.9152  0.2315
 5063SOL    HW226649   0.407   0.496   5.641  0.0855 -1.7491  2.1961
 5064SOL     OW26650   1.306   1.903  12.388 -0.1957 -1.0823  0.3831
 5064SOL    HW126651   1.397   1.899  12.358 -0.0203  0.3263  0.7091
 5064SOL    HW226652   1.311   1.834  12.454 -0.3268  0.0872  1.6205
 5065SOL     OW26653   4.116   1.516   3.199 -0.0371  0.1515 -0.6192
 5065SOL    HW126654   4.064   1.593   3.221 -0.5437 -0.3898  0.0864
 5065SOL    HW226655   4.136   1.483   3.287  0.5242 -1.0783 -1.1987
 5066SOL     OW26656   3.399   3.660  15.454 -0.1137  0.0530 -0.0532
 5066SOL    HW126657   3.434   3.745  15.480 -0.4204  0.4909 -1.0817
 5066SOL    HW226658   3.412   3.674  15.360 -2.4308 -0.4891 -0.4487
 5067SOL     OW26659   2.409   3.875   4.352 -0.0069  0.1744  0.0466
 5067SOL    HW126660   2.340   3.824   4.395  0.1895 -0.2016 -0.0891
 5067SOL    HW226661   2.478   3.840   4.408 -0.9224 -0.3190  0.8715
 5068SOL     OW26662   1.985   4.340   9.432  1.0875 -0.1133  0.3593
 5068SOL    HW126663   2.045   4.384   9.491 -0.7543  1.0395  1.3589
 5068SOL    HW226664   1.901   4.369   9.468  1.6185  1.2847  0.4869
 5069SOL     OW26665   0.894   3.253   6.222 -0.0189 -0.4185 -0.5144
 5069SOL    HW126666   0.974   3.211   6.191  1.0653  1.4876 -0.2786
 5069SOL    HW226667   0.939   3.331   6.253  0.1411  0.2474 -2.4545
 5070SOL     OW26668   4.603   0.492  15.995  0.1988  0.2056 -0.1485
 5070SOL    HW126669   4.558   0.534  15.921  1.0376  0.4294 -0.5362
 5070SOL    HW226670   4.563   0.406  16.001 -1.8818  1.1465 -0.5553
 5071SOL     OW26671   0.584   3.146  12.086 -0.5683 -0.3432  0.0604
 5071SOL    HW126672   0.647   3.073  12.093 -2.7594 -2.2765 -0.3247
 5071SOL    HW226673   0.513   3.112  12.141 -0.1002  0.6760  1.3004
 5072SOL     OW26674   4.264   1.920   7.772  0.1858 -0.2896 -0.1090
 5072SOL    HW126675   4.356   1.943   7.782  0.7305 -1.5377 -2.1795
 5072SOL    HW226676   4.239   1.944   7.683 -2.5647  1.9134  1.2680
 5073SOL     OW26677   0.736   1.164  16.555 -0.1227  0.3625  0.5150
 5073SOL    HW126678   0.692   1.084  16.580 -1.3497  0.7007 -0.5556
 5073SOL    HW226679   0.810   1.131  16.504  0.4466  0.6599  1.1561
 5074SOL     OW26680   3.061   2.832   3.054  0.4163  0.6856 -0.3336
 5074SOL    HW126681   3.146   2.822   3.097  0.4426 -1.8732 -1.0484
 5074SOL    HW226682   3.078   2.895   2.984  2.6174  2.3996  1.7169
 5075SOL     OW26683   1.847   3.900   2.037 -0.9736 -0.0187 -0.2742
 5075SOL    HW126684   1.876   3.813   2.062  2.3529  1.5508  1.3825
 5075SOL    HW226685   1.798   3.874   1.959  0.3685 -1.0966 -0.7501
 5076SOL     OW26686   4.371   3.082   1.783  0.2424  0.4095  0.2084
 5076SOL    HW126687   4.431   3.009   1.768 -0.8299 -0.9164  2.3983
 5076SOL    HW226688   4.298   3.038   1.827  0.6355  0.4691  0.9083
 5077SOL     OW26689   4.264   3.713   0.600 -0.2398 -0.1897 -0.3805
 5077SOL    HW126690   4.221   3.691   0.683 -0.2747 -1.4649 -0.7402
 5077SOL    HW226691   4.281   3.621   0.581  0.2509  0.3269 -2.3945
 5078SOL     OW26692   1.403   0.972  13.356  0.0593  0.2783  0.2889
 5078SOL    HW126693   1.473   0.961  13.422  0.7154 -1.4074 -0.6820
 5078SOL    HW226694   1.334   0.991  13.420 -0.4740 -1.3820  0.1933
 5079SOL     OW26695   3.304   1.995   6.998 -0.3941 -0.1332  0.0169
 5079SOL    HW126696   3.221   1.948   7.003 -1.0719  1.0060 -0.7664
 5079SOL    HW226697   3.341   1.961   7.080 -1.7018 -0.2792  0.5345
 5080SOL     OW26698   3.189   0.397  17.295  0.3284 -0.2241 -0.4119
 5080SOL    HW126699   3.169   0.472  17.238  1.3908  0.0636 -0.4065
 5080SOL    HW226700   3.126   0.336  17.258  0.7853 -0.5364 -0.6733
 5081SOL     OW26701   2.363   0.733   0.488 -0.0990  0.1434 -0.4506
 5081SOL    HW126702   2.338   0.707   0.576  0.4624 -0.8205 -0.5830
 5081SOL    HW226703   2.350   0.828   0.489  0.5650  0.1303  5.3398
 5082SOL     OW26704   1.066   1.728  14.954 -0.1152  0.9355  0.1585
 5082SOL    HW126705   1.040   1.815  14.983 -1.0916  0.9698 -0.7991
 5082SOL    HW226706   0.990   1.672  14.971  0.2553  0.0702 -1.0817
 5083SOL     OW26707   4.433   1.850  15.696  0.5081 -0.3804 -0.0333
 5083SOL    HW126708   4.480   1.908  15.756 -0.9806  0.5967  0.1864
 5083SOL    HW226709   4.348   1.890  15.679  0.0569 -1.8405 -1.1722
 5084SOL     OW26710   1.792   4.586  15.822 -0.3216  0.4455 -0.6170
 5084SOL    HW126711   1.794   4.490  15.823  0.3318  0.4665  0.4801
 5084SOL    HW226712   1.747   4.599  15.738  0.2969  0.6705 -0.9099
 5085SOL     OW26713   2.202   0.034   2.572 -0.3306  0.0214  0.9123
 5085SOL    HW126714   2.160   0.120   2.565  0.3561  0.1395 -1.6399
 5085SOL    HW226715   2.160   4.703   2.504  2.7739  0.1342 -1.0560
 5086SOL     OW26716   1.082   3.029  12.667  0.1232  0.1205  0.3445
 5086SOL    HW126717   1.132   2.948  12.681 -0.1755 -0.3268 -1.1239
 5086SOL    HW226718   1.157   3.084  12.643 -1.0276  1.4162 -0.2533
 5087SOL     OW26719   2.940   3.469   8.874 -0.1314  0.3106 -0.1441
 5087SOL    HW126720   2.919   3.562   8.873 -0.8639  0.1659  3.7572
 5087SOL    HW226721   2.917   3.450   8.783 -0.2039  1.7751 -0.4319
 5088SOL     OW26722   4.711   2.411  12.860  0.2137 -0.3552  0.1670
 5088SOL    HW126723   0.065   2.392  12.803 -0.6539 -0.1278 -1.0440
 5088SOL    HW226724   4.691   2.496  12.821  2.2357  0.2446  0.4572
 5089SOL     OW26725   1.734   1.592   6.948 -0.2079 -0.1587 -0.0657
 5089SOL    HW126726   1.647   1.562   6.972  1.1515 -1.3414  3.4208
 5089SOL    HW226727   1.726   1.684   6.924 -2.2308 -0.0029  1.2069
 5090SOL     OW26728   0.082   2.699   5.605  0.2365  0.3540 -0.6250
 5090SOL    HW126729   4.708   2.688   5.617  0.1126 -0.9186 -2.7654
 5090SOL    HW226730   0.074   2.767   5.538  0.6069  1.9661  0.9519
 5091SOL     OW26731   4.111   3.366  16.105  0.0254 -0.1866 -0.0398
 5091SOL    HW126732   4.045   3.421  16.148  1.5291  0.3305  1.6149
 5091SOL    HW226733   4.125   3.406  16.020  0.9280  0.8252  0.5862
 5092SOL     OW26734   2.345   0.442  17.632  0.2884 -0.5645 -0.6732
 5092SOL    HW126735   2.287   0.432  17.557  1.2414  0.4394 -1.5518
 5092SOL    HW226736   2.353   0.348  17.651  1.1110 -0.2548  0.5338
 5093SOL     OW26737   2.604   4.448   4.957 -0.3528  0.1947 -0.0494
 5093SOL    HW126738   2.614   4.497   5.039  0.8196 -2.4551  1.3690
 5093SOL    HW226739   2.689   4.411   4.932 -1.7965 -0.2643 -4.2761
 5094SOL     OW26740   4.428   4.507   7.968 -0.2076  0.6030 -0.0425
 5094SOL    HW126741   4.402   4.596   7.941 -0.8520  0.6674  0.7767
 5094SOL    HW226742   4.499   4.487   7.907 -0.6404 -0.7051 -0.1013
 5095SOL     OW26743   1.725   4.337  17.056 -0.1680 -0.1288 -0.1216
 5095SOL    HW126744   1.674   4.398  17.003  2.4736 -0.2582 -2.8418
 5095SOL    HW226745   1.783   4.300  16.989  0.5864  0.9941 -0.0817
 5096SOL     OW26746   3.249   2.873   6.178 -0.6249  0.9385  0.3518
 5096SOL    HW126747   3.237   2.781   6.154  0.0928  0.3781  2.1382
 5096SOL    HW226748   3.272   2.860   6.270 -0.6504  1.6721  0.4621
 5097SOL     OW26749   0.993   2.459   7.992  0.6049 -0.5187  0.1066
 5097SOL    HW126750   1.023   2.547   8.015 -0.9022  0.2274 -0.8224
 5097SOL    HW226751   0.948   2.475   7.910 -1.1215  0.7908  1.3099
 5098SOL     OW26752   2.954   4.637   8.592  0.2652  0.2443 -0.3707
 5098SOL    HW126753   2.912   4.624   8.507  1.3597 -2.1099 -0.5645
 5098SOL    HW226754   2.995   4.551   8.604  1.6319  0.5047 -3.2058
 5099SOL     OW26755   0.397   2.416   6.750 -0.2380  0.4717  0.3134
 5099SOL    HW126756   0.371   2.494   6.701 -0.6232  1.5725  2.2951
 5099SOL    HW226757   0.486   2.438   6.778  0.2122 -0.6890 -0.1598
 5100SOL     OW26758   3.308   1.301   2.325 -0.0513 -0.0993  0.7543
 5100SOL    HW126759   3.403   1.303   2.333 -0.0813 -1.5832  1.4283
 5100SOL    HW226760   3.278   1.279   2.413 -2.5485  0.1040 -0.0624
 5101SOL     OW26761   1.083   4.293   6.823 -0.2173  0.2275 -0.6044
 5101SOL    HW126762   1.015   4.360   6.829 -1.2664 -0.9999  1.2744
 5101SOL    HW226763   1.063   4.257   6.910 -0.9137  1.0772 -0.4105
 5102SOL     OW26764   1.696   0.701   2.831  0.6283  0.3298  0.1052
 5102SOL    HW126765   1.674   0.783   2.876 -0.2504  0.3080 -0.2931
 5102SOL    HW226766   1.677   0.720   2.739  0.7174 -1.4434 -0.2887
 5103SOL     OW26767   3.388   1.316   2.789 -0.7058 -0.8362  0.2062
 5103SOL    HW126768   3.385   1.380   2.718  2.2099 -2.4360 -1.3349
 5103SOL    HW226769   3.438   1.361   2.856  0.2312 -0.1117 -0.9928
 5104SOL     OW26770   0.176   3.701  11.951  0.2123 -0.0250  0.5671
 5104SOL    HW126771   0.179   3.797  11.949 -1.0627 -0.0331 -1.6598
 5104SOL    HW226772   0.248   3.676  11.894  1.8762  1.9297  1.7947
 5105SOL     OW26773   4.153   3.732   3.442 -0.0695  0.6635 -0.1462
 5105SOL    HW126774   4.130   3.746   3.350 -0.0795  3.4024  0.2997
 5105SOL    HW226775   4.070   3.694   3.470  0.9784 -1.3507  0.2362
 5106SOL     OW26776   0.805   2.128  13.394  0.4940 -0.2384 -0.4661
 5106SOL    HW126777   0.721   2.095  13.362  0.6672 -0.0983 -1.0622
 5106SOL    HW226778   0.799   2.129  13.490 -0.1224  0.4849 -0.5169
 5107SOL     OW26779   3.882   2.547  12.977  0.6720 -0.1483 -0.3322
 5107SOL    HW126780   3.906   2.619  13.036  4.6902 -1.1317 -0.7591
 5107SOL    HW226781   3.965   2.501  12.964  0.1356 -1.9625  2.4755
 5108SOL     OW26782   3.078   3.912   7.242 -0.5375 -0.1948 -0.2899
 5108SOL    HW126783   3.142   3.841   7.247 -1.1227 -0.9433 -3.5702
 5108SOL    HW226784   3.136   3.987   7.238 -0.1170 -0.5545 -0.8795
 5109SOL     OW26785   4.391   2.262   7.507  0.2364 -0.3276  0.1533
 5109SOL    HW126786   4.423   2.333   7.562  2.1830 -0.9905 -0.1149
 5109SOL    HW226787   4.472   2.212   7.514  0.1390 -0.4490  0.3986
 5110SOL     OW26788   0.966   0.309   3.259 -0.7858  0.0593 -0.4837
 5110SOL    HW126789   1.047   0.273   3.295 -0.8529  1.0128  0.6140
 5110SOL    HW226790   0.928   0.235   3.211  0.2909  0.8871 -2.6251
 5111SOL     OW26791   4.366   4.097   0.157  0.6579  0.3293 -0.4195
 5111SOL    HW126792   4.354   4.006   0.130 -0.0939  0.4557 -0.4929
 5111SOL    HW226793   4.283   4.136   0.129  0.3753  1.0050  1.4111
 5112SOL     OW26794   3.460   2.710  13.684  0.2924 -0.2764  0.2771
 5112SOL    HW126795   3.483   2.763  13.760  0.3122  1.6954 -1.0930
 5112SOL    HW226796   3.425   2.630  13.722 -0.7882  1.3199  2.6220
 5113SOL     OW26797   2.607   3.415   7.949 -0.0604 -0.0719 -0.3479
 5113SOL    HW126798   2.551   3.409   8.026 -0.7394  1.7472 -0.7041
 5113SOL    HW226799   2.542   3.385   7.886  1.5466  1.2228 -2.5886
 5114SOL     OW26800   4.606   0.151   4.182  0.1853  0.2136 -0.2370
 5114SOL    HW126801   4.533   0.090   4.195  0.3255  0.2479  0.7437
 5114SOL    HW226802   4.647   0.125   4.099  1.5040 -0.0250  0.4862
 5115SOL     OW26803   1.788   4.335   2.690 -0.0147 -0.3332 -0.0865
 5115SOL    HW126804   1.830   4.333   2.604 -0.2862  1.2936 -0.2566
 5115SOL    HW226805   1.722   4.266   2.688 -0.3327 -0.1351  3.4462
 5116SOL     OW26806   2.882   1.108   6.825  0.4521 -0.0639  0.4389
 5116SOL    HW126807   2.859   1.035   6.883 -0.0671 -0.2473  0.0054
 5116SOL    HW226808   2.794   1.139   6.804  0.1805 -0.1499  1.4416
 5117SOL     OW26809   0.502   0.427   3.725 -0.3126  0.0311 -0.0703
 5117SOL    HW126810   0.526   0.351   3.778 -0.3007  0.0114 -0.1033
 5117SOL    HW226811   0.584   0.476   3.735  0.2365 -0.8302 -0.2811
 5118SOL     OW26812   0.180   3.180   7.409  0.5334  0.3688  0.0508
 5118SOL    HW126813   0.107   3.172   7.470  1.8655  1.4452  1.7635
 5118SOL    HW226814   0.214   3.269   7.416 -0.0113  0.6712 -1.0864
 5119SOL     OW26815   0.791   4.503  13.331  0.4228 -0.1809  0.5838
 5119SOL    HW126816   0.712   4.449  13.335  1.0113 -0.9455  1.9560
 5119SOL    HW226817   0.758   4.577  13.280 -3.1803 -1.7726  0.6078
 5120SOL     OW26818   1.246   0.622   2.158  0.1828  0.4599 -0.1877
 5120SOL    HW126819   1.203   0.559   2.100  0.8371 -0.4867  0.3555
 5120SOL    HW226820   1.186   0.696   2.168  0.5153  0.8740 -1.2595
 5121SOL     OW26821   3.740   4.518   3.783 -0.3050  0.4286 -0.0558
 5121SOL    HW126822   3.660   4.501   3.832 -0.1126 -1.6934 -0.4953
 5121SOL    HW226823   3.692   4.524   3.700 -1.0537 -0.6780  0.2979
 5122SOL     OW26824   4.478   3.924  12.816  0.1854 -0.0692 -0.0087
 5122SOL    HW126825   4.399   3.875  12.839  0.2774  0.1097  0.6781
 5122SOL    HW226826   4.512   3.864  12.749 -2.5691 -0.7090 -0.8254
 5123SOL     OW26827   1.675   2.554   2.707  0.4901 -0.1273 -0.5180
 5123SOL    HW126828   1.746   2.535   2.768  0.1189 -1.7458 -0.5846
 5123SOL    HW226829   1.722   2.609   2.644 -0.7057  1.0809 -0.3515
 5124SOL     OW26830   0.756   2.067   7.791  0.3351 -0.4543  0.1287
 5124SOL    HW126831   0.734   2.131   7.858 -0.8944 -0.7413  0.0020
 5124SOL    HW226832   0.677   2.014   7.800 -0.3284  0.4528 -0.3149
 5125SOL     OW26833   2.506   3.651   8.309  0.6302  0.3436  0.2743
 5125SOL    HW126834   2.492   3.594   8.385 -0.1686  0.8848  0.5410
 5125SOL    HW226835   2.439   3.719   8.319 -0.8299 -1.3745  2.3742
 5126SOL     OW26836   3.763   1.035   6.837  0.3969 -0.0825 -0.1473
 5126SOL    HW126837   3.765   1.017   6.931  0.3177 -0.4271 -0.2108
 5126SOL    HW226838   3.856   1.027   6.816  0.5707  2.4677 -0.3970
 5127SOL     OW26839   4.226   2.584   2.108 -0.1999 -0.1903  0.1532
 5127SOL    HW126840   4.259   2.670   2.135 -0.4096  0.4847 -1.7693
 5127SOL    HW226841   4.259   2.523   2.174  0.3624  0.2830  0.3078
 5128SOL     OW26842   3.731   2.595  12.357  0.3311  0.0416 -0.0625
 5128SOL    HW126843   3.792   2.523  12.347  0.1709 -0.0021 -0.7136
 5128SOL    HW226844   3.770   2.648  12.426 -0.9132  1.3364 -0.3567
 5129SOL     OW26845   2.363   3.145   7.167 -1.1075  0.3921 -0.1316
 5129SOL    HW126846   2.455   3.122   7.151 -1.1656 -0.0264  0.1506
 5129SOL    HW226847   2.343   3.065   7.215 -0.9068  0.5311  0.1867
 5130SOL     OW26848   3.208   1.713   3.938  0.1975  0.3309 -0.2544
 5130SOL    HW126849   3.161   1.630   3.932 -0.0339  0.4852 -0.5668
 5130SOL    HW226850   3.197   1.749   3.850  0.0855 -0.7483 -0.6894
 5131SOL     OW26851   2.394   3.102   8.195  0.2820 -0.5337 -0.4165
 5131SOL    HW126852   2.404   3.196   8.182  0.2960 -0.4778  0.0098
 5131SOL    HW226853   2.382   3.072   8.105 -1.5404 -1.3022  0.0979
 5132SOL     OW26854   2.441   0.792  12.564  0.2327  0.0683  0.6243
 5132SOL    HW126855   2.441   0.845  12.643 -0.5361  2.8022 -1.2008
 5132SOL    HW226856   2.536   0.781  12.559  0.5891  2.8989  1.0878
 5133SOL     OW26857   2.491   1.701  17.297 -0.0250 -0.2007 -0.0344
 5133SOL    HW126858   2.453   1.686  17.384  1.5601 -0.7182  0.5657
 5133SOL    HW226859   2.552   1.628  17.298  0.3975  0.0940 -2.8914
 5134SOL     OW26860   1.319   3.585   8.810  0.2899  0.2469 -0.3404
 5134SOL    HW126861   1.366   3.647   8.865  0.8952  0.3494 -0.9812
 5134SOL    HW226862   1.350   3.624   8.729  0.9547  2.8298  1.1411
 5135SOL     OW26863   2.995   4.006   5.083 -0.4142  0.1761  0.1209
 5135SOL    HW126864   3.028   3.933   5.030  2.4451  0.6388  1.2782
 5135SOL    HW226865   3.075   4.051   5.110 -0.9247 -0.0473  2.0099
 5136SOL     OW26866   3.324   4.466  10.702 -0.2568  0.4469 -0.1696
 5136SOL    HW126867   3.369   4.544  10.734 -0.4424 -0.5795  2.5959
 5136SOL    HW226868   3.304   4.436  10.791  1.8396  3.9799  1.5124
 5137SOL     OW26869   4.505   2.711   8.136  0.3364  0.0520  0.3000
 5137SOL    HW126870   4.443   2.666   8.080  0.2819  0.6175 -0.0868
 5137SOL    HW226871   4.464   2.713   8.223  0.9054 -0.3522  0.5840
 5138SOL     OW26872   3.064   1.086   7.679  0.2236 -0.3217  0.1329
 5138SOL    HW126873   3.058   1.102   7.773 -2.0619 -1.2912  0.1376
 5138SOL    HW226874   3.117   1.006   7.677  0.4313 -0.2579  2.4356
 5139SOL     OW26875   4.489   4.654   7.691 -0.5594  0.1113 -0.3368
 5139SOL    HW126876   4.461   4.719   7.627  0.3771 -0.1686 -1.0437
 5139SOL    HW226877   4.580   4.646   7.661 -1.6205 -0.2714 -3.4948
 5140SOL     OW26878   0.757   2.533   7.388  0.0245 -0.3989  0.3222
 5140SOL    HW126879   0.834   2.586   7.407  0.1319 -0.8378  1.1081
 5140SOL    HW226880   0.683   2.592   7.404  0.5777  0.0291  1.3277
 5141SOL     OW26881   1.958   0.730   9.105  0.1547 -0.0515 -0.2291
 5141SOL    HW126882   1.954   0.786   9.183 -2.2054  0.1801 -0.5053
 5141SOL    HW226883   2.003   0.651   9.136  0.1646 -0.4013 -1.1443
 5142SOL     OW26884   3.522   2.840   3.225 -0.3430 -0.1429  0.4911
 5142SOL    HW126885   3.505   2.755   3.184  0.6826  0.5807 -1.4194
 5142SOL    HW226886   3.616   2.857   3.214 -0.4970  0.3357 -0.0738
 5143SOL     OW26887   2.630   0.898   5.692 -0.1563 -0.2671  0.0312
 5143SOL    HW126888   2.565   0.828   5.697 -1.9047  1.2318 -1.5670
 5143SOL    HW226889   2.573   0.971   5.668 -0.4709 -0.9103 -1.1512
 5144SOL     OW26890   3.786   1.443   4.958 -0.2493 -0.0918 -0.0276
 5144SOL    HW126891   3.749   1.483   5.037  1.1700  0.7860  0.1906
 5144SOL    HW226892   3.718   1.413   4.897  1.5257  0.8458 -2.4634
 5145SOL     OW26893   3.336   0.688  15.389 -0.1517  0.1603  0.2190
 5145SOL    HW126894   3.282   0.708  15.314 -1.1576  2.8175  1.6580
 5145SOL    HW226895   3.374   0.604  15.362 -1.1740 -0.7262  1.5227
 5146SOL     OW26896   4.510   3.850   1.832  0.2631 -0.6849 -0.1345
 5146SOL    HW126897   4.478   3.843   1.743 -3.2096  1.6244  0.9456
 5146SOL    HW226898   4.544   3.762   1.844  1.0096 -0.4753 -0.7194
 5147SOL     OW26899   0.406   2.375  11.784  0.4352 -0.4361 -0.7353
 5147SOL    HW126900   0.434   2.453  11.736 -0.6803  0.9838  0.9604
 5147SOL    HW226901   0.482   2.369  11.842 -0.3289  1.5498  0.4587
 5148SOL     OW26902   0.667   1.337   4.829  0.4147  0.0328 -0.3057
 5148SOL    HW126903   0.639   1.409   4.773  0.2541  0.5774  0.4839
 5148SOL    HW226904   0.709   1.285   4.760  2.1523  1.1174 -0.0769
 5149SOL     OW26905   2.259   1.605   3.277 -0.3171  0.3690  0.4647
 5149SOL    HW126906   2.285   1.623   3.368 -1.2112  2.1276  0.3652
 5149SOL    HW226907   2.166   1.630   3.280 -0.8829 -1.7885  1.2468
 5150SOL     OW26908   1.147   4.637   7.311 -0.0525  0.0650  0.3193
 5150SOL    HW126909   1.182   4.692   7.240  0.8851  0.8774  1.4075
 5150SOL    HW226910   1.099   4.562   7.278  1.2799 -0.7208  0.1519
 5151SOL     OW26911   1.071   0.458   3.557  0.3234  0.2727 -0.4114
 5151SOL    HW126912   1.081   0.496   3.470 -0.0806  0.4126 -0.3992
 5151SOL    HW226913   1.066   0.526   3.625 -0.7113  0.7233 -0.9303
 5152SOL     OW26914   1.160   1.916   2.888  0.2741 -0.0396  0.3913
 5152SOL    HW126915   1.173   1.859   2.964 -0.4427  0.3647  0.8236
 5152SOL    HW226916   1.252   1.923   2.864 -0.1070 -1.1734 -1.3799
 5153SOL     OW26917   0.090   2.931   2.330 -0.0269  0.5379 -0.3906
 5153SOL    HW126918   0.116   2.873   2.259  2.5964 -1.4354  2.1832
 5153SOL    HW226919   0.166   2.989   2.338  1.6055 -1.9600  2.0959
 5154SOL     OW26920   4.345   4.047   2.564  0.9219 -0.2736  0.1030
 5154SOL    HW126921   4.433   4.080   2.547  1.3123 -2.0019 -1.2820
 5154SOL    HW226922   4.348   4.005   2.650  0.5316 -2.1699 -0.8208
 5155SOL     OW26923   0.325   1.630  14.432 -0.3463 -0.2903 -0.1163
 5155SOL    HW126924   0.330   1.667  14.343  2.5335 -0.4868 -0.0526
 5155SOL    HW226925   0.360   1.541  14.423  0.9368 -0.0200  2.0731
 5156SOL     OW26926   3.881   0.491  13.296  0.3587  0.3670  0.1258
 5156SOL    HW126927   3.786   0.493  13.282  0.3606 -1.2332 -0.1517
 5156SOL    HW226928   3.898   0.536  13.213  0.4111  0.2377  0.0669
 5157SOL     OW26929   0.022   3.044  12.205 -0.5059  0.1632  0.3434
 5157SOL    HW126930   0.090   3.012  12.145  1.3490  1.2575  1.8878
 5157SOL    HW226931   0.055   3.131  12.225 -1.7040  0.5818  0.5011
 5158SOL     OW26932   4.650   4.395   3.784  0.1280  0.3982 -0.1298
 5158SOL    HW126933   4.586   4.450   3.830  0.1464 -1.4025  2.0395
 5158SOL    HW226934   4.660   4.320   3.842  0.2710  0.4479 -0.0891
 5159SOL     OW26935   2.227   4.443   0.896  0.2295 -0.4461 -0.1392
 5159SOL    HW126936   2.179   4.438   0.813  0.4944  0.4487 -0.3528
 5159SOL    HW226937   2.239   4.352   0.920  2.1530 -0.1241  0.0712
 5160SOL     OW26938   2.873   3.510   5.505  0.4213 -0.0928  0.0137
 5160SOL    HW126939   2.862   3.597   5.467 -0.8988 -0.4584 -0.4187
 5160SOL    HW226940   2.824   3.514   5.587  0.2601  0.0810 -0.0910
 5161SOL     OW26941   3.609   0.763   7.272  0.4683 -0.6395 -0.1466
 5161SOL    HW126942   3.520   0.729   7.260  0.3901  0.0087 -1.4562
 5161SOL    HW226943   3.649   0.690   7.319 -0.2816  0.8434  2.7762
 5162SOL     OW26944   4.439   2.580   7.278  0.0777 -0.2042  0.3103
 5162SOL    HW126945   4.512   2.533   7.237  2.1551 -0.3486  4.0680
 5162SOL    HW226946   4.476   2.660   7.316 -1.2135  0.3714  0.3441
 5163SOL     OW26947   3.474   1.350   1.537 -0.6031 -0.4269  0.4216
 5163SOL    HW126948   3.449   1.330   1.447 -1.9965  3.8397 -0.1542
 5163SOL    HW226949   3.551   1.294   1.542  1.6869  2.8132  2.2644
 5164SOL     OW26950   1.730   2.916   2.635 -0.2654  0.2370  0.3405
 5164SOL    HW126951   1.824   2.896   2.636 -0.3875 -0.2843  1.2937
 5164SOL    HW226952   1.692   2.842   2.589 -0.9817  0.6278  0.3150
 5165SOL     OW26953   2.684   4.481  16.240 -0.2618  0.3634 -0.4198
 5165SOL    HW126954   2.655   4.480  16.331 -0.0771  1.4159 -0.3435
 5165SOL    HW226955   2.606   4.432  16.212 -0.6641  1.1365 -0.6637
 5166SOL     OW26956   0.078   1.728   7.364 -0.1111 -0.2245 -0.1303
 5166SOL    HW126957   0.148   1.708   7.302 -0.6064 -0.1597 -0.7092
 5166SOL    HW226958   0.115   1.752   7.449  2.1305  1.7084 -1.6709
 5167SOL     OW26959   2.392   0.265   7.756  0.4357  0.0768  1.1173
 5167SOL    HW126960   2.374   0.328   7.825  0.5715 -0.3350  1.5273
 5167SOL    HW226961   2.327   0.267   7.686  1.3229 -1.9872  0.2213
 5168SOL     OW26962   1.818   0.775   4.373 -0.2721  0.2221  0.2848
 5168SOL    HW126963   1.792   0.852   4.323 -1.4759 -0.3681 -0.0179
 5168SOL    HW226964   1.804   0.790   4.467 -1.1916 -0.4248  0.2624
 5169SOL     OW26965   0.877   1.205   3.257  0.4953 -0.5781  0.1767
 5169SOL    HW126966   0.897   1.188   3.165  1.4168  0.5844  0.1596
 5169SOL    HW226967   0.811   1.137   3.264  1.7359 -1.7301  0.5933
 5170SOL     OW26968   3.134   3.035  15.579  0.5723  0.1040 -0.0369
 5170SOL    HW126969   3.168   3.021  15.668 -0.1608  0.3430  0.2811
 5170SOL    HW226970   3.039   3.041  15.569  0.5122 -0.1255  0.4063
 5171SOL     OW26971   3.748   3.248   5.513 -0.5685 -0.3607 -0.2521
 5171SOL    HW126972   3.663   3.274   5.550 -0.4278  0.3301 -0.4215
 5171SOL    HW226973   3.728   3.155   5.506 -1.3345 -0.1519 -0.8765
 5172SOL     OW26974   4.636   0.988   6.621 -0.9913 -0.0105  0.1098
 5172SOL    HW126975   4.613   0.957   6.533 -1.8993  2.5642 -0.5687
 5172SOL    HW226976   4.588   0.920   6.668  0.3685 -2.3683 -1.9578
 5173SOL     OW26977   2.359   1.313   5.505  0.7910  0.8163 -0.1527
 5173SOL    HW126978   2.424   1.383   5.494 -0.4762  1.9124 -0.5314
 5173SOL    HW226979   2.283   1.362   5.535 -1.7383 -2.9868 -0.4186
 5174SOL     OW26980   1.951   3.680   9.142 -0.1844  0.3522  0.0375
 5174SOL    HW126981   1.973   3.591   9.113  2.0879  0.9330 -0.0836
 5174SOL    HW226982   1.887   3.704   9.075 -3.1456  2.5541  3.6309
 5175SOL     OW26983   2.831   2.176  11.283  0.0054 -0.9847 -0.2059
 5175SOL    HW126984   2.897   2.121  11.325  0.2122  1.8757  3.2806
 5175SOL    HW226985   2.759   2.178  11.347  3.0401 -0.2427  3.1430
 5176SOL     OW26986   3.900   1.199  17.373  0.6828  0.0400 -0.5197
 5176SOL    HW126987   3.866   1.137  17.309  2.0559 -1.4835  0.2151
 5176SOL    HW226988   3.994   1.179  17.376  0.8730  1.0540  0.2084
 5177SOL     OW26989   2.737   2.691   5.005 -0.0377 -0.1144 -0.4080
 5177SOL    HW126990   2.813   2.749   5.004 -0.8523  0.9787  0.5543
 5177SOL    HW226991   2.771   2.604   4.988 -0.3841 -0.5610  1.1805
 5178SOL     OW26992   0.361   1.578  16.600 -0.2396 -0.0617 -0.0702
 5178SOL    HW126993   0.388   1.487  16.615 -1.1300 -0.1759  0.8607
 5178SOL    HW226994   0.426   1.625  16.652 -0.1317  0.8323 -1.0251
 5179SOL     OW26995   2.951   0.464  12.947 -0.7347  0.8356 -0.8582
 5179SOL    HW126996   2.987   0.467  12.858  2.8782  0.2498  0.5791
 5179SOL    HW226997   2.980   0.383  12.988 -1.4560  0.9528 -0.1074
 5180SOL     OW26998   0.320   2.739   1.446 -0.2224  0.5286 -0.3285
 5180SOL    HW126999   0.296   2.678   1.516  0.6686  1.1527  0.5100
 5180SOL    HW227000   0.340   2.675   1.378  1.0995  1.4477 -0.8033
 5181SOL     OW27001   3.597   0.383   6.578 -0.1904  0.7052 -0.2131
 5181SOL    HW127002   3.654   0.321   6.623  0.2287  1.8280  0.8043
 5181SOL    HW227003   3.513   0.338   6.585  0.0185  0.5417  1.2946
 5182SOL     OW27004   1.874   0.363   6.294 -0.5345 -0.4098 -0.1003
 5182SOL    HW127005   1.876   0.351   6.199 -1.4570  0.5179 -0.2357
 5182SOL    HW227006   1.793   0.413   6.305  0.3232  0.5477  1.9151
 5183SOL     OW27007   2.516   0.091   7.014  0.4301  0.1972 -0.0219
 5183SOL    HW127008   2.491   0.002   7.039  0.2733 -0.2306 -1.7101
 5183SOL    HW227009   2.432   0.116   6.975  0.6301  0.2139 -0.4409
 5184SOL     OW27010   3.930   2.588   2.460 -0.0256 -0.9262  0.6619
 5184SOL    HW127011   4.005   2.559   2.512  1.2430 -0.7697 -1.0839
 5184SOL    HW227012   3.901   2.508   2.417  0.5339 -0.2215 -1.0236
 5185SOL     OW27013   2.131   1.643   8.466  0.1239 -0.2803 -0.9617
 5185SOL    HW127014   2.197   1.706   8.435 -0.2871  0.4244 -0.4070
 5185SOL    HW227015   2.095   1.612   8.383  0.2720 -0.2473 -1.0390
 5186SOL     OW27016   1.783   1.882   6.949 -0.4801 -0.2430 -0.3885
 5186SOL    HW127017   1.748   1.874   7.038 -0.1864  0.9642 -0.1713
 5186SOL    HW227018   1.850   1.947   6.970 -0.2494  0.1039 -2.2028
 5187SOL     OW27019   0.279   2.619   1.190 -0.3421  0.1231 -0.3949
 5187SOL    HW127020   0.302   2.570   1.112  1.0339  1.2408 -0.6891
 5187SOL    HW227021   0.282   2.547   1.254 -2.2746 -0.6863 -1.2086
 5188SOL     OW27022   2.093   2.141   6.842 -0.5286  0.3801 -0.5196
 5188SOL    HW127023   2.032   2.127   6.915  1.8240 -2.7261  0.8443
 5188SOL    HW227024   2.063   2.226   6.809  1.6189  2.0746  1.9513
 5189SOL     OW27025   1.949   2.782  14.065 -0.0586 -0.5378  0.1223
 5189SOL    HW127026   1.870   2.784  14.010 -1.2986  0.3531  1.9718
 5189SOL    HW227027   2.003   2.853  14.030 -0.0996 -1.3203 -1.5585
 5190SOL     OW27028   3.242   4.399   7.935 -0.5115 -0.5626 -0.4152
 5190SOL    HW127029   3.315   4.400   7.997 -1.0596 -2.3515  0.2602
 5190SOL    HW227030   3.211   4.487   7.959  0.5848  0.1197 -1.5123
 5191SOL     OW27031   3.702   1.154   9.691  0.0953  0.6525  0.1736
 5191SOL    HW127032   3.694   1.196   9.777 -1.7534  0.8075 -0.0840
 5191SOL    HW227033   3.647   1.078   9.711  0.9302  0.3465  1.3206
 5192SOL     OW27034   2.083   1.966   5.917 -0.0924 -0.0906  0.4036
 5192SOL    HW127035   2.129   1.995   5.839 -0.9775  2.1437  0.7055
 5192SOL    HW227036   2.146   1.975   5.988  1.2304 -1.4142 -0.5943
 5193SOL     OW27037   2.566   3.787  17.012  0.1807 -0.7820  0.3866
 5193SOL    HW127038   2.565   3.730  17.089 -0.2290  1.6631  2.1969
 5193SOL    HW227039   2.659   3.802  17.023 -0.1590 -0.6063  3.0264
 5194SOL     OW27040   1.068   3.996  12.515  0.6982 -0.4123 -0.0073
 5194SOL    HW127041   1.024   4.042  12.444  0.6862 -0.8738 -0.3010
 5194SOL    HW227042   1.005   4.013  12.586  1.6644 -0.7044  0.9224
 5195SOL     OW27043   4.536   2.391   8.632 -0.1221 -0.6510 -0.2702
 5195SOL    HW127044   4.471   2.380   8.701 -0.4511  1.1406 -0.2781
 5195SOL    HW227045   4.553   2.486   8.630  0.8635 -0.7658  2.2942
 5196SOL     OW27046   2.307   4.643   5.870  0.0371  0.6771  0.2429
 5196SOL    HW127047   2.301   4.557   5.912  1.5574 -0.8453 -2.5837
 5196SOL    HW227048   2.379   4.627   5.808  0.0053 -1.7432  0.8430
 5197SOL     OW27049   1.614   0.394   8.117  0.1486  0.5024  0.2413
 5197SOL    HW127050   1.530   0.439   8.115 -1.0700 -1.6818  1.4841
 5197SOL    HW227051   1.652   0.419   8.201  0.8285  3.3747 -0.9481
 5198SOL     OW27052   4.196   3.693  11.089  0.9738 -0.0961 -0.0544
 5198SOL    HW127053   4.291   3.688  11.094  1.1016  1.2312 -1.0922
 5198SOL    HW227054   4.162   3.715  11.176 -0.3298  0.0876 -0.6069
 5199SOL     OW27055   1.819   4.675   6.625 -0.0157  0.0597  0.7544
 5199SOL    HW127056   1.793   4.587   6.653  0.6510 -0.1643  0.6602
 5199SOL    HW227057   1.762   4.675   6.547 -0.3216  1.4230  0.9811
 5200SOL     OW27058   1.702   1.642  16.599 -0.3462 -0.4289 -0.7088
 5200SOL    HW127059   1.676   1.662  16.689 -0.6312 -0.7702 -0.7136
 5200SOL    HW227060   1.778   1.699  16.586 -0.1482 -0.0195  2.3463
 5201SOL     OW27061   2.166   3.689   5.410 -0.1758  0.3128 -0.3056
 5201SOL    HW127062   2.182   3.633   5.334 -3.4302 -1.4496  0.3569
 5201SOL    HW227063   2.192   3.633   5.484  1.4782  0.0162 -1.0977
 5202SOL     OW27064   0.701   4.186   6.391 -0.2559  1.1150  0.0482
 5202SOL    HW127065   0.685   4.201   6.484  1.3380 -0.5943  0.6002
 5202SOL    HW227066   0.790   4.219   6.373  0.6582 -1.7073 -0.6566
 5203SOL     OW27067   2.859   3.785  16.647 -0.0812 -0.4266 -1.0982
 5203SOL    HW127068   2.951   3.761  16.657  0.1376  0.9423  0.2395
 5203SOL    HW227069   2.850   3.787  16.552  0.2640  1.9758 -1.0838
 5204SOL     OW27070   3.888   0.292  11.368  0.2293 -0.2630 -0.7059
 5204SOL    HW127071   3.823   0.348  11.327  1.2810  0.9470 -0.7080
 5204SOL    HW227072   3.960   0.350  11.394  0.8206 -1.0070 -0.6632
 5205SOL     OW27073   1.011   2.718  15.437 -0.2522 -0.0402  0.5720
 5205SOL    HW127074   0.991   2.745  15.527 -4.3503  0.2183 -0.4536
 5205SOL    HW227075   0.994   2.624  15.435  1.3539 -0.2795 -2.1423
 5206SOL     OW27076   2.532   3.137   2.850  0.4061 -0.0823 -0.3116
 5206SOL    HW127077   2.586   3.059   2.862  2.6265  1.6062  0.5214
 5206SOL    HW227078   2.476   3.100   2.781  2.6102  0.1712 -2.2244
 5207SOL     OW27079   0.183   4.287  10.001  0.2513 -0.2150 -0.0842
 5207SOL    HW127080   0.123   4.328   9.939  0.3281  0.4305  0.2636
 5207SOL    HW227081   0.232   4.235   9.938  0.5433  0.4977 -0.4471
 5208SOL     OW27082   0.521   0.480  17.402  0.0250 -0.2293 -0.1547
 5208SOL    HW127083   0.539   0.402  17.455  0.2126 -0.8703 -1.1578
 5208SOL    HW227084   0.499   0.537  17.475  1.6696 -1.0109  0.9540
 5209SOL     OW27085   4.134   2.082   7.568  0.3318 -0.3450 -0.8167
 5209SOL    HW127086   4.198   2.128   7.513 -0.7492 -0.1395 -1.9137
 5209SOL    HW227087   4.072   2.054   7.500 -0.2306 -1.9188  0.3567
 5210SOL     OW27088   3.078   0.508   0.895  0.5022 -0.3622  0.6027
 5210SOL    HW127089   3.131   0.481   0.820 -0.1074  2.1421 -0.7576
 5210SOL    HW227090   3.128   0.479   0.971  1.6159  1.3264  0.5319
 5211SOL     OW27091   3.800   4.373   6.374  0.2718 -0.9095  0.7508
 5211SOL    HW127092   3.728   4.347   6.431  1.0752 -0.9897  1.7187
 5211SOL    HW227093   3.863   4.302   6.383  1.1472 -0.3086 -0.6469
 5212SOL     OW27094   3.209   1.983  16.451  0.3918  0.4208  0.0211
 5212SOL    HW127095   3.133   2.036  16.474  1.3623  1.3814  1.0336
 5212SOL    HW227096   3.220   1.986  16.356 -0.6875 -1.4372 -0.1491
 5213SOL     OW27097   3.323   3.834   2.838  0.5066 -0.0163 -0.0278
 5213SOL    HW127098   3.412   3.817   2.867  0.8098  1.8263  0.1297
 5213SOL    HW227099   3.310   3.797   2.750  1.2682  1.7972 -0.9076
 5214SOL     OW27100   0.281   1.511   7.014 -0.1007 -0.3402 -0.4083
 5214SOL    HW127101   0.202   1.475   6.973  0.1165 -0.2653 -0.8999
 5214SOL    HW227102   0.337   1.473   6.946  0.0198 -0.1059 -0.4417
 5215SOL     OW27103   3.750   2.236   4.100 -0.3112 -0.1624  0.0036
 5215SOL    HW127104   3.688   2.273   4.162 -0.1267  0.6901 -0.3268
 5215SOL    HW227105   3.703   2.157   4.073 -0.6974 -0.4369  1.4872
 5216SOL     OW27106   1.946   3.618  16.009  0.0911 -0.2012  0.2608
 5216SOL    HW127107   1.962   3.698  16.060 -0.3246  0.4371 -0.6049
 5216SOL    HW227108   1.981   3.544  16.058  1.3190  0.3931  0.2685
 5217SOL     OW27109   2.898   1.494  11.837  0.1574  0.3419  0.0857
 5217SOL    HW127110   2.912   1.584  11.808  1.0444 -1.1440 -4.0418
 5217SOL    HW227111   2.803   1.485  11.844  0.2742 -0.5480  0.5034
 5218SOL     OW27112   3.102   0.977   9.327 -0.1580  0.3025 -0.0137
 5218SOL    HW127113   3.142   1.061   9.347 -0.3799  0.9346 -2.1815
 5218SOL    HW227114   3.014   1.006   9.302  0.0693 -2.6204 -4.2848
 5219SOL     OW27115   3.021   3.145   2.942 -0.2781  0.0574 -0.0867
 5219SOL    HW127116   2.947   3.171   2.997 -0.5109 -1.6766  0.4137
 5219SOL    HW227117   2.969   3.104   2.873 -0.3758 -0.5044  0.3263
 5220SOL     OW27118   1.337   1.962  15.920 -0.2869 -0.2406  0.3337
 5220SOL    HW127119   1.392   2.026  15.966 -0.7187  0.3702  0.0057
 5220SOL    HW227120   1.396   1.931  15.852 -0.7667 -0.6321  0.0922
 5221SOL     OW27121   1.090   1.330   2.324  0.4053 -0.2293  0.3433
 5221SOL    HW127122   1.137   1.275   2.261  2.9906  1.2804  0.9567
 5221SOL    HW227123   1.135   1.414   2.318  4.2754 -2.3650 -0.8769
 5222SOL     OW27124   2.949   1.720   5.701 -0.0687 -0.3548  0.0392
 5222SOL    HW127125   2.976   1.747   5.613  1.8905 -0.7796  0.5091
 5222SOL    HW227126   2.862   1.684   5.688 -0.2461  0.7120 -1.7180
 5223SOL     OW27127   2.800   2.397   6.609  0.4990 -0.3082  0.0519
 5223SOL    HW127128   2.894   2.397   6.622  0.2912  3.2317  1.4206
 5223SOL    HW227129   2.769   2.418   6.697 -1.1664 -0.2310 -0.5525
 5224SOL     OW27130   2.594   0.355   8.655 -0.3425  0.1946  0.1833
 5224SOL    HW127131   2.635   0.283   8.702 -0.1301 -0.1337 -0.5105
 5224SOL    HW227132   2.656   0.372   8.584 -0.3760 -0.9576 -0.1214
 5225SOL     OW27133   0.304   2.482   8.093 -0.1290  0.2829 -0.3605
 5225SOL    HW127134   0.237   2.546   8.072 -0.2861 -0.1866 -1.3393
 5225SOL    HW227135   0.331   2.451   8.006  0.8195  1.2077 -0.3969
 5226SOL     OW27136   2.113   3.734   8.657  0.2686  0.7412 -0.4131
 5226SOL    HW127137   2.034   3.695   8.619  0.1990 -0.0834  0.5765
 5226SOL    HW227138   2.088   3.826   8.662 -1.8394  0.2322 -1.3319
 5227SOL     OW27139   3.864   0.263   8.859 -0.3261  0.3069 -0.4435
 5227SOL    HW127140   3.874   0.343   8.911 -1.0837  0.9662 -1.3081
 5227SOL    HW227141   3.948   0.222   8.880  0.0710  1.8673  0.9266
 5228SOL     OW27142   3.152   4.096   2.343  0.1601 -0.1781 -0.2383
 5228SOL    HW127143   3.143   4.180   2.390 -1.2635 -1.0738  1.0919
 5228SOL    HW227144   3.124   4.041   2.416 -0.2227  0.6044  0.2151
 5229SOL     OW27145   0.501   4.641  14.184  0.1130  0.4318 -0.7534
 5229SOL    HW127146   0.472   4.595  14.105 -0.1860 -0.9326  0.1511
 5229SOL    HW227147   0.468   4.574  14.244  0.3167 -0.2145 -1.3557
 5230SOL     OW27148   2.496   0.395   4.555 -0.1453 -0.7573 -0.1931
 5230SOL    HW127149   2.453   0.479   4.535 -1.8008 -1.1765  1.6175
 5230SOL    HW227150   2.493   0.352   4.470  0.6505  0.9405 -1.0995
 5231SOL     OW27151   3.796   0.318   3.401 -0.0243 -0.3416  0.2137
 5231SOL    HW127152   3.735   0.317   3.328 -1.5698  0.7034  1.5006
 5231SOL    HW227153   3.877   0.343   3.355 -0.9786  0.0082 -1.2712
 5232SOL     OW27154   1.957   1.872   4.615  0.0915  0.4770  0.4411
 5232SOL    HW127155   1.895   1.828   4.556  1.3973  1.5569 -1.7263
 5232SOL    HW227156   1.899   1.944   4.639 -0.5022 -0.9751  3.4231
 5233SOL     OW27157   2.662   0.239   6.749 -0.0887 -0.1286  0.0270
 5233SOL    HW127158   2.696   0.314   6.799  0.5348 -0.0960 -0.4505
 5233SOL    HW227159   2.597   0.198   6.807  0.7294  1.8246  2.3495
 5234SOL     OW27160   0.182   1.397   4.133  0.7320  0.0334 -0.3029
 5234SOL    HW127161   0.125   1.339   4.184  1.4224 -1.2541 -1.0131
 5234SOL    HW227162   0.257   1.341   4.115  0.4296  0.7140 -3.5312
 5235SOL     OW27163   3.066   3.755   2.057  0.0132  0.2937  0.4333
 5235SOL    HW127164   3.064   3.849   2.039 -0.5200  0.7293  2.6861
 5235SOL    HW227165   3.070   3.723   1.967 -0.2008 -0.1778  0.5914
 5236SOL     OW27166   1.337   1.710  12.558  0.1462 -0.0495  0.2305
 5236SOL    HW127167   1.355   1.617  12.544  0.8625  0.0999  0.1601
 5236SOL    HW227168   1.392   1.730  12.633 -0.4599 -3.9315  1.6950
 5237SOL     OW27169   0.937   1.302   5.477 -0.6510 -0.7328  0.3979
 5237SOL    HW127170   0.963   1.225   5.427 -2.2586 -1.5466  0.8169
 5237SOL    HW227171   0.878   1.337   5.411 -3.2736 -1.0120  2.6165
 5238SOL     OW27172   2.565   2.530   8.631 -0.3020 -0.7880 -0.2648
 5238SOL    HW127173   2.623   2.503   8.701  0.2250 -2.0012 -1.1610
 5238SOL    HW227174   2.627   2.504   8.563 -1.3079 -3.1087 -0.2994
 5239SOL     OW27175   1.507   2.955   2.228  0.0020 -0.2683 -0.1448
 5239SOL    HW127176   1.458   2.873   2.227 -1.3927  0.5749 -1.0373
 5239SOL    HW227177   1.595   2.937   2.195 -0.2693  0.3023 -1.1785
 5240SOL     OW27178   3.986   0.171   2.836  0.7229  0.3359  0.2520
 5240SOL    HW127179   3.970   0.214   2.920 -1.0368 -0.7586  0.4893
 5240SOL    HW227180   4.057   0.225   2.802  0.2506  0.5389 -0.4118
 5241SOL     OW27181   1.261   3.987   3.266  0.1810  0.0757 -0.2088
 5241SOL    HW127182   1.252   4.076   3.233  1.5901  0.7691  1.2441
 5241SOL    HW227183   1.269   3.929   3.191  1.8984  2.8583 -2.1656
 5242SOL     OW27184   3.515   1.670  15.994  0.5534  0.1639  0.1784
 5242SOL    HW127185   3.486   1.620  15.918  0.6008  1.6632 -0.8253
 5242SOL    HW227186   3.441   1.729  16.005  0.6036 -0.0751  1.8533
 5243SOL     OW27187   1.109   4.044   7.561  0.2625 -0.2574 -0.5248
 5243SOL    HW127188   1.093   4.101   7.635 -2.0228 -0.2343 -1.0284
 5243SOL    HW227189   1.152   3.966   7.597 -1.4020 -0.9704 -0.0849
 5244SOL     OW27190   2.368   0.859  13.127  0.2122  0.0077 -0.1766
 5244SOL    HW127191   2.412   0.812  13.056  1.8856  1.0312  0.1853
 5244SOL    HW227192   2.432   0.930  13.135 -0.9079  1.2170 -2.0554
 5245SOL     OW27193   0.382   0.688   3.090 -0.3031 -1.3384 -0.2452
 5245SOL    HW127194   0.446   0.702   3.159 -2.5101  1.4707  1.2682
 5245SOL    HW227195   0.327   0.619   3.129  0.9991 -2.4662 -0.4328
 5246SOL     OW27196   0.620   3.986  13.191 -0.1613 -0.4223  0.3439
 5246SOL    HW127197   0.688   3.933  13.149  1.9172  1.5824  1.2195
 5246SOL    HW227198   0.643   4.031  13.272 -1.2355  0.0095  0.4146
 5247SOL     OW27199   3.998   3.120  13.166 -0.0747 -0.2479 -0.1559
 5247SOL    HW127200   4.079   3.083  13.200  0.5919  0.7759 -0.6305
 5247SOL    HW227201   3.953   3.136  13.250 -1.2947 -2.5808 -0.3825
 5248SOL     OW27202   0.572   0.963  15.960  0.0211 -0.4117  0.3575
 5248SOL    HW127203   0.500   1.025  15.970 -0.2868 -0.7979  0.5318
 5248SOL    HW227204   0.639   1.013  16.009 -1.7972  2.0066  0.3853
 5249SOL     OW27205   3.326   1.549   1.743 -0.2801 -0.1258  0.0893
 5249SOL    HW127206   3.395   1.498   1.703  0.2845  1.2959 -0.7509
 5249SOL    HW227207   3.257   1.484   1.757 -0.6464  0.4716  1.1071
 5250SOL     OW27208   3.584   1.440   5.389  0.1995  0.7401 -0.5589
 5250SOL    HW127209   3.558   1.348   5.380 -3.8929  1.9258 -0.9971
 5250SOL    HW227210   3.517   1.478   5.446 -1.0202 -2.7980  0.4313
 5251SOL     OW27211   3.760   1.954   4.864  0.1579  0.4528 -0.2291
 5251SOL    HW127212   3.782   1.889   4.930  1.8473  0.5678 -0.6664
 5251SOL    HW227213   3.782   1.907   4.783  0.1418  2.3721 -1.3638
 5252SOL     OW27214   1.766   1.946   9.151 -0.1359 -0.2484  0.4321
 5252SOL    HW127215   1.796   1.974   9.238 -0.1194 -2.1192  1.0254
 5252SOL    HW227216   1.820   1.868   9.143 -0.9967 -0.7165 -0.8138
 5253SOL     OW27217   1.140   0.736   7.707  0.4802  0.1236  0.2086
 5253SOL    HW127218   1.071   0.704   7.765  0.3355 -0.3349 -0.2103
 5253SOL    HW227219   1.188   0.788   7.771  0.5521  2.4195 -1.6865
 5254SOL     OW27220   1.701   1.431  16.439  0.1477 -0.0207 -0.5118
 5254SOL    HW127221   1.697   1.494  16.511  0.6309 -1.8097  1.0857
 5254SOL    HW227222   1.734   1.482  16.364  2.4260 -1.3523 -0.4264
 5255SOL     OW27223   1.000   0.047   6.986 -0.0537 -0.3016  0.5824
 5255SOL    HW127224   1.070   0.075   7.045  0.1307 -0.9098  0.6528
 5255SOL    HW227225   0.930   0.050   7.052  1.3704 -2.2559  2.1778
 5256SOL     OW27226   2.445   4.117   6.639  0.4825 -0.3650  0.0206
 5256SOL    HW127227   2.461   4.076   6.554  0.1767  1.3949 -0.8811
 5256SOL    HW227228   2.372   4.072   6.682  1.1638 -1.6555 -0.1536
 5257SOL     OW27229   0.159   2.744  11.262 -0.0815 -0.2155 -0.0136
 5257SOL    HW127230   0.178   2.838  11.267 -1.3958 -0.0417  1.7820
 5257SOL    HW227231   0.123   2.725  11.176  0.9016  1.8967 -0.9027
 5258SOL     OW27232   4.351   0.677  13.534  0.0380 -0.0079 -0.4192
 5258SOL    HW127233   4.337   0.761  13.491 -1.0179  0.0562  0.0637
 5258SOL    HW227234   4.441   0.656  13.507  0.3469 -0.7179  1.1626
 5259SOL     OW27235   1.807   2.227   6.355 -0.3014  0.0156  0.1404
 5259SOL    HW127236   1.798   2.132   6.369 -3.3343 -0.0811 -2.5257
 5259SOL    HW227237   1.898   2.233   6.385  0.3713 -0.6649 -1.7164
 5260SOL     OW27238   3.988   4.206   3.166  0.1588  0.0889  0.2207
 5260SOL    HW127239   3.961   4.115   3.154  1.8671 -0.2041 -1.2677
 5260SOL    HW227240   3.988   4.210   3.262 -0.8212  1.0876  0.1818
 5261SOL     OW27241   0.969   0.011   5.911 -0.0118 -0.1174 -0.0535
 5261SOL    HW127242   1.031   0.022   5.983  0.2957 -0.8907 -0.1991
 5261SOL    HW227243   0.937   4.643   5.924 -0.8678  0.1653 -0.2602
 5262SOL     OW27244   2.738   0.194   7.724 -0.6189  0.3073  0.0625
 5262SOL    HW127245   2.652   0.185   7.683 -0.8674 -3.7910  1.4514
 5262SOL    HW227246   2.745   0.281   7.763 -0.6098  0.2316  0.2317
 5263SOL     OW27247   0.356   3.855  10.459 -0.3809 -0.1103 -0.2028
 5263SOL    HW127248   0.416   3.901  10.518 -0.8769  1.3677 -0.8484
 5263SOL    HW227249   0.419   3.803  10.409 -0.5196 -0.3962 -0.0803
 5264SOL     OW27250   4.575   3.495   8.702  0.1884  0.1344  0.2047
 5264SOL    HW127251   4.599   3.561   8.638 -0.3125  1.2551  1.1818
 5264SOL    HW227252   4.485   3.522   8.719 -0.3718 -2.3909  1.3336
 5265SOL     OW27253   0.491   1.276   7.979  0.3304  0.5153  0.1131
 5265SOL    HW127254   0.420   1.235   8.029 -0.2893  1.0441 -0.3323
 5265SOL    HW227255   0.441   1.330   7.917  1.4918 -0.2740 -1.5070
 5266SOL     OW27256   1.802   1.458  16.139  0.1397 -0.0888 -0.4772
 5266SOL    HW127257   1.798   1.515  16.062 -0.0895  1.1727  0.4523
 5266SOL    HW227258   1.741   1.388  16.114 -1.9768  1.1428  1.1524
 5267SOL     OW27259   1.347   2.854   5.978 -0.2881  0.6577  0.4578
 5267SOL    HW127260   1.295   2.787   5.934 -1.0515  1.1065  0.6857
 5267SOL    HW227261   1.383   2.794   6.044 -0.3146 -0.9115 -0.9405
 5268SOL     OW27262   2.780   0.734   6.748 -0.4673 -0.2197 -0.1807
 5268SOL    HW127263   2.687   0.746   6.731 -0.4306  2.9503  1.8585
 5268SOL    HW227264   2.811   0.712   6.660 -0.7757 -3.0117  0.4206
 5269SOL     OW27265   0.205   3.327   3.007 -0.9435  0.3394  0.1119
 5269SOL    HW127266   0.115   3.359   3.008 -1.2359 -0.4340 -1.2895
 5269SOL    HW227267   0.187   3.246   2.959  2.3071  0.6504 -1.5995
 5270SOL     OW27268   1.899   0.963   2.702  0.4773  0.5382  0.1324
 5270SOL    HW127269   1.923   1.053   2.681  0.3207  0.7767  0.9542
 5270SOL    HW227270   1.883   0.923   2.617 -0.2337 -1.5562  1.2306
 5271SOL     OW27271   2.661   4.160   7.933  0.1740 -0.1387  0.5763
 5271SOL    HW127272   2.615   4.091   7.886  0.0886  0.8311 -0.7893
 5271SOL    HW227273   2.700   4.212   7.862 -2.3565  0.9311 -0.0686
 5272SOL     OW27274   2.282   2.194  16.204  0.2700 -0.6614 -0.3145
 5272SOL    HW127275   2.370   2.181  16.171  1.1988  0.6338  1.6754
 5272SOL    HW227276   2.231   2.227  16.130  1.1296  0.9457 -0.1895
 5273SOL     OW27277   3.204   3.995   4.733  0.9045  0.6468  0.4684
 5273SOL    HW127278   3.257   3.951   4.666 -1.0590  1.7907 -1.8289
 5273SOL    HW227279   3.116   3.979   4.700  0.7616  1.4851  0.4570
 5274SOL     OW27280   0.709   4.472   4.711 -0.1926 -0.3154 -0.1705
 5274SOL    HW127281   0.746   4.456   4.624  0.5748  1.1102 -0.0988
 5274SOL    HW227282   0.786   4.506   4.758 -0.0134 -0.8897 -0.0424
 5275SOL     OW27283   1.205   4.656  15.198  0.2976  0.6839 -0.7866
 5275SOL    HW127284   1.173   4.573  15.232 -1.8972  2.0295  0.4670
 5275SOL    HW227285   1.149   4.657  15.120 -1.0830  1.9433  0.2427
 5276SOL     OW27286   3.733   1.761   5.506 -0.5453  0.1177 -0.5340
 5276SOL    HW127287   3.721   1.848   5.544  0.3676  0.8620 -1.9546
 5276SOL    HW227288   3.783   1.788   5.429  1.1634 -1.0384  0.1712
 5277SOL     OW27289   3.679   0.499  14.452 -0.3391  0.1498 -0.2338
 5277SOL    HW127290   3.692   0.480  14.359  2.9588  0.7252  0.1081
 5277SOL    HW227291   3.592   0.461  14.463 -0.2110  0.1771  0.8650
 5278SOL     OW27292   2.042   1.430   4.508 -0.1905 -0.6341 -0.7384
 5278SOL    HW127293   2.054   1.497   4.575  1.7326 -3.5847  1.9118
 5278SOL    HW227294   1.948   1.439   4.492 -0.2597 -0.5421 -0.2860
 5279SOL     OW27295   4.338   4.650   3.569 -0.2966  0.1412  0.1115
 5279SOL    HW127296   4.253   4.649   3.523 -1.0793  2.1534  1.5224
 5279SOL    HW227297   4.342   4.556   3.585 -0.9140  0.7276  3.7373
 5280SOL     OW27298   1.648   0.531   5.607  0.0726  0.2899  0.6856
 5280SOL    HW127299   1.609   0.618   5.615 -0.2202  0.3673 -1.6678
 5280SOL    HW227300   1.566   0.480   5.606  0.2777  0.0122 -1.5016
 5281SOL     OW27301   0.381   4.460   7.452 -0.0135  0.1930  0.2577
 5281SOL    HW127302   0.408   4.464   7.360 -2.1926  0.2593 -0.3743
 5281SOL    HW227303   0.408   4.371   7.472 -0.2647  0.2210  0.7185
 5282SOL     OW27304   1.842   3.718   9.610 -0.3618  0.1508  0.5066
 5282SOL    HW127305   1.835   3.796   9.556  1.2512 -0.2763 -0.3221
 5282SOL    HW227306   1.899   3.752   9.679  0.1906  0.2319  0.0170
 5283SOL     OW27307   4.523   1.448   1.534  0.1791 -0.1885 -0.0901
 5283SOL    HW127308   4.509   1.536   1.497 -1.5356 -1.2770 -2.0335
 5283SOL    HW227309   4.614   1.438   1.506 -0.4833 -2.8351 -1.3129
 5284SOL     OW27310   3.975   4.157  11.079  0.1086 -0.1410  0.5041
 5284SOL    HW127311   3.939   4.071  11.101 -0.0743 -0.9125 -2.7653
 5284SOL    HW227312   3.898   4.208  11.053  2.3996  2.1983 -1.6121
 5285SOL     OW27313   2.495   1.975   4.421  0.3420  0.0465  0.4608
 5285SOL    HW127314   2.559   1.943   4.484  2.0278  0.9000 -0.8014
 5285SOL    HW227315   2.422   1.914   4.435  0.2498  0.3294  1.2073
 5286SOL     OW27316   2.875   3.748   7.461 -0.1578  0.1975  0.1212
 5286SOL    HW127317   2.833   3.797   7.391  1.4246  1.8537  0.3208
 5286SOL    HW227318   2.879   3.823   7.521  0.3048 -0.5480  1.0303
 5287SOL     OW27319   1.867   4.100   5.476 -0.2285  0.3343  0.1797
 5287SOL    HW127320   1.920   4.046   5.534  0.6231 -0.7414 -1.6076
 5287SOL    HW227321   1.820   4.028   5.434  1.3479  0.1040 -1.1550
 5288SOL     OW27322   1.211   3.898  17.150 -0.0315 -0.6364 -0.2022
 5288SOL    HW127323   1.156   3.941  17.084  0.2033 -0.0939 -0.0512
 5288SOL    HW227324   1.179   3.952  17.223  1.6791  2.1507 -1.4950
 5289SOL     OW27325   0.477   4.220   7.457 -0.6607 -1.1924  0.1626
 5289SOL    HW127326   0.564   4.213   7.418 -0.8147  1.5995 -0.6700
 5289SOL    HW227327   0.496   4.182   7.543 -2.2515  0.9380  1.4528
 5290SOL     OW27328   4.129   1.198   1.958 -0.2224  0.2301  0.0723
 5290SOL    HW127329   4.204   1.210   2.015  0.4932 -2.7055 -0.2586
 5290SOL    HW227330   4.067   1.158   2.019  1.3009  0.2164  1.6108
 5291SOL     OW27331   0.209   2.332  12.611  0.5140  0.4535  0.3514
 5291SOL    HW127332   0.253   2.318  12.695 -1.0098 -0.6938  0.9448
 5291SOL    HW227333   0.282   2.334  12.549  1.9350  0.3610  2.0036
 5292SOL     OW27334   1.575   4.252  11.991 -0.6207 -0.4438  0.7232
 5292SOL    HW127335   1.663   4.215  12.003 -0.6715 -0.8687 -0.2162
 5292SOL    HW227336   1.595   4.295  11.908 -4.6159  2.7482  1.4350
 5293SOL     OW27337   1.838   2.929   5.743  0.3200 -0.0089 -0.3590
 5293SOL    HW127338   1.878   2.945   5.658  0.0736 -0.1387 -0.4982
 5293SOL    HW227339   1.806   2.840   5.733  1.7360 -0.5993  0.3781
 5294SOL     OW27340   0.425   0.599   7.725 -0.6991 -0.5757 -0.5955
 5294SOL    HW127341   0.332   0.597   7.744 -0.2221  0.9793  1.8825
 5294SOL    HW227342   0.456   0.668   7.784 -1.7013  0.4834 -1.3174
 5295SOL     OW27343   3.135   3.241   5.669  0.0098  0.5649  0.2055
 5295SOL    HW127344   3.049   3.282   5.665 -0.7243 -0.9724  0.1205
 5295SOL    HW227345   3.136   3.199   5.583 -3.0802  1.2105 -0.1412
 5296SOL     OW27346   3.423   1.205   5.344 -0.1179  0.4837 -0.1759
 5296SOL    HW127347   3.448   1.124   5.300  3.7622  0.7695  1.5052
 5296SOL    HW227348   3.432   1.179   5.436  0.7349  0.2088 -0.3332
 5297SOL     OW27349   3.437   1.819   3.424 -0.2542  0.4053  0.4604
 5297SOL    HW127350   3.487   1.900   3.439 -1.5072  0.9023  1.9776
 5297SOL    HW227351   3.400   1.822   3.335  1.4268 -0.7502 -0.2787
 5298SOL     OW27352   0.307   2.126   5.478  0.1166 -0.2186 -0.3398
 5298SOL    HW127353   0.261   2.055   5.433  0.2709 -0.9872  0.7021
 5298SOL    HW227354   0.400   2.114   5.460  0.5082  3.0016 -0.4555
 5299SOL     OW27355   0.290   0.290  10.296 -0.0185  0.4722  1.1471
 5299SOL    HW127356   0.273   0.203  10.260 -2.5360  1.7317 -0.7251
 5299SOL    HW227357   0.220   0.300  10.361  1.2342  0.7800  2.4474
 5300SOL     OW27358   4.500   2.429   4.688  0.7965 -0.3134 -0.2675
 5300SOL    HW127359   4.552   2.485   4.745 -0.2285  1.3954 -1.0078
 5300SOL    HW227360   4.505   2.474   4.603 -4.1756 -1.4143 -1.1907
 5301SOL     OW27361   3.016   3.653   1.095 -0.0916  0.2650 -0.0580
 5301SOL    HW127362   3.043   3.609   1.175  2.0346 -1.3252 -1.6556
 5301SOL    HW227363   3.033   3.740   1.132 -1.6929  0.7359 -0.3991
 5302SOL     OW27364   4.335   2.534   4.272  0.3594  0.0623 -0.0581
 5302SOL    HW127365   4.334   2.504   4.181  0.7617  2.1068 -0.7284
 5302SOL    HW227366   4.293   2.464   4.323  0.2199 -0.8459 -1.4272
 5303SOL     OW27367   1.094   0.903   3.940  0.1980  0.4231 -0.2307
 5303SOL    HW127368   1.138   0.956   3.874 -0.6996 -0.8171 -1.8462
 5303SOL    HW227369   1.159   0.833   3.937  0.4276  0.6423 -0.3603
 5304SOL     OW27370   2.532   3.409   6.037 -0.0823 -0.2998 -0.3656
 5304SOL    HW127371   2.554   3.455   6.118 -1.9503  1.9409 -1.1488
 5304SOL    HW227372   2.572   3.471   5.975 -0.8814  0.0207 -0.5606
 5305SOL     OW27373   0.620   1.440   9.714  0.6765  0.0156 -0.1288
 5305SOL    HW127374   0.645   1.519   9.762 -2.3252  0.7025  0.3242
 5305SOL    HW227375   0.545   1.482   9.670 -0.6161 -0.6111  1.4890
 5306SOL     OW27376   0.497   1.908  16.477 -0.2163 -0.3808  0.0881
 5306SOL    HW127377   0.447   1.975  16.523  0.1553 -0.8046  1.0980
 5306SOL    HW227378   0.474   1.943  16.391 -2.2763  1.7457  1.5099
 5307SOL     OW27379   1.493   0.730   8.182 -0.8451  0.3462  0.5137
 5307SOL    HW127380   1.507   0.821   8.155 -0.9875 -0.4158 -2.1314
 5307SOL    HW227381   1.447   0.702   8.103  0.3826  1.7224 -0.6781
 5308SOL     OW27382   1.486   2.062   7.032 -0.3085  0.2998 -0.4600
 5308SOL    HW127383   1.521   2.150   7.019 -1.3942  0.4868 -1.9999
 5308SOL    HW227384   1.406   2.079   7.081  0.0549  2.0165 -0.4751
 5309SOL     OW27385   0.601   3.435   9.297 -0.0035 -0.1102  0.2332
 5309SOL    HW127386   0.531   3.395   9.349  0.6508 -1.9351 -0.2937
 5309SOL    HW227387   0.656   3.473   9.366  0.5960 -0.1243 -0.2360
 5310SOL     OW27388   0.831   2.988  14.576  0.0796  0.7390  0.3195
 5310SOL    HW127389   0.797   3.060  14.522 -1.8805 -0.6718 -0.3220
 5310SOL    HW227390   0.918   2.971  14.541  0.2098  0.7860  0.6147
 5311SOL     OW27391   0.735   3.957  12.475 -0.4243  0.1384 -0.3418
 5311SOL    HW127392   0.672   4.029  12.478  1.1256  1.4629  0.1351
 5311SOL    HW227393   0.809   3.981  12.420  0.2659  1.2384  1.0987
 5312SOL     OW27394   3.485   0.516   7.591  0.4812 -0.0243  0.6454
 5312SOL    HW127395   3.507   0.534   7.682  1.2761  1.8219  0.0885
 5312SOL    HW227396   3.570   0.520   7.547  0.6159 -0.4048  0.8750
 5313SOL     OW27397   0.793   3.864  13.055 -0.3171 -0.5691 -0.0641
 5313SOL    HW127398   0.849   3.790  13.081  0.3990  0.2432  0.7040
 5313SOL    HW227399   0.860   3.925  13.025 -0.7760  1.0139  2.0895
 5314SOL     OW27400   0.110   3.395   1.008 -0.4748  0.3652  0.0505
 5314SOL    HW127401   0.194   3.365   0.975 -0.0002  1.5069  0.1901
 5314SOL    HW227402   0.124   3.374   1.101 -1.3026  0.5340  0.2119
 5315SOL     OW27403   4.130   1.731  15.155 -0.2357 -0.5137  0.1249
 5315SOL    HW127404   4.214   1.747  15.199  0.9327 -1.2645 -1.8140
 5315SOL    HW227405   4.061   1.761  15.214 -1.2022  0.1466 -1.3606
 5316SOL     OW27406   2.252   0.621   2.856  0.2129 -0.4814 -0.2345
 5316SOL    HW127407   2.267   0.713   2.879 -0.3635 -0.5597  0.4235
 5316SOL    HW227408   2.161   0.622   2.827 -0.2136 -1.2684  1.1234
 5317SOL     OW27409   1.449   1.945   4.666  0.3061  0.0814 -0.6810
 5317SOL    HW127410   1.428   2.020   4.609  2.5981  0.2546 -1.3231
 5317SOL    HW227411   1.482   1.991   4.743  1.1418 -0.3018 -0.8060
 5318SOL     OW27412   0.229   3.132   5.795  0.4612  0.1121  0.4609
 5318SOL    HW127413   0.215   3.095   5.882  2.0189 -2.4654 -0.3814
 5318SOL    HW227414   0.304   3.189   5.813 -0.8880  2.0826 -0.1929
 5319SOL     OW27415   1.715   4.557   1.815 -0.0738  0.5413 -0.8726
 5319SOL    HW127416   1.708   4.641   1.860 -3.5308 -1.0768  1.6157
 5319SOL    HW227417   1.807   4.557   1.790  0.8749 -2.6116  2.4943
 5320SOL     OW27418   4.720   2.879   7.555 -0.1749  0.3477 -0.4773
 5320SOL    HW127419   0.018   2.823   7.630 -0.7623 -0.5073 -0.9757
 5320SOL    HW227420   4.694   2.962   7.594  0.1127 -0.9826  2.5615
 5321SOL     OW27421   0.783   1.517   2.626 -0.2165  0.4796  0.1466
 5321SOL    HW127422   0.876   1.538   2.633  0.0641 -0.7959  0.3409
 5321SOL    HW227423   0.778   1.490   2.534  2.2095  0.4253  0.0224
 5322SOL     OW27424   4.499   1.315  10.698  0.0299 -0.3329  0.2133
 5322SOL    HW127425   4.434   1.248  10.721  0.7771 -0.9844  0.4573
 5322SOL    HW227426   4.436   1.385  10.713 -0.0873 -0.2261 -0.7740
 5323SOL     OW27427   3.867   1.301  12.809 -0.5513  0.0830 -0.3607
 5323SOL    HW127428   3.916   1.323  12.729  1.1011 -3.1379 -0.2160
 5323SOL    HW227429   3.913   1.228  12.849 -0.6876 -0.5483 -1.3559
 5324SOL     OW27430   0.758   2.084   0.876  0.6695  0.2030 -0.0799
 5324SOL    HW127431   0.760   2.180   0.881  2.2036  0.2805 -2.0571
 5324SOL    HW227432   0.790   2.068   0.787 -1.5043  0.7146 -0.9540
 5325SOL     OW27433   2.285   4.241   1.092  0.1335  0.0210 -0.0849
 5325SOL    HW127434   2.313   4.327   1.122 -1.7141  1.0676 -1.3829
 5325SOL    HW227435   2.284   4.186   1.170 -4.1192 -0.8683 -0.7825
 5326SOL     OW27436   3.263   3.027   9.601  0.0090 -0.4284 -0.2536
 5326SOL    HW127437   3.329   2.964   9.632  0.1136 -0.2495 -0.1161
 5326SOL    HW227438   3.186   2.970   9.604  0.0053 -0.2879  2.1100
 5327SOL     OW27439   4.201   1.386   4.163  0.3787  0.2084  0.3237
 5327SOL    HW127440   4.269   1.443   4.127  1.1918 -0.4368  0.8249
 5327SOL    HW227441   4.132   1.451   4.178  1.1473  0.9466  0.6887
 5328SOL     OW27442   3.663   4.455   9.577  0.0516  0.4512  0.6251
 5328SOL    HW127443   3.734   4.464   9.513  0.1123 -2.6640  0.2421
 5328SOL    HW227444   3.611   4.533   9.559 -0.6285  0.1935  1.4810
 5329SOL     OW27445   0.467   0.192   5.965 -0.2832 -0.3275  0.1207
 5329SOL    HW127446   0.541   0.131   5.959 -1.8006 -2.1408 -0.2081
 5329SOL    HW227447   0.513   0.271   5.937  0.6425 -1.5619 -1.7737
 5330SOL     OW27448   1.638   3.940   9.214  0.0218 -0.8894  0.8869
 5330SOL    HW127449   1.623   4.034   9.211  1.4352 -0.7066 -0.8575
 5330SOL    HW227450   1.701   3.936   9.142 -1.0673  0.9468 -0.1706
 5331SOL     OW27451   1.339   3.376  11.804 -0.1949  0.6718 -0.3711
 5331SOL    HW127452   1.265   3.321  11.780  1.6615 -2.0435  0.0889
 5331SOL    HW227453   1.287   3.443  11.850  1.7680  0.6270  1.9432
 5332SOL     OW27454   4.706   2.150   1.833 -0.4302  0.4961 -0.1202
 5332SOL    HW127455   0.002   2.139   1.927 -0.4655  1.0676 -0.0520
 5332SOL    HW227456   4.621   2.192   1.846 -1.3906 -2.0949  2.0283
 5333SOL     OW27457   2.949   3.908  13.659  0.4591  0.2255  0.2601
 5333SOL    HW127458   2.973   4.000  13.673  0.2078  0.2819  0.3376
 5333SOL    HW227459   2.873   3.897  13.717  1.9424  1.9636  2.5684
 5334SOL     OW27460   3.565   2.145  14.943 -0.1500 -0.1835 -0.3114
 5334SOL    HW127461   3.491   2.202  14.961  0.6360  1.0895 -1.1310
 5334SOL    HW227462   3.617   2.173  15.018  0.2482 -0.8831 -0.3279
 5335SOL     OW27463   2.993   3.846  14.942 -0.3882  0.4668 -0.2034
 5335SOL    HW127464   3.070   3.901  14.952 -1.4038  1.9176 -0.4418
 5335SOL    HW227465   2.999   3.800  15.025 -1.2920 -0.1395 -0.4700
 5336SOL     OW27466   3.996   4.149   5.801  0.3597 -0.8747 -0.2458
 5336SOL    HW127467   3.901   4.144   5.795  0.2958 -1.0930  0.8780
 5336SOL    HW227468   4.003   4.068   5.852 -0.3312 -0.4643  0.4985
 5337SOL     OW27469   2.111   4.384   8.954 -0.2028  0.2308 -0.0078
 5337SOL    HW127470   2.089   4.422   9.039  1.1567  1.3180 -0.1339
 5337SOL    HW227471   2.072   4.297   8.963 -0.7764  0.4915 -0.0350
 5338SOL     OW27472   2.587   1.159   7.338  0.0011 -0.3565 -0.3137
 5338SOL    HW127473   2.608   1.119   7.423  0.6279 -1.9275 -1.2086
 5338SOL    HW227474   2.676   1.178   7.307  0.2895 -0.8860  0.1910
 5339SOL     OW27475   0.189   1.528   2.446  0.0351  0.6420  0.0203
 5339SOL    HW127476   0.267   1.510   2.499 -1.8695 -0.9617  2.3006
 5339SOL    HW227477   0.185   1.464   2.375  1.3281 -0.8555  1.2994
 5340SOL     OW27478   3.253   2.776   6.507  0.3166 -0.1495  0.0453
 5340SOL    HW127479   3.297   2.850   6.549  0.3000 -0.1660  0.0919
 5340SOL    HW227480   3.161   2.804   6.507  0.7730  1.3655  0.5441
 5341SOL     OW27481   4.459   2.149  12.121  0.1247  0.5756  0.5187
 5341SOL    HW127482   4.419   2.236  12.117 -1.2231 -0.0324  0.8773
 5341SOL    HW227483   4.414   2.114  12.044 -1.7922 -3.2410  3.3536
 5342SOL     OW27484   1.223   3.952   6.436  0.3382 -0.6196 -0.0162
 5342SOL    HW127485   1.192   3.973   6.348  2.1978 -0.6412 -0.6775
 5342SOL    HW227486   1.157   3.992   6.493  0.1516  1.1195 -1.4336
 5343SOL     OW27487   3.346   0.508  16.322 -0.0508  0.2090 -0.0198
 5343SOL    HW127488   3.297   0.502  16.404  0.2844  0.5220  0.1964
 5343SOL    HW227489   3.361   0.602  16.317  2.1145 -0.2487 -1.9317
 5344SOL     OW27490   3.813   3.893   4.836 -0.2338 -0.1978  0.9827
 5344SOL    HW127491   3.822   3.977   4.790  0.8738  0.0091  1.5739
 5344SOL    HW227492   3.725   3.897   4.871 -0.2487 -1.6832  1.1073
 5345SOL     OW27493   0.058   0.899   3.986 -0.1764 -0.1377 -0.1439
 5345SOL    HW127494   0.126   0.962   3.961  1.0071 -0.2522  2.7694
 5345SOL    HW227495   0.111   0.820   3.977  1.2075  0.9912 -1.8009
 5346SOL     OW27496   3.575   0.617   3.470 -0.1500 -0.1411  0.1322
 5346SOL    HW127497   3.515   0.544   3.485 -1.7263  1.1648  0.0807
 5346SOL    HW227498   3.638   0.606   3.542  1.2111  1.5964 -0.7925
 5347SOL     OW27499   3.300   3.797   4.498  0.5872  0.2303  0.8687
 5347SOL    HW127500   3.296   3.759   4.410  0.7971  0.3561  0.8060
 5347SOL    HW227501   3.287   3.714   4.544 -1.1126  0.4487  0.7720
 5348SOL     OW27502   2.746   2.190   8.202  0.2474  0.0408 -0.3580
 5348SOL    HW127503   2.768   2.135   8.276  1.3544 -0.3281 -0.9620
 5348SOL    HW227504   2.707   2.123   8.146 -0.7369  0.5912 -0.3466
 5349SOL     OW27505   2.012   4.351   6.532 -0.2906 -0.4659  0.1502
 5349SOL    HW127506   1.961   4.291   6.586  0.4993 -1.4736 -0.2366
 5349SOL    HW227507   2.018   4.309   6.446  2.1511  1.8114 -0.7917
 5350SOL     OW27508   3.850   0.126   5.972  0.1062 -0.1127 -0.8952
 5350SOL    HW127509   3.942   0.144   5.994 -0.3521  0.6345  0.4307
 5350SOL    HW227510   3.845   0.041   5.929 -2.9959  0.6246 -1.9791
 5351SOL     OW27511   0.101   1.434   3.777 -0.3346 -0.2476  0.5032
 5351SOL    HW127512   0.063   1.346   3.773  2.4396 -1.3882 -0.7737
 5351SOL    HW227513   0.055   1.474   3.703  2.9848  3.6462  0.5365
 5352SOL     OW27514   1.143   0.137  12.922 -0.1027  0.3345  0.3407
 5352SOL    HW127515   1.065   0.093  12.956  1.1587 -2.7481 -0.7690
 5352SOL    HW227516   1.207   0.096  12.981  0.0728 -1.0185 -0.8072
 5353SOL     OW27517   0.164   1.628   9.427 -0.0728  0.0729  0.4548
 5353SOL    HW127518   0.089   1.639   9.486 -0.2349  0.3570  0.1960
 5353SOL    HW227519   0.174   1.718   9.397  2.4219 -0.6048 -0.6947
 5354SOL     OW27520   0.139   3.233   3.597 -0.2196  0.3571  0.0647
 5354SOL    HW127521   0.093   3.263   3.675 -0.3194  0.2980  0.0281
 5354SOL    HW227522   0.121   3.140   3.602  0.0048  0.1199 -3.2891
 5355SOL     OW27523   3.924   0.804   8.267 -0.4901 -0.0409 -0.2001
 5355SOL    HW127524   4.009   0.758   8.266 -1.4090 -1.7597  0.1786
 5355SOL    HW227525   3.909   0.815   8.361 -0.9857  2.7888 -0.6195
 5356SOL     OW27526   2.175   3.490   8.302  0.3757 -0.2588  0.1011
 5356SOL    HW127527   2.116   3.563   8.286  0.6629 -0.4707 -1.9371
 5356SOL    HW227528   2.119   3.437   8.359 -1.3324  1.1972 -0.2531
 5357SOL     OW27529   1.228   0.000  16.549 -0.1950 -0.4302  0.4561
 5357SOL    HW127530   1.300   0.035  16.602 -0.8880  2.6074 -0.5764
 5357SOL    HW227531   1.195   0.069  16.491  0.2212  0.3956  1.1864
 5358SOL     OW27532   4.135   2.451   6.405  0.1027  0.2909 -0.0859
 5358SOL    HW127533   4.143   2.547   6.404  1.8881  0.1673  2.7172
 5358SOL    HW227534   4.132   2.434   6.311  2.4793  0.2138 -0.1320
 5359SOL     OW27535   1.633   3.523   9.597  0.3833 -0.4755  0.6943
 5359SOL    HW127536   1.602   3.527   9.507  1.3098  1.4503  0.4681
 5359SOL    HW227537   1.671   3.610   9.605  1.3760 -0.6261 -2.3472
 5360SOL     OW27538   3.878   3.287   0.651 -0.2643  0.3036  0.6409
 5360SOL    HW127539   3.903   3.354   0.715  4.1809 -1.3598  0.6369
 5360SOL    HW227540   3.962   3.254   0.619 -0.6941 -0.0865 -0.0801
 5361SOL     OW27541   3.085   3.709   1.786  0.1798  0.2169  0.4467
 5361SOL    HW127542   2.997   3.736   1.759  0.9138  1.4226 -0.7276
 5361SOL    HW227543   3.133   3.698   1.704 -0.9419 -1.7927  0.0536
 5362SOL     OW27544   3.321   1.459   1.064  0.3360 -0.1316  0.0438
 5362SOL    HW127545   3.307   1.552   1.080 -2.3018 -0.6932  1.0216
 5362SOL    HW227546   3.231   1.425   1.059  0.1045  0.0711  2.5613
 5363SOL     OW27547   3.352   3.384   2.384 -0.2592 -0.0437 -0.0510
 5363SOL    HW127548   3.299   3.464   2.387  1.4334  1.0326  1.2989
 5363SOL    HW227549   3.295   3.308   2.372  2.6247 -2.0452 -1.0698
 5364SOL     OW27550   1.094   0.257   8.607  0.2984 -0.0789  0.0486
 5364SOL    HW127551   1.187   0.266   8.627  0.3297 -0.2590 -0.0224
 5364SOL    HW227552   1.099   0.315   8.531 -1.2364  2.1248  1.6196
 5365SOL     OW27553   1.708   4.275  12.544  0.7025  0.2331 -0.0412
 5365SOL    HW127554   1.732   4.189  12.578 -1.2003  0.6545  2.3360
 5365SOL    HW227555   1.627   4.281  12.594  0.4963  1.6605 -0.5464
 5366SOL     OW27556   2.883   2.007   8.684 -0.1357  0.0133 -0.4702
 5366SOL    HW127557   2.961   1.973   8.727 -2.0294 -1.2537  1.9745
 5366SOL    HW227558   2.811   1.969   8.734 -0.0623  1.1810  0.5001
 5367SOL     OW27559   2.391   4.513   2.426  0.4834  1.2257  0.4724
 5367SOL    HW127560   2.415   4.453   2.355 -0.8732  0.6883  0.4596
 5367SOL    HW227561   2.423   4.464   2.501 -2.1942  1.9818  2.1421
 5368SOL     OW27562   0.976   2.512   4.478 -0.2536 -0.3075  0.4432
 5368SOL    HW127563   0.933   2.528   4.561  3.3237  0.0468  2.2354
 5368SOL    HW227564   0.932   2.579   4.426  1.4510 -1.7463 -2.8614
 5369SOL     OW27565   1.688   4.222  14.832 -0.4392 -0.2170  0.2711
 5369SOL    HW127566   1.721   4.309  14.810 -1.1885 -0.1658 -0.6285
 5369SOL    HW227567   1.610   4.222  14.777 -0.3169  0.4107  0.0942
 5370SOL     OW27568   0.947   2.153   1.948 -0.3635 -0.0149 -0.9689
 5370SOL    HW127569   0.967   2.231   1.897  1.5137  2.1095  3.0618
 5370SOL    HW227570   1.014   2.165   2.015  0.0093  2.3544 -1.7657
 5371SOL     OW27571   1.698   1.602   8.000  0.1900  0.2633 -0.0359
 5371SOL    HW127572   1.660   1.649   8.074  0.4289 -1.7714  1.3789
 5371SOL    HW227573   1.629   1.537   7.987  1.2613 -1.7544  4.2740
 5372SOL     OW27574   0.886   1.839   8.795 -0.4461 -0.3058 -0.4210
 5372SOL    HW127575   0.865   1.914   8.740 -1.1039 -1.6179 -1.9631
 5372SOL    HW227576   0.821   1.847   8.865 -1.0041  0.2871 -1.0174
 5373SOL     OW27577   2.273   0.249   5.465  0.1132 -0.0989  0.4893
 5373SOL    HW127578   2.255   0.301   5.386 -1.2793 -1.1638  0.0959
 5373SOL    HW227579   2.303   0.171   5.418  1.4765  1.3403 -1.0233
 5374SOL     OW27580   3.904   2.524  14.914  0.5599 -0.4080  0.1655
 5374SOL    HW127581   3.811   2.529  14.936 -0.5561 -2.3681 -4.0701
 5374SOL    HW227582   3.913   2.450  14.854  1.4928 -0.2314  0.0896
 5375SOL     OW27583   1.237   3.521  10.357  0.1309 -0.2985  0.7282
 5375SOL    HW127584   1.211   3.432  10.332 -0.1699 -0.9943  3.5834
 5375SOL    HW227585   1.317   3.506  10.407 -0.5323  1.0854  2.2017
 5376SOL     OW27586   3.742   1.892   3.038  0.2597  0.3650  0.2152
 5376SOL    HW127587   3.755   1.870   2.946  1.4528 -1.3735  0.8011
 5376SOL    HW227588   3.798   1.967   3.057  0.3930  0.8768 -2.1545
 5377SOL     OW27589   3.076   4.285   9.174 -0.4123  0.0838 -0.0016
 5377SOL    HW127590   2.998   4.317   9.128 -0.4419 -0.2420 -0.1828
 5377SOL    HW227591   3.066   4.198   9.135 -2.6342  0.3706 -0.0750
 5378SOL     OW27592   3.937   2.878   8.767 -0.4841  0.3317  0.6367
 5378SOL    HW127593   3.971   2.880   8.678  0.4873 -0.4351  0.9862
 5378SOL    HW227594   3.863   2.939   8.768 -1.1458 -0.4729  0.6244
 5379SOL     OW27595   3.933   0.889   3.262 -0.2774 -0.4048  0.2872
 5379SOL    HW127596   3.863   0.929   3.313 -0.0586  1.0919 -0.6098
 5379SOL    HW227597   3.962   0.834   3.335 -1.4625 -1.8199 -0.3092
 5380SOL     OW27598   1.649   0.810   7.030 -0.2663 -0.1791  0.4290
 5380SOL    HW127599   1.607   0.874   7.087  0.8831  1.3039 -0.4145
 5380SOL    HW227600   1.734   0.854   7.026 -0.4613  0.3360  2.4599
 5381SOL     OW27601   1.911   3.453  16.418 -0.1054 -0.0535  0.5468
 5381SOL    HW127602   1.970   3.529  16.417 -0.3428  0.1144 -0.4736
 5381SOL    HW227603   1.964   3.388  16.464 -0.0467 -0.3325  0.0741
 5382SOL     OW27604   4.291   3.935   1.414  0.3064 -0.5340 -0.2561
 5382SOL    HW127605   4.228   3.992   1.459  0.4402 -1.8537  1.6259
 5382SOL    HW227606   4.329   3.995   1.351 -1.7391 -0.6474 -1.5702
 5383SOL     OW27607   1.910   2.839   8.774 -0.3734  0.0212 -0.4079
 5383SOL    HW127608   1.992   2.792   8.761  0.5926  0.7197  3.0550
 5383SOL    HW227609   1.895   2.826   8.868 -0.0154 -0.8442 -0.4728
 5384SOL     OW27610   0.426   3.227   7.161 -0.0881  0.2247 -0.3560
 5384SOL    HW127611   0.383   3.286   7.222  1.4449 -0.6515  1.5871
 5384SOL    HW227612   0.478   3.185   7.230 -1.8031 -0.3654  0.5675
 5385SOL     OW27613   4.648   4.395   6.601  0.1132 -0.8414 -0.2890
 5385SOL    HW127614   4.590   4.401   6.525  0.4400 -0.8851 -0.5407
 5385SOL    HW227615   4.703   4.470   6.578  0.1685 -0.5074  0.9184
 5386SOL     OW27616   1.003   2.681   7.422  0.2996 -0.2743 -0.1144
 5386SOL    HW127617   1.006   2.718   7.510 -1.5293  0.6575 -0.4479
 5386SOL    HW227618   1.092   2.645   7.414  0.3681  0.1368 -1.2526
 5387SOL     OW27619   2.358   0.927   7.666  0.2447  0.2361  0.5644
 5387SOL    HW127620   2.328   0.837   7.676  1.5020 -0.2379  0.1027
 5387SOL    HW227621   2.281   0.969   7.629  0.4768  0.0938 -0.0778
 5388SOL     OW27622   0.438   2.239  16.414 -0.1338  0.0775 -0.0416
 5388SOL    HW127623   0.368   2.199  16.362  0.0426 -1.7040  1.0776
 5388SOL    HW227624   0.407   2.195  16.493  1.3903 -1.3684 -0.2469
 5389SOL     OW27625   4.572   3.735  11.288  0.4044  0.2000 -0.1865
 5389SOL    HW127626   4.549   3.770  11.202  1.5847  1.5461  0.0608
 5389SOL    HW227627   4.486   3.711  11.325  1.7222 -0.3748  2.5213
 5390SOL     OW27628   4.395   3.249  11.755 -0.0697 -0.7931 -0.0325
 5390SOL    HW127629   4.323   3.236  11.693 -0.1496  2.6966 -0.6485
 5390SOL    HW227630   4.431   3.160  11.747  0.5816 -0.4827 -0.5128
 5391SOL     OW27631   3.727   4.529  17.124 -0.1393  0.3808 -0.0501
 5391SOL    HW127632   3.643   4.484  17.112  0.7219 -1.2511  0.0514
 5391SOL    HW227633   3.775   4.457  17.165  1.1096 -0.2535 -2.6228
 5392SOL     OW27634   0.514   0.026   2.427  0.1064  0.3414  0.5315
 5392SOL    HW127635   0.566   0.087   2.480  0.9227  2.1599 -2.3504
 5392SOL    HW227636   0.523   0.081   2.349  1.1826 -0.2436  0.2547
 5393SOL     OW27637   4.047   1.625   6.093 -0.0238  0.6221 -0.4716
 5393SOL    HW127638   4.124   1.657   6.047  0.5409 -1.3577 -0.9043
 5393SOL    HW227639   4.044   1.702   6.150  0.9893  1.9655 -2.2170
 5394SOL     OW27640   1.849   1.836   8.312 -0.0260  0.2195  0.1127
 5394SOL    HW127641   1.925   1.892   8.325  0.3799  0.0997 -1.7365
 5394SOL    HW227642   1.898   1.758   8.340  1.9490  1.3863 -0.1190
 5395SOL     OW27643   3.341   1.631   7.391  0.4320 -0.1953  0.4542
 5395SOL    HW127644   3.383   1.643   7.476  3.0652  0.2298 -0.8857
 5395SOL    HW227645   3.366   1.540   7.371  1.6494  0.0229  1.0025
 5396SOL     OW27646   0.196   3.320  13.689 -0.4000 -0.0812  0.6592
 5396SOL    HW127647   0.237   3.361  13.613 -1.5214  0.6678  0.4629
 5396SOL    HW227648   0.263   3.258  13.720 -1.7415 -1.0895  1.5624
 5397SOL     OW27649   4.440   2.534   8.898  0.1830  0.8141 -0.2475
 5397SOL    HW127650   4.435   2.539   8.993 -2.3246  1.0135 -0.3852
 5397SOL    HW227651   4.375   2.595   8.863 -1.4392 -0.6281  0.2661
 5398SOL     OW27652   4.270   2.705   7.965  0.1701 -0.6260 -0.4634
 5398SOL    HW127653   4.240   2.697   7.874  0.8793 -1.3075 -0.6325
 5398SOL    HW227654   4.259   2.800   7.966  1.4616 -0.4784 -0.1970
 5399SOL     OW27655   1.797   0.735   3.343 -0.2415  0.0358 -0.4439
 5399SOL    HW127656   1.827   0.659   3.293  1.8956 -1.5460  3.2612
 5399SOL    HW227657   1.751   0.787   3.278 -0.7903  0.5560  0.3601
 5400SOL     OW27658   0.265   3.438   1.998  0.0792 -0.2941 -0.3668
 5400SOL    HW127659   0.227   3.519   2.032 -2.2157 -2.1101  1.3791
 5400SOL    HW227660   0.272   3.383   2.076  1.0287 -0.0875 -0.3032
 5401SOL     OW27661   0.742   2.042   3.913  0.0236 -0.4014 -0.4754
 5401SOL    HW127662   0.838   2.044   3.911 -0.0202  2.3152  0.4568
 5401SOL    HW227663   0.715   2.066   3.824  1.8931  1.6281 -0.4840
 5402SOL     OW27664   0.791   2.213  15.006  0.1915  0.3990 -0.8935
 5402SOL    HW127665   0.740   2.132  15.012  2.8735 -1.2967 -0.9126
 5402SOL    HW227666   0.749   2.249  14.929  1.3468 -1.8625 -2.6003
 5403SOL     OW27667   0.372   0.908   9.027  0.3868  0.7864 -0.1871
 5403SOL    HW127668   0.419   0.833   9.064  1.2735  0.5326 -1.7898
 5403SOL    HW227669   0.451   0.961   9.019  1.5500 -1.0897 -1.4352
 5404SOL     OW27670   1.775   3.217   8.121 -0.2807 -0.5291  0.0610
 5404SOL    HW127671   1.723   3.207   8.201 -2.2692 -0.8648 -1.2667
 5404SOL    HW227672   1.760   3.309   8.099 -0.7146 -0.3869  0.9391
 5405SOL     OW27673   2.866   1.104   9.216 -0.0156 -0.0902 -0.6060
 5405SOL    HW127674   2.888   1.089   9.125 -0.8208 -0.2590 -0.7733
 5405SOL    HW227675   2.872   1.200   9.224  0.4628 -0.1156 -0.6362
 5406SOL     OW27676   1.697   0.812  16.834 -0.1865 -0.0455  0.5534
 5406SOL    HW127677   1.617   0.839  16.880 -1.0791  0.0935 -1.1155
 5406SOL    HW227678   1.764   0.830  16.900  0.4355  1.2777 -0.4395
 5407SOL     OW27679   0.802   3.288   8.482  0.2971 -0.2650  0.1029
 5407SOL    HW127680   0.835   3.257   8.567  0.9946 -0.6404 -0.3050
 5407SOL    HW227681   0.708   3.276   8.493  0.2438 -0.1528 -0.2298
 5408SOL     OW27682   2.472   0.561   3.490 -0.1003 -0.8881 -1.0485
 5408SOL    HW127683   2.435   0.484   3.533 -0.7440  0.0790  0.1185
 5408SOL    HW227684   2.434   0.629   3.546  1.4733  0.6493 -1.8463
 5409SOL     OW27685   2.868   1.294   1.874 -1.0250  0.3074  0.2395
 5409SOL    HW127686   2.951   1.333   1.848 -1.2042 -0.3840 -1.3919
 5409SOL    HW227687   2.890   1.227   1.940  2.5628 -1.2540 -2.5540
 5410SOL     OW27688   3.983   0.795  17.400  0.2135 -0.0735  0.0970
 5410SOL    HW127689   3.893   0.827  17.396 -0.1830 -1.1309  0.4559
 5410SOL    HW227690   3.991   0.781  17.494  0.2786  1.5892  0.3229
 5411SOL     OW27691   1.515   4.301  13.564  0.3189  0.1722 -0.1210
 5411SOL    HW127692   1.421   4.288  13.569  0.1385  0.7453 -2.0295
 5411SOL    HW227693   1.518   4.378  13.621  0.2002  0.6020 -0.6968
 5412SOL     OW27694   3.746   3.340   2.387  0.6946 -0.8621 -0.2630
 5412SOL    HW127695   3.795   3.395   2.326 -0.1833 -0.1855 -0.3453
 5412SOL    HW227696   3.706   3.270   2.336 -0.9731  1.1938 -1.7682
 5413SOL     OW27697   2.101   4.343  13.746  0.2015  0.4230  0.1254
 5413SOL    HW127698   2.080   4.257  13.709 -0.3923  0.5915  0.0732
 5413SOL    HW227699   2.019   4.379  13.777 -0.1050 -0.4150  0.2900
 5414SOL     OW27700   1.417   2.488   2.864 -0.3261 -0.4381 -0.0909
 5414SOL    HW127701   1.496   2.530   2.831  1.3052 -3.5612 -0.1801
 5414SOL    HW227702   1.447   2.447   2.945  1.4877 -1.1172 -1.1075
 5415SOL     OW27703   3.476   1.813   2.953  0.1677 -0.3366  0.0032
 5415SOL    HW127704   3.567   1.840   2.940  0.9215 -2.3733  0.9620
 5415SOL    HW227705   3.449   1.795   2.863  1.6800  1.4151 -0.8153
 5416SOL     OW27706   2.948   1.192   1.088 -0.1012  0.7989 -0.3632
 5416SOL    HW127707   2.886   1.190   1.161  0.3030  1.8134  0.0208
 5416SOL    HW227708   2.919   1.272   1.043  0.2441  0.7524 -0.6632
 5417SOL     OW27709   4.602   3.103   2.153  0.1837  0.0375 -0.3708
 5417SOL    HW127710   4.579   3.011   2.140  0.9768 -0.5264  2.2142
 5417SOL    HW227711   4.678   3.116   2.095 -1.2897  1.2652 -2.0062
 5418SOL     OW27712   2.390   4.590   7.123 -0.0024 -0.5759 -0.3339
 5418SOL    HW127713   2.342   4.552   7.196  1.4348 -0.3810  0.7105
 5418SOL    HW227714   2.373   4.526   7.054  1.2325 -1.8176  0.5150
 5419SOL     OW27715   4.554   4.258   4.425 -0.1002  0.4929 -0.0063
 5419SOL    HW127716   4.543   4.177   4.475  1.0293 -1.4042 -2.8215
 5419SOL    HW227717   4.611   4.314   4.478 -1.3819 -0.4174  2.3294
 5420SOL     OW27718   1.637   3.477   1.703  0.2375 -0.7437  0.3989
 5420SOL    HW127719   1.575   3.524   1.648  0.0814 -0.6483  0.6559
 5420SOL    HW227720   1.622   3.524   1.785  2.9270  3.0770 -1.3150
 5421SOL     OW27721   4.674   3.474   6.873 -0.7264  0.0314  0.2463
 5421SOL    HW127722   4.624   3.429   6.805 -1.5886  0.8474  0.3365
 5421SOL    HW227723   0.033   3.508   6.833 -1.5665  1.0289 -0.5919
 5422SOL     OW27724   1.588   2.533   2.293 -0.7360 -0.2026  0.1168
 5422SOL    HW127725   1.537   2.611   2.274 -0.1138  0.6803  2.0590
 5422SOL    HW227726   1.627   2.510   2.208 -0.7572 -0.4442  0.1731
 5423SOL     OW27727   3.778   3.807  15.422 -0.0110 -0.0606  0.1547
 5423SOL    HW127728   3.770   3.819  15.328  0.5178 -2.1842 -0.1512
 5423SOL    HW227729   3.728   3.728  15.442 -1.4516  1.1348  1.3816
 5424SOL     OW27730   1.927   1.240  10.195 -0.2429 -0.0077 -0.0552
 5424SOL    HW127731   1.863   1.279  10.254 -0.8438 -1.2073  0.0832
 5424SOL    HW227732   1.877   1.251  10.114 -2.6330  0.2005  1.4324
 5425SOL     OW27733   3.558   3.262  10.153  0.0626  0.0614 -0.4534
 5425SOL    HW127734   3.502   3.187  10.172 -1.8755  1.9952  1.4308
 5425SOL    HW227735   3.629   3.204  10.125 -0.1728 -1.3545  1.8842
 5426SOL     OW27736   3.348   2.023   8.617 -0.6363 -0.0555 -1.2644
 5426SOL    HW127737   3.300   2.023   8.700 -0.9722  1.8785 -1.4427
 5426SOL    HW227738   3.407   2.098   8.627 -1.0720 -0.1185  1.7355
 5427SOL     OW27739   2.039   4.574   4.389  0.1656  0.2845  0.0346
 5427SOL    HW127740   2.106   4.625   4.434  0.3831  0.9868 -1.0903
 5427SOL    HW227741   2.074   4.528   4.313 -0.4887 -1.3634  0.7254
 5428SOL     OW27742   0.821   3.352  11.913 -0.3671 -0.6506 -0.5356
 5428SOL    HW127743   0.826   3.401  11.831  0.4991 -1.5813 -1.0404
 5428SOL    HW227744   0.781   3.420  11.967  0.0688 -0.7713 -0.0599
 5429SOL     OW27745   1.592   2.328   7.050 -0.1962 -0.1104  0.5509
 5429SOL    HW127746   1.601   2.388   6.976 -0.3924 -2.3943 -1.3552
 5429SOL    HW227747   1.514   2.371   7.084  0.3216  0.0388  1.5382
 5430SOL     OW27748   0.696   0.266   4.618  0.1795 -0.0003 -0.5067
 5430SOL    HW127749   0.734   0.203   4.557  0.0314 -1.4854  0.9347
 5430SOL    HW227750   0.713   0.208   4.692  1.2128  0.8206 -0.0964
 5431SOL     OW27751   2.846   3.216   5.300  0.7541 -0.1831  0.2358
 5431SOL    HW127752   2.891   3.132   5.297  0.5277 -0.3854  3.4089
 5431SOL    HW227753   2.878   3.263   5.223 -0.1119  2.9419  1.8050
 5432SOL     OW27754   0.996   4.152   2.005  0.1416  0.0932  0.0820
 5432SOL    HW127755   0.910   4.134   1.968  1.0716 -0.9841 -1.5343
 5432SOL    HW227756   1.024   4.070   2.046 -0.4098 -0.0704  0.1318
 5433SOL     OW27757   1.906   0.200  17.446  0.0235 -0.0826  0.1063
 5433SOL    HW127758   1.880   0.114  17.412 -0.2012 -0.7714  1.9768
 5433SOL    HW227759   1.936   0.180  17.535 -0.1491  0.6521  0.3263
 5434SOL     OW27760   4.212   1.468   6.255 -1.0923  0.3362 -0.3331
 5434SOL    HW127761   4.263   1.549   6.266 -1.0986  0.4881 -1.4414
 5434SOL    HW227762   4.169   1.484   6.171 -2.1945  1.0336  0.3724
 5435SOL     OW27763   2.243   4.113   4.694 -0.1686 -0.3487 -0.1966
 5435SOL    HW127764   2.336   4.092   4.699  0.4908  2.1854 -1.4682
 5435SOL    HW227765   2.234   4.162   4.776  0.5146 -1.3616  0.4782
 5436SOL     OW27766   0.236   2.995   6.066  0.2025  0.6099  0.1829
 5436SOL    HW127767   0.291   3.053   6.119 -0.5494 -0.1825  1.8228
 5436SOL    HW227768   0.177   2.982   6.140  0.1365  1.4377  0.2787
 5437SOL     OW27769   2.147   1.673   6.263 -0.0045 -0.2494  0.6308
 5437SOL    HW127770   2.117   1.631   6.183 -0.0235 -0.6003  0.8229
 5437SOL    HW227771   2.179   1.597   6.312 -1.0086  0.5180  2.4882
 5438SOL     OW27772   3.857   4.153   4.681  0.7913 -0.2468  0.2321
 5438SOL    HW127773   3.883   4.231   4.729 -0.3524 -1.5863  3.0870
 5438SOL    HW227774   3.783   4.179   4.626  0.2348 -2.4193 -0.0495
 5439SOL     OW27775   0.138   1.339   0.300  0.1477 -0.0605  0.6476
 5439SOL    HW127776   0.147   1.432   0.282 -0.0011 -0.9621 -3.8999
 5439SOL    HW227777   0.053   1.331   0.255  0.9999 -0.3405 -0.8948
 5440SOL     OW27778   3.073   0.093   5.045 -0.4688  0.5602  0.0176
 5440SOL    HW127779   3.090   0.122   5.135 -0.7381 -1.1106  0.6055
 5440SOL    HW227780   3.006   0.155   5.018 -1.1340  0.3624  1.2313
 5441SOL     OW27781   2.646   4.160   4.121 -0.5357 -0.1930  0.5768
 5441SOL    HW127782   2.574   4.097   4.130 -0.0023 -0.9041 -0.2030
 5441SOL    HW227783   2.673   4.169   4.213 -2.4758  0.4546  1.0891
 5442SOL     OW27784   0.529   3.739   5.923  0.2143 -0.0525  0.1106
 5442SOL    HW127785   0.524   3.653   5.965 -0.8350  0.2091  0.5176
 5442SOL    HW227786   0.618   3.730   5.890 -0.3611 -0.9739 -1.1656
 5443SOL     OW27787   1.413   3.152   8.266 -0.0980  0.1653  0.0433
 5443SOL    HW127788   1.353   3.085   8.297 -2.9261  2.3375 -0.6910
 5443SOL    HW227789   1.428   3.192   8.352  2.2728 -2.1234  0.6822
 5444SOL     OW27790   4.105   3.103   3.440 -0.4020  0.3722 -0.4029
 5444SOL    HW127791   4.192   3.118   3.478 -0.7066  2.5209 -0.5292
 5444SOL    HW227792   4.053   3.181   3.462 -1.7574  0.1005 -2.7123
 5445SOL     OW27793   0.155   3.400   5.706 -0.0467 -0.4735 -0.2451
 5445SOL    HW127794   0.249   3.413   5.717  0.1685 -1.2597 -1.1285
 5445SOL    HW227795   0.154   3.383   5.611 -1.3608 -1.5740 -0.0328
 5446SOL     OW27796   1.164   3.053   5.228  0.2737  0.5486  0.1521
 5446SOL    HW127797   1.124   3.137   5.202 -1.7689  0.0647  1.7012
 5446SOL    HW227798   1.214   3.032   5.150  0.6247 -1.4736  0.9409
 5447SOL     OW27799   0.722   1.763   7.500 -0.0560 -0.0802 -0.5595
 5447SOL    HW127800   0.757   1.782   7.413  0.3437  1.0615 -0.1482
 5447SOL    HW227801   0.632   1.736   7.479 -0.3801 -0.0981  0.8488
 5448SOL     OW27802   3.277   4.407  10.993  0.3059  0.1460  0.5170
 5448SOL    HW127803   3.326   4.325  10.984 -3.9444 -2.3987  0.8299
 5448SOL    HW227804   3.210   4.374  11.053 -1.8883  0.4131 -1.7657
 5449SOL     OW27805   4.122   2.824  11.540  0.0541  0.2578  0.2017
 5449SOL    HW127806   4.191   2.889  11.522 -0.0040 -0.0865 -1.2844
 5449SOL    HW227807   4.045   2.874  11.514  0.0535  1.0553  1.6953
 5450SOL     OW27808   3.881   3.137   6.826  0.0054  0.0712  0.2213
 5450SOL    HW127809   3.839   3.216   6.861  1.3262  0.1454  1.6776
 5450SOL    HW227810   3.809   3.093   6.781 -1.9123  2.2963  1.0988
 5451SOL     OW27811   0.079   3.335  10.703 -0.1654 -0.5662 -0.8018
 5451SOL    HW127812   0.167   3.362  10.677  0.0849 -0.1069  0.5672
 5451SOL    HW227813   0.051   3.282  10.628 -3.0964 -0.1066 -0.0435
 5452SOL     OW27814   0.072   1.736  11.232 -0.1786 -0.1693  0.3336
 5452SOL    HW127815   0.014   1.768  11.301 -2.8721 -0.8688 -1.6007
 5452SOL    HW227816   0.045   1.644  11.235 -3.4148  0.7770  0.8342
 5453SOL     OW27817   1.551   0.583   1.816 -0.7218  0.6956 -0.1859
 5453SOL    HW127818   1.645   0.566   1.824 -0.3752  1.9718 -1.5770
 5453SOL    HW227819   1.521   0.509   1.763 -1.1175 -1.9816  3.7758
 5454SOL     OW27820   2.920   3.658   8.345  0.2466  0.2424 -0.4459
 5454SOL    HW127821   2.909   3.673   8.251  3.2969  3.9539 -0.1623
 5454SOL    HW227822   2.912   3.562   8.349 -3.0883  0.5936  1.2776
 5455SOL     OW27823   3.281   4.027   7.410 -0.5042 -0.0205 -0.2254
 5455SOL    HW127824   3.272   3.954   7.471 -4.0386 -1.9429 -3.0334
 5455SOL    HW227825   3.233   4.091   7.462  0.7990  0.4757  0.3616
 5456SOL     OW27826   1.872   2.024  16.008  0.3486 -0.1738  0.9917
 5456SOL    HW127827   1.942   2.090  16.005  1.8048 -1.7761 -0.7851
 5456SOL    HW227828   1.918   1.949  16.047 -1.0456 -1.4671  0.1465
 5457SOL     OW27829   1.691   0.575   8.911 -0.1533 -0.2884 -0.3440
 5457SOL    HW127830   1.759   0.539   8.968 -0.5344 -1.0464 -0.3701
 5457SOL    HW227831   1.704   0.513   8.839  0.5540  1.7012 -1.9454
 5458SOL     OW27832   2.889   3.874   8.836  0.3631  0.2279  0.1029
 5458SOL    HW127833   2.962   3.929   8.808  0.0462  0.1851 -0.8210
 5458SOL    HW227834   2.825   3.899   8.769 -1.4298 -1.7882  1.0531
 5459SOL     OW27835   4.638   2.296   7.699 -0.0546  0.4724  0.2924
 5459SOL    HW127836   4.585   2.373   7.679 -0.7757 -0.7434 -2.4357
 5459SOL    HW227837   4.586   2.265   7.774 -0.0659 -2.0064 -0.7282
 5460SOL     OW27838   4.180   2.281   8.133  0.1701  0.7149 -0.1821
 5460SOL    HW127839   4.127   2.337   8.077  0.5315  0.7631 -0.4796
 5460SOL    HW227840   4.214   2.343   8.198 -0.4728  0.6470  0.2181
 5461SOL     OW27841   1.210   3.228   4.202 -0.3766  0.4296  0.3228
 5461SOL    HW127842   1.280   3.282   4.166 -1.4880  2.8861  1.8634
 5461SOL    HW227843   1.195   3.172   4.125  0.3196  4.4592 -2.7833
 5462SOL     OW27844   1.301   3.134  12.522  0.1086  0.2209 -0.4955
 5462SOL    HW127845   1.311   3.108  12.430 -0.5290  2.2626 -1.1571
 5462SOL    HW227846   1.393   3.124  12.546 -0.3185  2.0532  1.9552
 5463SOL     OW27847   1.901   2.890   1.699  0.0670  0.1393 -0.3317
 5463SOL    HW127848   1.841   2.871   1.627  1.5779  0.3552 -1.6442
 5463SOL    HW227849   1.970   2.947   1.664  0.1122 -0.3195 -0.9917
 5464SOL     OW27850   4.004   3.737  11.738 -0.3030  0.1980  0.2843
 5464SOL    HW127851   4.097   3.716  11.752 -0.6150 -0.1937  1.7974
 5464SOL    HW227852   3.987   3.764  11.828 -0.7072 -1.5769  0.7252
 5465SOL     OW27853   0.544   1.349   3.895  0.1502  0.2807  0.0068
 5465SOL    HW127854   0.556   1.337   3.801  3.4112 -1.5421  0.6747
 5465SOL    HW227855   0.577   1.439   3.899  1.5978 -0.3000  0.9968
 5466SOL     OW27856   2.244   0.843   2.161  0.5327 -0.1230  0.4895
 5466SOL    HW127857   2.268   0.771   2.220  0.5959 -0.7793 -0.3341
 5466SOL    HW227858   2.198   0.796   2.091  0.8114  1.3113 -0.6552
 5467SOL     OW27859   2.483   4.340   2.168 -0.2798 -0.0560 -0.7773
 5467SOL    HW127860   2.531   4.423   2.161  4.6117 -2.7947  0.4021
 5467SOL    HW227861   2.553   4.278   2.187 -2.0305 -1.9488 -0.5776
 5468SOL     OW27862   1.947   2.556   2.287  0.1227 -0.2365 -0.5281
 5468SOL    HW127863   1.939   2.461   2.287  0.3998 -0.2553 -0.2158
 5468SOL    HW227864   1.925   2.579   2.196  0.5486 -1.9877 -1.0725
 5469SOL     OW27865   2.356   0.643   6.505  0.3790 -0.1261 -0.3073
 5469SOL    HW127866   2.440   0.685   6.487  0.7942 -0.3848  1.0641
 5469SOL    HW227867   2.399   0.557   6.502 -0.5211 -0.4847 -2.4728
 5470SOL     OW27868   2.886   2.920   7.738 -0.6974  0.0944  0.1833
 5470SOL    HW127869   2.950   2.990   7.726  0.6656 -0.5894  3.3084
 5470SOL    HW227870   2.840   2.918   7.655 -0.5302  0.0636  0.0918
 5471SOL     OW27871   4.578   0.660  14.379 -0.3091  0.6116  0.0018
 5471SOL    HW127872   4.627   0.680  14.299 -0.5495  2.4768  0.3230
 5471SOL    HW227873   4.575   0.565  14.361  0.1125  0.5002  0.5187
 5472SOL     OW27874   3.588   1.402   8.135  0.0351 -0.0229 -0.4448
 5472SOL    HW127875   3.682   1.385   8.135 -0.5280 -3.2713 -0.2060
 5472SOL    HW227876   3.550   1.317   8.160  0.7792 -0.8834 -2.2138
 5473SOL     OW27877   1.662   1.859   1.225  0.1322 -0.2836  0.5170
 5473SOL    HW127878   1.586   1.914   1.205  0.3812 -0.5691 -1.1407
 5473SOL    HW227879   1.704   1.903   1.300 -1.4084  0.6182  0.8434
 5474SOL     OW27880   4.327   3.874  16.206  0.2205 -0.2285  0.3899
 5474SOL    HW127881   4.382   3.882  16.129  1.3515  1.7457  1.4116
 5474SOL    HW227882   4.342   3.782  16.226  2.8565  0.6883  2.5838
 5475SOL     OW27883   3.058   0.183  13.969  0.3067  0.1032 -0.2990
 5475SOL    HW127884   3.054   0.198  13.874 -3.0353 -1.7775 -0.4716
 5475SOL    HW227885   2.991   0.237  14.011  0.0305 -1.0138  0.6933
 5476SOL     OW27886   3.309   0.897   9.746  0.3335 -0.2256 -0.4305
 5476SOL    HW127887   3.244   0.967   9.736  0.4140 -0.3520 -1.9006
 5476SOL    HW227888   3.314   0.891   9.841  0.5408 -0.1093 -0.4340
 5477SOL     OW27889   3.994   4.508   6.540  0.2863 -0.1899  0.0530
 5477SOL    HW127890   3.938   4.468   6.473 -0.4412 -2.8084  2.1875
 5477SOL    HW227891   4.078   4.510   6.495 -0.2111  1.5082 -0.7876
 5478SOL     OW27892   1.503   3.566  10.108 -0.2156 -0.8086 -0.0982
 5478SOL    HW127893   1.529   3.474  10.099  0.5422 -0.4549 -1.6049
 5478SOL    HW227894   1.563   3.606  10.045 -0.6949 -0.6682 -0.4588
 5479SOL     OW27895   3.035   4.615   9.518 -0.1133  0.2443 -0.7143
 5479SOL    HW127896   2.995   4.565   9.446 -1.0105 -2.8970  1.9470
 5479SOL    HW227897   3.122   4.576   9.527  0.2078  1.4295  1.2649
 5480SOL     OW27898   2.238   2.189  12.943  0.5942  0.1040  0.1165
 5480SOL    HW127899   2.267   2.265  12.892 -2.2545  0.9730 -0.2228
 5480SOL    HW227900   2.300   2.191  13.016  0.0555 -0.7928  0.6040
 5481SOL     OW27901   3.636   0.551   2.036 -0.2412  0.2363 -0.1260
 5481SOL    HW127902   3.698   0.540   2.108 -1.0100 -1.2510  0.3006
 5481SOL    HW227903   3.646   0.472   1.983 -1.2061 -0.2056  0.3567
 5482SOL     OW27904   1.020   3.013   9.567  0.0287 -0.5247 -0.5837
 5482SOL    HW127905   0.980   2.960   9.636  1.2408 -0.5745  0.0756
 5482SOL    HW227906   1.099   2.962   9.548 -0.4191 -1.3783 -0.1910
 5483SOL     OW27907   4.006   4.027   0.132 -0.8416  0.3239 -0.0266
 5483SOL    HW127908   4.039   4.116   0.116 -0.6858 -0.1343 -2.3127
 5483SOL    HW227909   3.968   4.027   0.044  1.1117 -4.5466 -0.8384
 5484SOL     OW27910   3.688   4.222   3.856 -0.4122 -0.6242  0.4878
 5484SOL    HW127911   3.733   4.192   3.935  2.0670 -0.1684 -0.7298
 5484SOL    HW227912   3.757   4.209   3.791 -0.6666 -0.3505  0.1672
 5485SOL     OW27913   2.831   0.429  12.355 -0.5308  0.1538  0.6527
 5485SOL    HW127914   2.744   0.467  12.367  0.0339  1.1332  1.6328
 5485SOL    HW227915   2.831   0.388  12.442 -0.0459  1.2630  1.1709
 5486SOL     OW27916   4.485   1.053   2.536  0.3030 -0.2993  0.4714
 5486SOL    HW127917   4.538   1.122   2.577 -0.1326 -0.5772  1.4944
 5486SOL    HW227918   4.408   1.067   2.591  2.0548  1.8636  2.4003
 5487SOL     OW27919   4.122   3.365   8.149  0.3968  0.4023  0.2520
 5487SOL    HW127920   4.131   3.451   8.109 -0.2895  0.9321  1.2501
 5487SOL    HW227921   4.201   3.373   8.202  0.9950  2.2447 -0.9144
 5488SOL     OW27922   1.592   4.376   1.664 -0.3082  0.1265  0.5569
 5488SOL    HW127923   1.610   4.398   1.573 -0.9509  0.1999  0.4457
 5488SOL    HW227924   1.645   4.437   1.715 -0.4627  1.2437 -0.6251
 5489SOL     OW27925   4.195   1.665   8.400  0.5297 -0.0380 -0.0648
 5489SOL    HW127926   4.115   1.700   8.440  0.7960  1.4135 -0.7948
 5489SOL    HW227927   4.251   1.743   8.397  1.3853 -0.7019 -1.2550
 5490SOL     OW27928   3.868   3.704  11.515 -0.4084 -0.3530  0.2693
 5490SOL    HW127929   3.911   3.715  11.600  0.7487  1.9079 -0.6102
 5490SOL    HW227930   3.879   3.611  11.494  0.1721  0.1636 -1.7294
 5491SOL     OW27931   1.773   3.991   7.165  0.6697 -0.2242  0.6161
 5491SOL    HW127932   1.861   3.974   7.134 -0.1323  1.9684 -2.8699
 5491SOL    HW227933   1.732   3.909   7.135 -0.4092  0.9378 -1.0453
 5492SOL     OW27934   4.561   0.258   3.767  0.1839 -0.0739 -0.5379
 5492SOL    HW127935   4.475   0.257   3.726  0.4314  2.2948 -1.1102
 5492SOL    HW227936   4.550   0.335   3.821  0.1581 -0.0179 -0.6227
 5493SOL     OW27937   3.929   3.332   3.276 -0.1688 -0.2298  0.3276
 5493SOL    HW127938   3.861   3.286   3.325 -0.0254 -0.3404  0.4249
 5493SOL    HW227939   3.883   3.374   3.204 -0.0776 -0.2222  0.2741
 5494SOL     OW27940   0.319   3.578  13.794 -0.4798 -0.2170 -0.7020
 5494SOL    HW127941   0.277   3.663  13.779  0.6428  0.8633  2.0805
 5494SOL    HW227942   0.293   3.530  13.716  0.6531  1.0256 -1.8388
 5495SOL     OW27943   3.029   3.288   6.977  0.5592  0.2238 -0.5954
 5495SOL    HW127944   2.949   3.246   6.947  0.8202 -1.2910  0.8432
 5495SOL    HW227945   3.001   3.380   6.986  0.2619  0.1203 -0.4560
 5496SOL     OW27946   3.689   1.428  10.154  0.1525  0.1580 -0.5059
 5496SOL    HW127947   3.733   1.514  10.153 -2.0381  1.2815 -0.6829
 5496SOL    HW227948   3.604   1.460  10.185 -0.4245 -0.8630 -1.0641
 5497SOL     OW27949   4.001   1.751   3.203  0.6476  0.3832 -0.1396
 5497SOL    HW127950   3.951   1.787   3.130 -0.9643  3.8720  2.6318
 5497SOL    HW227951   4.024   1.833   3.247  1.7154  0.1996 -0.3638
 5498SOL     OW27952   4.158   4.448   2.086  0.3150  0.0922 -0.0024
 5498SOL    HW127953   4.145   4.406   2.171  0.9432 -1.9338 -0.8869
 5498SOL    HW227954   4.106   4.389   2.030 -0.4031 -1.9914  2.8715
 5499SOL     OW27955   4.415   1.853   3.398 -0.4649  0.1769  0.0075
 5499SOL    HW127956   4.371   1.861   3.313  0.6283  1.7715 -0.4169
 5499SOL    HW227957   4.466   1.934   3.397 -1.8345  1.0249 -0.9680
 5500SOL     OW27958   1.609   1.531   8.461  0.0428  0.3387  0.4334
 5500SOL    HW127959   1.632   1.579   8.382  2.2614 -2.0443 -0.3200
 5500SOL    HW227960   1.515   1.524   8.443 -0.2139  1.8438  1.1362
 5501SOL     OW27961   2.710   2.031  13.181  0.1119 -0.3382 -0.3688
 5501SOL    HW127962   2.683   2.104  13.238 -3.5594 -0.3238 -2.0896
 5501SOL    HW227963   2.666   1.954  13.217 -0.2727 -1.2120 -2.7205
 5502SOL     OW27964   1.136   1.238   5.211 -0.7885  0.4386 -0.2602
 5502SOL    HW127965   1.097   1.307   5.156 -0.5776 -0.8144 -1.9767
 5502SOL    HW227966   1.186   1.292   5.272  2.3013 -2.6923 -0.0318
 5503SOL     OW27967   2.824   4.460   4.199  0.0069 -0.2926 -0.9889
 5503SOL    HW127968   2.782   4.389   4.248 -1.5487  2.4204  1.5808
 5503SOL    HW227969   2.751   4.498   4.151 -0.4014 -0.0180 -0.1475
 5504SOL     OW27970   3.524   3.639   2.451 -0.2415 -0.1577  0.9716
 5504SOL    HW127971   3.498   3.550   2.427  0.2502  0.1345 -0.6417
 5504SOL    HW227972   3.568   3.665   2.370 -2.0106  1.6380  0.5926
 5505SOL     OW27973   2.389   3.316   3.034 -0.1991  0.0207 -0.2992
 5505SOL    HW127974   2.465   3.278   2.991  1.2826  1.7062  0.8250
 5505SOL    HW227975   2.321   3.259   2.999 -0.1834 -0.6011  0.6635
 5506SOL     OW27976   2.703   1.379   1.470  0.0225  0.3498 -0.2304
 5506SOL    HW127977   2.727   1.469   1.448  1.3166 -0.1297 -0.7603
 5506SOL    HW227978   2.637   1.394   1.538 -0.5463 -1.4863 -0.3713
 5507SOL     OW27979   0.497   2.715   8.528  0.1160  0.2794  0.1240
 5507SOL    HW127980   0.434   2.670   8.471  0.4133  0.4994 -0.3758
 5507SOL    HW227981   0.578   2.671   8.505  1.9542  3.3247  0.7720
 5508SOL     OW27982   4.235   0.481  10.491  0.0251 -0.2966  0.0435
 5508SOL    HW127983   4.153   0.439  10.519  0.1612  1.2983  2.8078
 5508SOL    HW227984   4.264   0.536  10.564  0.1561 -1.2430  0.6964
 5509SOL     OW27985   1.020   1.788   6.348  0.1728  0.4895 -0.4912
 5509SOL    HW127986   0.947   1.726   6.347 -0.5588  1.3660 -2.2731
 5509SOL    HW227987   0.973   1.869   6.364 -2.4890 -1.0289 -0.6658
 5510SOL     OW27988   2.485   2.662   7.200  0.1220 -0.2326 -0.0537
 5510SOL    HW127989   2.530   2.644   7.282 -0.5545  0.6855  0.5275
 5510SOL    HW227990   2.418   2.724   7.231  3.1213  1.1949  3.5439
 5511SOL     OW27991   4.590   4.190   2.497  0.1707  0.0001  0.3370
 5511SOL    HW127992   4.591   4.285   2.511 -0.1047  0.0980 -0.3200
 5511SOL    HW227993   4.550   4.190   2.410  1.5249  0.6151 -0.2885
 5512SOL     OW27994   3.360   0.634   2.082  0.2249 -0.1407  0.5032
 5512SOL    HW127995   3.455   0.627   2.073  0.1822  0.5591 -0.3735
 5512SOL    HW227996   3.365   0.674   2.169 -1.6565  3.7393 -1.1847
 5513SOL     OW27997   0.070   3.967   7.554 -0.3983  0.2902  0.3304
 5513SOL    HW127998   0.021   3.923   7.623 -0.1557 -2.8682 -1.4783
 5513SOL    HW227999   0.158   3.951   7.587  0.3455  0.5031 -1.5363
 5514SOL     OW28000   1.684   2.065   6.113  0.6065  0.1804 -0.4394
 5514SOL    HW128001   1.711   2.016   6.191  0.1074 -0.8389 -0.9019
 5514SOL    HW228002   1.624   2.004   6.069 -0.5142 -0.1366  1.5233
 5515SOL     OW28003   0.345   2.312  11.504  0.2942 -0.2088 -0.4837
 5515SOL    HW128004   0.331   2.324  11.598 -0.9657 -1.2791 -0.5327
 5515SOL    HW228005   0.440   2.300  11.506  0.6237  2.0312 -3.1255
 5516SOL     OW28006   1.598   0.801   4.072 -0.4774  0.3899  0.1851
 5516SOL    HW128007   1.578   0.840   3.988  1.3613  0.7433 -0.0741
 5516SOL    HW228008   1.588   0.706   4.060 -0.9462  0.2445  1.6124
 5517SOL     OW28009   3.822   0.062   2.654 -0.0313  0.5285 -0.3579
 5517SOL    HW128010   3.886   0.089   2.720  1.9688 -1.1533 -1.5959
 5517SOL    HW228011   3.808   4.690   2.670 -2.7080  1.0696  0.3762
 5518SOL     OW28012   2.563   4.261   0.895 -0.0215 -0.0496 -0.1791
 5518SOL    HW128013   2.557   4.179   0.846 -3.6414 -1.7907  3.1533
 5518SOL    HW228014   2.639   4.235   0.946 -0.6905  0.1033  0.8926
 5519SOL     OW28015   1.537   2.154   5.804  0.7416 -0.3427  0.2721
 5519SOL    HW128016   1.497   2.234   5.838 -0.5751 -0.0752 -1.9643
 5519SOL    HW228017   1.492   2.085   5.853 -0.5364 -1.0819 -1.9516
 5520SOL     OW28018   3.171   2.089  14.963  0.1025  0.2738  0.1489
 5520SOL    HW128019   3.089   2.041  14.979  0.4756  0.1147  1.5469
 5520SOL    HW228020   3.208   2.028  14.899  1.9797  0.2762  1.2524
 5521SOL     OW28021   2.193   0.620   8.379 -0.1562  0.0518 -0.4802
 5521SOL    HW128022   2.115   0.675   8.389  0.4212  0.9055 -0.7037
 5521SOL    HW228023   2.240   0.682   8.324 -0.2850 -0.9725 -1.7473
 5522SOL     OW28024   2.799   1.299   5.152 -0.1138 -0.2936 -0.0872
 5522SOL    HW128025   2.757   1.229   5.201  1.4826  1.4599  3.7303
 5522SOL    HW228026   2.849   1.241   5.094 -0.1510 -0.6639  0.2463
 5523SOL     OW28027   0.599   3.493  12.588  0.2400  0.0902 -0.4162
 5523SOL    HW128028   0.565   3.498  12.678 -0.8212  0.2365 -0.8224
 5523SOL    HW228029   0.514   3.514  12.549 -0.8184 -1.9356  0.8083
 5524SOL     OW28030   2.645   1.833   7.485  0.4546  0.2943  0.0510
 5524SOL    HW128031   2.697   1.775   7.540  0.8086 -0.2142 -0.8081
 5524SOL    HW228032   2.687   1.808   7.402 -2.3846 -3.0951 -0.3683
 5525SOL     OW28033   1.028   0.469  13.882 -0.6644  0.1433  0.4195
 5525SOL    HW128034   1.012   0.375  13.894  0.1302 -0.0974 -0.3897
 5525SOL    HW228035   1.080   0.470  13.801  0.3736  1.0128  1.0959
 5526SOL     OW28036   0.237   0.430   2.385 -0.8971  0.8678 -0.7879
 5526SOL    HW128037   0.164   0.407   2.327 -3.2696  1.6160  1.9190
 5526SOL    HW228038   0.197   0.473   2.460  0.6323  0.0749  0.4745
 5527SOL     OW28039   4.543   0.028   8.398 -0.4242 -0.6307  0.0970
 5527SOL    HW128040   4.511   0.046   8.309 -0.3618  3.0574  0.8280
 5527SOL    HW228041   4.564   4.659   8.375  2.7774  0.7452 -2.3051
 5528SOL     OW28042   3.080   0.228   7.726 -0.4739 -0.0072 -0.6153
 5528SOL    HW128043   3.109   0.312   7.690 -0.6609  0.6096  0.6644
 5528SOL    HW228044   3.062   0.253   7.817 -1.0392 -1.2291 -0.3867
 5529SOL     OW28045   4.544   2.482   3.541 -0.0467  0.7256  0.0288
 5529SOL    HW128046   4.478   2.435   3.592 -3.1367  1.3035 -3.4502
 5529SOL    HW228047   4.510   2.571   3.537 -0.6030  0.5204  0.2630
 5530SOL     OW28048   3.090   3.536   2.937 -0.0942 -0.1793  0.7659
 5530SOL    HW128049   3.035   3.575   2.868  2.3059  2.5168  0.3876
 5530SOL    HW228050   3.021   3.542   3.003 -2.8996  1.1539 -2.2821
 5531SOL     OW28051   4.676   2.073   4.381 -0.3722 -0.0337 -0.4129
 5531SOL    HW128052   0.047   2.056   4.398 -0.8044 -2.9763 -1.1118
 5531SOL    HW228053   4.636   2.045   4.463 -0.7213 -1.9708 -1.2550
 5532SOL     OW28054   1.259   3.833   2.998  0.9656 -0.0189 -0.1389
 5532SOL    HW128055   1.229   3.767   2.935  0.4921 -0.1642  0.2406
 5532SOL    HW228056   1.229   3.914   2.957  0.4269  0.0749  0.4538
 5533SOL     OW28057   2.902   0.012   8.018  0.8165  0.2656  0.1046
 5533SOL    HW128058   2.984   0.019   8.067  0.9059 -0.5805  0.0633
 5533SOL    HW228059   2.866   0.101   8.017 -1.1922 -0.5682 -1.1240
 5534SOL     OW28060   2.651   3.820   7.288  0.3207 -0.0320  0.6051
 5534SOL    HW128061   2.620   3.754   7.225 -1.9242  1.0469  0.5857
 5534SOL    HW228062   2.580   3.826   7.352  2.8043  1.2712  3.2238
 5535SOL     OW28063   0.678   4.142   5.146  0.1283 -0.3638 -0.5615
 5535SOL    HW128064   0.628   4.186   5.078 -0.4768 -0.0096  0.1125
 5535SOL    HW228065   0.666   4.191   5.227 -0.3048  0.3655 -1.0728
 5536SOL     OW28066   2.613   4.275  12.456 -0.3240  0.0918 -1.3080
 5536SOL    HW128067   2.681   4.228  12.504 -1.0062  1.1240  0.6420
 5536SOL    HW228068   2.586   4.209  12.393  2.0233 -1.4297 -0.7222
 5537SOL     OW28069   4.264   3.833  14.326 -0.0054  0.2175  0.5014
 5537SOL    HW128070   4.359   3.838  14.339  0.3149  0.8237 -2.1144
 5537SOL    HW228071   4.241   3.925  14.341  0.7786  0.7935 -1.8534
 5538SOL     OW28072   2.702   1.787   3.444  0.5331 -0.4029  0.0191
 5538SOL    HW128073   2.749   1.713   3.406  2.2876  0.4079  0.5873
 5538SOL    HW228074   2.677   1.748   3.528  2.3120  1.4116  1.3681
 5539SOL     OW28075   0.048   2.556   0.480  0.3673  0.3403 -0.1478
 5539SOL    HW128076   0.004   2.615   0.540  0.8176 -0.0786  0.5960
 5539SOL    HW228077   4.694   2.514   0.438 -0.8931  1.7562  0.7130
 5540SOL     OW28078   1.884   0.911   7.018  0.8032 -0.1610  0.2700
 5540SOL    HW128079   1.871   1.003   7.041  0.1296  0.0397 -0.9044
 5540SOL    HW228080   1.907   0.913   6.925  3.5819 -1.5054  0.9277
 5541SOL     OW28081   1.013   3.715  13.233  0.5283 -0.4539 -0.0477
 5541SOL    HW128082   1.056   3.800  13.242  2.5745 -1.1694 -3.0997
 5541SOL    HW228083   1.093   3.665  13.216 -1.0667 -2.3126 -2.1082
 5542SOL     OW28084   2.069   2.333   0.333  0.5481 -0.1132  0.2881
 5542SOL    HW128085   2.029   2.409   0.291 -0.0358 -0.8669 -0.5056
 5542SOL    HW228086   2.001   2.268   0.315 -0.4012  0.6831  0.9936
 5543SOL     OW28087   1.986   0.975  15.477  0.1900 -0.1565  0.0386
 5543SOL    HW128088   1.965   0.886  15.505  1.5856 -0.6255 -0.4095
 5543SOL    HW228089   2.031   0.957  15.394 -1.4059 -0.5422 -0.7477
 5544SOL     OW28090   3.838   1.784  11.494 -0.1335 -0.0228  0.8708
 5544SOL    HW128091   3.850   1.745  11.408  1.1788 -1.0774  1.5258
 5544SOL    HW228092   3.762   1.739  11.532 -0.1461 -1.1215 -0.4436
 5545SOL     OW28093   1.879   1.591   4.697 -0.0808 -0.0302  0.0984
 5545SOL    HW128094   1.822   1.664   4.671 -1.7138 -1.0378  0.7958
 5545SOL    HW228095   1.906   1.630   4.781  1.6679 -0.3032 -0.3530
 5546SOL     OW28096   0.165   0.885   3.192  0.4917 -0.2503  0.6006
 5546SOL    HW128097   0.190   0.793   3.187  0.0922 -0.2856 -0.6654
 5546SOL    HW228098   0.153   0.887   3.287 -2.4770 -0.3842  0.2065
 5547SOL     OW28099   1.056   2.401   6.907  0.0551  0.0552 -0.1876
 5547SOL    HW128100   1.001   2.477   6.921 -0.0700 -0.4093  1.7919
 5547SOL    HW228101   1.087   2.394   6.997 -1.1932  0.3720  0.2693
 5548SOL     OW28102   0.907   0.736   0.051 -0.0780  0.3527  0.1115
 5548SOL    HW128103   0.990   0.767   0.013  0.1846 -0.4980  0.0091
 5548SOL    HW228104   0.943   0.691   0.126  1.7906  0.4150 -0.7350
 5549SOL     OW28105   0.796   1.180   2.562  0.1409 -0.0353  0.3347
 5549SOL    HW128106   0.888   1.205   2.573  0.7925 -1.0772 -2.7446
 5549SOL    HW228107   0.774   1.230   2.483  0.7454 -2.8215 -1.5800
 5550SOL     OW28108   0.618   4.430  16.360 -0.6173 -0.2632  0.4820
 5550SOL    HW128109   0.559   4.440  16.435 -1.9604 -0.0666 -0.6053
 5550SOL    HW228110   0.623   4.517  16.320 -0.6023 -1.3636 -1.8986
 5551SOL     OW28111   1.943   4.459  12.330 -0.1446 -0.3416 -0.5106
 5551SOL    HW128112   2.026   4.497  12.360  1.0305 -0.4615 -3.5793
 5551SOL    HW228113   1.890   4.461  12.409  1.0153  2.3278  0.2072
 5552SOL     OW28114   2.198   1.147  15.319 -0.5833  0.0874 -0.4905
 5552SOL    HW128115   2.128   1.097  15.278 -1.7057  2.3373 -1.3576
 5552SOL    HW228116   2.268   1.083  15.308 -0.1161  0.9042 -2.4637
 5553SOL     OW28117   3.960   0.533   8.526 -0.3422 -0.5086 -0.0723
 5553SOL    HW128118   3.893   0.601   8.537  0.5705  0.0514  2.0666
 5553SOL    HW228119   3.915   0.493   8.452 -1.1623 -0.4390  0.3931
 5554SOL     OW28120   0.565   3.957  10.917 -0.1115  0.3787 -0.1629
 5554SOL    HW128121   0.480   3.918  10.937  0.1279 -0.0569  0.0171
 5554SOL    HW228122   0.556   4.048  10.945  1.2050  0.9977 -1.7895
 5555SOL     OW28123   1.587   0.368   6.079  0.3520 -0.1793  0.1142
 5555SOL    HW128124   1.658   0.365   6.015  1.9342  0.7828  1.8086
 5555SOL    HW228125   1.521   0.415   6.028 -0.1743 -2.0055 -0.8953
 5556SOL     OW28126   2.642   1.005   0.358 -0.9158 -0.1647  0.0404
 5556SOL    HW128127   2.609   0.929   0.309 -0.0008  0.2227 -1.1794
 5556SOL    HW228128   2.598   0.982   0.440 -3.6893 -1.2540 -1.7463
 5557SOL     OW28129   2.846   2.395   7.300 -0.0392 -0.2939  0.6596
 5557SOL    HW128130   2.912   2.437   7.246 -0.4179 -1.4824 -0.7233
 5557SOL    HW228131   2.797   2.475   7.323  0.9341 -0.2212  2.4901
 5558SOL     OW28132   1.841   1.414   8.208 -0.2862  0.1754  0.3239
 5558SOL    HW128133   1.836   1.456   8.123 -0.4985  0.2877  0.3936
 5558SOL    HW228134   1.766   1.356   8.220  1.1058 -2.5992 -4.3265
 5559SOL     OW28135   0.171   4.257   6.611  0.5777  0.2868  0.5382
 5559SOL    HW128136   0.145   4.248   6.703  1.1686 -0.7608  0.6004
 5559SOL    HW228137   0.086   4.290   6.579  0.5551 -0.6717 -0.3969
 5560SOL     OW28138   0.565   2.954   5.429  0.0395  0.3530  0.2942
 5560SOL    HW128139   0.540   2.875   5.476 -1.1799  0.4562 -0.1732
 5560SOL    HW228140   0.496   3.012   5.460 -0.0535  0.1591  0.4490
 5561SOL     OW28141   1.055   3.735  12.458  0.1263 -0.4587 -0.3601
 5561SOL    HW128142   1.067   3.818  12.503 -3.2786 -1.0314  1.5859
 5561SOL    HW228143   1.109   3.679  12.514  0.0574  0.2846  0.4502
 5562SOL     OW28144   0.230   4.299   4.336  0.1486 -0.3768  0.2290
 5562SOL    HW128145   0.296   4.285   4.269 -1.4807 -0.0900 -1.4528
 5562SOL    HW228146   0.147   4.302   4.288  0.6424  1.4312 -0.5360
 5563SOL     OW28147   4.163   1.377   8.485  0.2808 -0.5443 -0.0283
 5563SOL    HW128148   4.069   1.376   8.468  0.1664  2.2282  0.4074
 5563SOL    HW228149   4.192   1.449   8.429 -1.3992 -2.4391 -3.2871
 5564SOL     OW28150   0.954   3.966  15.607  0.1313  0.0520 -0.2576
 5564SOL    HW128151   0.963   3.933  15.697 -1.6117 -1.3510 -0.5927
 5564SOL    HW228152   0.939   4.055  15.639 -1.0319 -0.5416  0.8331
 5565SOL     OW28153   3.425   1.555  12.975 -0.5852 -0.1217 -0.0772
 5565SOL    HW128154   3.488   1.627  12.977  0.3011 -0.8832 -0.4208
 5565SOL    HW228155   3.416   1.538  13.069 -2.8223  3.7573  0.4372
 5566SOL     OW28156   2.460   4.637   4.045 -0.2528 -0.4643 -1.4269
 5566SOL    HW128157   2.496   4.635   3.956  1.7739 -1.2890 -0.5760
 5566SOL    HW228158   2.442   4.544   4.049  2.8941 -1.0890 -1.4446
 5567SOL     OW28159   2.818   1.648   7.559 -0.0035  0.0562 -0.0352
 5567SOL    HW128160   2.911   1.670   7.565  0.1152  0.0315 -1.7446
 5567SOL    HW228161   2.838   1.556   7.540 -0.6142 -0.0596 -0.1214
 5568SOL     OW28162   0.438   4.048   7.906 -0.5247 -0.2338  0.1327
 5568SOL    HW128163   0.520   4.003   7.926 -0.0710  0.2029 -0.7566
 5568SOL    HW228164   0.454   4.071   7.815  0.0765 -2.3616 -0.2934
 5569SOL     OW28165   3.506   0.095  15.585  0.3873 -0.0787 -0.1460
 5569SOL    HW128166   3.506   0.041  15.664  1.7245  1.4781  0.9302
 5569SOL    HW228167   3.458   0.038  15.525 -1.2106  2.0095 -0.8766
 5570SOL     OW28168   4.237   2.586   8.604 -0.3400  0.1552 -0.4082
 5570SOL    HW128169   4.316   2.626   8.641 -0.1994 -2.0883  1.7380
 5570SOL    HW228170   4.188   2.667   8.589  0.3880  0.6003 -0.4085
 5571SOL     OW28171   0.996   0.529  15.979 -0.5874 -0.1071 -0.0286
 5571SOL    HW128172   0.972   0.611  15.935  0.0290  0.1065  0.0346
 5571SOL    HW228173   0.955   0.541  16.065 -0.0977 -1.9220  0.4601
 5572SOL     OW28174   4.431   3.871   8.362  0.3937 -0.4206  0.3349
 5572SOL    HW128175   4.357   3.811   8.349  1.4085 -2.1094  2.3359
 5572SOL    HW228176   4.384   3.954   8.374  0.9533  0.0140 -0.5371
 5573SOL     OW28177   1.631   3.366   7.092 -0.7174 -0.2609 -0.5007
 5573SOL    HW128178   1.537   3.357   7.104 -0.9759  1.1055 -1.4443
 5573SOL    HW228179   1.672   3.327   7.169 -0.3144 -0.3124 -0.7406
 5574SOL     OW28180   1.062   0.699   3.726  0.2482  0.6114  0.2407
 5574SOL    HW128181   1.065   0.781   3.677  0.2491  1.1270  1.1147
 5574SOL    HW228182   0.992   0.713   3.790  1.3717  1.4408  1.2805
 5575SOL     OW28183   2.280   2.110   3.456  0.0918 -0.9221 -0.1861
 5575SOL    HW128184   2.310   2.085   3.368 -0.5957 -2.6799  0.0841
 5575SOL    HW228185   2.260   2.028   3.501 -1.9522  0.9540  2.3356
 5576SOL     OW28186   2.142   2.864   7.964  0.0846  0.0527 -0.1073
 5576SOL    HW128187   2.104   2.819   7.888  2.6922 -2.5106  0.1318
 5576SOL    HW228188   2.062   2.900   8.003 -1.2797 -2.3632 -0.6589
 5577SOL     OW28189   3.619   1.893  12.075  0.4125 -0.0606 -0.3144
 5577SOL    HW128190   3.528   1.907  12.049  0.4349  1.5154  0.4622
 5577SOL    HW228191   3.626   1.798  12.084 -0.3441  0.1666  2.5061
 5578SOL     OW28192   2.059   4.642   1.644 -0.1129 -0.2085 -0.4358
 5578SOL    HW128193   2.069   4.573   1.578  0.3814 -0.2069 -0.3591
 5578SOL    HW228194   2.040   4.717   1.587  2.7491  0.7599 -0.0783
 5579SOL     OW28195   0.135   3.570  11.585  0.0614  0.3968  0.9711
 5579SOL    HW128196   0.080   3.641  11.551 -0.5054 -0.1092  0.8392
 5579SOL    HW228197   0.074   3.497  11.575  0.4579  0.3821 -1.4046
 5580SOL     OW28198   1.069   4.001   5.103 -0.5252 -0.2301  0.3205
 5580SOL    HW128199   1.150   4.047   5.125 -1.0529  1.0036 -0.3148
 5580SOL    HW228200   1.017   4.074   5.069  0.0801  0.6469  1.2535
 5581SOL     OW28201   4.600   1.508   7.935  0.3317  0.2239  0.2285
 5581SOL    HW128202   4.548   1.483   8.011 -1.3956  2.5445 -0.1948
 5581SOL    HW228203   4.660   1.577   7.963  0.2704  0.2824  0.2158
 5582SOL     OW28204   0.284   4.278  15.731 -0.3173  0.1357 -0.1113
 5582SOL    HW128205   0.208   4.335  15.720 -0.9699 -0.8923 -0.9286
 5582SOL    HW228206   0.315   4.266  15.642  1.6144 -1.0923  0.7281
 5583SOL     OW28207   0.521   3.026   2.634 -0.4670  1.0962 -0.1534
 5583SOL    HW128208   0.585   3.068   2.691  1.1404 -1.0999 -0.3342
 5583SOL    HW228209   0.459   2.992   2.699  0.0217  0.6505  0.0789
 5584SOL     OW28210   3.827   0.538  10.742  0.3624 -0.0085  0.0058
 5584SOL    HW128211   3.879   0.484  10.682 -0.6562  1.2103 -1.9548
 5584SOL    HW228212   3.888   0.572  10.808 -1.1640 -1.5082  2.1903
 5585SOL     OW28213   2.711   1.011  12.560 -0.1097 -0.1319 -0.0609
 5585SOL    HW128214   2.686   0.956  12.485 -0.2971 -1.0731  0.6878
 5585SOL    HW228215   2.754   0.946  12.615 -0.2461  0.2937  0.5483
 5586SOL     OW28216   2.586   4.116   8.407  0.1567  0.1667 -0.0546
 5586SOL    HW128217   2.563   4.173   8.333  1.0393 -2.4512 -2.3374
 5586SOL    HW228218   2.501   4.079   8.432 -0.2663 -0.3268 -2.1884
 5587SOL     OW28219   2.608   1.702   2.127  0.1503 -0.2740 -0.2241
 5587SOL    HW128220   2.598   1.796   2.110  1.8385  0.4692  2.8470
 5587SOL    HW228221   2.546   1.666   2.064 -0.5026  0.1914  0.1474
 5588SOL     OW28222   0.224   0.568   5.708 -0.0237 -0.0494  0.1103
 5588SOL    HW128223   0.150   0.629   5.708  0.0029 -0.0167  0.3068
 5588SOL    HW228224   0.286   0.608   5.768 -0.0093  1.0587 -0.6371
 5589SOL     OW28225   3.472   4.500   8.115 -0.5740  0.2211 -0.1849
 5589SOL    HW128226   3.507   4.585   8.090  0.1606  0.0071  0.1001
 5589SOL    HW228227   3.425   4.517   8.196  1.3062  1.8496  0.5638
 5590SOL     OW28228   4.077   0.406   1.588 -0.4876  0.1175 -0.4464
 5590SOL    HW128229   4.007   0.449   1.539  0.7899  1.9498 -0.6474
 5590SOL    HW228230   4.055   0.315   1.569  0.6307 -0.3596  0.5746
 5591SOL     OW28231   2.127   0.870   4.805  0.2167 -0.3555 -0.0279
 5591SOL    HW128232   2.111   0.964   4.794 -0.6024 -0.8363 -2.7951
 5591SOL    HW228233   2.157   0.861   4.896 -1.7581  0.6366  0.7403
 5592SOL     OW28234   4.337   0.625   0.451  0.2752  0.3644 -0.0736
 5592SOL    HW128235   4.370   0.538   0.430  0.9107  0.1283  1.9418
 5592SOL    HW228236   4.303   0.652   0.366  1.2273  0.0017 -0.5617
 5593SOL     OW28237   1.343   3.482   4.315  0.4628 -0.3108  0.4573
 5593SOL    HW128238   1.247   3.479   4.314  0.5268 -2.0649 -0.4033
 5593SOL    HW228239   1.371   3.502   4.226  0.2684  0.0048  0.4675
 5594SOL     OW28240   3.090   2.764  13.566  0.3102 -0.9570  0.1920
 5594SOL    HW128241   3.125   2.787  13.481  0.4184 -0.2368  0.4310
 5594SOL    HW228242   3.171   2.725  13.600 -0.2596 -2.0383  0.3136
 5595SOL     OW28243   1.318   2.944   4.992  0.0311 -0.2100  0.2499
 5595SOL    HW128244   1.244   2.898   4.951  1.4219 -0.5560 -1.8696
 5595SOL    HW228245   1.370   2.973   4.917  0.7875  2.3539  1.7788
 5596SOL     OW28246   4.009   2.186   4.026  0.0367  0.6681  0.3429
 5596SOL    HW128247   4.052   2.246   4.087  1.0493 -1.2016  1.4671
 5596SOL    HW228248   3.915   2.193   4.043  0.1267 -0.3128  1.2533
 5597SOL     OW28249   1.182   1.400   6.093  0.1630  0.0328  0.0689
 5597SOL    HW128250   1.277   1.408   6.090  0.0120  1.6755 -0.4074
 5597SOL    HW228251   1.177   1.333   6.161  0.6721 -1.1277 -1.0421
 5598SOL     OW28252   1.560   2.190   2.863 -0.3086 -0.4468 -0.1599
 5598SOL    HW128253   1.541   2.211   2.955  2.3539 -1.2420  0.5582
 5598SOL    HW228254   1.655   2.187   2.865 -0.3652 -0.4524  2.6831
 5599SOL     OW28255   4.655   3.531   7.585  0.4979 -0.1391  0.0092
 5599SOL    HW128256   0.009   3.490   7.628 -0.3090  0.1025  1.6530
 5599SOL    HW228257   4.581   3.519   7.645 -0.4888 -2.1885 -1.6240
 5600SOL     OW28258   3.008   2.753   5.923  0.8823 -0.7716 -0.4009
 5600SOL    HW128259   3.049   2.838   5.907 -0.3373  0.0784  0.9454
 5600SOL    HW228260   2.927   2.773   5.876  0.8291  1.2941  0.5666
 5601SOL     OW28261   0.403   4.329   8.084 -0.5802  0.5454 -0.2026
 5601SOL    HW128262   0.403   4.371   8.170  1.7988  0.8677 -0.3673
 5601SOL    HW228263   0.494   4.307   8.066 -0.7778 -1.1642  0.9401
 5602SOL     OW28264   4.126   0.428   0.282 -0.0321 -0.8919 -0.3038
 5602SOL    HW128265   4.167   0.502   0.238 -2.8738 -0.8569 -2.8925
 5602SOL    HW228266   4.073   0.390   0.212 -2.3686  0.7913  0.5630
 5603SOL     OW28267   1.333   1.151   2.938 -0.8573  0.0321  0.3082
 5603SOL    HW128268   1.399   1.099   2.892  0.9455  1.2999  1.4487
 5603SOL    HW228269   1.332   1.228   2.880 -0.1753  1.3613  2.0627
 5604SOL     OW28270   4.394   0.914   3.814  0.1641  0.0484  0.0831
 5604SOL    HW128271   4.409   0.820   3.827 -0.2866 -0.2910 -1.7640
 5604SOL    HW228272   4.373   0.913   3.720 -2.1162  0.9764  0.5866
 5605SOL     OW28273   0.819   0.850  16.405 -0.1439 -0.2790  0.0536
 5605SOL    HW128274   0.727   0.859  16.379 -0.4823 -0.9066  1.0664
 5605SOL    HW228275   0.853   0.849  16.316  1.8512  0.6347  0.8038
 5606SOL     OW28276   0.417   2.478  12.232 -0.2873  0.6510 -0.1302
 5606SOL    HW128277   0.411   2.450  12.323  0.9309  0.3456 -0.1493
 5606SOL    HW228278   0.334   2.442  12.200 -0.7478  0.6174  1.1016
 5607SOL     OW28279   1.753   2.183  13.246 -0.2093  0.8455  0.0481
 5607SOL    HW128280   1.825   2.246  13.258  0.4106 -0.0933  1.2579
 5607SOL    HW228281   1.736   2.188  13.152 -0.4940  0.4665  0.0830
 5608SOL     OW28282   1.406   1.419  12.503 -0.0221 -0.5444  0.1521
 5608SOL    HW128283   1.342   1.400  12.572 -1.0679 -0.2715 -0.7373
 5608SOL    HW228284   1.397   1.335  12.457  0.3662 -1.4011  1.6530
 5609SOL     OW28285   4.182   4.323   2.338 -0.4337  0.2346  0.3175
 5609SOL    HW128286   4.223   4.378   2.404  0.7778 -1.1786  0.7568
 5609SOL    HW228287   4.118   4.280   2.396 -0.7893  0.5671  0.1709
 5610SOL     OW28288   0.761   4.194   4.522  0.0684 -0.7862 -0.6282
 5610SOL    HW128289   0.799   4.206   4.435  1.9540 -1.1866  0.1510
 5610SOL    HW228290   0.825   4.172   4.589  0.5523 -1.5387 -1.3341
 5611SOL     OW28291   0.576   3.360  12.265  0.6874 -0.1641  0.2460
 5611SOL    HW128292   0.540   3.440  12.226  2.9425  1.2916  1.1527
 5611SOL    HW228293   0.618   3.312  12.194  2.1057  1.1954  0.1630
 5612SOL     OW28294   2.622   2.090   7.567 -0.2360 -0.2585 -0.0939
 5612SOL    HW128295   2.642   1.997   7.557 -0.3849 -0.1245 -1.6965
 5612SOL    HW228296   2.703   2.129   7.599 -1.6476  0.0094  3.1235
 5613SOL     OW28297   3.932   2.028   7.796 -0.1172  0.1967 -0.3874
 5613SOL    HW128298   3.942   1.934   7.812  2.3525  0.3105 -1.2062
 5613SOL    HW228299   3.992   2.046   7.723 -0.1960  0.4228 -0.3960
 5614SOL     OW28300   4.561   2.416   2.222  0.5414  0.1048  0.7236
 5614SOL    HW128301   4.592   2.335   2.182 -0.9500 -0.5945  0.9974
 5614SOL    HW228302   4.636   2.450   2.271  0.9015  0.9629 -0.3915
 5615SOL     OW28303   2.686   2.700  11.251 -0.3376  0.6781  0.1028
 5615SOL    HW128304   2.656   2.720  11.339 -1.9149  0.1111 -0.3172
 5615SOL    HW228305   2.631   2.759  11.199  0.2518  0.3381 -0.9122
 5616SOL     OW28306   1.014   3.853  15.854 -0.0608 -0.1701 -0.1543
 5616SOL    HW128307   0.955   3.779  15.839  0.2169 -0.4030 -0.1046
 5616SOL    HW228308   1.098   3.811  15.874 -1.0867 -1.4627  1.4917
 5617SOL     OW28309   1.997   0.778   5.072  0.3635 -0.2820 -0.1239
 5617SOL    HW128310   2.066   0.713   5.089  1.2989  0.3994 -1.3017
 5617SOL    HW228311   1.918   0.725   5.059  0.2136 -0.0481 -0.1599
 5618SOL     OW28312   0.045   3.025   1.690 -0.2683 -0.1634 -0.0822
 5618SOL    HW128313   0.090   2.943   1.712  1.0960  0.9174  1.2171
 5618SOL    HW228314   0.122   3.080   1.706 -0.8946  0.4164  0.9214
 5619SOL     OW28315   2.436   1.972   2.540  0.1076  0.1755 -0.2394
 5619SOL    HW128316   2.524   1.989   2.574  0.2209  2.6171 -1.7699
 5619SOL    HW228317   2.455   1.931   2.456 -0.8938 -1.4131  0.3126
 5620SOL     OW28318   0.116   1.835   2.066 -0.3275 -0.3427 -0.3644
 5620SOL    HW128319   0.122   1.740   2.056  0.9487  0.0220 -3.1666
 5620SOL    HW228320   0.206   1.866   2.060 -0.7295  1.4353  2.8026
 5621SOL     OW28321   1.226   3.780  13.920  0.8526  0.0396  0.1268
 5621SOL    HW128322   1.225   3.719  13.846 -1.0481  0.1744  0.0320
 5621SOL    HW228323   1.296   3.745  13.975 -0.4973 -1.7530  0.7296
 5622SOL     OW28324   3.783   1.611   8.732  0.4588 -0.5497  0.1548
 5622SOL    HW128325   3.734   1.665   8.670  0.2494  1.9336  2.4649
 5622SOL    HW228326   3.753   1.522   8.717  1.9146 -1.0373  0.1073
 5623SOL     OW28327   1.980   3.432   4.943  0.1211 -0.5690 -0.1341
 5623SOL    HW128328   1.988   3.345   4.983  1.4639  0.1818  1.2604
 5623SOL    HW228329   1.889   3.427   4.914  0.5089 -0.1095 -1.3912
 5624SOL     OW28330   2.763   3.320   2.802 -0.3645  0.4574  0.2458
 5624SOL    HW128331   2.720   3.295   2.884  0.1851  0.3547  0.4974
 5624SOL    HW228332   2.815   3.243   2.777 -1.9741 -0.8021  0.7602
 5625SOL     OW28333   3.764   2.028  11.555  0.0401 -0.6932 -0.4956
 5625SOL    HW128334   3.723   1.993  11.634 -0.5301  0.0131 -0.4735
 5625SOL    HW228335   3.803   1.946  11.525  0.3499 -0.5984 -0.3570
 5626SOL     OW28336   1.379   4.590   7.487 -0.2692  0.1940 -0.5773
 5626SOL    HW128337   1.468   4.626   7.487 -0.1047 -0.2112  0.0589
 5626SOL    HW228338   1.347   4.627   7.405 -0.0475 -0.0338 -0.7645
 5627SOL     OW28339   1.282   2.145   6.008 -0.0607  0.2991  0.1879
 5627SOL    HW128340   1.288   2.051   6.025  1.2715  0.2749 -0.4295
 5627SOL    HW228341   1.192   2.161   5.980  0.3516  1.8509 -0.2306
 5628SOL     OW28342   3.208   1.151   1.052 -0.3487  0.4599 -0.5986
 5628SOL    HW128343   3.114   1.153   1.070 -0.1036  1.4533  0.5295
 5628SOL    HW228344   3.238   1.066   1.082  1.9121  1.2212 -0.6715
 5629SOL     OW28345   0.015   0.638   8.381  0.3855  0.6027 -0.3915
 5629SOL    HW128346   0.078   0.639   8.453  0.1140 -2.1899 -0.1079
 5629SOL    HW228347   0.041   0.568   8.321 -0.1754 -0.2273  0.3326
 5630SOL     OW28348   4.082   2.006   7.308 -0.4118 -0.0794 -0.5669
 5630SOL    HW128349   4.030   1.929   7.286 -1.9708  0.6435  0.5884
 5630SOL    HW228350   4.170   1.982   7.280 -0.1666 -1.7437  1.6451
 5631SOL     OW28351   1.251   1.941   4.411 -0.3114  0.1874  0.1200
 5631SOL    HW128352   1.316   1.910   4.474 -0.7829 -0.6136  0.2134
 5631SOL    HW228353   1.222   1.859   4.371  0.1615  0.0610  0.0387
 5632SOL     OW28354   3.270   3.221   6.929 -0.4081  0.3904  0.8479
 5632SOL    HW128355   3.184   3.240   6.969 -0.6132 -1.2222  1.1654
 5632SOL    HW228356   3.299   3.310   6.913 -0.7376  0.7281  2.0697
 5633SOL     OW28357   3.384   2.618   7.719  0.1967 -0.6250  0.4970
 5633SOL    HW128358   3.330   2.539   7.714  0.4112 -0.7294 -0.0973
 5633SOL    HW228359   3.332   2.680   7.771 -0.3144 -0.4431 -0.2285
 5634SOL     OW28360   1.268   0.428  12.883 -0.3111  0.1030  0.3038
 5634SOL    HW128361   1.306   0.505  12.840  0.7255 -0.3344  0.4178
 5634SOL    HW228362   1.324   0.425  12.961  0.6429  1.6048 -0.3215
 5635SOL     OW28363   2.218   3.340   6.930  0.5321 -0.1106  0.5301
 5635SOL    HW128364   2.135   3.299   6.906  1.7407 -0.8692 -2.3544
 5635SOL    HW228365   2.268   3.271   6.974 -2.5693 -0.6289  3.2543
 5636SOL     OW28366   0.145   4.531  14.292 -0.2136 -0.3514  0.1171
 5636SOL    HW128367   0.105   4.443  14.288 -0.3005 -0.2830 -0.4757
 5636SOL    HW228368   0.237   4.519  14.315  0.1471  1.7286 -0.2711
 5637SOL     OW28369   1.392   1.959   3.193 -0.5499  0.6848 -0.3024
 5637SOL    HW128370   1.407   1.892   3.126  3.6960 -0.6378  1.9928
 5637SOL    HW228371   1.398   1.908   3.274  2.6769  2.6333  0.6856
 5638SOL     OW28372   3.759   3.375  12.303  0.1138  0.3386 -0.1421
 5638SOL    HW128373   3.731   3.464  12.280  1.1637  1.5349  3.2734
 5638SOL    HW228374   3.732   3.365  12.394  0.2540  0.6331 -0.0676
 5639SOL     OW28375   0.920   1.842  13.576  0.4032  0.0280  0.0624
 5639SOL    HW128376   0.839   1.833  13.527 -0.7388  3.5382  1.2834
 5639SOL    HW228377   0.984   1.833  13.505  1.3132  0.2964  0.8408
 5640SOL     OW28378   3.613   2.633   8.132 -0.0975 -0.2555 -0.0686
 5640SOL    HW128379   3.683   2.695   8.110  0.2175 -0.3957  0.5123
 5640SOL    HW228380   3.625   2.570   8.061 -0.5845  0.6595 -0.9542
 5641SOL     OW28381   2.248   0.090   6.487  0.1820  0.4759  0.0178
 5641SOL    HW128382   2.185   0.027   6.521  0.2562 -0.1728 -1.0631
 5641SOL    HW228383   2.191   0.166   6.498  0.1989  0.5843 -0.6459
 5642SOL     OW28384   4.695   0.967   1.735  0.1769 -0.3330 -0.2978
 5642SOL    HW128385   0.052   0.913   1.728  0.0903 -0.5289  0.2364
 5642SOL    HW228386   4.626   0.904   1.713 -1.2371  0.8580  0.7048
 5643SOL     OW28387   0.075   3.766  13.983  0.6225 -0.4183 -0.1876
 5643SOL    HW128388   4.711   3.767  14.027 -0.1631  1.7995 -1.7766
 5643SOL    HW228389   0.083   3.856  13.954  0.2751  0.0360  1.1227
 5644SOL     OW28390   3.384   4.558  14.567 -0.0526  0.2922 -0.1846
 5644SOL    HW128391   3.406   4.618  14.496 -0.0588  2.1041  1.3687
 5644SOL    HW228392   3.312   4.512  14.523 -0.9373  0.8573  0.6643
 5645SOL     OW28393   2.357   2.874  11.289 -0.0283 -0.3725 -0.1419
 5645SOL    HW128394   2.423   2.858  11.221 -0.2097  1.6250 -0.7981
 5645SOL    HW228395   2.372   2.968  11.302  2.6826 -1.0725  1.7255
 5646SOL     OW28396   2.923   2.753  16.124  0.2583 -0.3303 -0.1517
 5646SOL    HW128397   3.006   2.712  16.149  0.2384 -0.0510  0.3591
 5646SOL    HW228398   2.935   2.848  16.122  1.7681 -0.5173  0.0554
 5647SOL     OW28399   1.225   2.278   4.104 -0.0562  0.2354 -0.0773
 5647SOL    HW128400   1.234   2.345   4.036 -1.0901  1.1738  0.7199
 5647SOL    HW228401   1.136   2.290   4.136 -0.0259 -0.7024  0.3522
 5648SOL     OW28402   2.728   1.869   1.067  0.0096  0.2952 -0.4506
 5648SOL    HW128403   2.766   1.808   1.003  1.6460  0.4683  0.3621
 5648SOL    HW228404   2.692   1.802   1.126  0.5511  0.1421 -0.2919
 5649SOL     OW28405   2.088   4.293   8.153  0.7538 -0.3409  0.1322
 5649SOL    HW128406   2.092   4.245   8.071  0.2965 -1.5441  0.8127
 5649SOL    HW228407   2.177   4.329   8.157 -0.1039  1.5943  2.1387
 5650SOL     OW28408   0.776   0.825   8.245  0.3035 -0.3815  0.5613
 5650SOL    HW128409   0.840   0.805   8.313  1.4191  1.4474  0.0533
 5650SOL    HW228410   0.734   0.743   8.219 -0.2614 -0.0635  0.4810
 5651SOL     OW28411   3.201   2.837  15.416 -0.2813  0.0163  0.9756
 5651SOL    HW128412   3.287   2.877  15.400 -0.1232 -1.1469 -0.9534
 5651SOL    HW228413   3.161   2.907  15.469 -1.2499  1.2853 -1.4567
 5652SOL     OW28414   3.710   0.820   7.603 -0.3012 -0.5997  0.0916
 5652SOL    HW128415   3.752   0.878   7.667 -1.8727  0.6386  0.0141
 5652SOL    HW228416   3.786   0.790   7.553  0.7976  0.8458  0.9070
 5653SOL     OW28417   1.579   3.201   1.668  0.4385  0.0493  0.0900
 5653SOL    HW128418   1.600   3.292   1.686 -1.2716  0.3014  0.7589
 5653SOL    HW228419   1.493   3.200   1.625  0.4546 -1.6285  0.0818
 5654SOL     OW28420   3.413   4.178  12.563 -0.7068 -0.2348 -0.2027
 5654SOL    HW128421   3.438   4.130  12.484 -0.5740 -0.2010 -0.1810
 5654SOL    HW228422   3.434   4.269  12.543  1.8278 -0.4638  1.4782
 5655SOL     OW28423   0.545   0.449   4.140  0.4378 -0.7428 -0.4042
 5655SOL    HW128424   0.495   0.473   4.218  0.5001 -2.3358  0.1227
 5655SOL    HW228425   0.609   0.389   4.178 -0.2664  0.1762  2.2749
 5656SOL     OW28426   0.511   4.473   9.746  0.3560  0.0908  0.2262
 5656SOL    HW128427   0.588   4.499   9.797  0.7910 -1.1870  0.2133
 5656SOL    HW228428   0.442   4.531   9.776 -0.1266  0.7028 -2.0617
 5657SOL     OW28429   3.362   1.850  15.008  0.4424 -0.3978 -0.3592
 5657SOL    HW128430   3.268   1.832  14.998  0.5105 -1.0867  0.2933
 5657SOL    HW228431   3.365   1.885  15.097 -3.0971  0.1701 -0.4587
 5658SOL     OW28432   1.676   4.574   3.775 -0.5830  0.4192 -0.1603
 5658SOL    HW128433   1.632   4.658   3.762 -0.3990  0.0058 -3.5306
 5658SOL    HW228434   1.728   4.567   3.695 -2.2543 -1.9150 -1.0202
 5659SOL     OW28435   1.286   2.046  15.269  0.1068  0.6083  0.1400
 5659SOL    HW128436   1.369   2.001  15.285  1.2065  2.2656 -0.8249
 5659SOL    HW228437   1.225   1.973  15.277  0.6006 -0.0135 -1.7003
 5660SOL     OW28438   4.662   1.234   2.664 -0.0596 -0.5187  0.5636
 5660SOL    HW128439   4.655   1.306   2.727  1.3759  1.3197 -1.3670
 5660SOL    HW228440   4.720   1.172   2.708  0.3938 -0.1009  0.5531
 5661SOL     OW28441   2.025   3.940   5.600  0.0934 -0.6910  0.1565
 5661SOL    HW128442   2.061   3.898   5.678 -0.7785 -0.2722  0.7824
 5661SOL    HW228443   2.016   3.861   5.548 -0.0866 -0.0364 -0.8150
 5662SOL     OW28444   2.027   1.231   3.742 -0.5982 -0.0299 -0.1687
 5662SOL    HW128445   2.108   1.200   3.783 -1.0268 -0.3093  0.4683
 5662SOL    HW228446   2.017   1.165   3.672 -1.4931 -1.2939  1.1565
 5663SOL     OW28447   1.591   3.199   0.585 -0.1175 -0.3554  0.0588
 5663SOL    HW128448   1.672   3.165   0.623 -0.0072 -0.1874 -0.0259
 5663SOL    HW228449   1.601   3.188   0.491  1.7419  1.3506  0.0613
 5664SOL     OW28450   3.581   1.739   8.639 -0.0951  0.2901 -0.2579
 5664SOL    HW128451   3.532   1.734   8.721 -0.0533 -4.6698 -0.4982
 5664SOL    HW228452   3.637   1.810   8.669 -0.8728 -0.3047  2.6433
 5665SOL     OW28453   2.538   1.261   0.296 -0.3923  0.4468 -0.3861
 5665SOL    HW128454   2.464   1.242   0.354 -0.7323 -0.5250 -1.1440
 5665SOL    HW228455   2.585   1.178   0.290  0.0063  0.8210 -2.3330
 5666SOL     OW28456   1.664   0.693   6.780 -0.6009 -0.2425  0.0340
 5666SOL    HW128457   1.654   0.722   6.871  0.9316 -0.3344  0.2305
 5666SOL    HW228458   1.583   0.647   6.761  0.3680 -1.4524 -1.1466
 5667SOL     OW28459   1.174   0.153   3.350 -0.8025 -0.8081 -0.1403
 5667SOL    HW128460   1.259   0.182   3.384 -2.1327  1.3422  1.4066
 5667SOL    HW228461   1.185   0.064   3.318  0.0798 -0.6151 -0.4018
 5668SOL     OW28462   1.809   1.377   1.977 -0.1138 -0.2196  0.0563
 5668SOL    HW128463   1.784   1.469   1.972  0.9240  0.2017  2.3872
 5668SOL    HW228464   1.730   1.327   1.996  2.1152 -3.1401  1.6574
 5669SOL     OW28465   2.802   3.133   6.892 -0.4364  0.4803 -0.5577
 5669SOL    HW128466   2.732   3.086   6.937 -0.1931  1.0951  0.4880
 5669SOL    HW228467   2.789   3.081   6.813  0.3379  0.8807 -0.9548
 5670SOL     OW28468   2.834   1.338   4.810  0.1394 -0.0473 -0.1610
 5670SOL    HW128469   2.782   1.408   4.770  1.5416  1.9754  1.5185
 5670SOL    HW228470   2.891   1.402   4.854 -0.5942  0.7417 -0.3754
 5671SOL     OW28471   4.625   1.308   3.357 -0.3207 -0.0871  0.1431
 5671SOL    HW128472   4.600   1.345   3.272  1.9567 -0.4408 -0.6822
 5671SOL    HW228473   4.558   1.241   3.370 -2.7981  1.7235 -3.2871
 5672SOL     OW28474   1.102   0.379   4.787  0.5261  0.1990 -0.0432
 5672SOL    HW128475   1.195   0.397   4.799  0.3168  0.0169  1.8676
 5672SOL    HW228476   1.072   0.430   4.863  1.3781  3.0937 -1.6857
 5673SOL     OW28477   1.615   0.212  12.484 -0.1234 -0.3309  0.0121
 5673SOL    HW128478   1.590   0.305  12.477  0.1190 -0.2063  0.7867
 5673SOL    HW228479   1.638   0.201  12.576  1.5050 -0.0162 -0.3506
 5674SOL     OW28480   1.772   3.227   4.892  0.4760 -0.3620  0.0994
 5674SOL    HW128481   1.681   3.197   4.893  0.5645 -0.6833 -1.4120
 5674SOL    HW228482   1.816   3.142   4.890  1.9315  0.3730  0.5286
 5675SOL     OW28483   3.208   1.431   9.951  0.3393  0.3526 -0.1614
 5675SOL    HW128484   3.156   1.399  10.025 -2.2223  4.2729 -0.2357
 5675SOL    HW228485   3.150   1.399   9.881 -1.8512  1.1486  1.2730
 5676SOL     OW28486   4.485   1.121   7.699  0.0240 -0.4007 -0.4880
 5676SOL    HW128487   4.487   1.212   7.729  0.1505 -0.4379 -0.3832
 5676SOL    HW228488   4.578   1.107   7.716 -0.4694 -1.8363  0.9727
 5677SOL     OW28489   3.375   4.148  10.919 -0.3790  0.2530 -1.0791
 5677SOL    HW128490   3.352   4.130  10.827  1.1639 -3.2241 -0.7799
 5677SOL    HW228491   3.404   4.059  10.941 -0.4753  0.1641 -1.3131
 5678SOL     OW28492   3.852   2.644   7.935 -0.0582 -0.0345  0.0502
 5678SOL    HW128493   3.800   2.606   7.865 -0.8752  3.2648 -1.1578
 5678SOL    HW228494   3.887   2.722   7.892 -0.5283  1.6816  2.7704
 5679SOL     OW28495   1.417   3.279   0.817 -0.3591 -0.5549 -0.2146
 5679SOL    HW128496   1.345   3.332   0.850 -0.9681 -1.8385  0.5146
 5679SOL    HW228497   1.375   3.253   0.735 -1.3386  0.3029  0.0254
 5680SOL     OW28498   3.785   4.518   6.061 -0.0038  0.3029 -0.5905
 5680SOL    HW128499   3.769   4.438   6.112 -1.6648  1.4100  0.6225
 5680SOL    HW228500   3.881   4.521   6.057  0.0413  1.5555  1.5191
 5681SOL     OW28501   3.008   0.329   5.699  0.4250  0.4647  0.9552
 5681SOL    HW128502   2.969   0.360   5.781 -1.3058  0.2806  0.2187
 5681SOL    HW228503   3.092   0.291   5.724  1.0186  0.3647 -1.2230
 5682SOL     OW28504   1.071   3.107   6.094  0.4357  0.1535  0.0323
 5682SOL    HW128505   1.084   3.033   6.034 -1.1081 -1.8266  2.1326
 5682SOL    HW228506   1.154   3.146   6.067  0.0732  0.0471 -1.2148
 5683SOL     OW28507   1.228   4.010  13.786 -0.2030 -0.0825  0.1872
 5683SOL    HW128508   1.176   3.996  13.707 -1.4078 -2.8159  1.4735
 5683SOL    HW228509   1.202   3.947  13.853  0.6234  1.0205  1.5534
 5684SOL     OW28510   1.308   3.004   1.265 -0.0108 -0.0461  0.7992
 5684SOL    HW128511   1.340   3.072   1.206  1.8941 -1.6444 -0.0496
 5684SOL    HW228512   1.246   3.047   1.324 -1.4676 -3.6705  1.9031
 5685SOL     OW28513   1.515   3.292   0.036 -0.0249  0.4501  0.0018
 5685SOL    HW128514   1.562   3.327   0.111  1.6851 -0.3712 -0.6921
 5685SOL    HW228515   1.531   3.200   0.056 -0.2409  0.2815 -0.5848
 5686SOL     OW28516   4.463   2.511   7.707 -0.0329  0.8542 -0.3688
 5686SOL    HW128517   4.524   2.576   7.672 -0.4765  0.3098 -2.1389
 5686SOL    HW228518   4.386   2.561   7.732 -0.6822  0.5885 -1.8394
 5687SOL     OW28519   1.021   4.219  13.299 -0.1291  0.2621 -0.5495
 5687SOL    HW128520   0.970   4.192  13.376  0.9978 -0.3304 -0.0090
 5687SOL    HW228521   0.950   4.260  13.250 -0.9802 -1.3275 -0.6629
 5688SOL     OW28522   3.255   0.204  14.723 -0.2076 -0.3762 -0.1333
 5688SOL    HW128523   3.270   0.163  14.808 -0.7517 -0.2434  0.0233
 5688SOL    HW228524   3.255   0.128  14.664 -0.2609 -0.3988 -0.1050
 5689SOL     OW28525   2.013   0.342   8.231 -0.3887 -0.1177 -1.0910
 5689SOL    HW128526   2.053   0.403   8.170  1.1910 -1.9595 -1.8578
 5689SOL    HW228527   2.092   0.295   8.257 -1.5720 -1.7389 -0.3762
 5690SOL     OW28528   0.460   2.838  15.305 -0.1503  0.1679  0.3179
 5690SOL    HW128529   0.525   2.831  15.235  0.9305  0.5608  1.2794
 5690SOL    HW228530   0.518   2.842  15.382  0.1492 -2.6706  0.2659
 5691SOL     OW28531   2.419   0.168   5.994  0.3785 -0.3781  0.9492
 5691SOL    HW128532   2.409   0.074   5.982 -0.0404 -0.1082 -0.9068
 5691SOL    HW228533   2.451   0.176   6.084  0.0961 -1.7389  1.1680
 5692SOL     OW28534   1.151   0.187  11.450  0.2145  0.4147 -0.5296
 5692SOL    HW128535   1.190   0.138  11.377 -0.5739  0.5738 -1.0579
 5692SOL    HW228536   1.064   0.217  11.423 -0.1071 -0.5439 -0.5577
 5693SOL     OW28537   0.454   0.762   6.264 -0.4129 -0.9988  0.0337
 5693SOL    HW128538   0.532   0.815   6.244 -1.5533  1.0565  1.0764
 5693SOL    HW228539   0.472   0.673   6.233 -0.3768 -0.9838  0.0115
 5694SOL     OW28540   1.091   4.619   2.979  0.1608 -0.4017 -0.0501
 5694SOL    HW128541   1.133   4.673   2.912  0.2987 -0.8511 -0.3255
 5694SOL    HW228542   1.061   4.542   2.930 -0.4924 -0.8957  1.1121
 5695SOL     OW28543   3.287   1.745   4.212  0.7145  0.0021  0.4173
 5695SOL    HW128544   3.272   1.773   4.122  2.8633 -0.1190  0.0303
 5695SOL    HW228545   3.265   1.652   4.212 -0.9077  0.3809  1.7837
 5696SOL     OW28546   2.429   2.220   0.486  0.2428 -0.0050  0.2372
 5696SOL    HW128547   2.506   2.273   0.507 -1.2683  2.6825 -0.9509
 5696SOL    HW228548   2.457   2.136   0.521 -0.6696 -0.7513 -0.8056
 5697SOL     OW28549   0.907   1.846  12.733 -0.3986  0.1661 -0.4845
 5697SOL    HW128550   0.898   1.895  12.651  0.7394 -1.5617 -1.6529
 5697SOL    HW228551   0.815   1.843  12.758 -0.0241 -2.4680  0.5498
 5698SOL     OW28552   1.601   3.039   6.227  0.6105 -0.3016  0.3176
 5698SOL    HW128553   1.525   3.040   6.170  1.4356 -0.6748 -0.7713
 5698SOL    HW228554   1.625   2.948   6.241 -1.0288 -0.7647  0.1383
 5699SOL     OW28555   1.038   2.642   9.042  0.1728  0.2328  0.1054
 5699SOL    HW128556   0.950   2.608   9.023 -0.8003  1.0203  3.1335
 5699SOL    HW228557   1.056   2.601   9.126  0.9168 -1.4852 -0.9108
 5700SOL     OW28558   2.092   1.050   2.277  0.3838 -0.0087  0.2868
 5700SOL    HW128559   2.136   0.973   2.243  3.2899  1.7861 -0.0366
 5700SOL    HW228560   2.009   1.041   2.230 -0.9418  1.5171  2.2993
 5701SOL     OW28561   0.947   2.670   1.634 -0.2166 -0.5561 -1.1692
 5701SOL    HW128562   0.907   2.710   1.557 -2.0627 -0.3048 -0.0791
 5701SOL    HW228563   0.960   2.578   1.610  1.4874 -0.3734 -0.9349
 5702SOL     OW28564   0.060   2.631   5.282  0.1599 -0.7628 -0.0992
 5702SOL    HW128565   0.055   2.570   5.208 -0.9068 -0.9663  0.1439
 5702SOL    HW228566   0.112   2.708   5.258 -1.6257  0.4568 -0.0140
 5703SOL     OW28567   3.546   2.415   6.979  0.6169  0.2652 -0.2459
 5703SOL    HW128568   3.520   2.488   6.924 -1.0003 -0.7185 -0.7564
 5703SOL    HW228569   3.501   2.343   6.936 -0.6862 -0.6749  2.6729
 5704SOL     OW28570   3.224   1.757   1.129 -0.3857  0.0713  0.4098
 5704SOL    HW128571   3.219   1.798   1.043  0.9511  1.0076  0.7847
 5704SOL    HW228572   3.294   1.805   1.173  1.1585 -0.2610 -1.6997
 5705SOL     OW28573   4.241   3.186   1.562 -0.5176  0.1263 -0.2609
 5705SOL    HW128574   4.274   3.145   1.642 -0.1350  1.7421  0.4160
 5705SOL    HW228575   4.287   3.127   1.503  1.8298  2.7541 -1.0599
 5706SOL     OW28576   3.765   3.512   2.809  0.7710 -0.7184  0.4747
 5706SOL    HW128577   3.736   3.585   2.754 -0.3235 -1.4038  0.1416
 5706SOL    HW228578   3.856   3.533   2.827  0.8843 -0.1124 -0.7714
 5707SOL     OW28579   0.401   0.686   2.208 -0.0345 -0.2166  1.0684
 5707SOL    HW128580   0.328   0.725   2.255  0.2465 -0.3145  1.5894
 5707SOL    HW228581   0.343   0.648   2.142 -0.4948  0.5768  1.0108
 5708SOL     OW28582   2.959   2.527   5.365  0.1010 -0.3538 -0.1694
 5708SOL    HW128583   2.876   2.560   5.400  0.6079  1.5171 -0.7497
 5708SOL    HW228584   3.000   2.492   5.444 -0.4895 -2.6996 -0.8879
 5709SOL     OW28585   1.736   3.319   7.375  0.6679  0.6097  0.2471
 5709SOL    HW128586   1.679   3.244   7.359  1.1572  0.4792 -0.8645
 5709SOL    HW228587   1.812   3.263   7.394 -1.3665 -1.4601  2.3673
 5710SOL     OW28588   3.568   1.993  16.660 -0.5464  0.1085 -0.2239
 5710SOL    HW128589   3.638   2.014  16.722  0.4719 -0.2935 -1.2311
 5710SOL    HW228590   3.533   1.912  16.695 -1.0485 -0.3275 -1.7358
 5711SOL     OW28591   2.006   0.635   4.722 -0.3962  0.1499 -0.3347
 5711SOL    HW128592   2.048   0.715   4.753 -0.0376 -0.3594  0.5086
 5711SOL    HW228593   1.926   0.675   4.687 -1.5380 -1.3809  0.4875
 5712SOL     OW28594   1.103   3.139   1.445  0.3806  0.1790  0.1849
 5712SOL    HW128595   1.035   3.204   1.461 -0.5189 -0.6582 -0.3060
 5712SOL    HW228596   1.047   3.074   1.404  0.5266  1.5123 -2.1131
 5713SOL     OW28597   2.297   2.105   9.221 -0.3246  0.1657 -0.5366
 5713SOL    HW128598   2.302   2.070   9.132  0.3559  0.2247 -0.5155
 5713SOL    HW228599   2.389   2.108   9.246 -0.3613  1.3210 -0.5612
 5714SOL     OW28600   0.808   0.094   8.870  0.1133 -0.0298 -0.5629
 5714SOL    HW128601   0.787   0.186   8.888  2.0480 -0.2605  2.7715
 5714SOL    HW228602   0.903   0.102   8.879 -0.0333  0.0266  0.9087
 5715SOL     OW28603   0.960   2.011   8.467  0.0800  0.7693 -0.2003
 5715SOL    HW128604   1.016   2.071   8.417 -0.4688  0.9748 -0.5579
 5715SOL    HW228605   0.940   2.063   8.545  0.7871 -1.7181  1.6522
 5716SOL     OW28606   0.955   2.582   0.464 -0.4120 -0.3506 -1.1551
 5716SOL    HW128607   0.968   2.505   0.410 -0.3007 -0.5508 -0.8430
 5716SOL    HW228608   0.867   2.607   0.433 -1.6026 -0.5967  1.9274
 5717SOL     OW28609   0.008   2.230   2.743  0.6546 -0.0160 -0.9817
 5717SOL    HW128610   4.666   2.275   2.685 -0.4691  0.0061  0.2650
 5717SOL    HW228611   0.063   2.170   2.693 -0.0305 -0.6090 -1.0213
 5718SOL     OW28612   4.382   4.690   5.444  0.0435  0.7930  0.1933
 5718SOL    HW128613   4.435   4.697   5.523 -0.5685  1.8835  0.5064
 5718SOL    HW228614   4.412   0.048   5.399 -1.9721  1.2449 -0.3503
 5719SOL     OW28615   4.156   3.677  13.861  0.0694 -0.6144 -0.1714
 5719SOL    HW128616   4.183   3.645  13.947 -1.0921  0.9265  0.7567
 5719SOL    HW228617   4.227   3.736  13.832 -1.8985  1.1186 -1.4436
 5720SOL     OW28618   3.831   0.505   2.216  0.6450 -0.0529 -0.3052
 5720SOL    HW128619   3.879   0.422   2.218 -0.8927 -0.9047  1.1156
 5720SOL    HW228620   3.896   0.572   2.237 -0.3743  0.3957  1.4505
 5721SOL     OW28621   4.006   3.492   1.454  0.0626  0.1886  0.1603
 5721SOL    HW128622   3.933   3.543   1.419 -0.1618 -1.2502 -1.4276
 5721SOL    HW228623   4.024   3.439   1.377  0.7033  0.5676  0.0486
 5722SOL     OW28624   4.457   3.219  17.661  0.3399  0.1915  0.3563
 5722SOL    HW128625   4.529   3.155  17.663  0.2212 -0.0158 -2.2657
 5722SOL    HW228626   4.411   3.201  17.579 -0.1770 -0.8325  0.8752
 5723SOL     OW28627   3.827   2.301   4.676  0.6992  0.1810  0.6837
 5723SOL    HW128628   3.821   2.259   4.590 -1.0588 -0.4954  1.1374
 5723SOL    HW228629   3.864   2.387   4.654  2.1471 -0.3229  1.1688
 5724SOL     OW28630   3.350   4.664   1.225  0.6504 -0.7343 -0.0810
 5724SOL    HW128631   3.421   4.619   1.271  2.0419 -0.1896 -1.7095
 5724SOL    HW228632   3.277   4.606   1.249 -0.6397  0.5799 -0.7806
 5725SOL     OW28633   3.445   0.416  14.960  0.4111 -0.4279 -0.0730
 5725SOL    HW128634   3.442   0.367  15.043 -1.3501 -0.7518 -0.3209
 5725SOL    HW228635   3.352   0.412  14.937  0.9051 -0.4766 -2.0127
 5726SOL     OW28636   1.966   3.983   5.164 -0.4616  0.1219 -0.0628
 5726SOL    HW128637   1.974   3.977   5.259  0.4251 -0.4620 -0.1732
 5726SOL    HW228638   1.871   3.976   5.155 -0.5445  1.5421 -0.3454
 5727SOL     OW28639   4.696   1.140  17.115  0.3192 -0.1446  0.8139
 5727SOL    HW128640   0.057   1.175  17.080 -0.4122  1.4423  0.6870
 5727SOL    HW228641   4.654   1.167  17.033 -0.7351 -0.9463  1.0864
 5728SOL     OW28642   2.833   2.088   0.525  0.0658 -0.0262 -0.4322
 5728SOL    HW128643   2.785   2.039   0.458 -0.2418 -0.2349 -0.0598
 5728SOL    HW228644   2.858   2.170   0.482 -1.8935  1.4686  1.2731
 5729SOL     OW28645   2.594   1.718   1.234 -0.1007  0.1831 -0.0407
 5729SOL    HW128646   2.587   1.623   1.236  1.0550  0.1027  0.2079
 5729SOL    HW228647   2.643   1.733   1.315  0.6559 -1.6308 -0.1685
 5730SOL     OW28648   0.828   1.232  10.751 -0.0414  0.2741  0.4785
 5730SOL    HW128649   0.788   1.283  10.822 -1.1230 -0.6188  0.5094
 5730SOL    HW228650   0.762   1.180  10.704  1.6354 -2.0292  0.6829
 5731SOL     OW28651   1.064   3.767   4.068 -0.2786  1.2190  0.4752
 5731SOL    HW128652   0.984   3.759   4.119 -0.1866  1.1038  0.6048
 5731SOL    HW228653   1.066   3.675   4.039  0.1997  1.2583  0.3766
 5732SOL     OW28654   2.167   2.461   7.617  0.1761  0.1440  0.4348
 5732SOL    HW128655   2.134   2.406   7.688 -0.4145 -0.0357  0.0161
 5732SOL    HW228656   2.250   2.478   7.663  0.0308  2.8797 -0.2852
 5733SOL     OW28657   3.524   3.761   9.913  0.4852 -0.0392 -0.2357
 5733SOL    HW128658   3.502   3.675   9.877  2.7424 -1.0250  0.7135
 5733SOL    HW228659   3.456   3.769   9.979  1.0471  0.7037  0.2544
 5734SOL     OW28660   1.458   4.633   0.423  0.1769  0.7118 -0.4841
 5734SOL    HW128661   1.463   4.671   0.511  1.2281 -1.2217  0.2893
 5734SOL    HW228662   1.548   4.645   0.392  1.0066  0.9548  1.9960
 5735SOL     OW28663   1.472   3.614   6.903  0.3454  0.4674  0.2175
 5735SOL    HW128664   1.414   3.540   6.921  0.1087  0.5592 -0.1805
 5735SOL    HW228665   1.537   3.571   6.848  0.1516 -0.1022  0.4416
 5736SOL     OW28666   2.839   2.726  11.026 -0.0560 -0.3177  0.5091
 5736SOL    HW128667   2.758   2.748  11.072 -0.2728  1.4685 -0.7439
 5736SOL    HW228668   2.899   2.717  11.100  0.2285  0.1395  0.3325
 5737SOL     OW28669   1.696   1.309   8.806 -0.6648 -0.2512  0.1815
 5737SOL    HW128670   1.749   1.255   8.865  0.3319 -1.1869 -1.5768
 5737SOL    HW228671   1.615   1.302   8.856  0.4507  2.5527  2.3416
 5738SOL     OW28672   2.269   3.937  10.479 -0.0379 -0.0526 -0.3463
 5738SOL    HW128673   2.246   3.971  10.566 -1.8215 -0.2095 -0.7595
 5738SOL    HW228674   2.329   4.001  10.441 -1.2198  2.2913  1.7075
 5739SOL     OW28675   1.376   2.664   7.171 -0.1305 -0.2309  0.0897
 5739SOL    HW128676   1.381   2.738   7.110 -0.7835 -1.8836 -1.9462
 5739SOL    HW228677   1.310   2.608   7.130 -0.4548 -0.6899  1.2578
 5740SOL     OW28678   3.663   3.936   7.016 -0.1785 -0.6072  0.4059
 5740SOL    HW128679   3.702   3.959   7.100 -1.0270 -1.4475  1.0150
 5740SOL    HW228680   3.748   3.929   6.971  0.2513 -1.9654  1.4446
 5741SOL     OW28681   3.083   4.364   7.348  0.4117  0.1301 -0.3614
 5741SOL    HW128682   3.025   4.329   7.281 -0.2772  0.9203 -0.1743
 5741SOL    HW228683   3.025   4.430   7.385  1.8275 -0.1470  2.3537
 5742SOL     OW28684   1.050   1.611   4.048  0.0667  0.0138  0.0455
 5742SOL    HW128685   0.956   1.607   4.032  0.2786 -0.4656 -1.1306
 5742SOL    HW228686   1.083   1.689   4.002  2.8987 -1.2667 -0.0824
 5743SOL     OW28687   1.276   0.887   7.317 -0.6578 -0.2137 -0.4522
 5743SOL    HW128688   1.282   0.952   7.386  1.8197  1.4741 -2.2435
 5743SOL    HW228689   1.221   0.938   7.257 -0.3410 -0.3439 -0.8599
 5744SOL     OW28690   0.832   4.353  16.244  0.0534  0.5142  0.0001
 5744SOL    HW128691   0.746   4.383  16.273 -0.9520  0.3560 -2.8305
 5744SOL    HW228692   0.865   4.340  16.334 -0.3724  0.0336  0.0892
 5745SOL     OW28693   3.085   4.187   7.825 -0.1670 -0.3763  0.3788
 5745SOL    HW128694   3.150   4.252   7.855  0.8991 -0.0681 -2.5007
 5745SOL    HW228695   3.141   4.155   7.753  0.1668  1.4299 -0.1789
 5746SOL     OW28696   4.491   0.776   1.728 -0.0520 -0.0737 -0.4119
 5746SOL    HW128697   4.427   0.847   1.736 -1.4554 -1.3101 -0.6341
 5746SOL    HW228698   4.443   0.709   1.679  0.0558 -0.4530  0.0075
 5747SOL     OW28699   3.119   0.222   2.508 -0.3322  0.2950 -0.2502
 5747SOL    HW128700   3.188   0.233   2.444 -1.7393  1.1513 -1.6299
 5747SOL    HW228701   3.115   0.131   2.537  3.4606 -0.0662 -0.8756
 5748SOL     OW28702   4.156   4.464   3.478 -0.5916  0.1882 -0.0764
 5748SOL    HW128703   4.217   4.394   3.453  0.1439  0.9655 -0.4373
 5748SOL    HW228704   4.097   4.421   3.541 -0.9890 -0.7218 -1.0689
 5749SOL     OW28705   1.923   2.564  11.637  0.1095  0.0510 -0.1694
 5749SOL    HW128706   1.944   2.517  11.718 -0.4400 -4.6535 -2.7486
 5749SOL    HW228707   1.843   2.611  11.660 -0.7694 -0.6700 -1.7504
 5750SOL     OW28708   0.578   3.963  12.783  0.4432  1.0742 -0.2873
 5750SOL    HW128709   0.516   3.912  12.732  1.8314 -0.2136 -0.7061
 5750SOL    HW228710   0.646   3.899  12.806 -0.0174  0.7669  0.2326
 5751SOL     OW28711   3.392   0.706  11.843  0.2710 -0.6561  0.2936
 5751SOL    HW128712   3.474   0.672  11.881 -0.3126  0.3080  2.4110
 5751SOL    HW228713   3.438   0.781  11.806 -1.5920  0.7855  0.9610
 5752SOL     OW28714   4.573   0.343   6.580  0.2492 -0.2262 -0.3589
 5752SOL    HW128715   4.495   0.324   6.632  0.5799 -2.6079 -0.7065
 5752SOL    HW228716   4.613   0.415   6.630  2.8926  0.4860 -3.4739
 5753SOL     OW28717   1.016   2.340   5.460 -0.5076  0.1742  0.0895
 5753SOL    HW128718   0.932   2.381   5.478 -0.8351  0.0075 -1.0342
 5753SOL    HW228719   0.977   2.260   5.425 -0.2380 -0.8419  2.1342
 5754SOL     OW28720   1.862   2.210   2.674  0.0307  0.5152  0.3369
 5754SOL    HW128721   1.866   2.305   2.666 -1.9225  0.6636  1.1700
 5754SOL    HW228722   1.866   2.180   2.765 -1.4204 -0.9102 -0.0733
 5755SOL     OW28723   0.439   2.739   0.207  0.0778 -0.0712  0.0601
 5755SOL    HW128724   0.362   2.762   0.260  0.0616  3.4383 -1.4908
 5755SOL    HW228725   0.462   2.654   0.246 -0.3035  0.8590  2.2956
 5756SOL     OW28726   0.677   1.057  14.799  0.1103 -0.2693  0.4814
 5756SOL    HW128727   0.750   1.041  14.740  0.3540  4.0379 -0.3677
 5756SOL    HW228728   0.670   1.152  14.792 -1.7582 -0.5497 -1.3997
 5757SOL     OW28729   1.649   2.851   8.286  0.3881 -0.2631  0.1225
 5757SOL    HW128730   1.725   2.843   8.343  1.0345  0.4330 -0.6355
 5757SOL    HW228731   1.599   2.923   8.325  0.6728  0.4823 -0.8866
 5758SOL     OW28732   0.145   4.578   8.319 -0.2791 -0.3999  0.0503
 5758SOL    HW128733   0.184   4.492   8.338 -1.0390 -0.9094 -0.7138
 5758SOL    HW228734   0.061   4.549   8.284  0.3355 -2.1030 -0.0526
 5759SOL     OW28735   3.807   0.270   7.718  0.0767  0.4350 -0.4153
 5759SOL    HW128736   3.879   0.329   7.741  1.0300 -0.4473 -1.1313
 5759SOL    HW228737   3.847   0.187   7.690 -0.9656 -1.0230  2.3811
 5760SOL     OW28738   1.068   4.088  11.044 -0.1996 -0.5170 -1.0268
 5760SOL    HW128739   0.973   4.087  11.033 -0.4077 -0.6563  0.7855
 5760SOL    HW228740   1.084   4.014  11.103  2.2477  1.5776  0.9234
 5761SOL     OW28741   2.589   4.243   4.691  0.2143  0.0403  0.2582
 5761SOL    HW128742   2.602   4.148   4.685 -0.2636  0.1128 -2.1590
 5761SOL    HW228743   2.608   4.258   4.783  0.1898  0.1458  0.2458
 5762SOL     OW28744   3.382   4.204   0.669  0.2094  0.0212 -0.3216
 5762SOL    HW128745   3.320   4.211   0.596  0.0271  1.0032 -0.0711
 5762SOL    HW228746   3.319   4.186   0.739  0.6063  0.7534  0.2273
 5763SOL     OW28747   3.821   0.956   8.935 -0.4888  0.8655 -0.0149
 5763SOL    HW128748   3.745   0.921   8.889  1.1388  0.6747 -2.5793
 5763SOL    HW228749   3.902   0.913   8.906 -0.9066  0.4540 -0.5501
 5764SOL     OW28750   0.628   0.872   7.367 -0.0458 -0.2473  0.2257
 5764SOL    HW128751   0.658   0.960   7.344 -1.4947 -0.7434 -3.6842
 5764SOL    HW228752   0.687   0.833   7.431 -1.4153  1.4499  2.5073
 5765SOL     OW28753   4.177   1.011   3.194 -0.0208  0.2451 -0.2123
 5765SOL    HW128754   4.157   0.924   3.228  1.0117 -0.4422 -1.3447
 5765SOL    HW228755   4.089   1.044   3.174 -0.8183 -1.0350  1.1658
 5766SOL     OW28756   3.423   2.734   4.523 -0.2888  0.3419  0.5364
 5766SOL    HW128757   3.508   2.694   4.504 -1.0009  0.6052 -3.3169
 5766SOL    HW228758   3.376   2.669   4.574  3.2784 -0.8002  2.3728
 5767SOL     OW28759   1.270   0.392   1.930  0.5300 -0.0451 -0.1417
 5767SOL    HW128760   1.247   0.417   1.841  0.4432 -1.9965 -0.6710
 5767SOL    HW228761   1.271   0.297   1.918  0.2906 -0.1191  0.4058
 5768SOL     OW28762   0.409   3.151   6.214  0.2785  0.5352  0.1171
 5768SOL    HW128763   0.407   3.245   6.234 -0.7558  0.6580 -0.5752
 5768SOL    HW228764   0.499   3.145   6.183 -0.9199 -0.4914 -3.1637
 5769SOL     OW28765   1.554   4.230   4.983 -0.0319  0.1153 -0.6659
 5769SOL    HW128766   1.477   4.198   4.937 -1.7364 -0.1321  2.3418
 5769SOL    HW228767   1.555   4.322   4.954 -0.1975  0.9919  2.0926
 5770SOL     OW28768   0.978   2.134  10.033  0.3750  0.1745  0.8217
 5770SOL    HW128769   1.015   2.182   9.959 -0.2354 -0.6207  0.0030
 5770SOL    HW228770   0.892   2.109   9.999  0.4299  0.4307  0.5019
 5771SOL     OW28771   3.787   0.873   7.086 -0.0131 -0.0739  0.0202
 5771SOL    HW128772   3.799   0.957   7.130 -0.9650 -0.9003  1.8989
 5771SOL    HW228773   3.717   0.830   7.135  0.6446  1.3017  2.1896
 5772SOL     OW28774   3.776   4.656   5.765  0.2997 -0.7717  0.6924
 5772SOL    HW128775   3.753   4.678   5.674 -0.6949  0.4477  1.2293
 5772SOL    HW228776   3.844   4.590   5.760  1.5020  0.3102  2.8886
 5773SOL     OW28777   4.059   1.570   7.505  0.2765  0.3460  0.0605
 5773SOL    HW128778   4.087   1.478   7.499 -1.0481 -0.2278  2.5907
 5773SOL    HW228779   4.143   1.616   7.504 -0.7722  2.3264  1.4775
 5774SOL     OW28780   0.554   2.668   2.142 -0.0817 -0.0800 -0.4433
 5774SOL    HW128781   0.536   2.724   2.066 -0.3710  0.8949  0.3364
 5774SOL    HW228782   0.646   2.676   2.168 -0.6792  0.3142  1.5566
 5775SOL     OW28783   3.168   0.508  16.528 -0.1730  0.1477 -0.2842
 5775SOL    HW128784   3.126   0.589  16.556 -0.2681 -0.0396  0.1089
 5775SOL    HW228785   3.247   0.501  16.581  0.2238  3.8923 -0.3727
 5776SOL     OW28786   1.428   2.105  13.138 -0.3914 -0.5515  0.0458
 5776SOL    HW128787   1.381   2.130  13.058  0.3941  1.2782  0.1645
 5776SOL    HW228788   1.516   2.108  13.100 -1.2920  1.0952 -1.9753
 5777SOL     OW28789   0.685   4.629  16.625  0.0433 -0.2283 -0.0929
 5777SOL    HW128790   0.675   4.719  16.593  0.3695 -0.4713 -0.8642
 5777SOL    HW228791   0.778   4.613  16.611 -0.1804 -0.8022 -0.8812
 5778SOL     OW28792   1.797   1.333  11.335  0.4334 -0.1831  0.1476
 5778SOL    HW128793   1.887   1.364  11.333  0.3493 -0.0339 -1.3715
 5778SOL    HW228794   1.755   1.404  11.384  1.1417 -0.4644  1.1589
 5779SOL     OW28795   2.981   0.923   5.362 -0.3089  0.3384  0.4906
 5779SOL    HW128796   3.051   0.872   5.403  0.6424  2.0068  0.9618
 5779SOL    HW228797   2.943   0.976   5.432  0.4012  0.3719  0.8548
 5780SOL     OW28798   4.236   0.043   3.043 -0.3668 -0.0881  0.9138
 5780SOL    HW128799   4.316   0.055   2.993 -3.7884  0.8713 -4.3089
 5780SOL    HW228800   4.245   4.673   3.074 -0.4665  0.1390  1.6152
 5781SOL     OW28801   4.667   3.059  13.390  0.1115  0.3744  0.1860
 5781SOL    HW128802   4.652   2.985  13.449 -1.9478 -0.6293 -1.5811
 5781SOL    HW228803   4.689   3.123  13.457  1.7304  1.7526 -1.6650
 5782SOL     OW28804   0.689   3.066  17.354 -0.6144  0.3062  0.3626
 5782SOL    HW128805   0.770   3.110  17.380 -0.1466 -1.0156  1.1687
 5782SOL    HW228806   0.706   3.082  17.261 -1.7961  0.1599  0.1222
 5783SOL     OW28807   1.095   1.156   6.652  0.0499  0.5080 -1.3024
 5783SOL    HW128808   1.120   1.076   6.697 -1.3358  1.1083  0.5772
 5783SOL    HW228809   1.089   1.136   6.559  0.8440  1.6545 -1.5950
 5784SOL     OW28810   0.549   1.871  17.585 -0.0756  0.0027 -0.3108
 5784SOL    HW128811   0.462   1.902  17.609  0.4864 -2.0477  4.4751
 5784SOL    HW228812   0.598   1.953  17.578  0.6454 -0.4724 -0.8237
 5785SOL     OW28813   1.337   4.013  12.563 -0.1065  0.4752  0.0412
 5785SOL    HW128814   1.341   4.091  12.619  1.9292 -0.8880  1.8209
 5785SOL    HW228815   1.247   3.985  12.580  0.1190 -0.3702 -0.1813
 5786SOL     OW28816   1.775   3.673   7.919  0.2401 -0.4090 -0.2832
 5786SOL    HW128817   1.752   3.696   7.829  1.6980 -0.8520 -0.7624
 5786SOL    HW228818   1.752   3.580   7.915  0.2876 -0.3742 -1.1742
 5787SOL     OW28819   1.590   1.519   1.814 -0.3220  0.1281  0.6147
 5787SOL    HW128820   1.502   1.547   1.790 -0.1231 -0.3883 -0.7205
 5787SOL    HW228821   1.565   1.430   1.838  1.6689 -0.0505  2.0619
 5788SOL     OW28822   3.161   1.803   2.164  0.0486  0.4389  0.4693
 5788SOL    HW128823   3.254   1.816   2.149 -0.0879  0.1698 -0.5709
 5788SOL    HW228824   3.146   1.872   2.229  0.5978  2.0372 -1.0864
 5789SOL     OW28825   1.780   1.652   2.130 -0.4729 -0.6919  0.5776
 5789SOL    HW128826   1.800   1.745   2.136  1.1963 -0.9757 -0.5202
 5789SOL    HW228827   1.837   1.604   2.190  3.3277  1.0555 -1.6243
 5790SOL     OW28828   3.602   4.649   6.967  0.3606 -0.0912 -0.2453
 5790SOL    HW128829   3.587   0.017   6.998 -0.7289 -2.0048  4.6534
 5790SOL    HW228830   3.518   4.645   6.920  0.5205  0.3322 -0.5679
 5791SOL     OW28831   4.354   2.907   5.638  0.2438 -0.2354 -0.0739
 5791SOL    HW128832   4.436   2.919   5.687 -0.0830 -1.6364  0.8136
 5791SOL    HW228833   4.357   2.961   5.559 -0.2771  0.5879  0.4683
 5792SOL     OW28834   0.398   1.878   9.922 -0.0284 -0.4573 -0.3415
 5792SOL    HW128835   0.479   1.844   9.961 -0.6469  0.3293  1.5975
 5792SOL    HW228836   0.403   1.968   9.954 -0.0101 -0.5889  0.0234
 5793SOL     OW28837   1.274   3.466   3.557  0.7086  0.2657  0.0600
 5793SOL    HW128838   1.335   3.535   3.532  1.4263  0.9259  3.6100
 5793SOL    HW228839   1.236   3.440   3.473 -0.1774 -4.5278  1.9278
 5794SOL     OW28840   1.222   2.951   5.459 -0.1436 -0.1681 -0.3401
 5794SOL    HW128841   1.202   2.985   5.371 -2.2572 -1.8300 -0.5099
 5794SOL    HW228842   1.147   2.893   5.468  1.3471 -1.8509  1.0841
 5795SOL     OW28843   0.383   2.823   7.731  0.0593 -0.4069  0.8339
 5795SOL    HW128844   0.367   2.864   7.646  2.1011  0.9574  1.1203
 5795SOL    HW228845   0.353   2.883   7.799  1.4189  1.2343 -0.0103
 5796SOL     OW28846   2.347   2.722   8.912 -0.0831 -0.4522  0.3448
 5796SOL    HW128847   2.329   2.630   8.935 -0.7694 -0.9352 -2.1322
 5796SOL    HW228848   2.439   2.723   8.936 -0.7895 -0.3685  3.0083
 5797SOL     OW28849   0.141   3.308  14.500 -0.1639 -0.7214 -1.0415
 5797SOL    HW128850   0.196   3.328  14.424  1.4913  0.3205  0.4370
 5797SOL    HW228851   0.070   3.259  14.460 -1.2874  0.6321 -0.6989
 5798SOL     OW28852   1.941   4.078  15.867 -0.1238 -0.1309 -0.5087
 5798SOL    HW128853   1.991   3.997  15.872  0.0544 -0.0910 -1.6485
 5798SOL    HW228854   1.852   4.043  15.871  0.0813 -0.5781  0.0267
 5799SOL     OW28855   0.995   1.445   0.770 -0.9414 -0.1626  0.1385
 5799SOL    HW128856   0.955   1.374   0.820 -3.3630  1.2405  0.2247
 5799SOL    HW228857   0.995   1.524   0.825  0.0544 -1.0190  1.3554
 5800SOL     OW28858   0.167   0.440  14.505 -0.1706  0.1164 -0.0503
 5800SOL    HW128859   0.075   0.463  14.489 -0.1057  0.2483 -0.2310
 5800SOL    HW228860   0.151   0.350  14.476  2.2823 -0.8433  1.6273
 5801SOL     OW28861   2.757   4.506  14.294 -0.0750 -0.0171 -0.3124
 5801SOL    HW128862   2.838   4.538  14.255 -0.5101  1.3354 -0.0988
 5801SOL    HW228863   2.695   4.510  14.221  0.5105 -1.4067 -0.8938
 5802SOL     OW28864   2.366   1.505   1.012  0.1941 -0.2946 -0.1233
 5802SOL    HW128865   2.375   1.484   1.105 -0.4607  0.0110  0.0099
 5802SOL    HW228866   2.274   1.531   1.009  0.5635  0.8854 -1.3235
 5803SOL     OW28867   0.264   3.700   5.895  0.2801 -0.1632  0.2596
 5803SOL    HW128868   0.358   3.713   5.904  0.0125 -0.4891  3.7206
 5803SOL    HW228869   0.250   3.734   5.807  0.0329 -0.7602  0.0700
 5804SOL     OW28870   2.051   1.747  12.737  0.2528  0.6767  0.3219
 5804SOL    HW128871   1.991   1.820  12.751 -0.2267  0.2297  0.5924
 5804SOL    HW228872   2.134   1.794  12.747  1.2844 -1.4638  1.8349
 5805SOL     OW28873   3.998   1.943   1.749  0.1127 -0.3023  0.0237
 5805SOL    HW128874   3.958   1.858   1.731  0.3408 -0.6212  0.9941
 5805SOL    HW228875   4.081   1.948   1.702  0.6448 -2.1883  0.7680
 5806SOL     OW28876   3.704   0.178   6.734  0.7218  0.9240  0.4054
 5806SOL    HW128877   3.641   0.166   6.805  1.7221  0.9513  1.2974
 5806SOL    HW228878   3.705   0.091   6.692 -3.1563  0.2850  1.6538
 5807SOL     OW28879   2.519   2.448   3.399 -0.5212 -0.3195 -0.0682
 5807SOL    HW128880   2.609   2.415   3.400 -1.8536 -3.9382  1.1359
 5807SOL    HW228881   2.523   2.528   3.451  1.3973 -0.9143  0.7368
 5808SOL     OW28882   2.615   1.484  16.230 -0.1752  0.0001  0.2182
 5808SOL    HW128883   2.600   1.391  16.248  2.5445  0.0421  2.5982
 5808SOL    HW228884   2.611   1.483  16.134 -0.7155  2.8966  0.2349
 5809SOL     OW28885   2.106   4.666   3.135  0.1588 -0.6120 -0.1514
 5809SOL    HW128886   2.157   4.652   3.055  2.4050  0.2853  1.1191
 5809SOL    HW228887   2.098   4.578   3.173 -2.6145 -0.3659 -0.1512
 5810SOL     OW28888   0.162   4.444   6.938 -0.0922 -0.4791 -0.2434
 5810SOL    HW128889   0.112   4.413   7.013 -0.5935 -0.3656 -0.5279
 5810SOL    HW228890   0.241   4.392   6.947 -0.5491 -1.0580  0.3976
 5811SOL     OW28891   3.931   0.036  11.400 -0.5302  0.3908  0.4536
 5811SOL    HW128892   3.893   0.123  11.389 -0.9998  0.2138  0.6788
 5811SOL    HW228893   3.858   4.701  11.373 -2.2608  2.6048  0.5986
 5812SOL     OW28894   4.680   3.535   6.517 -0.4040 -0.2007  0.2803
 5812SOL    HW128895   4.676   3.448   6.478 -0.9670 -1.3616  2.9182
 5812SOL    HW228896   4.591   3.551   6.549  0.7222  1.7237  2.4503
 5813SOL     OW28897   4.560   0.790   5.311 -0.0068  0.4868  1.0157
 5813SOL    HW128898   4.586   0.848   5.239 -2.5063  0.0320 -0.2668
 5813SOL    HW228899   4.499   0.733   5.263  2.8322  0.5969 -2.7123
 5814SOL     OW28900   3.746   0.986   4.273 -0.7019  0.5683 -0.4874
 5814SOL    HW128901   3.716   1.040   4.346 -1.0496 -0.9972  0.5227
 5814SOL    HW228902   3.839   0.983   4.298 -1.2678  1.1592  1.6843
 5815SOL     OW28903   2.805   0.404   2.073  0.1973 -0.8256  0.6795
 5815SOL    HW128904   2.846   0.458   2.140 -0.1114  0.1242  0.1104
 5815SOL    HW228905   2.876   0.417   2.009 -1.7106 -0.3071 -1.3461
 5816SOL     OW28906   0.673   1.337  15.423  0.0951  0.7463 -0.2016
 5816SOL    HW128907   0.581   1.357  15.442 -0.0792 -0.5809  0.3412
 5816SOL    HW228908   0.706   1.423  15.397  1.2621  0.4058  0.1192
 5817SOL     OW28909   3.320   0.167  13.081 -0.3798 -0.4625 -0.5169
 5817SOL    HW128910   3.363   0.203  13.159  0.7383 -0.5033 -1.1197
 5817SOL    HW228911   3.359   0.081  13.093 -1.6808 -0.9083  0.5579
 5818SOL     OW28912   0.336   1.350   1.589 -0.0766  0.0551  0.0469
 5818SOL    HW128913   0.249   1.386   1.606 -0.6536 -2.0471  1.5076
 5818SOL    HW228914   0.336   1.338   1.494 -0.9761 -2.0928  0.3117
 5819SOL     OW28915   4.202   2.412   7.383 -0.7521  0.3624 -0.2702
 5819SOL    HW128916   4.257   2.351   7.431 -0.9767  0.3966  0.0291
 5819SOL    HW228917   4.261   2.486   7.367  0.2749 -0.6171 -0.9411
 5820SOL     OW28918   0.597   0.340   7.068 -0.2858 -0.2397  0.2693
 5820SOL    HW128919   0.583   0.251   7.037 -0.8717 -0.5649  1.4739
 5820SOL    HW228920   0.640   0.340   7.154  0.7701  3.1347 -0.2343
 5821SOL     OW28921   2.645   0.801   2.709  0.1727 -0.0583  0.2229
 5821SOL    HW128922   2.570   0.838   2.755 -0.2831 -1.6257  0.7337
 5821SOL    HW228923   2.606   0.793   2.622 -0.2844 -0.7104  0.4904
 5822SOL     OW28924   0.867   4.530   2.253  0.0415 -0.6239  0.5300
 5822SOL    HW128925   0.793   4.493   2.204 -0.5480  0.4032  0.6416
 5822SOL    HW228926   0.829   4.609   2.292 -1.2049 -0.0328 -1.8404
 5823SOL     OW28927   0.247   3.390   6.124  0.4313 -1.3657 -0.2702
 5823SOL    HW128928   0.163   3.430   6.145  1.1898  0.7819 -1.3522
 5823SOL    HW228929   0.298   3.407   6.203 -0.8086 -0.2489  0.2956
 5824SOL     OW28930   2.110   3.647  12.052  0.0233 -0.0523  0.3157
 5824SOL    HW128931   2.169   3.621  11.982 -0.4118 -0.0768 -0.0374
 5824SOL    HW228932   2.066   3.729  12.033  0.1898  0.9540  4.2639
 5825SOL     OW28933   1.117   4.366   1.592 -0.2963  0.0545  0.3152
 5825SOL    HW128934   1.159   4.365   1.506  1.5457  1.6736  1.1797
 5825SOL    HW228935   1.143   4.452   1.627 -0.8226 -0.6508  2.4742
 5826SOL     OW28936   3.963   2.746   6.043 -0.7816 -0.3710 -0.0942
 5826SOL    HW128937   3.971   2.811   6.113  0.9401  0.6978 -1.2716
 5826SOL    HW228938   4.052   2.712   6.053 -0.7233 -0.1617  0.1085
 5827SOL     OW28939   3.232   2.829   3.260  0.6091  0.0648  0.1243
 5827SOL    HW128940   3.315   2.873   3.241 -0.0194  1.6754  1.0745
 5827SOL    HW228941   3.231   2.808   3.354  0.5586  0.1584  0.1447
 5828SOL     OW28942   1.623   0.829   9.794 -0.1973 -0.2786 -0.2648
 5828SOL    HW128943   1.546   0.858   9.844 -0.0814  1.1023 -0.8889
 5828SOL    HW228944   1.702   0.873   9.823 -1.2624  1.6034 -0.2324
 5829SOL     OW28945   0.289   3.847   7.698 -0.4682 -0.1051  0.3481
 5829SOL    HW128946   0.288   3.794   7.618 -0.1245 -0.2145  0.4163
 5829SOL    HW228947   0.366   3.803   7.735  0.0633 -1.2833 -2.0999
 5830SOL     OW28948   2.247   1.881  12.438 -0.4855 -0.3987  0.0760
 5830SOL    HW128949   2.190   1.958  12.439 -0.3972 -0.3184 -0.8017
 5830SOL    HW228950   2.275   1.880  12.529  1.0173 -0.5444 -0.3829
 5831SOL     OW28951   3.863   1.394   8.093  0.4171  0.0009 -0.0187
 5831SOL    HW128952   3.905   1.447   8.161  1.1068 -0.6189  0.0372
 5831SOL    HW228953   3.915   1.314   8.093 -1.8146 -1.4511  0.4738
 5832SOL     OW28954   2.872   2.723   2.222  0.2651 -0.2737  0.4355
 5832SOL    HW128955   2.873   2.684   2.135  0.1044 -0.5145  0.5424
 5832SOL    HW228956   2.879   2.649   2.281 -0.3201  0.1108  0.9857
 5833SOL     OW28957   0.865   1.650  16.726 -0.1476 -0.2791 -0.2856
 5833SOL    HW128958   0.800   1.700  16.677 -0.1254  1.2177  1.1846
 5833SOL    HW228959   0.867   1.565  16.684  0.6632  0.1593 -1.1424
 5834SOL     OW28960   0.989   1.608   4.626  1.2382 -0.1548  0.0013
 5834SOL    HW128961   0.965   1.690   4.583  0.5080 -0.6730 -0.5545
 5834SOL    HW228962   0.915   1.549   4.640  1.1412 -0.2176 -0.7648
 5835SOL     OW28963   3.531   4.716   2.085 -0.2605  0.2153  0.0528
 5835SOL    HW128964   3.520   4.622   2.102 -0.3748 -0.0723 -1.6017
 5835SOL    HW228965   3.442   0.026   2.066  0.5320  3.2295  1.2431
 5836SOL     OW28966   4.165   2.764   7.343  0.2466 -0.2427 -0.0911
 5836SOL    HW128967   4.197   2.677   7.320  1.7909  0.0930  0.7838
 5836SOL    HW228968   4.098   2.740   7.407  3.0612 -1.4873  2.3675
 5837SOL     OW28969   1.043   2.265  12.980 -0.0362 -0.1691 -0.3343
 5837SOL    HW128970   1.032   2.227  12.893 -1.2822  0.0610 -0.2776
 5837SOL    HW228971   1.136   2.256  13.000 -0.0553  1.8709  0.6167
 5838SOL     OW28972   2.427   2.262   2.835 -0.3533 -0.1291  0.0767
 5838SOL    HW128973   2.374   2.211   2.774 -1.1566 -1.1243  1.6162
 5838SOL    HW228974   2.446   2.193   2.898 -1.0646 -0.3626  0.0306
 5839SOL     OW28975   4.368   3.569  14.536 -0.2290  0.3267 -0.4562
 5839SOL    HW128976   4.289   3.609  14.573 -0.5670  0.6412 -1.5282
 5839SOL    HW228977   4.373   3.597  14.445  0.9517  1.2398 -0.1173
 5840SOL     OW28978   2.662   1.296   8.220 -0.4502 -0.2017  0.4353
 5840SOL    HW128979   2.638   1.299   8.128 -1.8904  1.5732  0.8785
 5840SOL    HW228980   2.578   1.305   8.264  1.1038 -2.3142  3.8545
 5841SOL     OW28981   2.787   0.272   8.956  0.1092 -0.0084  0.2703
 5841SOL    HW128982   2.828   0.187   8.945  0.5229  0.1763  0.3931
 5841SOL    HW228983   2.738   0.250   9.036  0.5256  2.1503  1.1139
 5842SOL     OW28984   2.995   1.843  11.163  0.5706  0.1140 -0.3172
 5842SOL    HW128985   2.958   1.771  11.214  3.2604 -1.4997 -0.5866
 5842SOL    HW228986   3.017   1.905  11.232 -0.5946  1.0304 -0.7742
 5843SOL     OW28987   1.055   4.079   9.832 -0.1288 -0.3389  0.5820
 5843SOL    HW128988   1.145   4.050   9.818  0.5374  1.9215  0.1054
 5843SOL    HW228989   1.010   4.005   9.872  0.2039 -0.0063  1.5538
 5844SOL     OW28990   2.774   4.231   7.476 -0.5875 -0.5851 -0.3428
 5844SOL    HW128991   2.829   4.220   7.399 -0.1957 -2.1262  0.1680
 5844SOL    HW228992   2.827   4.278   7.540  0.0155 -3.1491  1.0544
 5845SOL     OW28993   3.192   0.096   6.044 -0.0517  0.1253  0.0790
 5845SOL    HW128994   3.277   0.103   6.000  0.4424  0.1815  1.0483
 5845SOL    HW228995   3.150   0.181   6.032  1.7067  0.7901 -1.3174
 5846SOL     OW28996   3.328   0.419  12.446  0.3876  0.5817 -0.0813
 5846SOL    HW128997   3.411   0.425  12.400  0.7975 -2.1158  0.3235
 5846SOL    HW228998   3.261   0.468  12.397 -0.5548  0.2486  0.8567
 5847SOL     OW28999   4.220   3.809  15.379  0.6449  0.2716 -0.0071
 5847SOL    HW129000   4.148   3.781  15.436  1.5637 -0.2103  0.9101
 5847SOL    HW229001   4.259   3.879  15.432  1.6281 -0.0577 -0.2993
 5848SOL     OW29002   0.582   3.547   2.728  0.5607 -0.1020  0.0942
 5848SOL    HW129003   0.644   3.614   2.701  1.7151 -0.9178  0.7367
 5848SOL    HW229004   0.572   3.506   2.642 -2.8933 -0.0536  0.4505
 5849SOL     OW29005   3.972   3.115   2.231  0.3420  0.1376  0.1034
 5849SOL    HW129006   3.936   3.042   2.179 -0.9428 -0.7574  2.2319
 5849SOL    HW229007   3.932   3.094   2.315 -0.3286  1.0494  0.0132
 5850SOL     OW29008   4.299   2.250  17.581  0.4484 -0.2261 -0.0868
 5850SOL    HW129009   4.375   2.212  17.625 -0.1950  1.3295  2.4036
 5850SOL    HW229010   4.237   2.259  17.653 -1.4822 -1.9301 -1.5633
 5851SOL     OW29011   2.568   1.831   8.266  0.2458  0.2531  0.2906
 5851SOL    HW129012   2.551   1.769   8.195  0.6888 -0.4618  0.8127
 5851SOL    HW229013   2.521   1.907   8.231  1.9035  0.3657 -1.6520
 5852SOL     OW29014   2.258   0.110  10.664  0.3650 -0.1372 -0.2534
 5852SOL    HW129015   2.310   0.058  10.724 -1.1300 -0.0966  1.0752
 5852SOL    HW229016   2.195   0.043  10.637  2.4947 -1.9569 -0.6811
 5853SOL     OW29017   3.172   0.175   8.084  0.4445 -0.3406 -0.3691
 5853SOL    HW129018   3.111   0.249   8.090  1.3992  0.4919 -0.9507
 5853SOL    HW229019   3.258   0.216   8.092  0.5611 -0.4896 -0.8207
 5854SOL     OW29020   0.925   2.092  15.222  0.2502 -0.6637  0.0738
 5854SOL    HW129021   0.872   2.166  15.191  1.9309  0.5500  0.1495
 5854SOL    HW229022   0.959   2.130  15.302 -0.2249  3.0366 -1.5009
 5855SOL     OW29023   2.918   2.849   0.410 -0.2976 -0.4284 -0.5316
 5855SOL    HW129024   2.922   2.914   0.481 -2.0936  1.7124 -2.3858
 5855SOL    HW229025   2.885   2.896   0.333  2.3231  2.2216 -0.0437
 5856SOL     OW29026   3.844   2.623   8.855  0.3652  0.2711 -0.0903
 5856SOL    HW129027   3.880   2.709   8.834  1.4211 -0.2299 -0.3695
 5856SOL    HW229028   3.860   2.569   8.777  1.0391 -0.0386  0.2605
 5857SOL     OW29029   4.037   3.731   2.097 -0.4681  0.1051  0.4629
 5857SOL    HW129030   3.948   3.741   2.064 -0.4153 -1.0085 -0.0014
 5857SOL    HW229031   4.086   3.800   2.053 -3.3241  2.3643  0.8028
 5858SOL     OW29032   1.195   0.473   8.483  0.2026 -0.3394 -0.5445
 5858SOL    HW129033   1.189   0.565   8.508 -0.5870  0.0023 -2.0078
 5858SOL    HW229034   1.279   0.456   8.439  2.3605  0.2371  3.3954
 5859SOL     OW29035   1.936   0.874   5.567  0.2930  0.2893  0.1019
 5859SOL    HW129036   1.897   0.877   5.654  0.8965 -1.3713  0.4369
 5859SOL    HW229037   1.877   0.816   5.519  1.1750 -1.2255  0.8351
 5860SOL     OW29038   3.714   3.550   8.992  0.0053  0.2630 -0.4433
 5860SOL    HW129039   3.676   3.597   9.065  0.1219  0.2257 -0.3579
 5860SOL    HW229040   3.795   3.600   8.978  0.4721 -0.8027 -1.5681
 5861SOL     OW29041   0.404   1.324   2.499  0.2849  1.0797 -0.0207
 5861SOL    HW129042   0.340   1.310   2.430 -0.6270  1.9423  0.6511
 5861SOL    HW229043   0.426   1.232   2.516  0.4718  0.8088 -1.7753
 5862SOL     OW29044   0.618   1.872   4.694 -0.2885  0.0499 -0.1645
 5862SOL    HW129045   0.713   1.876   4.711 -0.0789 -1.7173 -0.8378
 5862SOL    HW229046   0.607   1.948   4.637  0.1822 -0.3626 -0.8070
 5863SOL     OW29047   4.164   3.679   1.784 -0.0138 -0.1194 -0.1694
 5863SOL    HW129048   4.149   3.584   1.782  0.3010 -0.1679 -0.2548
 5863SOL    HW229049   4.100   3.705   1.717  0.4461  0.6558 -0.2978
 5864SOL     OW29050   1.716   0.112   8.533 -0.1655 -0.1301 -0.0702
 5864SOL    HW129051   1.798   0.160   8.538 -0.9101  0.8965  2.1707
 5864SOL    HW229052   1.741   0.023   8.508 -0.7982 -0.0006 -1.1702
 5865SOL     OW29053   3.035   1.237   7.001  0.0896 -0.1435 -0.5828
 5865SOL    HW129054   3.004   1.216   6.913 -3.8621  0.1256  0.7518
 5865SOL    HW229055   2.988   1.171   7.051 -0.7729 -1.3466 -2.9669
 5866SOL     OW29056   3.255   3.349  13.545 -0.0034  0.0530 -0.3455
 5866SOL    HW129057   3.193   3.422  13.541  0.0487  0.0219 -1.6262
 5866SOL    HW229058   3.335   3.388  13.508 -1.1876  1.3612 -1.5364
 5867SOL     OW29059   4.575   4.424   1.739 -0.1395  0.8324 -0.0189
 5867SOL    HW129060   4.650   4.463   1.784  0.7070 -1.1813  0.2977
 5867SOL    HW229061   4.619   4.368   1.675 -0.2689  0.5895  0.1054
 5868SOL     OW29062   1.385   4.316   2.577  0.0242  0.2995 -0.1847
 5868SOL    HW129063   1.375   4.222   2.560  1.2688  0.6963 -3.0374
 5868SOL    HW229064   1.292   4.338   2.575 -0.2360 -0.9892 -1.6308
 5869SOL     OW29065   2.676   2.018   8.013  0.3446  0.3865  0.2007
 5869SOL    HW129066   2.720   1.946   7.968 -0.5618 -1.1409  1.7470
 5869SOL    HW229067   2.586   2.015   7.982 -0.4167  0.4025  2.3554
 5870SOL     OW29068   0.697   4.398  11.619 -0.2179  0.5938  0.4140
 5870SOL    HW129069   0.725   4.487  11.595 -0.6518  0.6206  0.0044
 5870SOL    HW229070   0.766   4.360  11.565 -0.4571 -2.3539  2.1796
 5871SOL     OW29071   2.273   2.697   1.461  0.3649 -0.1814  0.0363
 5871SOL    HW129072   2.225   2.780   1.461 -0.6557 -0.7793  1.1716
 5871SOL    HW229073   2.361   2.721   1.432 -0.8086  2.5040 -1.3135
 5872SOL     OW29074   1.426   0.125   4.379 -0.0847 -0.0612  0.3515
 5872SOL    HW129075   1.479   0.199   4.350 -0.7605  0.6012  0.8168
 5872SOL    HW229076   1.365   0.110   4.306 -0.4743 -2.4477  1.1875
 5873SOL     OW29077   1.380   4.391  15.165 -0.2529  0.8127 -0.1939
 5873SOL    HW129078   1.459   4.344  15.140 -0.6362  0.6209 -1.0631
 5873SOL    HW229079   1.321   4.362  15.095  0.9044 -1.2642 -0.3028
 5874SOL     OW29080   3.664   3.943  11.328 -0.0637  0.0234  0.0574
 5874SOL    HW129081   3.634   3.997  11.255  1.7349 -0.9674 -1.3864
 5874SOL    HW229082   3.755   3.970  11.330  1.0120 -3.5381 -1.1533
 5875SOL     OW29083   1.430   0.294   2.378  0.1285  0.1252  0.2841
 5875SOL    HW129084   1.411   0.273   2.286 -1.7857 -0.1421  0.7311
 5875SOL    HW229085   1.443   0.388   2.363 -1.3784  0.0420 -1.5006
 5876SOL     OW29086   3.042   1.742   1.539  0.4111 -0.0218 -0.0184
 5876SOL    HW129087   3.130   1.709   1.520  1.8230  2.8184  1.6096
 5876SOL    HW229088   3.026   1.699   1.623  0.5844 -1.2754 -0.6177
 5877SOL     OW29089   3.363   1.047   6.883 -0.7683  0.0243  0.3263
 5877SOL    HW129090   3.327   1.029   6.796  0.1173  1.7275 -0.3912
 5877SOL    HW229091   3.420   0.973   6.905 -1.2860 -1.0970 -2.1378
 5878SOL     OW29092   3.193   3.316  15.794  0.3573 -0.1096 -0.3877
 5878SOL    HW129093   3.240   3.342  15.716  0.6154  0.1683 -0.1400
 5878SOL    HW229094   3.191   3.396  15.847  0.0557 -1.0812  1.0641
 5879SOL     OW29095   0.297   2.835   6.984 -0.0908 -0.0940 -0.1291
 5879SOL    HW129096   0.291   2.816   6.891  0.9026  1.9141 -0.5935
 5879SOL    HW229097   0.274   2.928   6.981  2.0558  0.4436  0.4506
 5880SOL     OW29098   3.369   3.875   3.131 -0.4388  0.0975 -0.9696
 5880SOL    HW129099   3.384   3.782   3.146  0.0891  0.2202 -0.7345
 5880SOL    HW229100   3.360   3.877   3.036 -0.5917 -1.2650 -0.9859
 5881SOL     OW29101   2.654   2.340   7.827 -0.6659 -0.2481  0.1058
 5881SOL    HW129102   2.700   2.328   7.743  3.4263 -0.7015  2.4311
 5881SOL    HW229103   2.732   2.337   7.882  0.4733 -0.3171 -1.5068
 5882SOL     OW29104   0.325   0.133   8.001  0.1001 -0.5321 -0.0707
 5882SOL    HW129105   0.283   0.111   8.084 -1.1005  0.5349 -0.3854
 5882SOL    HW229106   0.392   0.200   8.019 -1.7151  0.9943  1.0148
 5883SOL     OW29107   1.869   2.251  14.040 -0.2746  0.5430 -0.1195
 5883SOL    HW129108   1.859   2.326  13.981 -1.2720 -0.7951 -1.6341
 5883SOL    HW229109   1.963   2.243  14.054 -0.4811 -0.6752  0.6218
 5884SOL     OW29110   1.922   0.863  13.770 -0.1891  0.4799  0.1521
 5884SOL    HW129111   1.938   0.957  13.769 -0.2034  0.4755 -0.2950
 5884SOL    HW229112   1.833   0.867  13.806  0.2587  0.0373  1.3132
 5885SOL     OW29113   1.322   2.142   0.299  0.3970 -0.3205  0.4023
 5885SOL    HW129114   1.295   2.105   0.384 -3.5293  0.3829 -0.5353
 5885SOL    HW229115   1.237   2.170   0.266  0.8962  0.9388  0.1824
 5886SOL     OW29116   3.262   2.375  15.295  0.2549  0.3012 -0.1440
 5886SOL    HW129117   3.297   2.464  15.307  0.1879  0.3314 -0.1685
 5886SOL    HW229118   3.200   2.357  15.366 -0.3442 -1.0156 -1.0047
 5887SOL     OW29119   3.357   0.390   7.846  0.2155 -0.3306 -0.5048
 5887SOL    HW129120   3.377   0.375   7.939  1.0117  1.0400 -0.4492
 5887SOL    HW229121   3.406   0.317   7.810  0.0214 -0.3218 -0.7843
 5888SOL     OW29122   2.709   3.034  15.165  0.0328 -0.6157 -0.1287
 5888SOL    HW129123   2.776   2.968  15.146 -0.7319 -1.3753 -0.2128
 5888SOL    HW229124   2.655   3.000  15.237 -3.7391  3.3789 -1.0439
 5889SOL     OW29125   1.432   2.005   2.063 -0.0824 -0.0964 -0.0905
 5889SOL    HW129126   1.502   2.012   2.128  1.8900  1.7569 -2.4280
 5889SOL    HW229127   1.481   2.024   1.983  2.7049  1.1259  1.8894
 5890SOL     OW29128   1.347   1.579   1.724 -0.2602 -0.0468 -0.6407
 5890SOL    HW129129   1.278   1.612   1.782 -0.1671  0.7408 -0.9742
 5890SOL    HW229130   1.338   1.635   1.647  0.9467  0.9678 -0.0318
 5891SOL     OW29131   4.442   0.746   6.032 -0.3829 -0.5443  0.0399
 5891SOL    HW129132   4.516   0.688   6.017 -0.1715 -0.2367 -0.1035
 5891SOL    HW229133   4.417   0.774   5.944  1.0558  0.9124  0.0838
 5892SOL     OW29134   1.526   3.015  14.952  0.1716  0.3905  0.2413
 5892SOL    HW129135   1.489   2.961  14.883  0.8440  0.3565 -0.0946
 5892SOL    HW229136   1.618   3.002  14.930 -1.0943 -4.3617 -2.3138
 5893SOL     OW29137   3.379   4.152  12.056 -0.2129 -0.1381 -0.1323
 5893SOL    HW129138   3.289   4.131  12.032  0.0044 -1.0991 -0.1013
 5893SOL    HW229139   3.430   4.135  11.977 -1.5657 -0.9159 -0.8396
 5894SOL     OW29140   1.847   4.229   6.682  0.2485 -0.5496  0.1440
 5894SOL    HW129141   1.910   4.210   6.751 -0.4999 -1.3463  0.6054
 5894SOL    HW229142   1.799   4.149   6.661 -2.9640  1.2610  0.6870
 5895SOL     OW29143   3.621   3.048   3.985 -0.1925 -0.1245  0.2948
 5895SOL    HW129144   3.620   3.084   4.073 -0.2365  0.9188 -0.1374
 5895SOL    HW229145   3.631   2.953   3.994  0.1880 -0.0553  0.5663
 5896SOL     OW29146   3.910   0.341   6.842  0.1133  0.2456  0.1646
 5896SOL    HW129147   3.833   0.381   6.883  0.3669 -1.9521  2.7600
 5896SOL    HW229148   3.869   0.261   6.809  0.0915  0.7799 -1.0877
 5897SOL     OW29149   4.382   3.364   1.339  0.3978  0.2591 -0.4133
 5897SOL    HW129150   4.322   3.290   1.329  1.7300 -1.0191  1.0417
 5897SOL    HW229151   4.355   3.406   1.420  0.8781  1.1252 -0.7084
 5898SOL     OW29152   4.041   1.786   6.547 -0.2194 -0.7168 -0.1304
 5898SOL    HW129153   4.072   1.717   6.606  1.0639  1.8026  2.1166
 5898SOL    HW229154   4.107   1.851   6.568  0.6298 -1.4169 -0.6043
 5899SOL     OW29155   1.829   4.545  13.361  0.0069  0.4845  0.1842
 5899SOL    HW129156   1.906   4.524  13.307 -0.4632 -1.7127  0.3981
 5899SOL    HW229157   1.847   4.635  13.388  0.6080  0.4338 -0.0351
 5900SOL     OW29158   0.708   4.579   5.781  0.4234  0.3291 -0.4803
 5900SOL    HW129159   0.797   4.560   5.810  0.0913 -0.8832 -0.2419
 5900SOL    HW229160   0.679   4.495   5.746 -1.4224 -0.2459  2.3646
 5901SOL     OW29161   3.478   1.404   4.495 -0.0568 -0.2845 -0.3433
 5901SOL    HW129162   3.385   1.408   4.472  0.4060 -1.1066 -2.4138
 5901SOL    HW229163   3.491   1.466   4.566  1.4330 -0.8699 -0.0986
 5902SOL     OW29164   1.406   0.099   9.725 -0.2475  0.6686  0.2004
 5902SOL    HW129165   1.319   0.139   9.732 -1.3148 -1.3865 -1.0475
 5902SOL    HW229166   1.459   0.177   9.715 -1.5240  1.7699  2.0983
 5903SOL     OW29167   2.136   1.212   6.178  0.5587  0.1355 -0.1073
 5903SOL    HW129168   2.158   1.130   6.134  0.2312  1.3992 -2.6304
 5903SOL    HW229169   2.222   1.247   6.201  0.7136 -0.5207  0.3105
 5904SOL     OW29170   0.792   0.823   8.596  0.0582  0.1816  0.2822
 5904SOL    HW129171   0.868   0.789   8.642  1.1817 -2.1002 -3.2803
 5904SOL    HW229172   0.751   0.746   8.558 -0.4465  0.8471 -0.5202
 5905SOL     OW29173   2.476   0.107   8.450 -0.5339  0.4125 -0.2438
 5905SOL    HW129174   2.492   0.196   8.481  0.3417 -0.7306  2.5748
 5905SOL    HW229175   2.563   0.078   8.421 -1.1006 -0.7149 -0.8448
 5906SOL     OW29176   2.853   2.944  16.834  0.2949  0.9117  0.7294
 5906SOL    HW129177   2.798   3.018  16.808 -0.7063 -0.3638 -0.7673
 5906SOL    HW229178   2.879   2.916  16.747 -0.0876  0.4615  0.7584
 5907SOL     OW29179   1.796   2.245   7.218  0.3634 -0.0433  0.0578
 5907SOL    HW129180   1.714   2.268   7.174 -0.6586 -2.0708  0.9161
 5907SOL    HW229181   1.835   2.327   7.247  1.2492 -0.5609  0.3502
 5908SOL     OW29182   3.920   2.554   3.395  0.1457 -0.9759 -0.8895
 5908SOL    HW129183   3.896   2.623   3.334  1.1634 -1.8089 -2.2301
 5908SOL    HW229184   4.012   2.547   3.368  0.0920 -3.1025 -0.5284
 5909SOL     OW29185   4.244   0.022   7.932  0.2374 -0.4318 -0.6917
 5909SOL    HW129186   4.205   0.092   7.985  1.8239  0.4875 -0.7436
 5909SOL    HW229187   4.234   0.066   7.847  4.3222  0.1716 -0.8545
 5910SOL     OW29188   1.859   3.623   5.278 -0.1823  0.4790 -0.5359
 5910SOL    HW129189   1.895   3.549   5.328 -0.6848  0.7024  0.1473
 5910SOL    HW229190   1.901   3.600   5.195 -1.1854 -2.5512 -0.1976
 5911SOL     OW29191   4.700   1.455   5.555  0.4966  0.1019 -0.0895
 5911SOL    HW129192   4.686   1.412   5.639 -3.0282 -0.9935 -1.1928
 5911SOL    HW229193   4.715   1.375   5.504 -1.9614  1.2337 -2.6375
 5912SOL     OW29194   3.872   0.624   3.345  0.4210  0.7703 -0.0182
 5912SOL    HW129195   3.792   0.584   3.378  1.4455 -1.8245 -0.7046
 5912SOL    HW229196   3.935   0.553   3.340 -0.8882 -0.4549  1.0619
 5913SOL     OW29197   1.080   1.317   7.545  0.2344 -0.1634  0.3413
 5913SOL    HW129198   1.174   1.301   7.546  0.2928  0.1647 -0.0784
 5913SOL    HW229199   1.071   1.401   7.590 -0.6993  0.9547 -1.9801
 5914SOL     OW29200   3.963   2.917   6.269 -0.0333 -0.7784 -0.2045
 5914SOL    HW129201   3.962   3.013   6.271  2.5624 -0.7663  0.6603
 5914SOL    HW229202   3.895   2.891   6.331 -0.5200  1.1490  0.0795
 5915SOL     OW29203   0.011   1.720   8.054  0.9055 -0.1624 -0.4210
 5915SOL    HW129204   0.097   1.758   8.074  0.4732  0.9360 -0.6569
 5915SOL    HW229205   0.008   1.671   8.137  0.6073  0.7309  0.1020
 5916SOL     OW29206   2.025   1.072  16.833 -0.0495 -0.1290  0.1304
 5916SOL    HW129207   2.099   1.063  16.774  0.0492 -0.8478  0.3694
 5916SOL    HW229208   2.057   1.124  16.907 -1.0353 -0.4474  0.7820
 5917SOL     OW29209   2.078   3.283   7.431 -0.1414 -0.3941  0.1495
 5917SOL    HW129210   2.163   3.290   7.474  0.7768  0.9778 -1.8668
 5917SOL    HW229211   2.077   3.333   7.350 -1.6097 -0.8105 -0.0863
 5918SOL     OW29212   1.911   2.970   8.052 -0.1318  0.4518  0.5528
 5918SOL    HW129213   1.831   2.938   8.010  0.2803  1.7686 -1.2546
 5918SOL    HW229214   1.878   3.053   8.088  2.2239  2.2631 -1.4802
 5919SOL     OW29215   1.002   2.493   0.866  0.5564 -0.0704  0.0685
 5919SOL    HW129216   1.037   2.499   0.778  2.2457  0.0546  0.7564
 5919SOL    HW229217   0.977   2.586   0.872  0.5628  0.0291 -1.6069
 5920SOL     OW29218   1.056   1.444  17.266 -0.1208  0.6232  0.0033
 5920SOL    HW129219   1.039   1.361  17.222  1.6448  1.2093 -1.7820
 5920SOL    HW229220   1.086   1.410  17.351 -1.0708  3.2730  1.4052
 5921SOL     OW29221   3.860   1.809  14.423 -0.3974 -0.0473  0.6014
 5921SOL    HW129222   3.776   1.841  14.390  1.1273  1.2304 -2.0628
 5921SOL    HW229223   3.865   1.727  14.373  1.4367  1.2866 -1.4004
 5922SOL     OW29224   1.372   1.662   3.944  0.0488  0.1247  0.3367
 5922SOL    HW129225   1.303   1.727   3.956 -0.1495 -0.1793  0.8316
 5922SOL    HW229226   1.404   1.684   3.857  0.4668  1.2557  0.7732
 5923SOL     OW29227   3.069   2.343   2.221 -0.0357  0.0705 -0.7731
 5923SOL    HW129228   2.974   2.349   2.232 -0.1754 -1.1194 -1.3465
 5923SOL    HW229229   3.079   2.374   2.131 -0.3520  0.7470 -0.5770
 5924SOL     OW29230   1.153   4.310   9.718  0.3830 -0.0843  0.1393
 5924SOL    HW129231   1.128   4.241   9.779  0.4425 -0.6113 -0.4329
 5924SOL    HW229232   1.086   4.304   9.651  0.0854  1.8260  0.2715
 5925SOL     OW29233   1.436   1.122   6.045  0.1920  0.4602 -0.2663
 5925SOL    HW129234   1.358   1.167   6.014 -0.2725  2.1825  3.3442
 5925SOL    HW229235   1.503   1.190   6.054 -0.0727  0.8676 -1.3635
 5926SOL     OW29236   3.780   4.432   9.333 -0.4185 -0.2812 -0.8705
 5926SOL    HW129237   3.687   4.419   9.312 -0.6544  0.9244 -0.5709
 5926SOL    HW229238   3.811   4.367   9.269  1.3072 -1.8091  1.5043
 5927SOL     OW29239   0.614   4.332   4.925  0.1286  0.1377  0.2999
 5927SOL    HW129240   0.611   4.386   4.846  1.0497  2.7526  2.0551
 5927SOL    HW229241   0.653   4.394   4.987 -0.2546 -1.6865  2.3515
 5928SOL     OW29242   3.433   1.147   8.843 -0.1585 -0.4261 -0.8145
 5928SOL    HW129243   3.367   1.129   8.909  2.1539 -0.0288  1.5991
 5928SOL    HW229244   3.448   1.235   8.879 -0.1842  0.5394 -3.1130
 5929SOL     OW29245   3.409   3.666   8.790 -0.3875  0.2068 -0.0928
 5929SOL    HW129246   3.404   3.590   8.732  2.6272  0.4185 -0.6596
 5929SOL    HW229247   3.336   3.673   8.851 -1.4706  1.3186 -1.5391
 5930SOL     OW29248   1.736   1.333  10.368  0.1026  0.5041 -0.2691
 5930SOL    HW129249   1.697   1.280  10.438  1.6634  2.0598  1.7742
 5930SOL    HW229250   1.653   1.363  10.331  0.0489 -1.3573 -1.6847
 5931SOL     OW29251   3.569   3.354   5.951  0.1908 -0.6140  0.0128
 5931SOL    HW129252   3.554   3.396   6.035 -1.2007 -1.2358  0.0694
 5931SOL    HW229253   3.485   3.352   5.905 -0.2860  1.6752  0.8060
 5932SOL     OW29254   0.420   1.588   9.630  0.4338 -0.0858  0.5306
 5932SOL    HW129255   0.353   1.554   9.570  1.1634  1.6567 -1.3025
 5932SOL    HW229256   0.372   1.659   9.672 -0.7147  0.1359 -1.1497
 5933SOL     OW29257   3.711   3.659   2.217  0.2903  0.2233 -0.3951
 5933SOL    HW129258   3.755   3.574   2.217  1.2191  0.7041 -3.2456
 5933SOL    HW229259   3.736   3.694   2.131  0.0188  0.8737 -0.2100
 5934SOL     OW29260   0.956   0.012   8.663 -0.1041  0.1771  0.8629
 5934SOL    HW129261   0.988   0.102   8.667 -3.1805  1.3393 -1.0525
 5934SOL    HW229262   0.880   0.021   8.721 -0.5699  2.7580 -0.1693
 5935SOL     OW29263   0.226   1.003   6.605 -0.1202 -0.4745 -0.9127
 5935SOL    HW129264   0.134   0.980   6.596 -0.7364  1.0419  1.4751
 5935SOL    HW229265   0.262   0.917   6.584 -2.7037 -0.8036 -4.0379
 5936SOL     OW29266   1.193   4.150  10.648 -0.2644  0.1501  0.1610
 5936SOL    HW129267   1.109   4.172  10.690 -0.6855  0.1335 -0.6681
 5936SOL    HW229268   1.255   4.148  10.721 -1.5663 -0.2501  1.2515
 5937SOL     OW29269   0.427   3.855  12.590  0.2316 -0.1864  0.1824
 5937SOL    HW129270   0.433   3.763  12.564  2.3028 -0.4712  1.7429
 5937SOL    HW229271   0.439   3.893  12.502  0.2527 -1.1607 -0.2346
 5938SOL     OW29272   0.788   2.836   1.482  0.5912  0.5222 -0.2510
 5938SOL    HW129273   0.711   2.800   1.439 -0.0739  0.4763  0.9898
 5938SOL    HW229274   0.821   2.894   1.414 -0.7336  2.0984  0.4688
 5939SOL     OW29275   2.193   3.989   2.417 -0.1570  0.0682 -0.3842
 5939SOL    HW129276   2.151   4.004   2.333 -0.3044  2.1781  0.0702
 5939SOL    HW229277   2.212   3.898   2.395 -0.8724 -1.0844  3.7814
 5940SOL     OW29278   0.681   3.252   8.781 -0.4832 -0.5506 -0.1217
 5940SOL    HW129279   0.735   3.173   8.774 -0.8429 -0.5878 -2.3859
 5940SOL    HW229280   0.688   3.267   8.876 -1.7157 -1.4700  0.1203
 5941SOL     OW29281   3.388   0.241   7.520 -0.2947 -0.0293  0.6634
 5941SOL    HW129282   3.414   0.329   7.492  0.0017  0.1056  1.3421
 5941SOL    HW229283   3.430   0.257   7.605 -0.9402  0.1996  0.9374
 5942SOL     OW29284   4.360   3.384   0.991 -0.4718 -0.1825  0.2278
 5942SOL    HW129285   4.447   3.346   0.986 -0.5270 -0.6232  2.5669
 5942SOL    HW229286   4.378   3.457   1.050 -1.6427 -1.1764  1.8057
 5943SOL     OW29287   0.803   1.728   6.657  0.5630  0.3916  0.1894
 5943SOL    HW129288   0.876   1.787   6.678  1.3271 -0.4453 -0.1141
 5943SOL    HW229289   0.729   1.788   6.659  0.4388  0.2489 -0.1342
 5944SOL     OW29290   2.451   3.186   8.866  0.1634  0.1551 -0.0798
 5944SOL    HW129291   2.380   3.122   8.859  1.4649 -1.3650  0.7017
 5944SOL    HW229292   2.508   3.160   8.794  2.2695  1.7469  1.0475
 5945SOL     OW29293   1.891   2.397   4.455  0.5033 -0.0414  0.5432
 5945SOL    HW129294   1.887   2.492   4.452  0.9836 -0.1342 -2.9134
 5945SOL    HW229295   1.985   2.388   4.439 -0.0092 -1.7286 -1.5403
 5946SOL     OW29296   4.604   4.269   3.534 -0.8934  0.3679 -0.3604
 5946SOL    HW129297   4.592   4.305   3.622 -0.9803 -0.0878 -0.1886
 5946SOL    HW229298   4.655   4.191   3.554 -0.2308  1.3010  1.5888
 5947SOL     OW29299   0.620   4.394  17.066  0.1305 -0.5872  0.0817
 5947SOL    HW129300   0.583   4.460  17.126 -0.6857 -1.8855  0.9998
 5947SOL    HW229301   0.651   4.456  17.000  0.2399  0.3557  1.0164
 5948SOL     OW29302   3.029   2.930   6.692 -0.3615 -0.3904  0.1453
 5948SOL    HW129303   3.096   2.865   6.713  0.8813  0.6496 -0.5507
 5948SOL    HW229304   3.076   3.013   6.699 -0.7019 -0.2218  0.4241
 5949SOL     OW29305   1.795   4.339  13.811  0.2317 -0.3738 -0.3107
 5949SOL    HW129306   1.717   4.286  13.829 -0.7486  2.1301  2.7713
 5949SOL    HW229307   1.828   4.350  13.900 -0.1654 -2.4386  0.0803
 5950SOL     OW29308   1.242   0.964  11.038  0.1328 -0.8614 -0.1454
 5950SOL    HW129309   1.321   1.010  11.007 -0.1958 -1.1028 -1.3506
 5950SOL    HW229310   1.237   0.985  11.131 -0.4171  2.1872 -0.8615
 5951SOL     OW29311   2.282   0.671   7.712  0.6530 -0.1245  0.5546
 5951SOL    HW129312   2.259   0.602   7.775 -2.7642  0.2461 -0.2790
 5951SOL    HW229313   2.233   0.631   7.640  1.8363  1.8620 -1.3526
 5952SOL     OW29314   1.833   3.707  15.762  0.0655 -0.4870 -0.0200
 5952SOL    HW129315   1.870   3.669  15.842  0.9336 -4.6059 -2.4374
 5952SOL    HW229316   1.882   3.664  15.692  0.8679  2.0211 -1.0065
 5953SOL     OW29317   2.930   4.106  17.675  0.1951  0.0193 -0.4275
 5953SOL    HW129318   2.930   4.037   0.056 -1.0465  1.0782  0.6433
 5953SOL    HW229319   2.900   4.187   0.031  1.7687  1.1167 -1.4262
 5954SOL     OW29320   2.240   1.031   7.111  0.4188 -0.1143  0.3480
 5954SOL    HW129321   2.285   0.993   7.187 -0.3990  0.6072  1.1816
 5954SOL    HW229322   2.160   1.069   7.147  1.4215  3.2710 -1.0361
 5955SOL     OW29323   1.087   2.497  10.074 -0.6781 -0.4257 -0.2056
 5955SOL    HW129324   1.073   2.408  10.107 -1.5625  0.3280  1.3913
 5955SOL    HW229325   1.153   2.530  10.135 -2.6032  2.5517  0.2873
 5956SOL     OW29326   2.005   0.455   3.635  0.6152 -0.1797 -0.2912
 5956SOL    HW129327   1.998   0.389   3.704  1.4175  0.6984  0.6397
 5956SOL    HW229328   2.095   0.435   3.607  0.6507  0.1330 -0.3935
 5957SOL     OW29329   3.570   3.296  15.478  0.0782 -0.5419  0.7324
 5957SOL    HW129330   3.631   3.233  15.517  1.4784  1.4996  1.8082
 5957SOL    HW229331   3.494   3.239  15.466 -1.0716  1.4132 -1.1702
 5958SOL     OW29332   3.237   4.451   9.636 -0.2127  0.2151  0.2094
 5958SOL    HW129333   3.284   4.407   9.566 -0.1095 -0.4402  0.6956
 5958SOL    HW229334   3.193   4.376   9.675  0.3553  1.1273  2.6231
 5959SOL     OW29335   3.428   0.517  10.012 -0.6601 -0.1275  0.5131
 5959SOL    HW129336   3.490   0.462  10.060  0.6671 -0.5994 -1.7129
 5959SOL    HW229337   3.353   0.458  10.019 -0.3232 -0.5997  0.1717
 5960SOL     OW29338   0.049   2.901   5.400 -0.4535  0.1101  0.2592
 5960SOL    HW129339   4.686   2.855   5.389  0.7139 -1.7287 -0.9643
 5960SOL    HW229340   0.051   2.968   5.332 -1.6062 -1.3607 -1.2172
 5961SOL     OW29341   3.209   0.415   9.205 -0.0311 -0.5749 -0.0387
 5961SOL    HW129342   3.138   0.478   9.217 -0.4999 -0.9241 -0.9724
 5961SOL    HW229343   3.233   0.400   9.296  1.4947 -0.5266 -0.4274
 5962SOL     OW29344   4.692   2.875   3.618  0.5124 -0.5113 -0.0702
 5962SOL    HW129345   4.680   2.849   3.710  1.0675 -1.4013 -0.2477
 5962SOL    HW229346   0.065   2.857   3.609  0.3617 -1.2731 -0.1461
 5963SOL     OW29347   1.436   0.174   3.392 -0.3298  0.2921  0.6741
 5963SOL    HW129348   1.501   0.105   3.400 -0.9531  0.0706  3.9200
 5963SOL    HW229349   1.498   0.247   3.385  0.3225 -0.4537 -1.2083
 5964SOL     OW29350   2.353   2.739   3.989  0.6456 -0.8003  0.0852
 5964SOL    HW129351   2.389   2.712   4.074 -0.2630 -3.0198 -0.2310
 5964SOL    HW229352   2.290   2.809   4.007 -0.3070 -0.7327 -3.5571
 5965SOL     OW29353   3.624   3.188   4.235 -0.5404 -0.1424 -0.5827
 5965SOL    HW129354   3.554   3.182   4.300 -0.8659 -0.6448 -0.9761
 5965SOL    HW229355   3.667   3.266   4.270  0.3157 -0.0239 -1.8669
 5966SOL     OW29356   0.868   3.544   8.029 -0.3852  0.3428  0.2262
 5966SOL    HW129357   0.876   3.466   8.085  1.4479  0.1186 -0.3346
 5966SOL    HW229358   0.941   3.521   7.970 -1.2782  0.5657 -0.9653
 5967SOL     OW29359   2.568   2.784   1.508  0.3343  0.4377  0.0118
 5967SOL    HW129360   2.604   2.697   1.524  0.6151  0.3365 -1.1927
 5967SOL    HW229361   2.616   2.825   1.580 -0.7819  3.1014 -0.7717
 5968SOL     OW29362   3.313   2.677   8.164 -0.1007 -0.0322 -0.1325
 5968SOL    HW129363   3.389   2.641   8.118 -0.8044 -0.9263 -0.5810
 5968SOL    HW229364   3.353   2.708   8.246  1.5577 -0.6076 -0.7208
 5969SOL     OW29365   1.408   2.376   9.151  0.1581  0.4580 -0.7160
 5969SOL    HW129366   1.491   2.328   9.149  0.6677  1.2811  0.5457
 5969SOL    HW229367   1.374   2.366   9.240 -0.3351 -0.2414 -0.9790
 5970SOL     OW29368   3.353   0.262   2.332 -0.0703 -0.5285 -0.2325
 5970SOL    HW129369   3.433   0.308   2.359 -0.4483  0.1958 -0.3588
 5970SOL    HW229370   3.318   0.318   2.262  0.1205  0.0725  0.1505
 5971SOL     OW29371   1.027   1.754   8.418  0.2506 -0.2753 -0.4900
 5971SOL    HW129372   0.967   1.717   8.353 -1.0636  0.8634  0.0830
 5971SOL    HW229373   0.995   1.840   8.444  0.2454 -0.3099 -0.3815
 5972SOL     OW29374   3.891   1.143   3.137 -0.0122  0.4483 -0.4744
 5972SOL    HW129375   3.922   1.184   3.218  1.3867 -2.1136  0.3004
 5972SOL    HW229376   3.863   1.059   3.171 -3.6320  0.9303 -2.2773
 5973SOL     OW29377   2.202   0.729  13.304  0.2791 -0.2167  0.8274
 5973SOL    HW129378   2.194   0.792  13.376 -1.1979  1.4406 -0.7842
 5973SOL    HW229379   2.260   0.767  13.239  0.6172 -2.6236 -0.2545
 5974SOL     OW29380   1.716   1.178  13.668 -0.1881 -0.2534  0.6456
 5974SOL    HW129381   1.683   1.089  13.670 -1.5021  0.2579  1.7518
 5974SOL    HW229382   1.786   1.175  13.602  0.1706  0.2110  1.0068
 5975SOL     OW29383   2.583   2.697   9.029 -0.4471 -0.0779 -0.5981
 5975SOL    HW129384   2.615   2.622   9.079 -0.7682  0.2062  0.0346
 5975SOL    HW229385   2.630   2.685   8.946 -0.5744 -1.9669 -0.3946
 5976SOL     OW29386   0.602   3.611  11.483 -0.4478 -0.5511 -0.5089
 5976SOL    HW129387   0.671   3.649  11.429  0.7334 -1.5077  0.3213
 5976SOL    HW229388   0.533   3.598  11.418  0.3115  0.8589 -1.5779
 5977SOL     OW29389   2.260   3.593   5.645  0.0266 -0.0368  0.4417
 5977SOL    HW129390   2.251   3.666   5.707 -4.3968  0.4363 -0.7445
 5977SOL    HW229391   2.207   3.529   5.692 -0.7479 -0.2403 -0.7102
 5978SOL     OW29392   1.509   2.863   5.358 -0.0760 -0.5638  0.4805
 5978SOL    HW129393   1.570   2.790   5.370 -0.7022 -0.9018  1.6217
 5978SOL    HW229394   1.499   2.871   5.453  0.1006  1.4732  0.3325
 5979SOL     OW29395   3.981   2.509   4.654  0.0248  0.1866  0.1462
 5979SOL    HW129396   3.994   2.570   4.582  1.4946  0.2187  0.4383
 5979SOL    HW229397   4.073   2.505   4.678  0.1264 -0.7404 -0.3643
 5980SOL     OW29398   1.345   1.991   8.387 -0.1175 -0.2310 -0.2589
 5980SOL    HW129399   1.269   2.038   8.422 -0.9849 -1.6544 -0.2229
 5980SOL    HW229400   1.378   1.953   8.467 -0.6338  1.6417  0.8507
 5981SOL     OW29401   1.489   1.123   2.165  0.3264 -0.1968 -0.0764
 5981SOL    HW129402   1.476   1.058   2.095  1.1945 -0.8679  0.3766
 5981SOL    HW229403   1.459   1.203   2.124  0.9125  0.1832  0.2351
 5982SOL     OW29404   1.380   0.571  13.858 -0.6178  0.6819 -0.1018
 5982SOL    HW129405   1.329   0.500  13.819  2.7020 -0.2536 -2.7005
 5982SOL    HW229406   1.466   0.539  13.833  0.2424  1.6070  1.6722
 5983SOL     OW29407   1.270   2.261   0.862  0.3007  0.1514  0.1165
 5983SOL    HW129408   1.348   2.215   0.894  0.4400  0.7894  0.7062
 5983SOL    HW229409   1.308   2.331   0.809  0.2703 -0.1707 -0.3245
 5984SOL     OW29410   1.676   2.973  15.818 -0.2422 -0.1110  0.9081
 5984SOL    HW129411   1.710   3.005  15.901 -1.7404  1.5068  0.8948
 5984SOL    HW229412   1.673   2.879  15.832 -3.3010 -0.1750 -0.1775
 5985SOL     OW29413   1.569   2.835   7.353  0.3517 -0.0016  0.6584
 5985SOL    HW129414   1.615   2.772   7.407  0.3301  0.2275  0.9449
 5985SOL    HW229415   1.505   2.780   7.308 -1.9396  1.7509  1.7590
 5986SOL     OW29416   2.614   3.941   0.031  0.3774  0.2506  0.2187
 5986SOL    HW129417   2.605   3.947   0.126  0.4109  1.1075  0.1674
 5986SOL    HW229418   2.574   4.026   0.014 -1.2167 -0.4843  0.2774
 5987SOL     OW29419   2.787   4.588   8.811  0.2664  0.3422  0.1530
 5987SOL    HW129420   2.837   4.594   8.730 -1.6832  2.1652 -0.9148
 5987SOL    HW229421   2.839   4.642   8.871  1.0897 -2.2974  1.8166
 5988SOL     OW29422   0.378   1.855   8.336  0.5514  0.3388  0.2916
 5988SOL    HW129423   0.338   1.915   8.399 -2.6116 -1.2178 -0.2604
 5988SOL    HW229424   0.471   1.874   8.346  0.4530  0.1846  1.4837
 5989SOL     OW29425   4.548   2.623   5.670  0.2213  0.4734 -0.2002
 5989SOL    HW129426   4.508   2.607   5.584 -0.5353  2.2239 -0.1718
 5989SOL    HW229427   4.507   2.560   5.729  1.2928  1.4748  1.6080
 5990SOL     OW29428   1.197   3.105  14.803  0.1793 -0.8623  0.1114
 5990SOL    HW129429   1.242   3.028  14.768  0.5450 -0.7492  0.3430
 5990SOL    HW229430   1.108   3.071  14.814 -0.6430  1.3775  0.2990
 5991SOL     OW29431   0.640   0.260   8.090  0.1882 -0.4558  0.0199
 5991SOL    HW129432   0.697   0.327   8.054  0.4360  1.1710  3.5584
 5991SOL    HW229433   0.616   0.283   8.179  1.3016 -1.7142  0.6415
 5992SOL     OW29434   0.522   0.153  12.377 -0.2048 -0.7019 -0.1170
 5992SOL    HW129435   0.436   0.112  12.362 -1.2171  1.3830  0.0321
 5992SOL    HW229436   0.579   0.092  12.331 -0.0493 -0.4141 -0.3012
 5993SOL     OW29437   1.463   2.372   1.981 -0.5059 -0.1254  0.1346
 5993SOL    HW129438   1.537   2.423   2.013 -0.6611  0.4611 -0.4279
 5993SOL    HW229439   1.515   2.306   1.936  1.5052  0.2863  1.8527
 5994SOL     OW29440   2.399   1.422   1.262  0.1776 -0.3409 -0.5409
 5994SOL    HW129441   2.367   1.336   1.290 -0.2564  0.1640  0.5287
 5994SOL    HW229442   2.417   1.468   1.344 -1.7296 -0.7092  0.0702
 5995SOL     OW29443   3.508   4.305   7.552 -0.1818 -0.6313  0.1939
 5995SOL    HW129444   3.490   4.244   7.623 -1.7735 -2.2790 -1.6005
 5995SOL    HW229445   3.439   4.368   7.570  1.7432  1.2974  0.8204
 5996SOL     OW29446   3.007   4.227   6.347  0.1380  0.2713  0.2874
 5996SOL    HW129447   2.949   4.298   6.376 -1.3079 -1.1610  0.8523
 5996SOL    HW229448   3.060   4.226   6.427  1.2519  0.7742 -0.4370
 5997SOL     OW29449   3.966   1.392   7.001  0.4715 -0.9000  0.4775
 5997SOL    HW129450   4.014   1.474   6.990  2.1154 -2.1435 -1.5470
 5997SOL    HW229451   3.887   1.427   7.043 -0.4231 -0.1804 -1.8397
 5998SOL     OW29452   1.254   0.308   7.414  0.4684 -0.2770 -0.2373
 5998SOL    HW129453   1.168   0.305   7.371 -0.1365  1.6986  0.8026
 5998SOL    HW229454   1.228   0.264   7.495  0.6371  1.6403  0.8582
 5999SOL     OW29455   0.390   3.617  15.674  0.0547 -0.0145  0.9427
 5999SOL    HW129456   0.475   3.645  15.640 -1.5004  1.8662 -1.4243
 5999SOL    HW229457   0.343   3.697  15.652 -1.2029 -0.9237  0.3382
 6000SOL     OW29458   0.992   0.824   1.918  0.3689 -0.0178 -0.5258
 6000SOL    HW129459   0.948   0.743   1.941 -0.5443  0.5342 -0.3605
 6000SOL    HW229460   1.080   0.787   1.923  0.2045 -0.5534 -1.6538
 6001SOL     OW29461   0.383   1.816   4.134 -0.5639 -0.3030  0.5628
 6001SOL    HW129462   0.426   1.883   4.188  0.1120 -0.3150  0.0438
 6001SOL    HW229463   0.347   1.869   4.063  0.6157 -1.4019 -0.8651
 6002SOL     OW29464   2.074   1.503   7.586  0.2998  0.2437 -1.0641
 6002SOL    HW129465   2.063   1.522   7.493  0.5081 -2.0612 -1.5500
 6002SOL    HW229466   2.015   1.428   7.585  0.3270  0.2060 -0.1263
 6003SOL     OW29467   0.547   2.939   2.344  0.3557 -0.8981 -0.2664
 6003SOL    HW129468   0.548   2.975   2.433  1.5259  1.8191 -1.3729
 6003SOL    HW229469   0.478   2.874   2.338 -2.2553  1.8467  0.0972
 6004SOL     OW29470   1.569   1.917  11.065  0.5395  0.0261  0.5334
 6004SOL    HW129471   1.560   1.973  11.142 -0.2214  1.3446 -0.5185
 6004SOL    HW229472   1.513   1.851  11.106  0.8607 -0.1760  0.6490
 6005SOL     OW29473   2.041   3.062   6.839 -0.3144  0.1446  0.0541
 6005SOL    HW129474   1.991   3.117   6.779 -0.4740  0.2504  0.2844
 6005SOL    HW229475   2.117   3.047   6.784  0.3660 -2.3121  1.6598
 6006SOL     OW29476   1.821   0.389   5.750 -0.0538  0.2497 -0.5961
 6006SOL    HW129477   1.780   0.470   5.721  0.4022  0.0884 -1.7167
 6006SOL    HW229478   1.809   0.326   5.679 -2.3751  2.8616 -2.4874
 6007SOL     OW29479   1.685   2.649   5.386  0.1938  0.3095 -0.3985
 6007SOL    HW129480   1.770   2.653   5.430 -0.0103  0.0902  0.0182
 6007SOL    HW229481   1.706   2.617   5.298 -2.0935  0.5856 -1.0453
 6008SOL     OW29482   1.244   3.807   4.790 -0.1642  0.5587  0.5910
 6008SOL    HW129483   1.168   3.861   4.810 -1.0959 -1.6222  2.9139
 6008SOL    HW229484   1.297   3.803   4.870  1.1917 -1.0146 -0.3858
 6009SOL     OW29485   2.019   1.273   3.090 -0.4298 -0.5807  0.2574
 6009SOL    HW129486   1.931   1.239   3.106 -0.9882  0.5061 -0.4562
 6009SOL    HW229487   2.005   1.363   3.059 -3.6150 -1.1234  0.0526
 6010SOL     OW29488   1.340   4.490   1.433  0.0145 -0.1975 -0.3777
 6010SOL    HW129489   1.352   4.582   1.459  0.8569 -0.7852  1.2816
 6010SOL    HW229490   1.427   4.482   1.392 -0.0470  1.5120 -0.8590
 6011SOL     OW29491   0.582   4.339   3.235  0.6144  0.2858 -0.1296
 6011SOL    HW129492   0.580   4.433   3.217  1.2814  0.3874  0.3208
 6011SOL    HW229493   0.508   4.332   3.295  0.4904 -2.0381 -0.5253
 6012SOL     OW29494   1.508   0.475  12.463  0.4664 -0.4680  0.1962
 6012SOL    HW129495   1.577   0.533  12.432  1.3718 -1.8017 -0.2780
 6012SOL    HW229496   1.469   0.483  12.376  0.1026  0.1762  0.4130
 6013SOL     OW29497   0.448   3.942   6.050 -0.0762  0.2355 -0.7049
 6013SOL    HW129498   0.501   3.882   5.997 -1.2347 -2.7907  1.6098
 6013SOL    HW229499   0.474   3.923   6.139 -0.9910 -0.2074 -0.5304
 6014SOL     OW29500   4.123   2.464  12.948  0.4077  0.2538 -0.3046
 6014SOL    HW129501   4.174   2.518  13.008 -0.8653  0.7588  0.3245
 6014SOL    HW229502   4.159   2.482  12.861  0.5741 -2.1599 -0.7441
 6015SOL     OW29503   1.461   1.941  12.061 -0.3331 -0.5062 -0.0435
 6015SOL    HW129504   1.467   1.875  11.993 -0.3223 -0.3879 -0.1569
 6015SOL    HW229505   1.498   1.893  12.135  0.7310  2.5152  1.3971
 6016SOL     OW29506   0.152   1.481   8.627 -0.2286 -0.4808 -0.2082
 6016SOL    HW129507   0.123   1.572   8.638  1.2978 -0.3639  2.9400
 6016SOL    HW229508   0.170   1.482   8.533 -0.2050  0.3542 -0.1955
 6017SOL     OW29509   3.265   2.955   9.959 -0.0991  0.2661 -0.3207
 6017SOL    HW129510   3.312   2.955   9.875 -2.3325 -3.6437 -1.5291
 6017SOL    HW229511   3.337   2.942  10.021 -0.4607 -3.5338 -0.7041
 6018SOL     OW29512   1.632   1.872   0.701 -0.4424  0.4825 -0.7055
 6018SOL    HW129513   1.548   1.836   0.671 -0.9639  1.3738 -0.2789
 6018SOL    HW229514   1.643   1.836   0.789 -1.2301  0.7687 -0.4912
 6019SOL     OW29515   3.381   3.355  10.757 -0.2103  0.2219  0.4472
 6019SOL    HW129516   3.327   3.316  10.689  2.3599  1.8941 -2.5453
 6019SOL    HW229517   3.464   3.308  10.743  0.2793  1.3448 -0.4214
 6020SOL     OW29518   0.622   3.417   2.976 -0.3117  0.7465  0.3187
 6020SOL    HW129519   0.628   3.460   2.891 -2.5763 -2.1317 -1.3244
 6020SOL    HW229520   0.529   3.424   2.999 -0.1700  1.7657  0.5796
 6021SOL     OW29521   0.400   0.266   4.664  0.4960 -0.3588 -0.2116
 6021SOL    HW129522   0.495   0.264   4.656  0.7790  1.1933  2.6683
 6021SOL    HW229523   0.371   0.202   4.600 -0.0430  1.6479 -1.9834
 6022SOL     OW29524   3.433   4.293  13.277 -0.2064  0.7621 -0.1098
 6022SOL    HW129525   3.519   4.297  13.319 -0.1741  0.0211 -0.1056
 6022SOL    HW229526   3.389   4.221  13.321  1.8138 -1.6826 -2.1271
 6023SOL     OW29527   2.018   3.729   3.175 -0.3790 -0.3331  0.7097
 6023SOL    HW129528   2.101   3.753   3.135 -1.0947  2.3446  0.8235
 6023SOL    HW229529   2.004   3.811   3.224 -0.5739 -0.6249  1.1486
 6024SOL     OW29530   1.671   1.114   9.887 -0.2430  0.7314  0.3944
 6024SOL    HW129531   1.631   1.185   9.837  0.8466  2.4748  1.9411
 6024SOL    HW229532   1.621   1.106   9.968 -0.4731  1.3553  0.3180
 6025SOL     OW29533   0.547   3.825   2.972 -0.8221  0.4352 -0.1985
 6025SOL    HW129534   0.543   3.866   2.886  1.1412 -2.2674 -1.5596
 6025SOL    HW229535   0.534   3.899   3.031 -1.8936 -1.3832  1.8631
 6026SOL     OW29536   4.588   2.017   5.985 -0.0723 -0.3442 -0.3149
 6026SOL    HW129537   4.555   1.927   5.991  2.3183 -1.1604  0.3268
 6026SOL    HW229538   4.666   2.002   5.932  0.5809  2.1768 -0.0375
 6027SOL     OW29539   0.436   3.374   4.509  0.8572  0.2620  0.0384
 6027SOL    HW129540   0.390   3.292   4.491  0.0347  0.3940  1.5891
 6027SOL    HW229541   0.420   3.397   4.600 -1.2407 -4.0423  0.7832
 6028SOL     OW29542   0.721   0.527   3.946  0.1858  0.3496  0.3698
 6028SOL    HW129543   0.684   0.494   4.028 -1.3717  1.4686  0.1087
 6028SOL    HW229544   0.687   0.617   3.951  2.5391  1.2962 -0.2517
 6029SOL     OW29545   0.856   0.884   4.903 -0.1388  0.0221  0.4635
 6029SOL    HW129546   0.776   0.932   4.926 -1.6395 -1.2593 -2.1017
 6029SOL    HW229547   0.913   0.954   4.871 -0.6302 -0.9570 -2.5301
 6030SOL     OW29548   3.446   3.580   6.774 -0.4850  0.6117 -0.1627
 6030SOL    HW129549   3.438   3.641   6.848 -0.7580  1.6761 -1.0683
 6030SOL    HW229550   3.374   3.520   6.793  0.4084 -0.0971  1.0303
 6031SOL     OW29551   1.454   0.216   7.188 -0.5343  0.0394  0.1087
 6031SOL    HW129552   1.447   0.270   7.267  0.8809 -0.7070  0.7581
 6031SOL    HW229553   1.541   0.243   7.158 -0.6095  1.1426  0.8647
 6032SOL     OW29554   1.060   3.307   5.178 -0.4963  0.6487  0.1912
 6032SOL    HW129555   1.126   3.361   5.222  0.0783  1.1919 -1.3408
 6032SOL    HW229556   1.036   3.372   5.111 -2.4861  1.1814  1.4055
 6033SOL     OW29557   4.519   0.463  11.810  0.2337 -0.2527  0.5938
 6033SOL    HW129558   4.473   0.502  11.735 -0.8316 -0.3902  1.1769
 6033SOL    HW229559   4.562   0.388  11.768 -0.4951  0.4867 -1.5072
 6034SOL     OW29560   2.181   4.439   2.690 -0.0025 -0.3607  0.7091
 6034SOL    HW129561   2.174   4.477   2.603 -0.4943 -1.9048  0.0957
 6034SOL    HW229562   2.271   4.408   2.683  0.3610  1.1153 -1.1564
 6035SOL     OW29563   2.675   0.882   8.189 -0.7655  0.2103 -0.0014
 6035SOL    HW129564   2.734   0.839   8.127 -0.6705  0.6478 -0.2215
 6035SOL    HW229565   2.657   0.966   8.146 -0.0106 -0.4353 -1.5978
 6036SOL     OW29566   1.083   2.123   4.702  0.6046  0.3873 -0.2968
 6036SOL    HW129567   1.047   2.207   4.731  0.3229  0.0155  0.4415
 6036SOL    HW229568   1.162   2.144   4.653  1.4644 -0.1351  0.8715
 6037SOL     OW29569   3.348   1.385   9.593 -0.3467 -0.2069  0.4104
 6037SOL    HW129570   3.334   1.478   9.576  0.6183  0.0177  0.8621
 6037SOL    HW229571   3.306   1.377   9.679  0.5500 -0.3068  0.8372
 6038SOL     OW29572   0.756   0.565  15.361  0.9564 -0.3452  0.4937
 6038SOL    HW129573   0.803   0.511  15.425  1.4361 -1.9738 -1.2337
 6038SOL    HW229574   0.675   0.516  15.346  1.6863 -1.9001  1.6059
 6039SOL     OW29575   3.197   1.512   5.037  0.1938 -0.1054  0.2999
 6039SOL    HW129576   3.179   1.583   4.976  0.4055  0.0131  0.3711
 6039SOL    HW229577   3.119   1.519   5.092  0.7591  0.0483  1.0940
 6040SOL     OW29578   1.229   4.102  11.774 -0.2800  0.3026  0.0086
 6040SOL    HW129579   1.290   4.074  11.842 -0.4209 -1.7991 -0.7135
 6040SOL    HW229580   1.150   4.069  11.817 -0.4497 -0.3782 -0.8091
 6041SOL     OW29581   3.205   1.830   0.862 -0.1679 -0.0735  0.6344
 6041SOL    HW129582   3.228   1.761   0.801 -1.2623  0.5075 -0.4208
 6041SOL    HW229583   3.132   1.869   0.815 -0.0536 -0.7169 -0.0659
 6042SOL     OW29584   4.116   1.699  10.337 -0.0256 -0.0477 -0.3557
 6042SOL    HW129585   4.151   1.619  10.299 -1.4266 -1.0333  0.4207
 6042SOL    HW229586   4.080   1.658  10.415 -1.2051  0.7659 -0.4641
 6043SOL     OW29587   3.840   3.527   1.228 -0.2012 -0.2464 -0.4752
 6043SOL    HW129588   3.814   3.476   1.151 -0.8083 -1.0707  0.2686
 6043SOL    HW229589   3.902   3.589   1.191 -0.0082 -1.4926 -2.2435
 6044SOL     OW29590   2.660   1.720   7.233 -0.2975  0.0235 -0.1474
 6044SOL    HW129591   2.687   1.631   7.257  2.5646  1.3788  1.6250
 6044SOL    HW229592   2.709   1.723   7.150 -0.2382 -1.0286 -0.1548
 6045SOL     OW29593   4.433   2.742  10.459  0.5434 -0.1686  0.5801
 6045SOL    HW129594   4.436   2.651  10.491  0.7156 -0.6468 -0.7964
 6045SOL    HW229595   4.454   2.729  10.367  0.4859  0.8114  0.4277
 6046SOL     OW29596   2.330   0.772   1.350  0.0446 -0.4775 -0.2738
 6046SOL    HW129597   2.294   0.775   1.262  1.8230  0.4657 -0.9748
 6046SOL    HW229598   2.249   0.774   1.401  0.6710  1.1789  0.6939
 6047SOL     OW29599   0.081   2.067   8.172 -0.1177  0.2009  0.0845
 6047SOL    HW129600   0.129   2.127   8.230  0.4387 -0.5431  0.3817
 6047SOL    HW229601   0.041   2.135   8.118 -1.8607 -0.4015  0.6330
 6048SOL     OW29602   4.245   0.314  12.931  0.2498  0.2967  0.4438
 6048SOL    HW129603   4.200   0.346  12.853  1.5528 -1.4093 -0.9959
 6048SOL    HW229604   4.201   0.360  13.003  0.0160 -0.6699  0.9168
 6049SOL     OW29605   2.416   2.348   6.259  0.1152  0.2351  0.2372
 6049SOL    HW129606   2.442   2.339   6.351  1.8878 -0.9970 -0.3849
 6049SOL    HW229607   2.330   2.309   6.249  0.3034 -0.4213  1.2158
 6050SOL     OW29608   4.560   3.431   6.018  0.0660 -0.3687  0.5242
 6050SOL    HW129609   4.541   3.408   5.927 -0.5821 -0.0181  0.5712
 6050SOL    HW229610   4.649   3.465   6.014 -0.2301  0.1050 -2.1279
 6051SOL     OW29611   2.775   2.292   4.304 -0.0129 -0.6855 -0.1579
 6051SOL    HW129612   2.744   2.322   4.390 -1.2289 -0.0980 -0.8052
 6051SOL    HW229613   2.762   2.373   4.255  3.1779  0.6728  1.2751
 6052SOL     OW29614   2.660   0.604   8.853  0.7387  0.0175  0.1513
 6052SOL    HW129615   2.592   0.659   8.893 -0.3865 -1.0212 -0.3212
 6052SOL    HW229616   2.663   0.530   8.913  1.6453  1.2941  1.6698
 6053SOL     OW29617   0.367   1.790   6.569 -0.6095  0.7046  0.3183
 6053SOL    HW129618   0.376   1.869   6.516 -0.8445  2.3195  2.7116
 6053SOL    HW229619   0.272   1.780   6.567 -0.6624  1.0738  1.7639
 6054SOL     OW29620   1.372   1.198   8.433  0.1581 -0.4795 -0.3988
 6054SOL    HW129621   1.328   1.176   8.515  0.4965 -0.1792 -0.1379
 6054SOL    HW229622   1.341   1.288   8.421  0.0889  0.2413  5.2006
 6055SOL     OW29623   1.644   2.164  16.023 -0.1069 -0.8868 -0.3761
 6055SOL    HW129624   1.603   2.188  15.939  1.1345 -1.5078 -1.1641
 6055SOL    HW229625   1.720   2.110  15.999 -0.1373 -1.6353  1.2436
 6056SOL     OW29626   1.497   4.511   8.915  0.5300 -0.1506 -0.1115
 6056SOL    HW129627   1.449   4.431   8.892 -0.3466  0.6876 -1.2110
 6056SOL    HW229628   1.566   4.480   8.974 -1.9127 -1.2751  2.1879
 6057SOL     OW29629   2.281   1.155   3.855 -0.5259  0.1138 -0.2613
 6057SOL    HW129630   2.242   1.093   3.917  0.4676  0.3816  0.6461
 6057SOL    HW229631   2.352   1.185   3.911 -1.3843 -1.7515  1.8548
 6058SOL     OW29632   3.575   2.490   7.240 -0.3507 -0.1820  0.0553
 6058SOL    HW129633   3.480   2.488   7.234 -0.3416  0.0387 -0.1424
 6058SOL    HW229634   3.599   2.456   7.154 -3.1197  1.0039 -1.1790
 6059SOL     OW29635   2.685   4.660   4.428  0.0469 -0.0589 -0.4784
 6059SOL    HW129636   2.772   4.651   4.467 -0.3320  0.0342  0.3685
 6059SOL    HW229637   2.639   4.690   4.506  1.8830 -3.6477  1.9657
 6060SOL     OW29638   4.270   1.772   3.600  0.3274 -0.8329  0.6242
 6060SOL    HW129639   4.310   1.808   3.522 -0.3127 -0.3264  0.5282
 6060SOL    HW229640   4.284   1.680   3.577 -0.9795 -0.0306 -3.3978
 6061SOL     OW29641   2.669   0.686   5.106 -0.3202 -0.3376 -0.3396
 6061SOL    HW129642   2.692   0.638   5.027 -1.0840 -0.0640 -0.7360
 6061SOL    HW229643   2.615   0.620   5.150  0.3735 -1.0706 -0.5980
 6062SOL     OW29644   1.067   3.963  11.961  0.0018 -0.0631 -0.0730
 6062SOL    HW129645   1.130   3.927  12.025 -2.7797 -0.4051  2.4620
 6062SOL    HW229646   0.986   3.963  12.012 -0.4436 -0.7218 -0.7800
 6063SOL     OW29647   1.468   3.965   4.264 -0.1360  0.1529 -0.2233
 6063SOL    HW129648   1.520   4.018   4.324  1.2241  0.0774 -1.3340
 6063SOL    HW229649   1.410   3.914   4.320 -2.5779  0.4824 -2.4519
 6064SOL     OW29650   0.601   1.720   6.289 -0.3549  0.0603 -0.6701
 6064SOL    HW129651   0.519   1.696   6.245 -0.8398  0.4670  0.0150
 6064SOL    HW229652   0.566   1.789   6.346 -1.2241 -1.0238  0.1045
 6065SOL     OW29653   1.228   0.730  13.279 -0.8750  0.4943  0.5498
 6065SOL    HW129654   1.286   0.805  13.287 -2.9878  2.1559  0.2043
 6065SOL    HW229655   1.265   0.662  13.335  0.2396  2.1288  1.7742
 6066SOL     OW29656   0.097   3.642   2.852  0.0320 -0.3480  0.1783
 6066SOL    HW129657   0.193   3.634   2.847  0.0724 -0.8379  1.6738
 6066SOL    HW229658   0.067   3.641   2.762  3.7493 -1.0092 -1.0528
 6067SOL     OW29659   0.680   0.665  11.771 -0.2927 -0.6157 -0.4556
 6067SOL    HW129660   0.670   0.584  11.721 -1.2044  0.3106 -1.7410
 6067SOL    HW229661   0.627   0.645  11.848  0.9153 -1.3194  0.2069
 6068SOL     OW29662   0.235   4.335   1.852  0.0483  0.1201  0.0306
 6068SOL    HW129663   0.258   4.412   1.904  1.8728 -0.1810 -0.2965
 6068SOL    HW229664   0.233   4.268   1.921 -1.0160 -0.4468 -0.5611
 6069SOL     OW29665   3.643   1.971   3.604  0.0329  0.2574 -0.1702
 6069SOL    HW129666   3.682   2.027   3.671 -0.3686  2.5545 -1.8542
 6069SOL    HW229667   3.715   1.909   3.592  0.8439  1.0513  0.6169
 6070SOL     OW29668   0.536   3.564  14.613  0.4776 -0.3960  0.2190
 6070SOL    HW129669   0.576   3.635  14.562 -0.0662 -0.2716 -0.0342
 6070SOL    HW229670   0.447   3.558  14.578  0.3542  0.0416  0.4616
 6071SOL     OW29671   0.558   1.682   3.072 -0.4876 -0.2440 -0.5703
 6071SOL    HW129672   0.653   1.691   3.074 -0.6061  0.8639  0.0623
 6071SOL    HW229673   0.536   1.759   3.019 -1.1184 -1.1768 -1.6732
 6072SOL     OW29674   2.171   1.986  10.108  0.3019 -0.5014 -0.5032
 6072SOL    HW129675   2.199   1.895  10.109 -2.0980 -1.2305  1.2514
 6072SOL    HW229676   2.085   1.975  10.150 -0.3743 -0.6005 -1.9026
 6073SOL     OW29677   4.553   0.679  10.752  0.0228 -0.3616  0.3997
 6073SOL    HW129678   4.589   0.594  10.728 -1.0744 -1.0906  1.3351
 6073SOL    HW229679   4.619   0.710  10.814 -2.1136  0.0819  2.4427
 6074SOL     OW29680   3.426   3.700  15.163  0.3217  0.3419 -0.2574
 6074SOL    HW129681   3.512   3.684  15.124  0.8853 -0.4468  1.3364
 6074SOL    HW229682   3.422   3.794  15.149  2.6730  0.3070 -1.1408
 6075SOL     OW29683   0.266   2.100   2.276 -0.2569  0.0900 -0.1686
 6075SOL    HW129684   0.296   2.121   2.188 -0.2456 -1.3177 -0.4977
 6075SOL    HW229685   0.344   2.065   2.319  0.5409  0.2036 -1.5459
 6076SOL     OW29686   1.990   1.903   4.015  0.7152  0.4222 -0.2001
 6076SOL    HW129687   1.953   1.913   4.103  0.4815 -0.9914 -0.1325
 6076SOL    HW229688   2.060   1.968   4.018  2.2111 -1.2018 -0.4456
 6077SOL     OW29689   3.830   2.318   6.615 -0.0662 -0.1977 -0.4925
 6077SOL    HW129690   3.908   2.293   6.565 -0.6424 -0.8938 -1.0480
 6077SOL    HW229691   3.842   2.271   6.698  1.6876  0.8210 -0.1768
 6078SOL     OW29692   1.152   2.728   4.862 -0.4393 -0.3107  0.1307
 6078SOL    HW129693   1.057   2.723   4.847 -0.2717  0.3820 -1.2188
 6078SOL    HW229694   1.180   2.759   4.775  1.1266 -0.6859  0.5009
 6079SOL     OW29695   0.185   1.908  14.719  0.0849  0.4316  0.1830
 6079SOL    HW129696   0.104   1.922  14.668  1.1958  1.6192 -1.2633
 6079SOL    HW229697   0.250   1.958  14.669  1.0468  0.1917  1.2008
 6080SOL     OW29698   0.753   2.529   9.531 -0.2947 -0.8997  0.1565
 6080SOL    HW129699   0.755   2.471   9.455 -0.6561 -1.0684  0.2747
 6080SOL    HW229700   0.836   2.572   9.510 -0.2450 -0.1463  1.9485
 6081SOL     OW29701   1.562   2.651   1.338 -0.4149  0.7464  0.5189
 6081SOL    HW129702   1.573   2.567   1.382 -1.0188  1.2913  1.6884
 6081SOL    HW229703   1.474   2.640   1.302  0.9808 -1.2353 -2.2952
 6082SOL     OW29704   3.508   3.516   6.135 -0.1568  0.3697 -0.5566
 6082SOL    HW129705   3.583   3.566   6.168  1.7546 -4.2824  2.1608
 6082SOL    HW229706   3.456   3.576   6.082 -2.0160 -0.5621  0.2305
 6083SOL     OW29707   0.948   0.810   2.774 -0.3496 -0.0851  0.2871
 6083SOL    HW129708   0.930   0.796   2.681  2.5359  3.9145 -0.8794
 6083SOL    HW229709   0.865   0.848   2.801  0.0789 -0.4231  2.0491
 6084SOL     OW29710   0.331   2.618   2.946  0.0383  0.3200 -0.5465
 6084SOL    HW129711   0.329   2.531   2.986  1.2850  0.3582 -0.4161
 6084SOL    HW229712   0.282   2.605   2.864  1.7438 -0.0301 -1.5076
 6085SOL     OW29713   0.699   1.130   2.017  0.5044  0.8054  0.3714
 6085SOL    HW129714   0.760   1.086   1.957  0.7788  1.1665  0.3900
 6085SOL    HW229715   0.688   1.208   1.963 -0.2386 -1.4402 -2.7598
 6086SOL     OW29716   3.307   4.307   6.095 -0.5992  0.3332 -0.0702
 6086SOL    HW129717   3.355   4.343   6.170 -1.6123  1.0104  0.2618
 6086SOL    HW229718   3.290   4.384   6.040 -0.0610 -0.8567 -1.9149
 6087SOL     OW29719   2.846   0.635   6.495  0.2670 -0.0008  0.0453
 6087SOL    HW129720   2.930   0.680   6.480  1.1798 -0.9082  2.5550
 6087SOL    HW229721   2.831   0.617   6.402 -0.6987 -1.3400  0.4581
 6088SOL     OW29722   2.535   0.463   5.192  1.0948 -0.3604  0.3871
 6088SOL    HW129723   2.471   0.426   5.131 -0.3094 -0.8121  2.1309
 6088SOL    HW229724   2.593   0.387   5.206  0.0086 -1.4446 -0.9922
 6089SOL     OW29725   1.054   3.495   4.228  0.3691  0.7000 -0.3881
 6089SOL    HW129726   0.977   3.551   4.224 -0.5229 -0.4100  0.9409
 6089SOL    HW229727   1.044   3.443   4.148  1.1691  0.2012 -0.1702
 6090SOL     OW29728   4.002   3.354  14.115  0.2703  0.0096 -0.2515
 6090SOL    HW129729   4.087   3.338  14.075  0.2158  0.8360 -0.6741
 6090SOL    HW229730   3.951   3.273  14.100 -0.9630  0.0650  3.5673
 6091SOL     OW29731   3.397   1.612  12.309  0.6330  0.3280 -0.7013
 6091SOL    HW129732   3.312   1.656  12.306  0.5595  0.2391  0.0143
 6091SOL    HW229733   3.455   1.663  12.366  1.3386 -2.1603  0.7962
 6092SOL     OW29734   2.913   1.870   5.176 -0.7015  0.4598  0.1417
 6092SOL    HW129735   2.992   1.899   5.130 -0.7252  0.1299 -0.1066
 6092SOL    HW229736   2.842   1.886   5.114  1.7580  0.1896 -2.7450
 6093SOL     OW29737   2.787   3.842   0.724 -0.1333 -0.3875  0.1413
 6093SOL    HW129738   2.861   3.797   0.764  0.3032 -0.2739 -0.5398
 6093SOL    HW229739   2.777   3.790   0.645 -1.7110 -1.1047  0.8038
 6094SOL     OW29740   0.752   0.169  11.793  0.2632  0.1014 -0.5941
 6094SOL    HW129741   0.805   0.158  11.872  0.0893 -0.2157 -0.5219
 6094SOL    HW229742   0.670   0.162  11.841 -0.2225  0.8754 -1.3092
 6095SOL     OW29743   1.922   1.427   5.233 -0.2117  0.0742 -0.4165
 6095SOL    HW129744   1.924   1.390   5.145  0.8376 -1.6932  0.3398
 6095SOL    HW229745   1.835   1.394   5.256 -0.1959 -0.1654 -0.7140
 6096SOL     OW29746   0.853   1.762   7.741  0.1845  0.3174 -0.1776
 6096SOL    HW129747   0.798   1.703   7.792 -0.5130 -0.1864 -1.5104
 6096SOL    HW229748   0.800   1.764   7.662  0.0639 -1.3679 -0.1364
 6097SOL     OW29749   2.030   1.541   6.941  0.1570 -0.1096 -0.0629
 6097SOL    HW129750   2.052   1.632   6.961  1.1864 -0.1394 -1.0239
 6097SOL    HW229751   1.935   1.536   6.951  0.0668  1.9628  0.1319
 6098SOL     OW29752   0.573   2.485   4.420 -0.2976  0.7625  0.2290
 6098SOL    HW129753   0.514   2.434   4.475  2.1482 -3.2649 -0.9438
 6098SOL    HW229754   0.509   2.551   4.394  0.9747  2.3941  1.2443
 6099SOL     OW29755   2.753   3.170   9.007  0.0055 -0.2851 -0.5743
 6099SOL    HW129756   2.756   3.259   9.041 -0.9855 -0.0575 -1.1020
 6099SOL    HW229757   2.660   3.156   8.992 -0.1556 -0.5855  0.6730
 6100SOL     OW29758   3.914   4.657   2.349 -0.5318  0.0901 -0.1913
 6100SOL    HW129759   3.830   4.678   2.388  1.1458  1.3835  2.7213
 6100SOL    HW229760   3.906   4.567   2.316  0.4179 -0.0601 -0.0316
 6101SOL     OW29761   0.075   0.928  16.162  0.0577  0.0476 -0.4165
 6101SOL    HW129762   0.104   0.861  16.224  0.6292 -1.1713 -1.9699
 6101SOL    HW229763   0.075   1.009  16.212  2.3821  0.2679 -0.7368
 6102SOL     OW29764   3.349   3.239   9.428  0.0596  0.4040 -0.0048
 6102SOL    HW129765   3.304   3.189   9.496  1.5836 -0.1508  0.6126
 6102SOL    HW229766   3.411   3.173   9.395  1.9992  1.2358  1.9485
 6103SOL     OW29767   3.021   3.470   2.600 -0.3139  0.1350 -0.6154
 6103SOL    HW129768   3.056   3.405   2.660 -0.5339  2.7237  2.3520
 6103SOL    HW229769   2.986   3.536   2.660  2.2722 -0.1564  1.2394
 6104SOL     OW29770   2.209   0.273   3.299 -0.7724 -0.2631  0.5280
 6104SOL    HW129771   2.222   0.230   3.215 -2.5567  1.2958 -0.5571
 6104SOL    HW229772   2.150   0.344   3.275 -0.5008 -0.6591 -1.2466
 6105SOL     OW29773   4.071   3.179   4.635 -0.2372 -0.5249 -0.2041
 6105SOL    HW129774   4.064   3.086   4.616 -1.0771 -0.9341  2.0583
 6105SOL    HW229775   4.139   3.164   4.701 -1.1707 -0.9940  0.6505
 6106SOL     OW29776   0.180   2.998  12.603  0.7445  0.2693 -0.1957
 6106SOL    HW129777   0.219   2.915  12.575  0.1332  0.2069 -0.8323
 6106SOL    HW229778   0.227   3.062  12.549  1.7753 -1.0019 -0.8172
 6107SOL     OW29779   1.066   2.568   3.670  0.3513  0.6019 -0.4017
 6107SOL    HW129780   1.152   2.551   3.632  1.2617 -2.1421  2.8737
 6107SOL    HW229781   1.023   2.618   3.601 -0.5057 -0.5088 -0.6781
 6108SOL     OW29782   1.828   4.321   8.243 -0.3527 -0.1129 -0.3247
 6108SOL    HW129783   1.921   4.306   8.229 -1.0208 -3.0554 -1.6066
 6108SOL    HW229784   1.808   4.385   8.174  0.1522 -1.5392 -1.7782
 6109SOL     OW29785   2.277   2.304  11.530  0.0186 -0.2532  1.0244
 6109SOL    HW129786   2.211   2.283  11.464 -0.3641  1.5803  0.8403
 6109SOL    HW229787   2.289   2.397  11.516 -1.1564 -0.4824 -1.4993
 6110SOL     OW29788   3.762   2.222  13.451  0.3884 -0.6788 -0.1331
 6110SOL    HW129789   3.770   2.127  13.450 -1.1479 -0.8234  0.8352
 6110SOL    HW229790   3.833   2.250  13.509 -0.5611  1.8018 -0.1568
 6111SOL     OW29791   4.248   3.445   8.831  1.1197 -0.1236  0.2543
 6111SOL    HW129792   4.159   3.479   8.841  1.0417  0.0162 -0.9270
 6111SOL    HW229793   4.291   3.521   8.792 -0.1027  0.7336  0.5916
 6112SOL     OW29794   1.062   3.440   3.956  0.2050  0.4148 -0.3213
 6112SOL    HW129795   1.144   3.415   3.914  2.8046  3.1072  3.1297
 6112SOL    HW229796   1.017   3.446   3.872  1.5000  1.8644 -0.9202
 6113SOL     OW29797   4.227   4.072   3.038  0.0371  0.3573  0.2285
 6113SOL    HW129798   4.243   4.079   2.944  2.7025 -0.0127  0.6794
 6113SOL    HW229799   4.299   4.125   3.072  0.6775 -0.9610  0.9121
 6114SOL     OW29800   2.589   0.744   6.435  0.0250 -0.3455 -0.5770
 6114SOL    HW129801   2.604   0.835   6.460  0.3526  0.3031 -3.0769
 6114SOL    HW229802   2.678   0.708   6.436  0.4799  0.8307  1.5992
 6115SOL     OW29803   0.480   0.226   3.343  0.2322  0.3637 -0.2140
 6115SOL    HW129804   0.562   0.200   3.383 -0.3214 -1.0475  0.0193
 6115SOL    HW229805   0.441   0.138   3.337  0.8825  0.1257 -0.9795
 6116SOL     OW29806   1.679   0.446   5.266  0.3604 -0.0800  0.0296
 6116SOL    HW129807   1.699   0.361   5.307  1.2739  0.7787  1.3588
 6116SOL    HW229808   1.584   0.436   5.260  0.1012  2.6933 -0.1836
 6117SOL     OW29809   0.262   3.612   9.265  0.5880  0.0001 -0.4776
 6117SOL    HW129810   0.264   3.586   9.173  0.5089  0.7346 -0.6883
 6117SOL    HW229811   0.258   3.531   9.315  0.4071 -0.7635 -1.7282
 6118SOL     OW29812   3.409   3.234   4.759 -0.3892  0.5939 -0.6731
 6118SOL    HW129813   3.502   3.251   4.769 -1.1537  3.1325  2.2112
 6118SOL    HW229814   3.395   3.257   4.667  1.4646  0.1660 -1.0386
 6119SOL     OW29815   0.476   4.040   3.139 -0.0235 -0.7161  0.1666
 6119SOL    HW129816   0.566   4.072   3.148 -0.1277 -0.3280 -0.1705
 6119SOL    HW229817   0.457   4.014   3.229 -1.0939  0.8714  0.3970
 6120SOL     OW29818   3.504   2.828   2.797 -0.0249 -0.2652 -0.0716
 6120SOL    HW129819   3.598   2.830   2.816 -0.4275  0.5506  1.8535
 6120SOL    HW229820   3.495   2.854   2.706 -2.9988  1.6213  0.7374
 6121SOL     OW29821   0.858   3.508  14.429 -0.4157 -0.2947  0.0745
 6121SOL    HW129822   0.783   3.563  14.453  0.6529  1.2498 -0.1673
 6121SOL    HW229823   0.932   3.565  14.449 -0.7084  0.3342 -0.6428
 6122SOL     OW29824   3.975   2.706   4.452 -0.0343  0.0618  0.3550
 6122SOL    HW129825   3.916   2.781   4.442 -0.7390 -0.5928 -0.4638
 6122SOL    HW229826   3.999   2.691   4.360 -0.2668 -0.4893  0.3850
 6123SOL     OW29827   0.414   1.421   8.706  0.3255 -0.1230  0.1797
 6123SOL    HW129828   0.443   1.333   8.683  0.7189 -0.0047  0.2286
 6123SOL    HW229829   0.328   1.423   8.665  0.3050  0.6053  0.2609
 6124SOL     OW29830   1.984   2.201   8.455 -0.0306 -0.3617 -0.0747
 6124SOL    HW129831   1.982   2.265   8.383  1.0851 -0.0996  0.1320
 6124SOL    HW229832   2.033   2.254   8.518  0.6652 -1.4995  0.3365
 6125SOL     OW29833   1.601   0.675  10.145 -0.0099  0.6226 -0.5865
 6125SOL    HW129834   1.665   0.736  10.181  0.8346 -1.1267  0.9057
 6125SOL    HW229835   1.560   0.729  10.078 -1.0466  2.5848  1.6435
 6126SOL     OW29836   1.378   4.317  11.050  0.5344  0.0276  0.0882
 6126SOL    HW129837   1.463   4.358  11.033  0.8838  0.4932  2.9110
 6126SOL    HW229838   1.387   4.225  11.026 -0.2371 -0.2013  0.6882
 6127SOL     OW29839   0.057   0.299  16.195  0.5731  0.2205  0.4665
 6127SOL    HW129840   0.088   0.390  16.192 -0.2197  0.5519  2.2220
 6127SOL    HW229841   4.705   0.308  16.134 -0.1416 -2.6356  0.9217
 6128SOL     OW29842   2.870   1.372   3.588  0.4512 -0.3268  0.3267
 6128SOL    HW129843   2.832   1.307   3.647 -0.5029  0.2287  0.3233
 6128SOL    HW229844   2.958   1.340   3.566  0.7388  0.0189  0.9720
 6129SOL     OW29845   4.126   3.101   9.974 -0.4439 -0.2116 -0.1426
 6129SOL    HW129846   4.095   3.189   9.951 -0.6287 -0.5795 -1.3223
 6129SOL    HW229847   4.171   3.114  10.057  0.0417 -0.5444 -0.3563
 6130SOL     OW29848   1.739   1.977   6.403  0.4007 -0.7787  0.2720
 6130SOL    HW129849   1.770   1.962   6.492 -0.3766 -4.0301 -0.0303
 6130SOL    HW229850   1.699   1.896   6.372  3.3897 -1.5993 -1.4712
 6131SOL     OW29851   2.190   0.918   6.354  0.0621  0.3620  0.6695
 6131SOL    HW129852   2.131   0.843   6.362  0.5900 -0.2510 -1.3632
 6131SOL    HW229853   2.200   0.915   6.259 -2.6204 -1.1201  0.4220
 6132SOL     OW29854   4.370   1.216   5.339  0.6427 -0.3885  0.4563
 6132SOL    HW129855   4.377   1.274   5.415  1.0867  1.2590 -0.8437
 6132SOL    HW229856   4.292   1.164   5.354  2.9220 -3.7572  0.6913
 6133SOL     OW29857   3.321   3.676   2.082 -0.0398 -0.0324 -0.0157
 6133SOL    HW129858   3.233   3.704   2.057  0.4250 -0.5257 -2.2624
 6133SOL    HW229859   3.361   3.760   2.102 -2.0051  0.5494  1.4657
 6134SOL     OW29860   3.376   4.648   3.450 -0.1549  0.3002 -0.3011
 6134SOL    HW129861   3.425   4.658   3.369  0.5200  1.4685  0.2495
 6134SOL    HW229862   3.358   0.019   3.473 -2.5873  0.3064 -2.1684
 6135SOL     OW29863   3.396   1.509   2.616  0.4398 -0.4874 -0.1975
 6135SOL    HW129864   3.455   1.515   2.541  0.8140 -0.8302  0.0669
 6135SOL    HW229865   3.377   1.601   2.632 -0.3948 -0.6253 -0.4033
 6136SOL     OW29866   2.516   3.485   6.865 -0.1668  0.2310 -0.5316
 6136SOL    HW129867   2.448   3.511   6.803 -0.5126 -1.5938 -0.9102
 6136SOL    HW229868   2.521   3.395   6.833 -1.8316 -0.5423  1.4173
 6137SOL     OW29869   1.956   0.337   5.058 -0.2539 -0.2051  0.2512
 6137SOL    HW129870   1.943   0.247   5.088 -2.2023  0.2408  0.7525
 6137SOL    HW229871   2.015   0.329   4.983  0.4129 -0.1558  0.7613
 6138SOL     OW29872   3.900   3.946   3.825  0.2208  0.1668  0.3239
 6138SOL    HW129873   3.837   3.905   3.884  0.6742  0.1454  0.7868
 6138SOL    HW229874   3.922   3.864   3.780  1.4280  0.3470  0.6046
 6139SOL     OW29875   0.721   0.153   7.514  0.0962  0.2897 -0.3804
 6139SOL    HW129876   0.799   0.105   7.541  0.8057  2.0829  0.8136
 6139SOL    HW229877   0.645   0.108   7.550 -0.4638  1.1248 -0.5039
 6140SOL     OW29878   1.304   2.796   7.866 -0.0617 -0.4146  0.2065
 6140SOL    HW129879   1.361   2.719   7.869  1.1925  0.4536 -1.2453
 6140SOL    HW229880   1.268   2.778   7.953  0.0772 -0.0060  0.3455
 6141SOL     OW29881   0.076   2.701   2.135 -0.3729 -0.4332  0.3901
 6141SOL    HW129882   0.076   2.659   2.049 -0.2691 -1.5828  0.9648
 6141SOL    HW229883   0.150   2.670   2.186 -0.2605  0.6435  0.8755
 6142SOL     OW29884   4.084   2.202  11.153  0.0554  0.1156 -0.2944
 6142SOL    HW129885   4.169   2.167  11.124  0.5709  0.9415  0.2213
 6142SOL    HW229886   4.028   2.129  11.127 -1.7817  1.0954  0.9236
 6143SOL     OW29887   4.602   2.398   4.086 -0.4466 -0.0273  0.2709
 6143SOL    HW129888   4.644   2.480   4.110 -1.0699  0.8501 -1.6367
 6143SOL    HW229889   4.536   2.384   4.154  0.7415 -0.3119  1.3630
 6144SOL     OW29890   1.666   0.922   5.233 -0.1793 -0.4990 -0.3668
 6144SOL    HW129891   1.639   0.973   5.310 -0.8006  0.7164 -1.3939
 6144SOL    HW229892   1.703   0.841   5.270  0.0810 -0.4079 -0.4256
 6145SOL     OW29893   3.476   1.845   3.968  0.2071 -0.4758 -0.0536
 6145SOL    HW129894   3.381   1.853   3.971  0.1127 -1.4932 -0.1712
 6145SOL    HW229895   3.497   1.936   3.991 -0.9544 -0.3892  0.6625
 6146SOL     OW29896   4.204   3.109   9.575  0.6707  0.1601 -0.2519
 6146SOL    HW129897   4.244   3.172   9.514  0.2725 -0.4562 -1.1524
 6146SOL    HW229898   4.121   3.152   9.598  0.6734  0.0425 -0.0233
 6147SOL     OW29899   2.453   3.862   7.463 -0.0707 -0.2052  0.1877
 6147SOL    HW129900   2.473   3.828   7.550 -2.1088 -0.5695  0.4991
 6147SOL    HW229901   2.394   3.935   7.483  0.0807 -0.2063  0.6283
 6148SOL     OW29902   2.918   2.670   4.420  0.2154 -0.2393  0.4990
 6148SOL    HW129903   2.855   2.673   4.348 -2.1276 -0.8342  2.5163
 6148SOL    HW229904   2.925   2.762   4.444 -1.3775  0.5309 -1.9703
 6149SOL     OW29905   2.784   2.013   5.387  0.9178 -0.1792  0.4652
 6149SOL    HW129906   2.820   1.925   5.377 -0.7392 -0.6553 -1.3449
 6149SOL    HW229907   2.699   1.993   5.424 -1.5331  3.9950 -2.8934
 6150SOL     OW29908   2.063   4.591   8.701  0.1723  0.3225 -0.2610
 6150SOL    HW129909   2.084   4.498   8.709  0.6803  0.4985  0.4661
 6150SOL    HW229910   2.136   4.632   8.655 -0.3713  0.0050 -1.4156
 6151SOL     OW29911   2.094   2.598  11.408 -0.4340 -0.0388  0.0325
 6151SOL    HW129912   2.053   2.521  11.370  0.0790 -0.0434 -0.5146
 6151SOL    HW229913   2.031   2.601  11.480 -1.2006 -1.2302 -0.5925
 6152SOL     OW29914   3.134   2.904   1.907  0.6563 -0.6958  0.1612
 6152SOL    HW129915   3.184   2.984   1.922 -0.6155 -0.0905  1.1581
 6152SOL    HW229916   3.107   2.892   1.998 -1.1244 -2.2247 -0.5515
 6153SOL     OW29917   1.841   3.674   2.995 -0.6653  0.1216 -0.3685
 6153SOL    HW129918   1.903   3.683   3.067  1.3136 -0.0754 -2.0570
 6153SOL    HW229919   1.813   3.766   2.996  0.6806  0.4803  1.8575
 6154SOL     OW29920   0.476   1.867   8.851  0.5089  0.3712 -0.1639
 6154SOL    HW129921   0.424   1.830   8.923  0.3933  0.9700  0.0540
 6154SOL    HW229922   0.562   1.846   8.886  0.0616  0.5541  1.0751
 6155SOL     OW29923   1.987   0.975  10.173 -0.2215 -0.2394  0.4386
 6155SOL    HW129924   1.978   1.068  10.193  2.4231  0.4264 -1.3923
 6155SOL    HW229925   2.078   0.955  10.197 -0.3553 -1.3888 -0.0168
 6156SOL     OW29926   0.473   1.976   6.383 -0.1958 -0.4767  0.3568
 6156SOL    HW129927   0.493   2.048   6.443 -0.9296  0.1554 -0.1440
 6156SOL    HW229928   0.467   2.034   6.307  0.2098 -3.5992 -2.0653
 6157SOL     OW29929   1.677   0.539   8.334  0.2049  0.6020  0.1846
 6157SOL    HW129930   1.769   0.539   8.360  1.0025  1.6590 -2.6196
 6157SOL    HW229931   1.662   0.617   8.280 -1.9096 -0.3356 -0.5665
 6158SOL     OW29932   4.328   1.475   8.096  0.3871 -0.0742 -0.1040
 6158SOL    HW129933   4.234   1.456   8.090  1.3096 -4.6602 -0.0323
 6158SOL    HW229934   4.330   1.563   8.058  0.9267 -0.5501 -1.1859
 6159SOL     OW29935   2.429   3.008  17.353  0.4301 -0.1675  0.5961
 6159SOL    HW129936   2.474   3.085  17.388 -0.9923  0.5965  0.7759
 6159SOL    HW229937   2.343   3.010  17.397  0.9909 -0.7231  1.7116
 6160SOL     OW29938   0.040   3.929   4.165 -0.0434  0.3409  0.4850
 6160SOL    HW129939   0.097   3.868   4.118 -0.1087 -0.9913  2.1549
 6160SOL    HW229940   0.021   3.876   4.242 -0.4795 -0.9835 -0.5357
 6161SOL     OW29941   0.516   3.744   4.567 -0.2099 -0.2012  0.2676
 6161SOL    HW129942   0.497   3.797   4.489 -1.6570 -1.2023 -0.0473
 6161SOL    HW229943   0.462   3.785   4.634 -1.3363 -1.6612  0.2421
 6162SOL     OW29944   4.295   3.102   2.312  0.1026  0.2437  0.1319
 6162SOL    HW129945   4.217   3.086   2.259 -0.8142  0.7542  1.3269
 6162SOL    HW229946   4.258   3.127   2.397 -2.3995 -2.6797 -0.1134
 6163SOL     OW29947   2.039   4.709   7.414  0.7102 -0.4339  0.0099
 6163SOL    HW129948   1.994   4.689   7.497  0.6281 -0.4152 -0.0300
 6163SOL    HW229949   1.985   0.061   7.382  3.0506  1.4894  0.4965
 6164SOL     OW29950   3.612   1.534   3.583  0.0068 -1.0077 -0.1228
 6164SOL    HW129951   3.599   1.574   3.497  1.6734  0.7388  0.4460
 6164SOL    HW229952   3.701   1.553   3.613  0.4107 -2.2830 -0.5055
 6165SOL     OW29953   1.498   1.512   7.072 -0.7239  0.0228  0.4755
 6165SOL    HW129954   1.423   1.572   7.073 -1.6549 -1.1480  0.8537
 6165SOL    HW229955   1.465   1.446   7.134  3.4793  0.8844  3.6825
 6166SOL     OW29956   4.070   3.551  10.181  0.0407 -0.2339 -0.2238
 6166SOL    HW129957   3.989   3.586  10.218  0.2590 -0.7814  0.7833
 6166SOL    HW229958   4.076   3.596  10.097  1.5712  1.1993  0.6499
 6167SOL     OW29959   2.998   0.926   0.101 -0.0716  0.3383 -0.1705
 6167SOL    HW129960   3.011   0.837   0.135  1.1249 -1.1520 -4.4542
 6167SOL    HW229961   3.006   0.901   0.009 -3.4052 -2.8678  0.4143
 6168SOL     OW29962   2.019   0.738  16.670  0.5865 -0.2473  0.3817
 6168SOL    HW129963   2.077   0.736  16.746  0.5486  4.9904  0.5553
 6168SOL    HW229964   2.023   0.655  16.621 -2.1576 -0.6708  0.8579
 6169SOL     OW29965   4.081   3.519   7.138 -0.1777 -0.0810  0.4255
 6169SOL    HW129966   4.089   3.501   7.232  0.0559 -1.8820  0.0596
 6169SOL    HW229967   3.991   3.550   7.134 -0.2519 -0.6302 -2.1269
 6170SOL     OW29968   0.817   4.183   8.619 -0.0658  0.1296 -0.1939
 6170SOL    HW129969   0.778   4.221   8.698  1.2699 -2.1743  1.6074
 6170SOL    HW229970   0.898   4.233   8.608 -0.2309  0.7705  1.5128
 6171SOL     OW29971   1.571   2.075   8.706 -0.1257  0.3986  0.7127
 6171SOL    HW129972   1.556   1.988   8.744  1.2043 -0.5312 -0.9204
 6171SOL    HW229973   1.632   2.056   8.635 -1.1886  0.9259 -0.3320
 6172SOL     OW29974   4.700   3.963   2.006  0.1762  0.1255 -0.2100
 6172SOL    HW129975   4.628   3.938   1.949 -1.0918 -2.5056  2.5388
 6172SOL    HW229976   4.689   3.909   2.084 -0.9077 -0.2944 -0.6597
 6173SOL     OW29977   2.237   4.642   2.889 -0.0623 -0.1084 -0.1652
 6173SOL    HW129978   2.214   4.591   2.811 -1.3284 -1.9102  1.4096
 6173SOL    HW229979   2.333   4.640   2.883  0.0684  0.1011  2.0206
 6174SOL     OW29980   3.629   4.213   0.577 -0.3911 -0.5449  0.1496
 6174SOL    HW129981   3.539   4.210   0.611 -0.7351  0.8447 -0.6611
 6174SOL    HW229982   3.671   4.159   0.645 -0.1331  0.0707  0.4790
 6175SOL     OW29983   0.391   4.309   6.261 -0.3391  0.2691  0.2452
 6175SOL    HW129984   0.458   4.255   6.304  1.4663  0.9937 -1.6629
 6175SOL    HW229985   0.415   4.300   6.168 -0.3680  3.3162 -0.0465
 6176SOL     OW29986   1.553   2.107  16.777 -0.0051 -0.1962 -0.2377
 6176SOL    HW129987   1.585   2.052  16.849  1.6874 -0.2317 -1.0106
 6176SOL    HW229988   1.481   2.053  16.744  1.4467 -0.8268 -2.3376
 6177SOL     OW29989   2.394   3.882   4.987 -0.7589 -0.7578  0.3310
 6177SOL    HW129990   2.426   3.847   5.070  2.1034 -1.1639 -0.9418
 6177SOL    HW229991   2.304   3.848   4.991 -0.2885 -2.2590 -1.8623
 6178SOL     OW29992   0.706   0.920   4.007 -0.5161  0.4703 -0.3858
 6178SOL    HW129993   0.724   0.997   3.953  3.3840 -0.9627 -1.1349
 6178SOL    HW229994   0.758   0.854   3.960 -0.8037 -0.5617  0.7563
 6179SOL     OW29995   0.229   0.011   2.295  0.3526 -0.0808  0.1248
 6179SOL    HW129996   0.151   0.058   2.323  0.0327 -1.1238  0.9862
 6179SOL    HW229997   0.264   0.002   2.384  1.9724  2.5705 -0.2556
 6180SOL     OW29998   4.566   3.564  13.749  0.6200  0.4225 -0.9315
 6180SOL    HW129999   4.616   3.502  13.801 -1.6064  0.2175  0.9621
 6180SOL    HW230000   4.639   3.602  13.700  0.1655  1.0643 -1.1195
 6181SOL     OW30001   1.356   3.071   8.761 -0.0710  0.7906  0.1227
 6181SOL    HW130002   1.434   3.021   8.787 -0.7177 -0.6378 -0.7065
 6181SOL    HW230003   1.357   3.152   8.814  0.0464  1.3814 -0.7902
 6182SOL     OW30004   1.202   4.621   4.381  0.1805 -0.1874 -0.7595
 6182SOL    HW130005   1.190   4.698   4.326 -2.1425 -0.1255 -0.1591
 6182SOL    HW230006   1.265   4.575   4.325  0.7717 -0.1637 -0.1234
 6183SOL     OW30007   3.759   4.090   5.635  0.2873 -0.1315  0.0618
 6183SOL    HW130008   3.669   4.114   5.658 -0.2222 -3.4069  1.4674
 6183SOL    HW230009   3.763   4.149   5.559 -1.2775  0.3662  0.3689
 6184SOL     OW30010   1.949   2.004  13.808  0.0367  0.0606 -0.0469
 6184SOL    HW130011   1.879   1.951  13.846 -0.7629  0.3380 -1.1202
 6184SOL    HW230012   1.910   2.029  13.724 -1.2326  0.0710  0.5516
 6185SOL     OW30013   4.349   2.065   8.147  0.1997 -0.4862 -0.2285
 6185SOL    HW130014   4.288   2.139   8.144  0.5000 -0.2380 -0.2058
 6185SOL    HW230015   4.429   2.101   8.109 -0.5781  0.1965 -1.2097
 6186SOL     OW30016   4.564   3.379   7.329 -0.5571 -0.3224 -0.1635
 6186SOL    HW130017   4.542   3.460   7.375 -0.9199  0.4235 -1.6375
 6186SOL    HW230018   4.565   3.419   7.242 -3.0969  0.8938  0.3726
 6187SOL     OW30019   1.008   2.718   8.082 -0.3004 -0.3264 -0.0831
 6187SOL    HW130020   0.979   2.704   8.173 -0.9756  0.8137 -0.1214
 6187SOL    HW230021   0.942   2.776   8.045 -1.7156 -0.3949  2.3114
 6188SOL     OW30022   2.339   4.372   3.870 -0.2341 -0.0318 -0.2048
 6188SOL    HW130023   2.343   4.377   3.965 -2.3549  1.3926 -0.1986
 6188SOL    HW230024   2.430   4.371   3.841  0.8082  3.2458  2.9670
 6189SOL     OW30025   0.783   3.522   6.422  0.5552 -0.4519  0.3931
 6189SOL    HW130026   0.806   3.574   6.345 -0.7147 -0.1186  0.2366
 6189SOL    HW230027   0.868   3.479   6.435  0.2560 -0.9455  0.7505
 6190SOL     OW30028   1.948   2.282   5.601  0.2252 -0.6545 -0.1442
 6190SOL    HW130029   1.884   2.325   5.544  0.0160  0.4837  0.9467
 6190SOL    HW230030   1.878   2.267   5.665 -0.1867 -0.3131 -0.5086
 6191SOL     OW30031   0.142   3.468   7.394  0.2850 -0.0085  0.4382
 6191SOL    HW130032   0.129   3.512   7.310 -1.9269 -0.5662  0.5042
 6191SOL    HW230033   0.081   3.510   7.454  0.8236 -0.6932  1.4752
 6192SOL     OW30034   0.362   3.744   1.524  1.0884  0.3004  0.1223
 6192SOL    HW130035   0.292   3.809   1.516  1.4587  0.4634 -1.6471
 6192SOL    HW230036   0.310   3.674   1.564 -0.6682  0.4378 -1.9388
 6193SOL     OW30037   2.371   4.262  13.774 -0.2780  0.2775  0.2968
 6193SOL    HW130038   2.283   4.299  13.773 -0.2791  0.2538 -0.6002
 6193SOL    HW230039   2.353   4.171  13.750 -1.0096  0.1972  1.1569
 6194SOL     OW30040   1.367   1.362   7.516 -0.3487 -0.4188  0.2143
 6194SOL    HW130041   1.370   1.389   7.424  1.0483  0.3557  0.4837
 6194SOL    HW230042   1.387   1.446   7.556 -2.0889 -0.6152  1.4746
 6195SOL     OW30043   0.043   0.380   8.621  0.1837  0.4852 -0.3383
 6195SOL    HW130044   0.093   0.323   8.679  1.2199  0.5102 -1.2101
 6195SOL    HW230045   4.708   0.429   8.682 -2.8274 -2.2297 -0.9114
 6196SOL     OW30046   3.008   1.289   1.446 -0.3781 -0.2662 -0.0584
 6196SOL    HW130047   2.915   1.306   1.461 -0.7263 -1.4313 -0.8960
 6196SOL    HW230048   3.018   1.362   1.385  1.4975  0.5367  1.2303
 6197SOL     OW30049   3.530   3.926   2.342 -0.3082  0.4044 -0.0279
 6197SOL    HW130050   3.520   4.003   2.398  0.6197 -0.4625  1.3515
 6197SOL    HW230051   3.483   3.859   2.392  0.7590 -1.9401 -2.1617
 6198SOL     OW30052   0.775   2.125   3.646 -0.1161 -0.7439  0.2161
 6198SOL    HW130053   0.810   2.053   3.594 -0.9693 -0.9959 -0.0071
 6198SOL    HW230054   0.756   2.192   3.580  0.6329 -0.3539  0.3990
 6199SOL     OW30055   3.562   2.177   6.620 -0.1759  0.5415  0.6053
 6199SOL    HW130056   3.605   2.120   6.682 -0.7948  0.1600  0.6874
 6199SOL    HW230057   3.630   2.244   6.611  0.1234  0.1656  0.0511
 6200SOL     OW30058   2.213   2.516  15.392 -0.7804  0.2934 -0.1745
 6200SOL    HW130059   2.146   2.536  15.326  0.5815  0.3465 -1.5598
 6200SOL    HW230060   2.280   2.462  15.349  0.8596  0.9077  1.6362
 6201SOL     OW30061   4.372   1.628   1.899 -0.1644 -0.6465  0.4152
 6201SOL    HW130062   4.319   1.702   1.871 -0.0300 -0.5306  0.4622
 6201SOL    HW230063   4.359   1.550   1.847  0.5674 -0.4390 -0.0879
 6202SOL     OW30064   1.076   3.653   8.608  0.6030 -0.2521 -0.2541
 6202SOL    HW130065   0.995   3.662   8.556  0.9827  1.7170 -0.5207
 6202SOL    HW230066   1.141   3.712   8.569 -0.0375 -0.0196 -0.9858
 6203SOL     OW30067   4.160   1.140  17.406 -0.5235  0.3751  0.1057
 6203SOL    HW130068   4.176   1.089  17.486  0.9641  1.5342  0.5558
 6203SOL    HW230069   4.177   1.069  17.344  1.6473 -0.8400  2.0606
 6204SOL     OW30070   4.700   3.360  13.838  0.0280  0.1167  0.2025
 6204SOL    HW130071   0.051   3.324  13.786 -0.2015  0.3451 -0.2756
 6204SOL    HW230072   0.013   3.351  13.927  1.6889  0.7012 -0.3687
 6205SOL     OW30073   3.058   0.598  12.312 -0.2257 -0.0044 -0.0414
 6205SOL    HW130074   3.028   0.689  12.319  1.4458  0.5656 -0.3573
 6205SOL    HW230075   2.984   0.545  12.341  0.1673  0.0338  1.0256
 6206SOL     OW30076   2.492   3.834  13.877 -0.7641  0.2262  0.2038
 6206SOL    HW130077   2.476   3.821  13.971 -1.7817 -0.1458 -0.0175
 6206SOL    HW230078   2.470   3.746  13.848  2.7927 -1.1284  1.6503
 6207SOL     OW30079   2.444   3.196   5.581 -0.2499 -0.0425 -0.4624
 6207SOL    HW130080   2.504   3.127   5.607 -0.2964  0.3408  0.6543
 6207SOL    HW230081   2.505   3.257   5.540  1.1096 -0.5749  0.7887
 6208SOL     OW30082   1.038   4.092   7.845 -0.8066  0.4012 -0.7410
 6208SOL    HW130083   1.018   4.000   7.862  0.3870  0.0405 -1.2630
 6208SOL    HW230084   1.039   4.131   7.932  1.2244 -1.4581  0.0561
 6209SOL     OW30085   4.066   0.457   2.636  0.0337  0.0209 -0.1572
 6209SOL    HW130086   4.135   0.414   2.585 -0.0575 -0.8635  0.4485
 6209SOL    HW230087   4.101   0.423   2.718 -1.7614  2.3282  1.5767
 6210SOL     OW30088   3.570   0.173  11.186 -0.1545  0.7065 -0.5300
 6210SOL    HW130089   3.621   0.241  11.143 -1.6993  0.7089 -2.3734
 6210SOL    HW230090   3.536   0.122  11.112 -1.2309 -1.6021  1.5389
 6211SOL     OW30091   2.036   1.049   5.148 -0.5467 -0.0344  1.0311
 6211SOL    HW130092   2.043   0.976   5.086  0.8610 -0.1276  1.2833
 6211SOL    HW230093   2.127   1.077   5.156 -0.5400  0.2063  0.0832
 6212SOL     OW30094   1.678   1.849  15.880 -0.3279  0.1289  0.3247
 6212SOL    HW130095   1.690   1.759  15.909 -0.7393 -0.8007 -2.3352
 6212SOL    HW230096   1.714   1.901  15.952 -1.1338  1.7904 -0.4655
 6213SOL     OW30097   3.877   2.190   9.219  0.5705 -0.0791 -0.1575
 6213SOL    HW130098   3.837   2.152   9.297  0.3687  1.0664  0.3003
 6213SOL    HW230099   3.913   2.266   9.266  0.7202  1.2286 -2.3767
 6214SOL     OW30100   0.402   1.639   1.834 -0.4860  0.2185 -0.7134
 6214SOL    HW130101   0.317   1.659   1.795 -0.5080  0.2791 -0.6347
 6214SOL    HW230102   0.407   1.544   1.824 -0.0003  0.2178 -0.4620
 6215SOL     OW30103   0.380   0.038   7.169  0.2177 -0.1877 -0.2762
 6215SOL    HW130104   0.406   4.667   7.169 -0.4769 -0.3975  1.3664
 6215SOL    HW230105   0.391   0.068   7.259  1.4708 -0.8228 -0.2266
 6216SOL     OW30106   2.799   0.684   7.001 -0.3838  0.7142 -0.0680
 6216SOL    HW130107   2.802   0.707   6.909 -1.4554 -1.2090 -0.5850
 6216SOL    HW230108   2.774   0.593   6.991  4.3233 -0.3498 -1.8960
 6217SOL     OW30109   4.654   1.621   4.521 -0.2981  0.0086 -0.5303
 6217SOL    HW130110   0.010   1.676   4.534 -1.5538  1.5622  0.3686
 6217SOL    HW230111   4.616   1.625   4.609 -0.5621 -0.1458 -0.6387
 6218SOL     OW30112   1.270   1.120   4.075  0.0900  0.2576 -0.6350
 6218SOL    HW130113   1.349   1.122   4.022  0.1325  1.0933 -0.5394
 6218SOL    HW230114   1.214   1.071   4.015 -1.2634  2.9882 -1.6055
 6219SOL     OW30115   3.851   4.425   3.365  0.2853  0.0296 -0.2601
 6219SOL    HW130116   3.843   4.435   3.270 -2.5340  0.7905  0.0406
 6219SOL    HW230117   3.911   4.352   3.378 -3.2163 -2.8398 -0.0611
 6220SOL     OW30118   3.352   3.407   9.075 -0.6873  0.3757  0.2313
 6220SOL    HW130119   3.294   3.354   9.129 -2.1912  0.2886 -1.4661
 6220SOL    HW230120   3.369   3.479   9.135  0.5031  0.6008 -0.3743
 6221SOL     OW30121   4.709   3.310   4.339  0.1923  0.0430  0.2030
 6221SOL    HW130122   4.650   3.349   4.276  0.6601 -1.2538 -1.0299
 6221SOL    HW230123   4.674   3.222   4.352  0.7864  0.0530  1.8970
 6222SOL     OW30124   0.099   1.822   1.035 -0.3057 -0.2373  0.6389
 6222SOL    HW130125   0.092   1.862   1.122 -0.9850  1.0470 -0.0027
 6222SOL    HW230126   0.112   1.729   1.053 -4.2413 -0.5714  1.8188
 6223SOL     OW30127   0.170   4.709  11.884 -0.1087 -0.2166  0.5056
 6223SOL    HW130128   0.163   0.062  11.824  0.0740 -1.5677 -1.1944
 6223SOL    HW230129   0.206   4.649  11.818 -0.4815 -0.2377  0.3195
 6224SOL     OW30130   1.230   0.093   1.951 -0.5225  0.0392 -0.4258
 6224SOL    HW130131   1.206   0.094   2.043  1.0489  2.0001 -0.0308
 6224SOL    HW230132   1.275   0.012   1.929 -1.3929 -0.8411  1.0671
 6225SOL     OW30133   4.515   3.067   7.283  0.1357 -0.2574  0.5986
 6225SOL    HW130134   4.600   3.055   7.240  1.2199 -2.3348  3.3065
 6225SOL    HW230135   4.526   3.159   7.308 -1.2474 -0.4462  1.9112
 6226SOL     OW30136   1.217   3.704   4.523  0.5458 -0.1116 -0.1417
 6226SOL    HW130137   1.225   3.779   4.464 -0.1015 -1.1231 -1.5177
 6226SOL    HW230138   1.250   3.742   4.603  0.0098  0.8916 -0.4004
 6227SOL     OW30139   1.903   3.711   7.488  0.4573 -0.2480  0.0699
 6227SOL    HW130140   1.971   3.724   7.421  0.7005 -0.8260  0.1987
 6227SOL    HW230141   1.923   3.780   7.550 -1.2449 -0.4154  0.8062
 6228SOL     OW30142   4.614   3.621   3.913  0.2552  0.2372  0.4642
 6228SOL    HW130143   4.665   3.601   3.834 -0.3358  0.8865 -0.0804
 6228SOL    HW230144   4.685   3.620   3.977  0.5584 -1.3245  0.1191
 6229SOL     OW30145   1.188   1.158  11.571  0.6678  0.2122 -0.2470
 6229SOL    HW130146   1.284   1.161  11.578  0.7669 -2.5479 -0.4783
 6229SOL    HW230147   1.162   1.096  11.639 -1.2831  0.7272 -0.5251
 6230SOL     OW30148   0.144   2.861   8.081  0.5344 -0.2524 -0.4165
 6230SOL    HW130149   0.110   2.774   8.102  0.3345 -0.4427 -1.5077
 6230SOL    HW230150   0.085   2.926   8.118  0.7242  0.1582 -0.8256
 6231SOL     OW30151   0.295   1.568   8.373 -0.0938  0.5141 -0.0594
 6231SOL    HW130152   0.301   1.654   8.414  1.0038  0.5587 -0.3058
 6231SOL    HW230153   0.383   1.569   8.335  0.3914 -0.0136  1.0640
 6232SOL     OW30154   2.287   4.336   5.838 -0.5569  0.4853 -0.0965
 6232SOL    HW130155   2.262   4.408   5.781  1.1110  0.1953 -1.1994
 6232SOL    HW230156   2.366   4.301   5.797 -0.2813  0.4424  0.4687
 6233SOL     OW30157   1.826   3.193   7.819 -0.4378  0.6145  0.0585
 6233SOL    HW130158   1.803   3.156   7.904 -0.9265  0.4202 -0.1601
 6233SOL    HW230159   1.773   3.270   7.801 -0.0042  0.8263 -0.3226
 6234SOL     OW30160   2.344   4.054   7.850  0.1470  0.0088 -0.1131
 6234SOL    HW130161   2.425   4.071   7.802 -1.0627  0.1687 -2.0857
 6234SOL    HW230162   2.383   4.026   7.933  0.6738 -0.8303 -0.6489
 6235SOL     OW30163   0.412   4.031  11.337 -0.1465 -0.6255 -0.1020
 6235SOL    HW130164   0.440   4.118  11.308 -1.9940  0.3669  1.0617
 6235SOL    HW230165   0.454   4.027  11.423  0.4821  3.7105 -0.2089
 6236SOL     OW30166   1.839   0.358   2.924  0.2703 -0.1765  0.0712
 6236SOL    HW130167   1.863   0.340   3.015 -1.6330  0.1030  0.6267
 6236SOL    HW230168   1.752   0.398   2.932 -0.5434 -2.2880  1.7323
 6237SOL     OW30169   3.767   2.226   8.192  0.4151  0.3323  0.1027
 6237SOL    HW130170   3.697   2.224   8.126  0.7147  1.0472 -0.2442
 6237SOL    HW230171   3.820   2.149   8.169 -1.0919 -1.2293  1.8752
 6238SOL     OW30172   2.464   0.067   7.314 -0.1658  0.1156  0.0120
 6238SOL    HW130173   2.444   0.000   7.248 -0.2927 -0.5744  0.7433
 6238SOL    HW230174   2.427   0.138   7.262 -1.2792  0.5720  1.4033
 6239SOL     OW30175   3.840   4.156   4.121  1.0612 -0.7522 -0.6337
 6239SOL    HW130176   3.800   4.084   4.168  0.5188 -0.6195 -0.8867
 6239SOL    HW230177   3.931   4.146   4.151  0.4831 -0.7411  1.1207
 6240SOL     OW30178   2.939   2.402  10.380 -0.2381  0.2352  0.1615
 6240SOL    HW130179   3.008   2.342  10.409 -0.8295 -0.0083  1.0599
 6240SOL    HW230180   2.937   2.458  10.457 -0.6087 -1.8676  1.6845
 6241SOL     OW30181   3.182   2.870   7.366  0.5375 -0.6158  0.1559
 6241SOL    HW130182   3.244   2.904   7.430 -0.4191 -0.8164  1.1935
 6241SOL    HW230183   3.235   2.836   7.294 -1.6016 -0.3765 -1.5396
 6242SOL     OW30184   4.369   0.224   1.470 -0.1846 -0.1339  0.1599
 6242SOL    HW130185   4.456   0.262   1.462  0.1867 -0.7757  1.2087
 6242SOL    HW230186   4.318   0.295   1.430  0.3876  0.6706  0.8796
 6243SOL     OW30187   2.271   4.249  14.785 -0.6740  0.1691  0.2876
 6243SOL    HW130188   2.343   4.300  14.823 -1.2659  2.2898 -1.4036
 6243SOL    HW230189   2.199   4.308  14.808 -0.7365 -0.4649  1.6928
 6244SOL     OW30190   1.949   3.732   1.764 -0.4024  0.1439 -0.0654
 6244SOL    HW130191   1.998   3.785   1.701  0.7909 -0.7101  0.1530
 6244SOL    HW230192   1.879   3.705   1.704 -1.4039  2.7929 -0.1203
 6245SOL     OW30193   1.460   1.626   7.634 -0.1707  0.2184 -0.3886
 6245SOL    HW130194   1.416   1.711   7.638  0.1124  0.3195  0.5188
 6245SOL    HW230195   1.439   1.599   7.723 -4.4902  0.6454 -1.2587
 6246SOL     OW30196   4.256   1.046   7.542 -0.1404 -0.3235  0.1383
 6246SOL    HW130197   4.348   1.042   7.567  0.1246 -0.5823 -0.9042
 6246SOL    HW230198   4.240   1.140   7.543  0.6623 -0.1736 -2.4085
 6247SOL     OW30199   1.299   4.144   7.345  0.1658  0.3982  0.1722
 6247SOL    HW130200   1.218   4.150   7.397  0.5014  0.2830  0.7055
 6247SOL    HW230201   1.358   4.209   7.384  1.5738 -0.8217  0.0367
 6248SOL     OW30202   0.807   4.651   7.829 -0.0559  0.4508  0.4922
 6248SOL    HW130203   0.838   4.701   7.905  1.6205 -2.7191  1.9078
 6248SOL    HW230204   0.713   4.648   7.846  0.0612 -2.2530  0.5698
 6249SOL     OW30205   3.936   2.370   3.154 -0.3435 -0.0352 -0.0320
 6249SOL    HW130206   3.977   2.456   3.145 -0.5706 -0.0636 -1.4574
 6249SOL    HW230207   3.858   2.392   3.205  0.8136  0.3320  1.5527
 6250SOL     OW30208   1.238   4.518  10.286  0.2161 -0.1412  0.5477
 6250SOL    HW130209   1.273   4.584  10.347  0.5421 -1.2211  1.5445
 6250SOL    HW230210   1.262   4.553  10.200 -1.0943  0.8801  0.5823
 6251SOL     OW30211   4.283   3.557   8.403 -0.1395 -0.5786  0.0820
 6251SOL    HW130212   4.261   3.627   8.342 -0.5887  0.0580  0.9651
 6251SOL    HW230213   4.310   3.602   8.484  2.7614 -0.9444 -0.6771
 6252SOL     OW30214   3.072   3.690   7.646  0.3217 -0.1802  0.3848
 6252SOL    HW130215   2.994   3.745   7.656  0.0893 -0.2263 -1.2112
 6252SOL    HW230216   3.047   3.658   7.559  0.4071  1.0812 -0.1127
 6253SOL     OW30217   2.275   4.123   5.572 -0.0941  0.3223 -0.3690
 6253SOL    HW130218   2.265   4.095   5.481  0.4511  2.1953 -1.0029
 6253SOL    HW230219   2.191   4.098   5.610 -0.2892 -1.1524 -1.7925
 6254SOL     OW30220   2.974   2.707  12.172 -0.4174  0.1506  0.0175
 6254SOL    HW130221   2.952   2.766  12.243  2.1573  1.3342 -0.1775
 6254SOL    HW230222   3.066   2.733  12.161  0.0759 -0.6564  2.2129
 6255SOL     OW30223   0.771   4.221  13.135 -0.0048 -1.2478 -0.0184
 6255SOL    HW130224   0.690   4.222  13.082  0.1244 -1.0539 -0.2152
 6255SOL    HW230225   0.742   4.209  13.225  1.8062  2.3166  1.0329
 6256SOL     OW30226   1.772   3.387   2.101  0.2387 -0.5664  0.1659
 6256SOL    HW130227   1.813   3.303   2.081  3.1070  0.7366  0.5645
 6256SOL    HW230228   1.678   3.370   2.093  0.7499 -2.1370 -2.5202
 6257SOL     OW30229   2.634   0.168   2.417 -0.0998  0.0950  0.0017
 6257SOL    HW130230   2.596   0.212   2.341  0.9348 -3.0196 -2.3548
 6257SOL    HW230231   2.716   0.215   2.426  0.5118 -1.5471  2.7871
 6258SOL     OW30232   3.868   3.266  12.982  0.2354  0.0837 -0.3239
 6258SOL    HW130233   3.876   3.355  13.014 -1.6623 -1.1237  3.5553
 6258SOL    HW230234   3.906   3.221  13.058  0.7446  0.9961 -0.0375
 6259SOL     OW30235   0.429   0.932  11.806  0.6604  0.4665 -0.1245
 6259SOL    HW130236   0.378   1.010  11.784 -1.5828 -0.6493  1.2030
 6259SOL    HW230237   0.373   0.888  11.869  0.3262 -0.4126 -1.0408
 6260SOL     OW30238   3.122   3.127   5.440 -0.1670  0.0826  0.4772
 6260SOL    HW130239   3.094   3.216   5.419 -2.1752 -0.6390  0.0400
 6260SOL    HW230240   3.175   3.107   5.362  1.6539 -0.7793  1.9540
 6261SOL     OW30241   1.968   0.744  10.940  0.7535  0.1367 -0.2800
 6261SOL    HW130242   1.923   0.787  11.012 -1.3169 -0.5714 -1.1507
 6261SOL    HW230243   1.891   0.732  10.884  1.7362 -2.2944 -1.1125
 6262SOL     OW30244   3.405   2.239   5.047 -0.6821 -0.5110 -0.2154
 6262SOL    HW130245   3.484   2.293   5.040  0.3538 -2.1124 -1.0762
 6262SOL    HW230246   3.445   2.155   5.073 -0.8462 -0.9307 -1.3038
 6263SOL     OW30247   0.273   0.984   5.530  0.4013  0.0934 -0.5575
 6263SOL    HW130248   0.230   0.976   5.615  0.2965  2.1153 -0.4010
 6263SOL    HW230249   0.300   0.898   5.499  0.0886 -1.1456  2.7299
 6264SOL     OW30250   4.459   0.611   3.228 -0.2548  0.2792 -0.0314
 6264SOL    HW130251   4.429   0.587   3.140 -0.9116  2.0759 -0.2990
 6264SOL    HW230252   4.491   0.701   3.223 -1.4702  0.7179  0.1792
 6265SOL     OW30253   0.349   1.068   2.177  0.4996 -0.7027  0.2484
 6265SOL    HW130254   0.335   1.027   2.092 -0.4427  0.0879  0.0238
 6265SOL    HW230255   0.339   1.159   2.148  0.5202 -0.2492  1.6947
 6266SOL     OW30256   2.627   0.364   7.288  0.3145  0.3847 -0.1234
 6266SOL    HW130257   2.642   0.285   7.339 -2.7018  1.3903  2.2868
 6266SOL    HW230258   2.536   0.375   7.316  0.4496  0.6131  0.2199
 6267SOL     OW30259   4.021   4.357   8.436 -0.0654  0.3565 -0.0930
 6267SOL    HW130260   4.028   4.265   8.414 -0.8026  0.8354 -2.3469
 6267SOL    HW230261   4.050   4.360   8.527  0.0139  2.7383 -0.1753
 6268SOL     OW30262   3.775   3.764  12.536 -0.6068  0.4421  0.3959
 6268SOL    HW130263   3.772   3.671  12.558  0.0093  0.0130 -1.3218
 6268SOL    HW230264   3.759   3.798  12.624  0.3783  0.2533  0.6554
 6269SOL     OW30265   0.759   3.461  15.442 -0.1936  0.2089  0.2135
 6269SOL    HW130266   0.706   3.534  15.412  0.1956  1.0913  1.7159
 6269SOL    HW230267   0.694   3.391  15.443  1.2869 -1.1628  0.6211
 6270SOL     OW30268   1.813   0.088   5.939  0.5495  0.6332  0.4835
 6270SOL    HW130269   1.872   0.048   6.003  0.8541  0.4863  0.1097
 6270SOL    HW230270   1.832   0.182   5.935 -2.8395  1.3510  1.5288
 6271SOL     OW30271   3.736   3.626  12.272  0.2146 -0.6177  0.4163
 6271SOL    HW130272   3.818   3.653  12.313  0.2765 -1.3346  0.7572
 6271SOL    HW230273   3.731   3.700  12.212 -1.0149 -0.9066  0.1550
 6272SOL     OW30274   2.576   0.714   7.229 -0.6020  0.2014  0.1730
 6272SOL    HW130275   2.622   0.693   7.147  1.6381  0.2175  1.4408
 6272SOL    HW230276   2.634   0.662   7.284 -2.4805  0.0469  2.0203
 6273SOL     OW30277   4.677   0.977  14.962  0.1164 -0.3473  0.0778
 6273SOL    HW130278   0.014   1.042  14.923  0.2570 -0.7679 -0.4035
 6273SOL    HW230279   4.652   0.931  14.882  0.6843 -1.7556  0.7081
 6274SOL     OW30280   2.124   0.656   6.401  0.3904 -0.6124  0.7737
 6274SOL    HW130281   2.209   0.657   6.444  0.9712 -3.6977 -0.3518
 6274SOL    HW230282   2.082   0.591   6.457  1.7580 -2.3830 -0.2505
 6275SOL     OW30283   3.698   0.187   2.272 -0.4192 -0.3534  0.0635
 6275SOL    HW130284   3.697   0.140   2.188 -1.1328  1.0353 -0.7066
 6275SOL    HW230285   3.663   0.117   2.327  2.3968 -0.6735  1.4852
 6276SOL     OW30286   4.130   0.665   5.512 -0.2529 -0.0940 -0.2602
 6276SOL    HW130287   4.046   0.620   5.514 -1.7777  2.7877 -0.3515
 6276SOL    HW230288   4.122   0.723   5.437 -0.1926  0.3814  0.0983
 6277SOL     OW30289   4.419   3.112  12.160  0.1277 -0.0059 -0.5184
 6277SOL    HW130290   4.328   3.107  12.130  0.2945 -2.9540 -0.5090
 6277SOL    HW230291   4.453   3.179  12.101  1.4432 -1.4021 -1.3487
 6278SOL     OW30292   3.342   2.168   2.518  0.3629 -0.4404  0.4268
 6278SOL    HW130293   3.353   2.230   2.590  0.8939 -0.9033  0.7406
 6278SOL    HW230294   3.389   2.227   2.459  0.0091  0.1572  0.7423
 6279SOL     OW30295   1.465   0.488   2.106 -0.0839  0.0458 -0.4616
 6279SOL    HW130296   1.435   0.475   2.017 -0.6284  0.1341 -0.2876
 6279SOL    HW230297   1.394   0.543   2.137  1.1622  1.6790 -0.4979
 6280SOL     OW30298   3.668   3.221  13.192 -0.2575  0.0513 -0.4473
 6280SOL    HW130299   3.725   3.208  13.268  0.9636  2.5011 -0.9378
 6280SOL    HW230300   3.584   3.243  13.231 -0.5737  0.5733 -1.4212
 6281SOL     OW30301   2.875   4.373   7.704  0.1424  0.1865 -0.5012
 6281SOL    HW130302   2.969   4.378   7.687  0.1281 -0.4402 -0.7542
 6281SOL    HW230303   2.865   4.429   7.781  0.1082  1.3470 -1.3525
 6282SOL     OW30304   3.052   0.686  12.647  0.1822  0.6028 -0.2813
 6282SOL    HW130305   3.063   0.594  12.620  1.1774  0.0627  1.9592
 6282SOL    HW230306   3.136   0.690  12.692  0.6000 -2.7178 -0.7602
 6283SOL     OW30307   2.993   2.767  16.951 -0.2088 -0.4803 -0.1016
 6283SOL    HW130308   2.947   2.843  16.917  2.8542  0.8043 -1.3652
 6283SOL    HW230309   3.026   2.793  17.037 -0.0364 -0.4049 -0.1906
 6284SOL     OW30310   0.345   2.548   4.805 -0.3213 -0.0171  0.5510
 6284SOL    HW130311   0.344   2.516   4.895  0.8205  1.0338  0.9255
 6284SOL    HW230312   0.264   2.512   4.768 -0.9098  1.1007  0.7889
 6285SOL     OW30313   2.384   2.736   6.595 -0.3166  0.1113  0.2123
 6285SOL    HW130314   2.470   2.696   6.602  0.3679  1.6100  0.3150
 6285SOL    HW230315   2.404   2.793   6.521 -0.4691  1.3162  1.0921
 6286SOL     OW30316   3.498   3.838   5.678  0.6002  0.0891 -0.7411
 6286SOL    HW130317   3.494   3.934   5.676  1.8521  0.1774  0.7889
 6286SOL    HW230318   3.423   3.806   5.628 -1.3766  2.6779  0.5673
 6287SOL     OW30319   0.398   4.510   2.463 -0.3361 -0.1889 -0.0229
 6287SOL    HW130320   0.346   4.532   2.540  0.6818  0.5378  0.4660
 6287SOL    HW230321   0.427   4.600   2.447 -0.0491 -0.0272  1.4356
 6288SOL     OW30322   4.441   1.490   7.151  0.2495 -0.3696 -0.1666
 6288SOL    HW130323   4.475   1.578   7.168  0.1834 -0.4145  0.1882
 6288SOL    HW230324   4.397   1.464   7.232 -0.7926 -0.7877 -0.8555
 6289SOL     OW30325   3.711   0.021   8.982 -0.3427 -0.4862  0.0941
 6289SOL    HW130326   3.736   0.088   8.918 -0.0820  0.6099  1.3635
 6289SOL    HW230327   3.770   4.668   8.965 -2.0534 -2.1968  1.5353
 6290SOL     OW30328   0.969   2.847   5.476  0.1917  0.1104 -0.0786
 6290SOL    HW130329   0.919   2.859   5.396 -0.5621  2.6517  0.7938
 6290SOL    HW230330   0.908   2.878   5.543 -0.1580  0.8560 -0.7447
 6291SOL     OW30331   0.076   2.692  12.341 -0.2894 -0.0545 -0.5484
 6291SOL    HW130332   0.097   2.744  12.263 -1.3477  0.5645 -0.4193
 6291SOL    HW230333   0.135   2.738  12.401 -0.4309  2.9587 -2.6592
 6292SOL     OW30334   1.503   1.357   3.527  0.6419 -0.2435 -0.4044
 6292SOL    HW130335   1.588   1.376   3.566 -0.8090  2.6765  1.3718
 6292SOL    HW230336   1.497   1.262   3.538 -2.6210 -0.2960 -2.7291
 6293SOL     OW30337   0.416   4.279   1.307  0.6921 -0.5921  0.1089
 6293SOL    HW130338   0.414   4.357   1.250 -1.2900  0.6797  1.9227
 6293SOL    HW230339   0.325   4.252   1.305  1.3313 -2.7355  0.3921
 6294SOL     OW30340   3.779   3.785   1.983 -0.1403  0.3123 -0.3151
 6294SOL    HW130341   3.810   3.772   1.894 -1.3285 -1.0247 -0.5401
 6294SOL    HW230342   3.749   3.876   1.976 -2.2348 -0.4044 -0.8463
 6295SOL     OW30343   3.031   1.483   0.428  0.4108 -0.2618  0.0095
 6295SOL    HW130344   3.105   1.538   0.455  0.3748 -0.3436  0.2724
 6295SOL    HW230345   3.078   1.421   0.373 -0.2121 -0.4393 -0.3254
 6296SOL     OW30346   3.592   0.047   8.089 -0.5816  0.7570  0.4469
 6296SOL    HW130347   3.592   0.142   8.102  1.4140  0.9050 -0.6309
 6296SOL    HW230348   3.593   0.028   7.995 -1.2870 -0.0973  0.6061
 6297SOL     OW30349   2.895   1.831  15.304  0.1886 -0.2862  0.0313
 6297SOL    HW130350   2.913   1.745  15.267  1.6672  1.1869 -2.7207
 6297SOL    HW230351   2.801   1.838  15.290 -0.1515  1.2169  3.1692
 6298SOL     OW30352   2.641   2.257   1.546  0.2219  0.1311 -0.3132
 6298SOL    HW130353   2.627   2.329   1.483  0.1150 -0.8304 -1.3873
 6298SOL    HW230354   2.621   2.179   1.495  3.2412 -2.7103  2.9400
 6299SOL     OW30355   1.059   2.923   5.881 -0.1742  0.0156 -0.4448
 6299SOL    HW130356   0.974   2.905   5.841  0.6759 -0.4779 -2.0399
 6299SOL    HW230357   1.114   2.965   5.815  0.2156 -1.7229 -1.2226
 6300SOL     OW30358   3.057   3.309   5.127 -0.3577  0.2237  0.1757
 6300SOL    HW130359   3.116   3.335   5.056  0.0187  0.3111  0.5238
 6300SOL    HW230360   3.044   3.215   5.112 -1.5273  0.4916 -0.5694
 6301SOL     OW30361   4.279   1.194   7.900  0.1401  0.4127 -0.5687
 6301SOL    HW130362   4.287   1.288   7.882  1.1530 -0.0025 -2.2731
 6301SOL    HW230363   4.340   1.149   7.841 -1.7843 -0.3135 -2.0074
 6302SOL     OW30364   3.906   1.275  10.216 -0.0970  0.9739 -0.3078
 6302SOL    HW130365   3.827   1.303  10.169  1.0959  2.8130 -1.1858
 6302SOL    HW230366   3.901   1.322  10.299  0.3529 -1.8629  1.3305
 6303SOL     OW30367   4.035   0.922   4.718  0.0456 -0.1623  0.2223
 6303SOL    HW130368   3.956   0.869   4.728  0.3568 -0.3980  1.3966
 6303SOL    HW230369   4.099   0.865   4.762 -0.3381 -0.4003  0.4714
 6304SOL     OW30370   0.971   3.223  15.302 -0.2440  0.1301 -0.6911
 6304SOL    HW130371   0.920   3.291  15.347 -1.2270 -0.5772 -0.7504
 6304SOL    HW230372   1.034   3.205  15.372  0.4543  0.4345 -1.2414
 6305SOL     OW30373   2.472   3.358   3.657 -0.7775 -0.4845  0.4917
 6305SOL    HW130374   2.532   3.414   3.607 -0.5843 -1.3924 -0.3114
 6305SOL    HW230375   2.455   3.295   3.586  0.2738  0.2307 -0.4015
 6306SOL     OW30376   1.335   0.701   7.128  0.2969  0.1395  0.3240
 6306SOL    HW130377   1.325   0.778   7.184 -0.2331  0.5248 -0.3134
 6306SOL    HW230378   1.332   0.743   7.042  0.6370 -0.2083  0.1418
 6307SOL     OW30379   0.561   1.406   6.182 -0.1171  0.1454  0.2272
 6307SOL    HW130380   0.555   1.323   6.135 -0.6154 -0.6598  1.6969
 6307SOL    HW230381   0.490   1.452   6.137 -0.1269 -1.4041 -1.3424
 6308SOL     OW30382   1.049   4.209   3.487  0.3953 -0.1275 -0.2284
 6308SOL    HW130383   1.092   4.292   3.465 -0.7987  0.1949 -1.3162
 6308SOL    HW230384   1.110   4.180   3.555 -0.8752 -1.7938  0.1868
 6309SOL     OW30385   1.473   0.283   3.114 -0.0972  0.0423  0.0012
 6309SOL    HW130386   1.385   0.259   3.144 -0.3220  0.1898 -0.5422
 6309SOL    HW230387   1.480   0.252   3.024 -1.5892 -0.8524  0.1811
 6310SOL     OW30388   3.185   0.733   5.067  0.2751 -0.0130 -0.1121
 6310SOL    HW130389   3.187   0.738   5.162 -0.3447 -1.5786 -0.0162
 6310SOL    HW230390   3.094   0.756   5.048  0.1225  0.9133  1.7647
 6311SOL     OW30391   3.999   0.968   2.460  0.2998  0.5623  0.2665
 6311SOL    HW130392   4.045   0.893   2.423 -0.5812  0.4678 -0.6491
 6311SOL    HW230393   4.028   0.969   2.551  2.1024  1.0991 -0.3112
 6312SOL     OW30394   3.566   3.124   2.269 -0.0513 -0.4971 -0.4020
 6312SOL    HW130395   3.489   3.072   2.293  0.1799 -0.1722  1.0364
 6312SOL    HW230396   3.540   3.150   2.181  0.3752  3.1856  0.5819
 6313SOL     OW30397   2.398   0.509  10.431  0.3716 -1.0967 -0.1123
 6313SOL    HW130398   2.452   0.458  10.491  0.1614 -3.6960 -2.1241
 6313SOL    HW230399   2.344   0.436  10.401  1.9279 -2.0130 -0.6770
 6314SOL     OW30400   3.257   2.769   8.672  0.4820 -0.5055 -0.2960
 6314SOL    HW130401   3.182   2.712   8.652  1.2977 -1.7632  0.2212
 6314SOL    HW230402   3.206   2.845   8.701  0.6282 -1.0371  1.3533
 6315SOL     OW30403   0.421   2.849   1.906 -0.4778  0.2952  0.0596
 6315SOL    HW130404   0.435   2.890   1.821  1.9536 -2.4709 -0.9273
 6315SOL    HW230405   0.404   2.757   1.884 -1.8397  1.0281 -1.9460
 6316SOL     OW30406   3.530   3.028   0.414 -0.1528  0.0351 -0.3013
 6316SOL    HW130407   3.476   2.992   0.343 -2.5648 -0.5422  1.8384
 6316SOL    HW230408   3.607   3.053   0.362  0.0019 -0.7836 -0.4665
 6317SOL     OW30409   3.061   2.738   5.617  0.4643  0.3925  0.5231
 6317SOL    HW130410   3.010   2.700   5.689  0.1305 -2.1672 -1.0696
 6317SOL    HW230411   2.997   2.775   5.557 -0.0894  1.3437  1.6827
 6318SOL     OW30412   2.767   4.031  15.175  0.0319 -0.5745 -0.1967
 6318SOL    HW130413   2.732   4.060  15.259  1.9146 -1.4684  0.8861
 6318SOL    HW230414   2.779   3.941  15.205 -0.1505 -0.3100  0.6521
 6319SOL     OW30415   3.217   3.627   7.155  0.3854  0.1515 -0.0896
 6319SOL    HW130416   3.217   3.584   7.241  2.3004  0.7924  0.2352
 6319SOL    HW230417   3.126   3.615   7.127  0.2945  0.3972  0.0989
 6320SOL     OW30418   1.234   1.581  13.045 -0.4591  0.3100  0.3002
 6320SOL    HW130419   1.291   1.506  13.056  0.4097  1.0630  0.9724
 6320SOL    HW230420   1.237   1.617  13.134 -0.5822  1.4455 -0.1532
 6321SOL     OW30421   2.135   2.166  15.913 -0.5035  0.2239  0.2689
 6321SOL    HW130422   2.118   2.240  15.971  0.4033 -0.1319  0.9861
 6321SOL    HW230423   2.195   2.207  15.851 -0.4864 -0.5905 -0.2467
 6322SOL     OW30424   0.155   0.541   7.805 -0.3222  0.1384  0.6699
 6322SOL    HW130425   0.120   0.576   7.887 -1.2047  1.6860 -0.3677
 6322SOL    HW230426   0.083   0.528   7.743  0.7759  0.3979 -0.6713
 6323SOL     OW30427   1.425   2.606   6.119  0.1559 -0.5963  0.0987
 6323SOL    HW130428   1.497   2.654   6.162  1.9356 -2.8215 -0.4303
 6323SOL    HW230429   1.354   2.597   6.183  2.5432  0.2654  2.9101
 6324SOL     OW30430   3.107   4.163   8.244 -0.3960  0.2577 -0.2497
 6324SOL    HW130431   3.158   4.185   8.322  0.8987  1.8829 -1.5641
 6324SOL    HW230432   3.162   4.092   8.213  0.7127  0.3762  1.4280
 6325SOL     OW30433   1.703   1.957   4.273  0.3942 -0.5691 -0.5294
 6325SOL    HW130434   1.795   1.980   4.262  0.7799 -1.0683  1.5436
 6325SOL    HW230435   1.671   2.031   4.324 -0.7026 -1.7871  0.5570
 6326SOL     OW30436   2.144   2.205   8.054  0.7257 -0.2298  0.2472
 6326SOL    HW130437   2.140   2.128   8.111 -1.3456 -1.3201 -1.3700
 6326SOL    HW230438   2.223   2.180   8.007  1.9742  2.3364  0.9872
 6327SOL     OW30439   0.571   0.325  16.098  0.3216 -0.2678 -0.0506
 6327SOL    HW130440   0.499   0.262  16.094 -0.1096  0.3064 -1.5213
 6327SOL    HW230441   0.593   0.328  16.005  1.8489  0.1015  0.3109
 6328SOL     OW30442   3.767   1.805   5.108  0.1550 -0.3809 -0.6535
 6328SOL    HW130443   3.799   1.817   5.197 -0.1427 -0.8932 -0.4762
 6328SOL    HW230444   3.724   1.719   5.105  2.2429 -1.4823  1.2706
 6329SOL     OW30445   4.167   1.547   4.900 -0.1922  0.2698 -0.2484
 6329SOL    HW130446   4.177   1.570   4.992 -0.0816  1.4808 -0.5617
 6329SOL    HW230447   4.083   1.589   4.885 -0.6773 -0.4500  0.4635
 6330SOL     OW30448   0.625   1.753  10.036  0.3108 -0.3676  0.2490
 6330SOL    HW130449   0.635   1.724   9.945  1.7460 -2.5247  1.1021
 6330SOL    HW230450   0.659   1.675  10.081  0.5814 -1.5538 -2.0139
 6331SOL     OW30451   0.564   2.381   2.460  0.6604  0.6161  0.1887
 6331SOL    HW130452   0.637   2.425   2.418  0.1480 -1.2100 -2.6295
 6331SOL    HW230453   0.573   2.293   2.422 -2.9991 -0.3330  1.5385
 6332SOL     OW30454   2.808   1.749   6.990  0.6513 -0.1807 -0.1472
 6332SOL    HW130455   2.828   1.803   6.913  1.7705 -0.7228 -0.2361
 6332SOL    HW230456   2.740   1.696   6.949 -0.8081 -0.9931  3.3197
 6333SOL     OW30457   3.963   2.843  17.345  0.1442  0.2524 -0.1186
 6333SOL    HW130458   4.046   2.801  17.366  1.1610  1.5714 -1.6170
 6333SOL    HW230459   3.984   2.930  17.379  2.3553  0.2383 -1.5282
 6334SOL     OW30460   0.651   3.368   1.642 -0.0533  0.0433  0.5238
 6334SOL    HW130461   0.584   3.367   1.711 -0.3040  2.2545  0.3137
 6334SOL    HW230462   0.618   3.441   1.590  0.4226 -1.1742 -1.5176
 6335SOL     OW30463   2.560   1.213  12.821 -0.5142 -0.0226 -0.2521
 6335SOL    HW130464   2.591   1.265  12.894 -0.1002  1.4642 -1.4849
 6335SOL    HW230465   2.486   1.268  12.795 -1.3130 -2.0938 -2.4009
 6336SOL     OW30466   2.832   3.786  14.637 -0.4743  0.6151 -0.3873
 6336SOL    HW130467   2.818   3.869  14.591 -0.5471  0.5575 -0.4675
 6336SOL    HW230468   2.794   3.809  14.722 -0.5661 -3.3754  0.6288
 6337SOL     OW30469   3.544   1.139   5.607 -1.0521  0.3845  0.0185
 6337SOL    HW130470   3.559   1.169   5.697 -0.3290  1.0682 -0.3325
 6337SOL    HW230471   3.528   1.045   5.619  1.1248  0.1438  1.1145
 6338SOL     OW30472   0.565   0.887   5.713 -0.6304  0.0985 -0.0774
 6338SOL    HW130473   0.659   0.906   5.717 -0.9233  1.0622  2.2588
 6338SOL    HW230474   0.524   0.974   5.717  1.3091  0.8711  2.8496
 6339SOL     OW30475   3.865   4.089   8.229  0.2164  0.2353 -0.2103
 6339SOL    HW130476   3.868   4.155   8.159  1.9759 -0.7697 -1.0785
 6339SOL    HW230477   3.770   4.098   8.235 -0.1791 -2.3240 -3.0225
 6340SOL     OW30478   0.584   4.116   7.684  0.2601 -0.3705  0.0658
 6340SOL    HW130479   0.675   4.144   7.674 -0.0874  0.2406 -1.4722
 6340SOL    HW230480   0.612   4.028   7.709  0.0101 -0.1736  1.0202
 6341SOL     OW30481   0.559   1.709   8.131  0.0017 -0.3357 -0.2297
 6341SOL    HW130482   0.551   1.630   8.185  0.6863 -1.4569 -1.7794
 6341SOL    HW230483   0.586   1.773   8.198 -0.4510 -1.2634  0.8425
 6342SOL     OW30484   2.784   4.078   1.404  0.9496 -0.2881  0.2034
 6342SOL    HW130485   2.861   4.061   1.459  0.5674  1.0119  1.1650
 6342SOL    HW230486   2.714   4.083   1.469 -1.0573 -0.8564 -1.9695
 6343SOL     OW30487   0.029   1.236   9.307 -0.3942 -0.5243 -0.3590
 6343SOL    HW130488   0.086   1.261   9.234 -2.0552  0.4129 -1.3443
 6343SOL    HW230489   4.680   1.301   9.317 -1.8188 -1.7616 -2.0985
 6344SOL     OW30490   0.471   2.882   7.223  0.0161  0.2133 -0.0748
 6344SOL    HW130491   0.484   2.787   7.229 -0.5322  0.1836  0.6415
 6344SOL    HW230492   0.418   2.886   7.143  2.2728 -0.5751 -1.6213
 6345SOL     OW30493   2.538   4.685   8.903 -0.3793  0.4423  0.0478
 6345SOL    HW130494   2.585   4.640   8.832 -0.5982  3.3535 -1.9265
 6345SOL    HW230495   2.614   4.705   8.958  0.7566 -0.5265 -1.1631
 6346SOL     OW30496   2.654   2.772   4.600 -0.3565  0.7914 -0.5045
 6346SOL    HW130497   2.674   2.686   4.638  0.6071  0.8549 -0.8797
 6346SOL    HW230498   2.746   2.790   4.585  0.4618 -2.9262 -0.0771
 6347SOL     OW30499   1.356   0.730   2.973 -0.3442  0.0805 -0.5594
 6347SOL    HW130500   1.327   0.643   2.999  0.7580 -0.7772 -2.2349
 6347SOL    HW230501   1.443   0.710   2.940 -0.7171 -1.3392 -0.6866
 6348SOL     OW30502   0.874   0.123   2.322 -0.5479  0.3370 -0.1757
 6348SOL    HW130503   0.861   0.114   2.228  2.0358  0.5480 -0.5621
 6348SOL    HW230504   0.849   0.215   2.332  1.1097  0.6656  0.9817
 6349SOL     OW30505   1.227   0.606   8.852 -0.5597 -0.2368  0.1499
 6349SOL    HW130506   1.291   0.670   8.883 -2.3527  1.9365 -0.6596
 6349SOL    HW230507   1.283   0.541   8.810  0.5251  0.8720 -0.1135
 6350SOL     OW30508   4.466   4.446  10.440 -0.0972 -0.0934  0.1537
 6350SOL    HW130509   4.528   4.470  10.509  1.7483  0.5962 -1.7285
 6350SOL    HW230510   4.400   4.391  10.482  0.2751  0.0494  0.9287
 6351SOL     OW30511   4.551   3.784  11.689  0.5816  0.6405  0.0324
 6351SOL    HW130512   4.535   3.878  11.700 -2.0226  0.3962 -1.5919
 6351SOL    HW230513   4.609   3.787  11.613  1.0103 -3.4011  0.2216
 6352SOL     OW30514   1.513   2.530  10.362  0.4713 -0.2134  0.1498
 6352SOL    HW130515   1.581   2.478  10.319  0.5353 -0.0693  0.0774
 6352SOL    HW230516   1.555   2.616  10.365  0.6626 -0.2764 -0.7160
 6353SOL     OW30517   3.935   3.931   5.369 -0.3822  0.0123  0.1079
 6353SOL    HW130518   3.859   3.974   5.330 -0.4214 -0.4355 -0.3182
 6353SOL    HW230519   3.907   3.862   5.430 -0.5810 -0.0409 -0.0430
 6354SOL     OW30520   3.142   2.780   2.500  0.2981 -0.1993  0.3061
 6354SOL    HW130521   3.141   2.690   2.532  0.2423  0.0889  1.0949
 6354SOL    HW230522   3.059   2.817   2.530 -0.5220  1.4183 -3.9313
 6355SOL     OW30523   2.376   0.818   3.520  0.7732  0.3664 -0.3195
 6355SOL    HW130524   2.404   0.825   3.428 -0.1928 -0.0122 -0.6401
 6355SOL    HW230525   2.280   0.821   3.523  0.6852 -2.4114 -0.8473
 6356SOL     OW30526   4.559   1.807   8.844  0.4840  0.2300 -0.3880
 6356SOL    HW130527   4.515   1.875   8.794  0.4297  0.2620 -0.2978
 6356SOL    HW230528   4.507   1.727   8.829  0.0663  0.5332 -0.5705
 6357SOL     OW30529   4.078   4.527  14.606  0.0543 -0.1684 -0.1425
 6357SOL    HW130530   4.021   4.497  14.536  0.1625 -0.3850 -0.1382
 6357SOL    HW230531   4.078   4.457  14.671  0.0910 -0.0836 -0.0510
 6358SOL     OW30532   2.583   4.592  14.076  0.0059  0.6734  0.0812
 6358SOL    HW130533   2.655   4.602  14.013 -0.2741  2.2548  0.0161
 6358SOL    HW230534   2.547   4.680  14.086  0.0444  0.6535  0.4180
 6359SOL     OW30535   2.778   1.113  10.913  0.4442  0.2130  0.4918
 6359SOL    HW130536   2.707   1.089  10.854  0.0474 -0.2216  1.1538
 6359SOL    HW230537   2.847   1.138  10.851  0.5594  0.8511  0.8677
 6360SOL     OW30538   1.616   0.773   2.585  0.1005 -0.1616  0.1917
 6360SOL    HW130539   1.555   0.704   2.561  1.0005 -0.9313  0.0999
 6360SOL    HW230540   1.586   0.850   2.537 -1.2416 -1.0853 -0.4436
 6361SOL     OW30541   0.640   0.664   4.390  0.0067 -0.2755  0.3855
 6361SOL    HW130542   0.631   0.758   4.372 -1.4032  0.0226  2.6108
 6361SOL    HW230543   0.612   0.647   4.480 -1.7200  2.2371  0.3395
 6362SOL     OW30544   1.308   4.114   6.068 -0.2555  0.7588  0.5493
 6362SOL    HW130545   1.369   4.185   6.051  2.4644 -1.7992 -0.2492
 6362SOL    HW230546   1.364   4.036   6.065 -1.5710 -0.0919 -1.6387
 6363SOL     OW30547   4.450   4.233   3.918  0.3001  0.2314 -0.2924
 6363SOL    HW130548   4.440   4.259   4.010  0.8749 -1.0846  0.1397
 6363SOL    HW230549   4.432   4.139   3.910  1.3272 -0.2381  2.9056
 6364SOL     OW30550   1.330   2.347   2.438 -0.2147  0.1556 -0.1475
 6364SOL    HW130551   1.422   2.365   2.461 -0.6834 -0.6468  2.3979
 6364SOL    HW230552   1.287   2.368   2.521  0.3487 -0.8499  0.3919
 6365SOL     OW30553   2.109   1.351   2.681 -0.1882 -0.4821  0.3789
 6365SOL    HW130554   2.032   1.313   2.637  0.7537 -0.6316 -1.1453
 6365SOL    HW230555   2.168   1.279   2.660  2.0708  1.5301 -0.1173
 6366SOL     OW30556   3.357   4.623   3.711 -0.8302 -0.4250 -0.2853
 6366SOL    HW130557   3.262   4.615   3.723 -0.9897  0.1389 -1.1546
 6366SOL    HW230558   3.363   4.605   3.617 -0.2598 -0.6539 -0.2070
 6367SOL     OW30559   3.072   0.158   5.407  0.3606 -0.1950  0.0737
 6367SOL    HW130560   3.100   0.152   5.498 -2.4474 -2.9527  0.7654
 6367SOL    HW230561   3.112   0.241   5.380 -2.4650  0.8571 -0.9665
 6368SOL     OW30562   1.063   4.678  17.257  0.1393 -0.2983 -0.7793
 6368SOL    HW130563   0.985   4.636  17.221 -0.1010  0.2194 -0.8748
 6368SOL    HW230564   1.058   4.665  17.351 -1.9596  0.5542 -0.7687
 6369SOL     OW30565   2.506   0.757   2.457  0.1471 -0.1584  0.0233
 6369SOL    HW130566   2.532   0.715   2.375 -0.2143  1.6667 -1.0292
 6369SOL    HW230567   2.445   0.699   2.503 -0.1155 -0.8326 -1.1510
 6370SOL     OW30568   2.030   0.498  13.867 -0.4542  0.3724 -0.3186
 6370SOL    HW130569   2.041   0.449  13.949 -2.4811  1.4693  0.6337
 6370SOL    HW230570   2.018   0.429  13.802 -3.1025  0.4381  0.0957
 6371SOL     OW30571   1.561   4.369   8.539 -0.2585 -0.0708  0.1359
 6371SOL    HW130572   1.650   4.405   8.530 -2.6228  4.3237 -5.4137
 6371SOL    HW230573   1.513   4.451   8.553  0.2757 -0.1651  2.6849
 6372SOL     OW30574   0.735   0.774   5.264  0.1870  0.1821 -0.3512
 6372SOL    HW130575   0.659   0.810   5.218  1.4294  0.7793 -1.9676
 6372SOL    HW230576   0.691   0.700   5.305 -1.1264  0.2612 -1.6201
 6373SOL     OW30577   4.612   3.100  13.835 -0.2266  0.3366 -0.0030
 6373SOL    HW130578   4.614   3.193  13.856 -0.2835 -0.0243  1.6017
 6373SOL    HW230579   4.702   3.075  13.855 -0.5525 -0.0747  0.9230
 6374SOL     OW30580   4.021   4.645   7.426  0.1703  0.1013  0.4199
 6374SOL    HW130581   4.055   4.687   7.347  1.9256 -0.1091  1.0687
 6374SOL    HW230582   3.941   4.604   7.392  0.1287  1.1246 -0.6855
 6375SOL     OW30583   3.445   3.972   8.805 -0.7296 -0.1229  0.5505
 6375SOL    HW130584   3.534   3.937   8.797 -1.2547 -0.9850 -1.6312
 6375SOL    HW230585   3.390   3.902   8.772 -0.3621 -0.2112  0.1167
 6376SOL     OW30586   2.379   4.666   3.352 -0.1697  0.1064  0.2120
 6376SOL    HW130587   2.352   4.575   3.366 -2.8695  1.0224  0.8280
 6376SOL    HW230588   2.431   4.652   3.273  1.0111 -1.0680  1.1843
 6377SOL     OW30589   3.357   1.911   7.664  0.1127  0.7464 -0.1698
 6377SOL    HW130590   3.284   1.954   7.619 -0.9139  0.6734  1.4172
 6377SOL    HW230591   3.422   1.981   7.668  0.3907  0.4846 -0.0664
 6378SOL     OW30592   4.381   1.545   5.163 -0.3870 -0.0897  0.1610
 6378SOL    HW130593   4.342   1.601   5.230 -2.5238 -0.4508 -0.7556
 6378SOL    HW230594   4.474   1.549   5.186 -0.5120  0.5643  0.5649
 6379SOL     OW30595   3.133   2.315   7.661  0.0499 -0.6125 -0.3964
 6379SOL    HW130596   3.156   2.242   7.718 -1.9567 -0.7503  0.2540
 6379SOL    HW230597   3.195   2.308   7.588 -0.8954  0.6892 -1.3318
 6380SOL     OW30598   0.913   3.783   7.463 -0.2787  0.2939 -0.4332
 6380SOL    HW130599   0.861   3.735   7.398  1.2381 -0.3363 -1.2060
 6380SOL    HW230600   0.926   3.721   7.534 -1.0970  2.4867  1.6398
 6381SOL     OW30601   1.365   0.605   6.251  0.3830  0.0015  0.0534
 6381SOL    HW130602   1.458   0.611   6.230 -0.0717 -2.4086 -2.8058
 6381SOL    HW230603   1.378   0.612   6.345 -0.5512  1.8686  0.0379
 6382SOL     OW30604   3.091   0.571   0.583 -0.6055  0.7688  0.3070
 6382SOL    HW130605   3.094   0.478   0.561 -0.0784  0.6281  0.9761
 6382SOL    HW230606   3.179   0.580   0.621 -1.1627 -0.7597  1.9228
 6383SOL     OW30607   0.357   4.413   6.517 -0.2775 -0.2005  0.1502
 6383SOL    HW130608   0.297   4.344   6.546  2.2856 -2.4134  0.2704
 6383SOL    HW230609   0.376   4.398   6.425  0.0191 -2.8855  0.6474
 6384SOL     OW30610   3.386   1.142  10.686  0.1928  0.1843 -0.5660
 6384SOL    HW130611   3.302   1.131  10.642 -0.0653  0.1656 -0.0699
 6384SOL    HW230612   3.341   1.174  10.764  0.4019  1.0104 -0.7871
 6385SOL     OW30613   0.009   3.024   3.111  0.3613 -0.7137  0.3724
 6385SOL    HW130614   0.038   2.964   3.179 -0.6034  1.5367  2.7374
 6385SOL    HW230615   0.089   3.031   3.059 -0.7629 -0.4049 -1.3349
 6386SOL     OW30616   3.513   0.354  10.790 -0.4294 -0.5623  0.2674
 6386SOL    HW130617   3.583   0.325  10.847 -0.0106 -1.6699 -0.7931
 6386SOL    HW230618   3.502   0.280  10.730  4.5243  0.0637 -1.3894
 6387SOL     OW30619   3.888   2.840   7.736 -0.1588 -0.1774  0.0997
 6387SOL    HW130620   3.869   2.904   7.805  1.4846  0.1775  0.2057
 6387SOL    HW230621   3.842   2.866   7.656  1.6228 -1.4675 -1.3426
 6388SOL     OW30622   0.431   4.298  13.609 -0.1463  0.4181  0.0284
 6388SOL    HW130623   0.505   4.321  13.666 -2.0700  1.1937  2.1972
 6388SOL    HW230624   0.466   4.334  13.528 -1.0481 -1.4475 -1.1851
 6389SOL     OW30625   4.473   1.335   3.092 -0.2356  0.6861 -0.4125
 6389SOL    HW130626   4.425   1.410   3.056 -3.7512 -1.0203  0.7439
 6389SOL    HW230627   4.560   1.364   3.065  0.5787 -1.6047 -0.2500
 6390SOL     OW30628   4.238   4.235   4.595  0.6691  0.2413 -0.4681
 6390SOL    HW130629   4.245   4.219   4.689  1.0683 -0.5649 -0.6425
 6390SOL    HW230630   4.319   4.284   4.584  1.1858 -0.7839 -1.2288
 6391SOL     OW30631   3.563   2.608  16.804  0.2073 -0.4197 -0.4885
 6391SOL    HW130632   3.476   2.622  16.842  0.9131 -0.6361  1.1984
 6391SOL    HW230633   3.580   2.684  16.748  0.7774  1.6947  2.6113
 6392SOL     OW30634   3.678   1.848   9.683 -0.1567 -0.2503  0.2721
 6392SOL    HW130635   3.753   1.789   9.678 -0.6707 -0.8956  0.0727
 6392SOL    HW230636   3.612   1.799   9.633 -1.7218  0.2088  1.8961
 6393SOL     OW30637   1.773   3.088   1.495 -0.1053 -0.6701  0.0404
 6393SOL    HW130638   1.719   3.133   1.560  1.8198  2.8105 -0.7577
 6393SOL    HW230639   1.738   2.999   1.499  0.2974 -0.8555 -0.5309
 6394SOL     OW30640   4.624   0.460   6.327 -0.1432  0.0240 -0.6832
 6394SOL    HW130641   4.639   0.401   6.401  0.3696  0.3301 -0.5442
 6394SOL    HW230642   4.615   0.544   6.370 -1.0079 -0.9329  0.9968
 6395SOL     OW30643   4.059   4.111   1.328 -0.1560 -0.6374  0.5138
 6395SOL    HW130644   4.018   4.181   1.278 -0.5331 -1.0734  0.2126
 6395SOL    HW230645   4.078   4.171   1.400 -3.0532  0.3922  0.3872
 6396SOL     OW30646   0.197   4.127   4.541 -0.3065  0.1823  0.0534
 6396SOL    HW130647   0.221   4.159   4.454  0.4560 -0.7052 -0.0570
 6396SOL    HW230648   0.238   4.196   4.594  2.3346 -1.3312 -0.0335
 6397SOL     OW30649   0.826   2.499  16.525 -0.0817  0.2647  0.4236
 6397SOL    HW130650   0.865   2.511  16.611  1.3842  1.5383 -0.4212
 6397SOL    HW230651   0.906   2.498  16.472 -1.2962  1.1808 -1.4247
 6398SOL     OW30652   2.147   3.617   7.685  0.2643 -0.0562  0.2037
 6398SOL    HW130653   2.205   3.644   7.613  1.1107 -1.4851  0.3564
 6398SOL    HW230654   2.073   3.581   7.638  0.5482 -0.5445  0.1329
 6399SOL     OW30655   1.258   2.596   7.429 -0.2844 -0.0501  0.5147
 6399SOL    HW130656   1.336   2.626   7.384 -1.1558 -0.9897 -1.6178
 6399SOL    HW230657   1.297   2.556   7.507 -0.1336  1.8731  1.4007
 6400SOL     OW30658   3.097   0.773   6.461 -0.3872  0.6373 -0.4507
 6400SOL    HW130659   3.117   0.715   6.387 -1.5770  2.7719 -2.4373
 6400SOL    HW230660   3.169   0.757   6.522  0.1491 -1.3084 -1.5826
 6401SOL     OW30661   1.911   2.181   6.078  0.2027 -0.0663  0.4108
 6401SOL    HW130662   1.945   2.092   6.080  0.6272  0.0703 -0.4975
 6401SOL    HW230663   1.821   2.158   6.101  0.6601 -2.7493 -0.5503
 6402SOL     OW30664   0.653   4.167   1.516  0.1139  0.0396 -0.0966
 6402SOL    HW130665   0.605   4.193   1.437  1.6909  0.3950 -0.9405
 6402SOL    HW230666   0.637   4.073   1.518  2.4122 -0.3240  1.5684
 6403SOL     OW30667   4.153   3.360   3.117  0.5329  0.0057  0.4251
 6403SOL    HW130668   4.162   3.278   3.070 -0.4975  0.7514 -1.0787
 6403SOL    HW230669   4.079   3.335   3.172 -1.0154  1.3650 -1.0651
 6404SOL     OW30670   3.858   2.885   0.816 -0.2158  0.3648 -0.3645
 6404SOL    HW130671   3.884   2.806   0.865 -1.6631  0.7970  1.1330
 6404SOL    HW230672   3.932   2.945   0.826  0.2646 -0.1190 -1.0696
 6405SOL     OW30673   2.810   0.331   3.132  0.0728  0.3742 -0.0146
 6405SOL    HW130674   2.885   0.310   3.188  0.5847  1.7369 -0.1886
 6405SOL    HW230675   2.804   0.260   3.068 -1.9550 -0.0640  0.6643
 6406SOL     OW30676   3.426   0.903   4.674  0.4241 -0.1669  0.0649
 6406SOL    HW130677   3.399   0.812   4.670  0.7414 -0.2415 -0.3253
 6406SOL    HW230678   3.412   0.913   4.768  3.6460 -2.7464  0.7890
 6407SOL     OW30679   1.205   3.273  10.186 -0.3688  0.3120 -0.3070
 6407SOL    HW130680   1.114   3.300  10.179 -0.0797  1.3564  0.0500
 6407SOL    HW230681   1.209   3.214  10.110  1.8739  0.9524 -0.6913
 6408SOL     OW30682   0.389   4.401   0.872  0.4901  0.0044  0.0812
 6408SOL    HW130683   0.381   4.421   0.778  1.8141  0.9848  0.1694
 6408SOL    HW230684   0.293   4.398   0.873  0.4878  0.0880  0.1396
 6409SOL     OW30685   3.855   3.777   2.421 -0.2276  0.5187  0.1572
 6409SOL    HW130686   3.800   3.740   2.351 -1.5599  2.6872  0.0741
 6409SOL    HW230687   3.940   3.734   2.410 -0.3360  1.1481 -3.3475
 6410SOL     OW30688   0.541   4.357   6.833  0.1712  0.4675  0.4814
 6410SOL    HW130689   0.469   4.331   6.890  0.3920 -1.3784 -0.1015
 6410SOL    HW230690   0.612   4.316   6.883 -0.4269  0.6712  1.5069
 6411SOL     OW30691   2.357   2.533  11.349  0.2836  0.0279  0.5878
 6411SOL    HW130692   2.325   2.527  11.259 -1.2097  0.1594  1.1144
 6411SOL    HW230693   2.285   2.585  11.382  1.1877 -0.6009  3.5149
 6412SOL     OW30694   2.999   1.982  13.199 -0.3109 -0.5946 -0.0265
 6412SOL    HW130695   2.955   1.956  13.280  1.3977  0.3982  1.2073
 6412SOL    HW230696   2.935   1.958  13.131  0.3476 -0.9228 -0.5290
 6413SOL     OW30697   4.391   0.927   2.119  0.2626 -0.2364 -0.0803
 6413SOL    HW130698   4.353   1.000   2.169 -0.5305 -0.8216  0.1733
 6413SOL    HW230699   4.474   0.966   2.092 -0.3281  0.6917 -0.5704
 6414SOL     OW30700   4.621   0.076   2.322 -0.1087  0.1581 -0.3499
 6414SOL    HW130701   4.634   0.005   2.259  0.9637 -0.1420  0.2076
 6414SOL    HW230702   4.553   0.042   2.381 -0.9976  1.5493 -0.5924
 6415SOL     OW30703   3.088   0.715  14.501 -0.1892 -0.5221  0.4218
 6415SOL    HW130704   3.166   0.723  14.555 -1.6584 -0.2825  2.5177
 6415SOL    HW230705   3.088   0.800  14.457  1.0414  0.0730  1.5918
 6416SOL     OW30706   3.362   0.162   3.590  0.3326  0.1941  0.3895
 6416SOL    HW130707   3.353   0.107   3.668 -0.2323  0.6827  0.6705
 6416SOL    HW230708   3.455   0.182   3.588  0.9472 -2.5590  1.0412
 6417SOL     OW30709   2.744   4.221   4.379  0.2108  0.4892 -0.3048
 6417SOL    HW130710   2.688   4.299   4.377 -1.3093 -0.5938 -0.1856
 6417SOL    HW230711   2.727   4.202   4.471 -2.5098  0.9956 -0.6906
 6418SOL     OW30712   3.694   1.491   2.028  0.5132 -0.1844  0.0489
 6418SOL    HW130713   3.657   1.514   1.943 -0.6105  1.4021  0.9523
 6418SOL    HW230714   3.775   1.451   1.997  0.2788  1.0773 -2.2058
 6419SOL     OW30715   3.631   2.868   2.446  0.0306  0.3122  0.2766
 6419SOL    HW130716   3.655   2.960   2.443  0.2454  0.2345 -0.2901
 6419SOL    HW230717   3.541   2.880   2.477 -0.4342 -1.5419 -0.3622
 6420SOL     OW30718   1.880   2.092   1.156 -0.1964  0.2887 -0.2137
 6420SOL    HW130719   1.950   2.158   1.159 -1.8489  1.9994  0.7605
 6420SOL    HW230720   1.855   2.080   1.064  0.6246 -1.5135 -0.2058
 6421SOL     OW30721   2.698   3.184   7.314 -0.2064 -0.1542  0.6354
 6421SOL    HW130722   2.659   3.195   7.227  1.2456 -1.6105 -0.2168
 6421SOL    HW230723   2.656   3.102   7.339 -1.3549  1.0016  2.4569
 6422SOL     OW30724   3.263   3.286   6.255 -0.0772  1.1748  0.6010
 6422SOL    HW130725   3.354   3.315   6.268  0.4279  0.6230 -1.5967
 6422SOL    HW230726   3.220   3.352   6.309 -2.1102  0.5677 -0.3172
 6423SOL     OW30727   0.182   0.482  10.089 -0.0607  0.2406 -0.0842
 6423SOL    HW130728   0.093   0.465  10.122 -0.8450 -0.2323 -2.4290
 6423SOL    HW230729   0.219   0.402  10.127 -0.6967  0.7323  1.5802
 6424SOL     OW30730   0.448   3.486  15.202  0.1571  0.2479  0.3167
 6424SOL    HW130731   0.498   3.432  15.141 -1.7506  0.4220 -1.3809
 6424SOL    HW230732   0.395   3.534  15.138  0.7405  0.6831  0.1498
 6425SOL     OW30733   1.673   3.695   6.612 -0.5540  0.3771 -0.3564
 6425SOL    HW130734   1.698   3.776   6.657 -2.7003  1.2402 -0.6866
 6425SOL    HW230735   1.714   3.625   6.661 -0.4576 -0.4854 -1.6719
 6426SOL     OW30736   3.950   1.369   9.898  0.1273  0.0148  0.0022
 6426SOL    HW130737   3.945   1.293   9.955  3.4895  0.5009  0.9452
 6426SOL    HW230738   3.859   1.383   9.871 -0.4825 -1.7986  1.1087
 6427SOL     OW30739   2.688   4.560   5.209 -0.4160 -0.1708  0.0460
 6427SOL    HW130740   2.769   4.612   5.204  1.2297 -2.8831 -1.3684
 6427SOL    HW230741   2.648   4.602   5.286 -0.6525 -1.0580  0.4000
 6428SOL     OW30742   2.069   3.243   3.299  0.1980 -0.4132  0.1603
 6428SOL    HW130743   2.047   3.215   3.210 -3.2261  0.2977  0.7769
 6428SOL    HW230744   1.981   3.244   3.335 -0.1697  0.7000 -0.7734
 6429SOL     OW30745   0.617   3.077  15.521 -0.4172 -0.8245 -0.0108
 6429SOL    HW130746   0.659   2.990  15.523 -0.2515 -0.7546 -0.3881
 6429SOL    HW230747   0.612   3.083  15.425  0.8102 -0.0210 -0.0305
 6430SOL     OW30748   3.535   0.346   3.266  0.2349  0.2728  0.4602
 6430SOL    HW130749   3.451   0.375   3.300  0.1347  1.9414 -1.2199
 6430SOL    HW230750   3.560   0.427   3.221 -1.7212  0.2070 -0.7249
 6431SOL     OW30751   4.416   0.252   2.224  0.5586 -0.2859  0.0663
 6431SOL    HW130752   4.465   0.306   2.162  0.2819 -0.5573 -0.3915
 6431SOL    HW230753   4.486   0.200   2.262  1.2881  0.5941 -0.0634
 6432SOL     OW30754   2.964   2.433   0.773 -0.0189 -0.7207  0.1428
 6432SOL    HW130755   2.951   2.526   0.758  1.1466 -0.5018  0.4955
 6432SOL    HW230756   2.878   2.409   0.808 -0.8399  1.6694 -0.2310
 6433SOL     OW30757   2.231   4.321   0.656  0.0759 -0.2434 -0.1554
 6433SOL    HW130758   2.280   4.255   0.608  0.1036 -1.0752  1.0040
 6433SOL    HW230759   2.152   4.311   0.603  1.6743 -0.1011 -2.5386
 6434SOL     OW30760   2.968   2.676   7.581 -0.1601 -0.1463 -0.0459
 6434SOL    HW130761   3.003   2.661   7.669  1.0253 -1.1360 -0.6700
 6434SOL    HW230762   2.976   2.771   7.568  0.5985  0.0742  1.9990
 6435SOL     OW30763   0.363   1.677   7.211  0.1940  0.0559 -0.7217
 6435SOL    HW130764   0.409   1.594   7.227  0.0857  0.2744  0.7407
 6435SOL    HW230765   0.331   1.653   7.124  0.0576 -3.8922  0.3969
 6436SOL     OW30766   3.923   0.549   1.806 -0.6008 -0.0011  0.4066
 6436SOL    HW130767   3.936   0.532   1.713 -0.1906  2.7158 -0.0507
 6436SOL    HW230768   3.842   0.500   1.818 -0.6747  0.5036  2.0333
 6437SOL     OW30769   2.305   2.243   5.306 -0.1913  0.2596 -0.4205
 6437SOL    HW130770   2.358   2.177   5.262  1.0922  0.3058  1.0447
 6437SOL    HW230771   2.338   2.324   5.268 -1.6146  1.2038  0.3019
 6438SOL     OW30772   0.217   0.581   2.615 -0.2791 -0.0366  0.1794
 6438SOL    HW130773   0.277   0.641   2.570 -0.1200  1.4122  2.3029
 6438SOL    HW230774   0.276   0.556   2.687 -2.0874  0.3074  1.7771
 6439SOL     OW30775   2.877   3.892   7.717 -0.1091 -0.1887 -0.2942
 6439SOL    HW130776   2.907   3.982   7.728  2.4399 -1.2710  1.8338
 6439SOL    HW230777   2.859   3.867   7.808  0.3354  2.1709  0.4434
 6440SOL     OW30778   0.296   3.878  17.183  0.0692  0.6051 -0.1634
 6440SOL    HW130779   0.376   3.928  17.199  1.4059 -2.4595  2.7539
 6440SOL    HW230780   0.250   3.941  17.128  0.4681 -0.1558 -1.3695
 6441SOL     OW30781   3.855   1.821  16.866  0.2366  0.2118 -0.2100
 6441SOL    HW130782   3.790   1.889  16.884 -1.2653 -1.4099  0.4911
 6441SOL    HW230783   3.814   1.747  16.911  0.8938  0.7193  1.2041
 6442SOL     OW30784   1.487   4.676   2.562  0.0996  0.3839  0.2960
 6442SOL    HW130785   1.550   0.022   2.534  1.0112 -0.5776  0.0598
 6442SOL    HW230786   1.514   4.644   2.648 -0.5187 -1.4496 -0.2090
 6443SOL     OW30787   0.983   1.447   1.866  0.2942 -0.3254  0.1147
 6443SOL    HW130788   1.007   1.540   1.873 -0.4807 -0.0884 -0.3247
 6443SOL    HW230789   1.063   1.404   1.895 -0.5248 -0.8318  1.6077
 6444SOL     OW30790   1.121   2.987   4.720 -0.6969 -0.5437 -0.3857
 6444SOL    HW130791   1.194   2.982   4.658  0.7339  1.6145  1.1219
 6444SOL    HW230792   1.132   3.077   4.751  1.8252 -1.4716  1.4638
 6445SOL     OW30793   1.824   2.166   5.068  0.3148 -0.0110  0.5342
 6445SOL    HW130794   1.839   2.078   5.101  1.3411 -0.1208 -0.2074
 6445SOL    HW230795   1.755   2.187   5.131 -0.3680 -1.3127  0.2075
 6446SOL     OW30796   3.841   3.950   8.599  0.2303  0.7023  0.2712
 6446SOL    HW130797   3.790   3.881   8.642 -1.4272  2.3248  0.9317
 6446SOL    HW230798   3.766   3.998   8.564 -0.1830 -0.6403 -0.6751
 6447SOL     OW30799   2.023   2.558   3.314 -0.3829 -0.0260  0.0610
 6447SOL    HW130800   2.089   2.622   3.284  0.3373  0.5098  2.7993
 6447SOL    HW230801   2.054   2.560   3.405  1.5238 -2.1185 -0.5217
 6448SOL     OW30802   0.195   3.999  11.880  0.2730  0.4592 -0.1606
 6448SOL    HW130803   0.220   4.015  11.971 -2.2273 -0.5340  0.7067
 6448SOL    HW230804   0.130   4.069  11.869  0.4574  0.2455 -2.6425
 6449SOL     OW30805   3.059   1.920   0.589  0.3551  0.2932  0.0735
 6449SOL    HW130806   3.095   1.975   0.519 -2.9732 -1.1133 -2.7148
 6449SOL    HW230807   2.966   1.932   0.568  0.6488 -0.5953 -1.7802
 6450SOL     OW30808   1.921   1.738  17.111  0.0244 -0.3242  0.4002
 6450SOL    HW130809   1.979   1.778  17.046 -2.1015  0.2224 -1.1893
 6450SOL    HW230810   1.987   1.732  17.180  0.1480  1.7355  0.4694
 6451SOL     OW30811   4.462   3.210  12.426 -0.0396  0.0511 -0.5493
 6451SOL    HW130812   4.529   3.274  12.451  1.4345 -1.6928 -0.0314
 6451SOL    HW230813   4.403   3.261  12.371 -0.6563  0.2144  0.2616
 6452SOL     OW30814   0.637   0.008   8.201  0.0196  0.7921 -0.5123
 6452SOL    HW130815   0.703   4.662   8.218  0.7414  1.3690 -1.0593
 6452SOL    HW230816   0.684   0.083   8.165  1.2359  0.5481  0.5745
 6453SOL     OW30817   4.007   4.573   9.370  0.0700  0.0951 -0.1308
 6453SOL    HW130818   3.956   4.635   9.422 -1.7192 -2.5405  1.2637
 6453SOL    HW230819   3.941   4.504   9.364  0.8787 -0.4226 -3.5955
 6454SOL     OW30820   0.581   4.590  17.275 -0.0365  0.0078 -0.4135
 6454SOL    HW130821   0.557   4.531  17.346 -0.3612 -1.9405 -2.1266
 6454SOL    HW230822   0.516   4.660  17.281  0.7156  0.6263  0.3989
 6455SOL     OW30823   0.399   1.074   2.687 -0.4583  0.1944 -0.0779
 6455SOL    HW130824   0.368   1.020   2.614 -0.4420 -1.8370  1.4489
 6455SOL    HW230825   0.325   1.064   2.746 -1.0052 -2.1405 -1.1471
 6456SOL     OW30826   3.377   2.213   2.171 -0.2059 -0.5968  0.0685
 6456SOL    HW130827   3.388   2.213   2.076 -2.6828  1.5723 -0.2333
 6456SOL    HW230828   3.352   2.123   2.190 -1.2573 -0.4139 -0.4772
 6457SOL     OW30829   2.689   4.388   1.596 -0.8265 -0.5117 -0.1941
 6457SOL    HW130830   2.685   4.480   1.568 -0.2035 -0.0034  1.3950
 6457SOL    HW230831   2.784   4.378   1.599 -0.6446  1.5250  0.6268
 6458SOL     OW30832   1.076   3.360  17.598  0.9280  0.7233  0.0435
 6458SOL    HW130833   1.106   3.436  17.549 -1.6661  0.9766 -1.1298
 6458SOL    HW230834   1.142   3.339  17.664  0.0951 -0.6973  0.4236
 6459SOL     OW30835   3.237   2.001   5.396  0.6317 -0.1321 -0.3385
 6459SOL    HW130836   3.304   1.968   5.456  0.1450 -0.0956  0.2250
 6459SOL    HW230837   3.171   1.933   5.406 -1.6222  1.7896 -2.0379
 6460SOL     OW30838   4.188   4.155   9.146  0.3226 -0.2508  0.0263
 6460SOL    HW130839   4.234   4.218   9.201 -2.1745  0.7106  1.0067
 6460SOL    HW230840   4.244   4.174   9.071 -0.7448  1.7662 -0.2545
 6461SOL     OW30841   1.544   0.262  10.576 -0.8906  0.2806  0.2663
 6461SOL    HW130842   1.619   0.303  10.618 -0.8749  1.4526 -0.9008
 6461SOL    HW230843   1.474   0.328  10.580 -1.4743 -0.2867 -0.5629
 6462SOL     OW30844   0.989   3.586  10.143  0.0949  0.1920 -0.7110
 6462SOL    HW130845   0.949   3.504  10.169  0.2270  0.5120  0.4779
 6462SOL    HW230846   1.005   3.576  10.049 -1.1742  2.2602 -1.1513
 6463SOL     OW30847   1.949   4.297   5.703  0.3219  0.1513  0.4462
 6463SOL    HW130848   1.953   4.387   5.670 -1.2905  0.2797  0.5776
 6463SOL    HW230849   1.912   4.259   5.623 -1.3715  2.3105  0.1995
 6464SOL     OW30850   0.150   2.778   1.750 -0.4484  0.1401  0.0430
 6464SOL    HW130851   0.209   2.722   1.700 -1.7658  0.2939 -1.7040
 6464SOL    HW230852   0.123   2.714   1.815 -0.3283  1.5777  1.5167
 6465SOL     OW30853   0.720   2.975   1.960  0.3877 -0.6863 -0.1691
 6465SOL    HW130854   0.624   2.976   1.959  0.4019  0.1914 -0.0933
 6465SOL    HW230855   0.742   2.992   1.868 -4.1459  0.3430 -1.0625
 6466SOL     OW30856   2.519   3.660   5.508  0.0802 -0.1101 -0.0389
 6466SOL    HW130857   2.580   3.593   5.538 -0.8600 -1.4704 -1.1488
 6466SOL    HW230858   2.447   3.659   5.572  0.2153 -0.5509  0.1014
 6467SOL     OW30859   2.148   2.840   4.390  0.0848  0.1021  0.0228
 6467SOL    HW130860   2.162   2.859   4.483  0.0953 -0.3849  0.1199
 6467SOL    HW230861   2.141   2.931   4.361  1.8326  0.1248 -0.3515
 6468SOL     OW30862   3.594   3.235   8.286  0.0291  0.1802 -0.0594
 6468SOL    HW130863   3.642   3.199   8.361 -0.0805 -1.4904 -0.7748
 6468SOL    HW230864   3.534   3.293   8.333  2.1005  1.9676  0.3807
 6469SOL     OW30865   1.196   3.604  15.431  0.1734 -0.0951  0.0911
 6469SOL    HW130866   1.147   3.684  15.409 -0.6638 -0.4504  0.6293
 6469SOL    HW230867   1.244   3.626  15.511 -0.1530 -1.2767  0.6081
 6470SOL     OW30868   3.946   4.272   9.134  0.7318 -0.4110 -0.0192
 6470SOL    HW130869   3.998   4.335   9.086 -2.0687  2.5242  0.8173
 6470SOL    HW230870   4.013   4.207   9.156  0.2088 -1.0488 -0.2901
 6471SOL     OW30871   3.009   4.182   8.886 -0.7244  0.1651 -0.1306
 6471SOL    HW130872   3.034   4.108   8.941 -3.9338  0.5345  1.8229
 6471SOL    HW230873   2.968   4.241   8.949 -0.3369 -1.3161  1.5225
 6472SOL     OW30874   4.123   3.049   5.262 -0.3897  0.2126 -0.0397
 6472SOL    HW130875   4.031   3.062   5.239 -0.9622 -2.5660  0.7355
 6472SOL    HW230876   4.157   3.136   5.284 -2.0421  0.6381  0.7739
 6473SOL     OW30877   1.792   3.568   7.002 -0.0110  0.0573  0.0047
 6473SOL    HW130878   1.766   3.498   7.061  1.0110  0.0093  0.3952
 6473SOL    HW230879   1.732   3.641   7.018  0.3261  0.7752 -1.9167
 6474SOL     OW30880   2.941   3.707  11.865  0.8098  0.0465  0.3384
 6474SOL    HW130881   2.969   3.665  11.946  3.2135  2.9180  1.0300
 6474SOL    HW230882   3.006   3.659  11.813 -2.2438 -2.8563 -0.7553
 6475SOL     OW30883   0.064   2.814   3.341  0.6589  0.1413 -0.1117
 6475SOL    HW130884   0.011   2.821   3.420 -1.3619  4.5147 -1.8485
 6475SOL    HW230885   0.148   2.775   3.364  0.1563 -2.2258 -2.2287
 6476SOL     OW30886   4.026   2.659   8.166 -0.0597 -0.0218 -0.5292
 6476SOL    HW130887   3.980   2.609   8.098  1.6618 -3.2158  0.6636
 6476SOL    HW230888   4.075   2.591   8.211 -0.1002  1.1478  1.2760
 6477SOL     OW30889   4.340   1.180   8.744 -0.2177  0.4600 -0.2686
 6477SOL    HW130890   4.260   1.161   8.695 -1.6794 -0.1834  2.3784
 6477SOL    HW230891   4.313   1.170   8.835  1.2348  0.8778  0.2183
 6478SOL     OW30892   1.243   2.611   3.323  0.3511  0.3354 -0.0098
 6478SOL    HW130893   1.253   2.656   3.408  0.8384  0.3934 -0.0976
 6478SOL    HW230894   1.328   2.629   3.283  0.2128  1.4792  0.2067
 6479SOL     OW30895   3.204   3.300   1.711  0.1270 -0.1586  0.1234
 6479SOL    HW130896   3.170   3.343   1.789  3.7776 -0.0543  1.6396
 6479SOL    HW230897   3.291   3.333   1.689 -0.0357  0.5033  0.4984
 6480SOL     OW30898   0.541   0.302  15.251 -0.2039  0.2902 -0.9783
 6480SOL    HW130899   0.593   0.232  15.211  0.7790 -0.3608  1.4529
 6480SOL    HW230900   0.514   0.352  15.173 -1.5231 -0.4239 -0.9764
 6481SOL     OW30901   1.864   1.828  17.685 -0.4567  0.2829 -0.4552
 6481SOL    HW130902   1.906   1.909   0.029 -0.8689  0.7518 -1.1307
 6481SOL    HW230903   1.790   1.837   0.060  0.0847  1.3081  0.0613
 6482SOL     OW30904   0.957   1.507   6.654 -0.5168  0.1919 -0.9030
 6482SOL    HW130905   0.900   1.579   6.628 -1.9872  0.4478  3.0009
 6482SOL    HW230906   1.025   1.545   6.710  1.4069 -0.1468 -2.9804
 6483SOL     OW30907   4.051   4.522   7.841 -0.6390  0.0601 -0.0542
 6483SOL    HW130908   4.099   4.502   7.761 -2.8840 -0.3778 -1.3134
 6483SOL    HW230909   4.120   4.547   7.903  0.5118 -1.0140 -0.9103
 6484SOL     OW30910   4.119   4.279  13.455 -0.1957 -0.6996 -0.7401
 6484SOL    HW130911   4.067   4.348  13.415 -0.7353 -1.8993 -2.1162
 6484SOL    HW230912   4.047   4.233  13.497  0.4551 -0.7639  0.3039
 6485SOL     OW30913   3.111   1.181  12.997 -0.6920 -0.5394  0.1002
 6485SOL    HW130914   3.199   1.149  12.978 -0.7285  0.1068 -1.1252
 6485SOL    HW230915   3.071   1.184  12.910  1.1931  0.2228 -0.7362
 6486SOL     OW30916   0.476   0.681   9.141 -0.8924 -0.2763  0.1917
 6486SOL    HW130917   0.532   0.624   9.194 -2.7870 -0.0179  2.4642
 6486SOL    HW230918   0.400   0.697   9.197 -0.5259  0.2692  0.5379
 6487SOL     OW30919   0.777   0.844  15.325 -0.0418 -0.4394  0.3651
 6487SOL    HW130920   0.777   0.865  15.231  3.0907  0.2871  0.5387
 6487SOL    HW230921   0.798   0.751  15.320 -0.0182 -0.5460  2.5936
 6488SOL     OW30922   3.606   1.922   8.855  0.0736  0.2181  0.5827
 6488SOL    HW130923   3.605   1.853   8.921  0.7550  0.5016  0.8922
 6488SOL    HW230924   3.516   1.923   8.824  0.1619 -1.2350  0.2683
 6489SOL     OW30925   4.462   1.407   9.203  0.2120  0.6642 -0.4000
 6489SOL    HW130926   4.457   1.499   9.229 -0.7094  0.6038 -0.3787
 6489SOL    HW230927   4.393   1.367   9.256  0.2025  0.7508 -0.3466
 6490SOL     OW30928   2.933   2.066   4.936 -0.0302  0.2470 -0.6235
 6490SOL    HW130929   2.929   2.117   5.017  1.2660 -0.5538 -0.0668
 6490SOL    HW230930   3.021   2.095   4.911  0.5279 -0.1508  0.9242
 6491SOL     OW30931   1.719   1.094  16.470 -0.0772  0.7625  0.0827
 6491SOL    HW130932   1.748   1.017  16.519 -0.7055  0.7730  0.4729
 6491SOL    HW230933   1.791   1.116  16.412 -0.9695  0.6060 -1.0994
 6492SOL     OW30934   0.323   0.543  14.300 -0.2680 -0.0235 -0.0629
 6492SOL    HW130935   0.279   0.509  14.377  0.1120  1.4864  0.8187
 6492SOL    HW230936   0.260   0.531  14.228 -1.7738 -1.6225  1.5403
 6493SOL     OW30937   0.524   1.242   4.575 -0.1259 -0.5823 -0.1370
 6493SOL    HW130938   0.499   1.198   4.494 -2.1648  0.7691 -0.2495
 6493SOL    HW230939   0.619   1.246   4.564 -0.2323 -1.1156 -1.2515
 6494SOL     OW30940   3.420   2.555   4.239 -0.3885  0.0053  0.0230
 6494SOL    HW130941   3.374   2.529   4.158  0.9003 -0.4110 -0.5700
 6494SOL    HW230942   3.347   2.569   4.300 -1.8004 -0.2653 -1.5914
 6495SOL     OW30943   0.240   0.105   8.270  0.6761  0.0399 -0.1092
 6495SOL    HW130944   0.313   0.081   8.328 -0.5994 -1.0882  1.0129
 6495SOL    HW230945   0.198   0.019   8.276  1.2304 -0.2764 -0.6699
 6496SOL     OW30946   1.677   4.026   5.109  0.5193 -0.0778  0.0275
 6496SOL    HW130947   1.619   4.093   5.074 -0.8470  0.2559  2.8926
 6496SOL    HW230948   1.624   3.998   5.184  0.4500 -1.5094 -0.5516
 6497SOL     OW30949   3.566   2.850   5.946 -0.8092 -0.0392  0.2760
 6497SOL    HW130950   3.652   2.817   5.970 -0.9177 -1.8049 -1.7557
 6497SOL    HW230951   3.583   2.942   5.925  0.8332 -0.4000  0.0422
 6498SOL     OW30952   2.034   2.260   7.819 -0.1118  0.3450 -0.2833
 6498SOL    HW130953   2.065   2.236   7.907 -2.0394 -0.7282  0.0986
 6498SOL    HW230954   1.943   2.232   7.824  0.0136 -0.1774 -0.9859
 6499SOL     OW30955   1.182   3.577  17.484  0.8135  0.3474 -0.4754
 6499SOL    HW130956   1.277   3.566  17.481  0.8194  0.0479  0.7381
 6499SOL    HW230957   1.177   3.670  17.461  0.5355  0.6369  0.7811
 6500SOL     OW30958   2.121   1.636   4.905 -0.8420 -0.2348  0.2973
 6500SOL    HW130959   2.191   1.572   4.891 -4.0876 -3.3404 -1.7134
 6500SOL    HW230960   2.113   1.611   4.997 -0.6426 -2.4490 -0.2799
 6501SOL     OW30961   2.606   0.961   0.044  0.0084 -0.3796  0.0352
 6501SOL    HW130962   2.625   0.881   0.093 -1.1201  0.0127  1.1302
 6501SOL    HW230963   2.522   0.983   0.085 -0.5501 -1.7219 -0.3831
 6502SOL     OW30964   0.016   3.858   6.912 -0.0961  0.3341  0.3650
 6502SOL    HW130965   0.102   3.878   6.949  0.0382  3.8745 -1.8121
 6502SOL    HW230966   4.697   3.820   6.990 -0.1388  0.3299  0.3406
 6503SOL     OW30967   2.453   3.257   0.918 -0.0101  0.1234  0.4179
 6503SOL    HW130968   2.367   3.226   0.947 -0.5658 -0.0646 -1.4300
 6503SOL    HW230969   2.482   3.198   0.849 -0.4398  2.2480 -1.6113
 6504SOL     OW30970   4.490   4.610   4.562  0.3159 -0.5517  0.3272
 6504SOL    HW130971   4.493   4.603   4.466 -1.8972  0.8340  0.1600
 6504SOL    HW230972   4.571   4.649   4.594 -0.2655 -0.8760  2.1966
 6505SOL     OW30973   3.970   2.994  13.809  0.0068  0.0003  0.2078
 6505SOL    HW130974   3.900   2.931  13.826 -1.1033  1.5831  1.4875
 6505SOL    HW230975   3.988   3.026  13.897  0.2713 -0.9351  0.4940
 6506SOL     OW30976   1.238   3.390   3.310 -0.0616  0.4659  0.3933
 6506SOL    HW130977   1.282   3.384   3.226  0.0357  4.6898  0.1515
 6506SOL    HW230978   1.174   3.458   3.286  0.7073  1.0966  0.1402
 6507SOL     OW30979   3.763   2.023   5.589  0.0379  0.9873  0.3338
 6507SOL    HW130980   3.796   2.096   5.537 -0.7108  1.5886  0.7042
 6507SOL    HW230981   3.705   2.078   5.641  1.4232  2.7845 -0.0503
 6508SOL     OW30982   4.523   2.740   6.062  0.3414 -0.1473 -0.7479
 6508SOL    HW130983   4.569   2.672   6.013  0.3058  1.3036 -2.7639
 6508SOL    HW230984   4.540   2.713   6.152 -0.3417  0.5651 -0.4039
 6509SOL     OW30985   2.144   3.093   1.992  0.1702  0.2707  0.1868
 6509SOL    HW130986   2.064   3.133   2.027  0.6001  0.9139  0.4403
 6509SOL    HW230987   2.115   3.005   1.966  1.8361 -0.0236 -0.6150
 6510SOL     OW30988   0.271   1.446   5.731 -0.1329 -0.4671  0.1482
 6510SOL    HW130989   0.245   1.366   5.777  2.7865  0.2486  3.0305
 6510SOL    HW230990   0.252   1.424   5.640 -2.7425 -0.8104  0.7794
 6511SOL     OW30991   3.352   0.204   1.371 -0.0340 -0.5184 -0.7021
 6511SOL    HW130992   3.345   0.116   1.335  1.8530 -1.1638  0.5043
 6511SOL    HW230993   3.404   0.179   1.448 -1.9227  0.3319  0.8380
 6512SOL     OW30994   4.412   2.090   1.991  0.6545  0.0787  0.1454
 6512SOL    HW130995   4.435   2.163   1.933  0.7524 -0.5892 -0.6707
 6512SOL    HW230996   4.384   2.131   2.073  0.2756 -1.5560  0.8304
 6513SOL     OW30997   0.162   0.068   6.987  0.0746  0.1215  0.3749
 6513SOL    HW130998   0.229   0.054   7.053 -0.7659 -0.8430  1.0345
 6513SOL    HW230999   0.180   0.149   6.939  1.5850  0.0925  0.8942
 6514SOL     OW31000   1.708   3.902  14.073  0.2522  0.3265  0.0158
 6514SOL    HW131001   1.699   3.896  13.978 -0.6976  0.7489  0.0771
 6514SOL    HW231002   1.685   3.814  14.102  1.1551 -0.5125 -1.8296
 6515SOL     OW31003   1.509   3.634   3.034 -0.4055  0.0342  0.2862
 6515SOL    HW131004   1.568   3.652   3.107  1.1477  1.9382 -1.4211
 6515SOL    HW231005   1.502   3.721   2.995  0.7973  0.4252  0.9450
 6516SOL     OW31006   0.457   3.007   8.357  0.1461  0.0459  0.5296
 6516SOL    HW131007   0.395   3.056   8.302  2.4440 -0.8394 -2.8680
 6516SOL    HW231008   0.399   2.947   8.405 -0.4755  1.5470  1.6493
 6517SOL     OW31009   4.041   4.269   7.193  0.3938 -0.1548  0.1508
 6517SOL    HW131010   4.135   4.261   7.202  0.4752  2.2465  1.5366
 6517SOL    HW231011   4.017   4.263   7.286  1.5161 -2.4599  0.2698
 6518SOL     OW31012   2.391   0.265   6.263  0.0277 -0.5180 -0.1094
 6518SOL    HW131013   2.351   0.279   6.348 -0.6142 -0.3675 -0.4399
 6518SOL    HW231014   2.355   0.339   6.214 -1.1796 -2.0856 -1.6287
 6519SOL     OW31015   3.337   0.374   7.053  0.3426  0.3252 -0.2036
 6519SOL    HW131016   3.284   0.389   7.131  0.0130  0.4834 -0.4585
 6519SOL    HW231017   3.349   0.464   7.025 -0.4930  0.0999 -1.2961
 6520SOL     OW31018   2.944   3.892  10.328 -0.5013 -0.0172  0.1496
 6520SOL    HW131019   2.932   3.815  10.384  0.5194 -0.4990 -0.2801
 6520SOL    HW231020   2.963   3.957  10.395 -1.7742  1.4154 -0.8872
 6521SOL     OW31021   1.762   3.024  10.891 -0.7088 -0.4155  0.0436
 6521SOL    HW131022   1.731   3.045  10.979 -0.1900 -1.6397  0.5030
 6521SOL    HW231023   1.851   2.991  10.896 -0.6292  0.0649  1.8376
 6522SOL     OW31024   3.945   2.533   4.933  0.2180  0.3161  0.2920
 6522SOL    HW131025   3.866   2.586   4.925 -1.1295 -1.4631  1.9197
 6522SOL    HW231026   3.951   2.497   4.845  1.5614  1.7353 -0.2163
 6523SOL     OW31027   1.582   4.174  13.922 -0.0638  0.0543 -0.4611
 6523SOL    HW131028   1.494   4.210  13.912 -0.5742 -1.0414  0.1031
 6523SOL    HW231029   1.551   4.114  13.990 -1.2021  2.3127  1.0321
 6524SOL     OW31030   2.161   3.639   7.391 -0.4039 -0.6530  0.0493
 6524SOL    HW131031   2.212   3.692   7.329 -0.4749  0.7544  1.1791
 6524SOL    HW231032   2.134   3.571   7.330 -1.5878 -0.3368  0.2196
 6525SOL     OW31033   3.605   0.028   7.291  0.0690 -0.5122 -0.0525
 6525SOL    HW131034   3.510   0.030   7.303  0.1906  2.9867  0.4254
 6525SOL    HW231035   3.602   0.059   7.201 -2.1575 -2.3782 -0.6207
 6526SOL     OW31036   3.182   1.164   4.502 -0.4139 -0.0416  0.3420
 6526SOL    HW131037   3.209   1.099   4.437  0.6066 -0.3704  1.0955
 6526SOL    HW231038   3.156   1.117   4.581 -0.6855 -3.2355 -1.6342
 6527SOL     OW31039   2.871   1.255  14.787 -0.1352 -0.5153 -0.2655
 6527SOL    HW131040   2.942   1.201  14.752  1.3239 -0.0377  2.0185
 6527SOL    HW231041   2.893   1.343  14.756  0.4147 -0.3229  0.6868
 6528SOL     OW31042   2.634   1.315  17.082  0.3497  0.1169  0.4869
 6528SOL    HW131043   2.730   1.314  17.079  0.3101  0.6070 -1.7041
 6528SOL    HW231044   2.627   1.327  17.176  0.0497  2.2613  0.2116
 6529SOL     OW31045   2.045   4.279   7.348 -0.0204  0.0298  0.3440
 6529SOL    HW131046   1.991   4.318   7.417  0.7255  0.0001  0.9452
 6529SOL    HW231047   1.975   4.254   7.288  0.8086  1.7790 -1.3758
 6530SOL     OW31048   2.500   2.778   3.770 -0.3068 -0.0196  0.0125
 6530SOL    HW131049   2.465   2.758   3.857 -0.2672 -1.4694 -0.2959
 6530SOL    HW231050   2.452   2.858   3.749 -0.2527  0.1560  0.5522
 6531SOL     OW31051   3.226   3.675   1.555 -0.0691 -0.1327 -0.0886
 6531SOL    HW131052   3.302   3.620   1.573  0.1706  1.0980  2.6428
 6531SOL    HW231053   3.255   3.766   1.546 -2.8487  0.8534  0.7328
 6532SOL     OW31054   4.323   2.812  17.557 -0.1449 -0.3203  0.0956
 6532SOL    HW131055   4.284   2.764  17.484  4.1017 -3.5639 -0.0330
 6532SOL    HW231056   4.379   2.745  17.596  0.0994  0.5599  1.2517
 6533SOL     OW31057   1.162   4.392  13.704 -0.1916 -0.7061  0.2512
 6533SOL    HW131058   1.067   4.379  13.706 -0.1621 -1.3636 -2.3206
 6533SOL    HW231059   1.176   4.326  13.636 -0.9737 -0.4177 -0.1948
 6534SOL     OW31060   2.006   1.732   3.345 -0.2647 -0.2888 -0.4455
 6534SOL    HW131061   1.971   1.821   3.345 -0.3482 -0.3363  1.3633
 6534SOL    HW231062   2.010   1.716   3.439  0.7842  1.2919 -0.2234
 6535SOL     OW31063   1.241   2.059   0.543  0.3401 -0.5485  0.5944
 6535SOL    HW131064   1.178   2.032   0.610  0.6495  0.6809  1.3822
 6535SOL    HW231065   1.320   2.066   0.598 -0.5122  0.3120  1.7034
 6536SOL     OW31066   1.729   4.394   9.567  0.0111  0.2483 -0.2062
 6536SOL    HW131067   1.650   4.361   9.525  0.5159 -1.6543  0.3467
 6536SOL    HW231068   1.694   4.478   9.596 -0.8515  0.0495 -0.6668
 6537SOL     OW31069   3.202   0.632  10.251 -0.3107  0.7846  0.0286
 6537SOL    HW131070   3.272   0.597  10.195  2.4256  1.7030  2.8677
 6537SOL    HW231071   3.129   0.576  10.228  1.1657 -1.2312  0.2611
 6538SOL     OW31072   4.587   2.561   1.065  0.1498 -0.2169  0.8677
 6538SOL    HW131073   4.568   2.510   0.986 -0.9726  1.5266  0.0209
 6538SOL    HW231074   4.568   2.502   1.138 -0.7750 -0.3750  0.4987
 6539SOL     OW31075   1.359   0.501   7.989 -0.0708  0.5518 -0.4072
 6539SOL    HW131076   1.360   0.571   7.923 -0.5326 -0.1690 -1.1856
 6539SOL    HW231077   1.394   0.430   7.934 -1.4927 -0.2702 -0.2324
 6540SOL     OW31078   2.799   1.091  15.496 -0.2083  0.3294 -0.6454
 6540SOL    HW131079   2.823   1.002  15.521 -1.6012  1.2608  4.0477
 6540SOL    HW231080   2.795   1.084  15.401 -0.2341 -1.5274 -0.4985
 6541SOL     OW31081   4.282   3.972   0.834 -0.3994 -0.1845  0.2930
 6541SOL    HW131082   4.235   4.013   0.907 -0.1867 -0.0781  0.3709
 6541SOL    HW231083   4.330   3.916   0.894 -0.2993  0.3264  0.6909
 6542SOL     OW31084   2.203   1.491   4.246  0.9134  0.2062 -0.3570
 6542SOL    HW131085   2.160   1.513   4.329 -0.7886  0.0049 -1.1930
 6542SOL    HW231086   2.229   1.581   4.226 -2.1181  1.5852  1.9293
 6543SOL     OW31087   1.446   3.864  12.999 -0.2988 -0.3599  0.2046
 6543SOL    HW131088   1.515   3.919  12.963 -0.2186 -1.6731 -1.6261
 6543SOL    HW231089   1.422   3.908  13.081  0.8014  0.4297  0.0973
 6544SOL     OW31090   4.073   1.149   8.076 -0.1997  0.0257  0.4333
 6544SOL    HW131091   4.147   1.177   8.021 -0.2441 -1.3586 -0.3385
 6544SOL    HW231092   4.061   1.059   8.048 -1.6708  0.5103 -0.4653
 6545SOL     OW31093   3.746   2.771  12.786  0.1074  0.1047 -0.0275
 6545SOL    HW131094   3.652   2.770  12.769  0.3846 -1.3191 -1.4401
 6545SOL    HW231095   3.740   2.838  12.853 -1.1371 -0.6106  0.5845
 6546SOL     OW31096   3.860   2.904   2.093 -0.3786  0.7772 -0.3312
 6546SOL    HW131097   3.935   2.845   2.102 -1.5535 -0.4807  1.1377
 6546SOL    HW231098   3.786   2.852   2.125  0.9030  0.0553  1.4701
 6547SOL     OW31099   1.601   0.444   0.086 -0.0604 -0.4705 -0.3473
 6547SOL    HW131100   1.645   0.363   0.063  1.3615  0.0067  0.6953
 6547SOL    HW231101   1.629   0.461   0.176  0.2767 -0.2024 -0.5033
 6548SOL     OW31102   1.416   3.476  12.750 -0.2088 -0.2242  0.1364
 6548SOL    HW131103   1.436   3.519  12.832 -0.0978 -0.1548  0.0725
 6548SOL    HW231104   1.507   3.476  12.720  0.0639  2.0345  0.9553
 6549SOL     OW31105   1.746   0.678  10.728 -0.2537 -0.4715 -0.4348
 6549SOL    HW131106   1.739   0.582  10.734 -1.3802 -0.3414  0.1400
 6549SOL    HW231107   1.657   0.699  10.755  0.5370  1.4243  0.7037
 6550SOL     OW31108   0.024   2.176   2.097 -0.1674  0.3068  0.4739
 6550SOL    HW131109   0.082   2.247   2.123  0.5080  0.7110 -2.1419
 6550SOL    HW231110   0.061   2.096   2.135  1.3040  0.9055  0.2973
 6551SOL     OW31111   0.926   2.856   3.992 -0.4515 -0.0317 -0.5773
 6551SOL    HW131112   0.901   2.925   4.053 -0.6454 -2.1464  1.7291
 6551SOL    HW231113   0.912   2.774   4.041  2.0915  1.2399  2.2244
 6552SOL     OW31114   0.789   4.117   7.280  0.2990 -0.2439  0.2656
 6552SOL    HW131115   0.878   4.084   7.285 -0.0408 -1.0686  0.9634
 6552SOL    HW231116   0.792   4.200   7.327  0.2464  0.7995 -1.5749
 6553SOL     OW31117   1.039   0.075  11.678  0.5664  0.3152  0.3306
 6553SOL    HW131118   1.071   0.092  11.590  0.8267  2.1629  0.7870
 6553SOL    HW231119   1.066   0.161  11.712  3.1711 -1.0795  1.8343
 6554SOL     OW31120   4.429   3.072  13.262 -0.4888 -0.4988  0.0637
 6554SOL    HW131121   4.514   3.087  13.302 -0.6478 -0.1008  0.2545
 6554SOL    HW231122   4.444   3.114  13.177 -1.4583  1.6894  0.9721
 6555SOL     OW31123   4.689   2.670   8.612  0.0991  0.6136 -0.4521
 6555SOL    HW131124   0.058   2.691   8.638 -0.2307 -0.0828  1.2564
 6555SOL    HW231125   4.642   2.682   8.695 -1.1152  0.7253 -1.1627
 6556SOL     OW31126   2.922   3.493   4.337  0.3995  0.4631 -0.4131
 6556SOL    HW131127   2.829   3.492   4.359  0.4346 -1.8650 -0.3935
 6556SOL    HW231128   2.930   3.418   4.278  0.6918  0.7337 -0.7246
 6557SOL     OW31129   3.539   3.891   4.632  0.2261  0.3140 -0.7443
 6557SOL    HW131130   3.461   3.842   4.610  1.0886 -1.3948  0.0328
 6557SOL    HW231131   3.608   3.825   4.631  1.3428  1.4687 -1.1569
 6558SOL     OW31132   3.167   4.035   2.083 -0.0480 -0.0565 -0.2656
 6558SOL    HW131133   3.156   4.066   2.173 -2.6908  2.0197 -1.2726
 6558SOL    HW231134   3.258   4.010   2.094  0.1466  0.5185 -0.5496
 6559SOL     OW31135   1.566   0.139   3.765  0.0116 -0.0180 -0.4470
 6559SOL    HW131136   1.580   0.217   3.819 -2.1670  0.7053 -0.9361
 6559SOL    HW231137   1.608   0.160   3.682  0.4963  0.2159 -0.1404
 6560SOL     OW31138   2.300   4.447   8.425 -0.4032  0.1921  0.0353
 6560SOL    HW131139   2.291   4.531   8.470 -1.4319 -0.1239  0.4141
 6560SOL    HW231140   2.319   4.482   8.337  1.4567  0.4273  0.5267
 6561SOL     OW31141   3.554   0.507   8.876 -0.4987  0.1286 -0.2366
 6561SOL    HW131142   3.459   0.505   8.886 -0.5204 -1.0323 -0.6430
 6561SOL    HW231143   3.576   0.573   8.942  0.7241 -0.0597 -0.4441
 6562SOL     OW31144   4.455   3.380   6.710 -0.3534 -0.3999  0.0374
 6562SOL    HW131145   4.382   3.337   6.755 -2.0403  1.6521 -0.7286
 6562SOL    HW231146   4.421   3.439   6.642 -0.6855  0.0478  0.5904
 6563SOL     OW31147   1.788   2.369   4.799 -0.2664 -1.0946 -0.4539
 6563SOL    HW131148   1.772   2.304   4.868  2.7970  1.9328  3.0890
 6563SOL    HW231149   1.868   2.414   4.827 -0.2927 -1.0710 -0.4149
 6564SOL     OW31150   4.387   0.563   2.959  0.6596  0.1782  0.1824
 6564SOL    HW131151   4.348   0.650   2.950  1.2627  0.7456  3.1585
 6564SOL    HW231152   4.422   0.552   2.870  3.9771 -2.3443  1.8198
 6565SOL     OW31153   0.880   2.691   4.849 -0.3493  0.3748 -0.1458
 6565SOL    HW131154   0.805   2.701   4.908  0.6739  0.5956  1.1416
 6565SOL    HW231155   0.859   2.618   4.791  2.7528  0.1069 -0.9671
 6566SOL     OW31156   1.191   0.587   0.508  0.0571 -0.4787  0.3146
 6566SOL    HW131157   1.136   0.621   0.437 -0.5076 -0.8601  0.5724
 6566SOL    HW231158   1.131   0.558   0.577 -0.1139  2.1601  1.3162
 6567SOL     OW31159   0.493   1.997   3.472  0.6211  0.6988 -0.1911
 6567SOL    HW131160   0.430   1.925   3.480  3.6813 -2.1349 -1.5514
 6567SOL    HW231161   0.578   1.955   3.485 -0.1603 -0.9404 -0.3669
 6568SOL     OW31162   3.579   3.445   5.103 -0.0525 -0.4024  0.5020
 6568SOL    HW131163   3.531   3.394   5.168  0.3719 -0.8537  0.4564
 6568SOL    HW231164   3.514   3.460   5.035  1.2276 -0.0142 -0.6373
 6569SOL     OW31165   4.710   2.989   0.849 -0.1137  0.4565  0.2115
 6569SOL    HW131166   4.684   2.934   0.775 -0.1847 -0.6611  1.0721
 6569SOL    HW231167   4.686   2.924   0.914  1.6133 -0.5372 -0.1391
 6570SOL     OW31168   0.483   2.219   0.219  0.1142 -0.2733 -0.7207
 6570SOL    HW131169   0.417   2.223   0.150  0.3794 -1.4226 -1.0358
 6570SOL    HW231170   0.438   2.216   0.303  1.0855  1.3902 -0.1374
 6571SOL     OW31171   2.491   4.021   1.060 -0.5289 -0.9689  0.6606
 6571SOL    HW131172   2.448   4.077   0.996 -0.3849  1.4502  2.6708
 6571SOL    HW231173   2.415   3.972   1.089 -1.0378 -0.8351 -0.4875
 6572SOL     OW31174   1.460   2.215   6.192  0.4219  0.0547  0.5062
 6572SOL    HW131175   1.397   2.189   6.124  1.3776 -1.2984  0.1391
 6572SOL    HW231176   1.549   2.195   6.162 -0.1553  0.6324 -1.6095
 6573SOL     OW31177   4.005   0.016   4.469  0.6222  0.4717  0.6753
 6573SOL    HW131178   3.974   4.665   4.413  0.0033  2.0985 -1.0524
 6573SOL    HW231179   4.015   0.085   4.403  0.2923  0.1714  0.3071
 6574SOL     OW31180   3.761   1.675  10.332 -0.1429  0.2686  0.0722
 6574SOL    HW131181   3.668   1.656  10.333 -0.1683  0.3314 -0.7736
 6574SOL    HW231182   3.789   1.609  10.395  1.3871 -0.4185 -1.3027
 6575SOL     OW31183   0.497   2.929   1.245 -0.1377 -0.2784 -0.9104
 6575SOL    HW131184   0.402   2.923   1.253 -0.4036  1.8300 -2.4124
 6575SOL    HW231185   0.508   3.022   1.266 -0.8031 -0.6255  0.9386
 6576SOL     OW31186   2.496   4.384   3.175 -0.3046  0.4124  0.4341
 6576SOL    HW131187   2.505   4.395   3.080  0.0445  1.5913  0.5974
 6576SOL    HW231188   2.407   4.351   3.186 -1.2586  3.1083  0.7608
 6577SOL     OW31189   4.393   1.193   9.029 -0.1188 -0.3296 -0.1648
 6577SOL    HW131190   4.422   1.267   9.082 -1.3052 -1.5982  2.2694
 6577SOL    HW231191   4.476   1.178   8.983 -0.1274  0.0598 -0.3139
 6578SOL     OW31192   2.600   4.609   2.170 -0.4939 -0.2524  0.5086
 6578SOL    HW131193   2.621   4.700   2.149 -0.1415  0.1306  2.5112
 6578SOL    HW231194   2.683   4.574   2.202 -0.8467 -1.4650  0.0924
 6579SOL     OW31195   3.394   1.218   4.840  0.2675 -0.2943  0.0973
 6579SOL    HW131196   3.410   1.127   4.865 -0.1031 -0.6807 -1.0642
 6579SOL    HW231197   3.402   1.220   4.744  4.1638 -3.3194  0.3503
 6580SOL     OW31198   2.001   4.567   3.800 -0.1218  0.3283  0.0489
 6580SOL    HW131199   2.080   4.566   3.746 -0.2566 -0.5417 -0.1393
 6580SOL    HW231200   1.980   4.474   3.784  1.8240 -0.2458  0.8602
 6581SOL     OW31201   2.998   2.074   6.230  0.3107 -0.1112 -0.1459
 6581SOL    HW131202   2.928   2.138   6.246  1.2409  1.3789 -2.1106
 6581SOL    HW231203   3.044   2.119   6.160  1.6049 -0.2334  0.6155
 6582SOL     OW31204   3.339   0.747  11.543 -0.3992  0.5753 -0.2509
 6582SOL    HW131205   3.423   0.749  11.498 -0.8005 -0.0910 -1.0206
 6582SOL    HW231206   3.350   0.814  11.611  1.8080  1.4526 -1.4719
 6583SOL     OW31207   2.204   4.556  13.589  0.6669 -0.1085  0.0458
 6583SOL    HW131208   2.119   4.599  13.602  0.1345 -1.3697  0.6618
 6583SOL    HW231209   2.208   4.510  13.673 -2.6720  0.4723  0.5149
 6584SOL     OW31210   1.268   3.896   0.821 -0.1774 -0.0570  0.7682
 6584SOL    HW131211   1.191   3.952   0.836 -0.4729 -0.5441  1.0735
 6584SOL    HW231212   1.316   3.956   0.763 -1.1899  1.0290  1.0385
 6585SOL     OW31213   4.008   3.748   5.140 -0.1012 -0.1041 -0.0840
 6585SOL    HW131214   3.917   3.719   5.143 -0.9588  2.4061 -1.6696
 6585SOL    HW231215   4.004   3.819   5.204 -0.0003  0.2463 -0.4621
 6586SOL     OW31216   0.554   1.738  17.331 -0.4559  0.3368 -0.0959
 6586SOL    HW131217   0.571   1.773  17.418 -1.2680 -1.4034  0.7739
 6586SOL    HW231218   0.522   1.656  17.369 -0.6048  0.7917  0.7606
 6587SOL     OW31219   2.936   3.881   1.231 -0.0278 -0.1287  0.0808
 6587SOL    HW131220   2.910   3.952   1.290 -1.2760 -1.3122  0.9176
 6587SOL    HW231221   2.867   3.871   1.167  0.1622 -1.2518  0.0495
 6588SOL     OW31222   1.823   3.168   0.682  0.0175 -0.1028  0.2947
 6588SOL    HW131223   1.899   3.201   0.633 -0.3422  2.8135  1.7153
 6588SOL    HW231224   1.867   3.148   0.765  0.6387  2.3016  0.5530
 6589SOL     OW31225   3.503   2.445  17.096  1.0092  0.2850  0.2802
 6589SOL    HW131226   3.449   2.500  17.039  0.3879 -0.0673  0.5333
 6589SOL    HW231227   3.432   2.422  17.156  0.0241 -1.0926 -1.4452
 6590SOL     OW31228   0.833   3.526  11.700  0.3163  0.2015 -0.2722
 6590SOL    HW131229   0.904   3.584  11.671 -1.0670  1.7511 -0.5701
 6590SOL    HW231230   0.845   3.450  11.644  1.4882  2.0524 -2.5538
 6591SOL     OW31231   3.461   4.337   3.924  0.7709  0.6272  0.5578
 6591SOL    HW131232   3.489   4.428   3.936 -0.1331  0.8200  1.2335
 6591SOL    HW231233   3.533   4.293   3.878 -0.0999  1.2748 -1.3840
 6592SOL     OW31234   0.824   3.142   5.160 -0.5106  0.3614  0.1913
 6592SOL    HW131235   0.908   3.182   5.179  1.9485 -3.6889 -2.0850
 6592SOL    HW231236   0.768   3.212   5.193 -1.0987  0.4544 -1.0081
 6593SOL     OW31237   4.252   0.355   7.727 -0.3049 -0.3125  0.1843
 6593SOL    HW131238   4.253   0.288   7.659  1.5993 -0.4739  0.3728
 6593SOL    HW231239   4.309   0.311   7.790 -0.9908  1.0366  1.7481
 6594SOL     OW31240   2.613   4.606  10.810 -0.2053  0.7848 -0.0555
 6594SOL    HW131241   2.579   4.610  10.720 -0.8495  0.0906  0.1607
 6594SOL    HW231242   2.704   4.634  10.800 -0.3452  0.2777 -2.6831
 6595SOL     OW31243   2.403   3.634   8.825 -0.0247 -0.0353 -0.0827
 6595SOL    HW131244   2.346   3.640   8.748  0.1280 -1.1636 -0.2853
 6595SOL    HW231245   2.377   3.547   8.857  0.6694 -1.0723 -2.2905
 6596SOL     OW31246   2.898   0.024   2.169  0.1481 -0.0934  0.6256
 6596SOL    HW131247   2.886   0.116   2.148 -0.3139 -0.2709  0.1052
 6596SOL    HW231248   2.991   0.012   2.155  0.2614 -0.8283  1.9728
 6597SOL     OW31249   2.611   4.618   1.256 -0.2548 -0.1609  0.6867
 6597SOL    HW131250   2.679   4.556   1.284  0.5657  0.1085 -0.6965
 6597SOL    HW231251   2.546   4.550   1.240  2.2106 -2.0539 -1.3548
 6598SOL     OW31252   2.179   1.578   2.934 -0.2300  0.3518  0.0544
 6598SOL    HW131253   2.120   1.644   2.971  1.8583  0.4026  3.2249
 6598SOL    HW231254   2.245   1.574   3.002  2.3148  0.9671 -2.3717
 6599SOL     OW31255   1.338   3.796   4.052  0.0619  0.1977  0.1151
 6599SOL    HW131256   1.372   3.849   4.124 -0.4734 -1.3457  1.4960
 6599SOL    HW231257   1.243   3.807   4.054 -0.0245  0.1686 -4.8195
 6600SOL     OW31258   0.282   2.889   6.501  0.8278  0.1307  0.7596
 6600SOL    HW131259   0.194   2.927   6.506  0.6200 -0.1602 -0.5065
 6600SOL    HW231260   0.333   2.970   6.506  2.0016 -0.4469 -1.4227
 6601SOL     OW31261   2.174   0.730   8.851 -0.3810 -0.2222 -0.5672
 6601SOL    HW131262   2.122   0.716   8.772  1.4960 -1.1729 -1.6472
 6601SOL    HW231263   2.131   0.672   8.914  0.5528 -1.9592 -1.5054
 6602SOL     OW31264   4.185   4.533  14.181  0.0251  0.1441 -0.2524
 6602SOL    HW131265   4.227   4.512  14.097  0.7717 -0.4833  0.2815
 6602SOL    HW231266   4.240   4.600  14.220  0.9839  0.1839 -1.6617
 6603SOL     OW31267   1.865   2.461   2.897  0.0715 -0.4069  0.1510
 6603SOL    HW131268   1.943   2.453   2.842  0.5680 -2.2763  1.1563
 6603SOL    HW231269   1.871   2.384   2.952  2.1449 -1.2742 -1.2996
 6604SOL     OW31270   3.643   4.001   0.785 -0.0717  0.1334  0.2814
 6604SOL    HW131271   3.685   3.915   0.778  1.4533  0.7902  1.4224
 6604SOL    HW231272   3.639   4.007   0.881 -1.3666  0.4667  0.1998
 6605SOL     OW31273   0.239   1.510   9.945 -0.2241 -0.4799  0.2330
 6605SOL    HW131274   0.241   1.434  10.004  0.7310 -0.3651  0.3484
 6605SOL    HW231275   0.253   1.464   9.862  0.8501  1.8946 -0.9052
 6606SOL     OW31276   3.441   3.348  13.331 -0.1302  0.3950 -0.2039
 6606SOL    HW131277   3.414   3.266  13.372 -0.2790  0.4504 -0.1894
 6606SOL    HW231278   3.369   3.370  13.272  0.9615  2.5669 -0.7422
 6607SOL     OW31279   2.973   2.138  16.507  0.1778  0.1075 -0.3686
 6607SOL    HW131280   2.935   2.057  16.539  0.1508  0.6075  0.8525
 6607SOL    HW231281   2.933   2.199  16.570 -2.8731  0.9333 -3.0993
 6608SOL     OW31282   2.710   2.324   0.836  1.1795 -0.0267  0.3393
 6608SOL    HW131283   2.696   2.231   0.854  0.5283 -0.3895 -2.0579
 6608SOL    HW231284   2.679   2.330   0.746  0.8417 -0.9781  0.3957
 6609SOL     OW31285   3.839   1.679  13.201  0.2680  0.0368  0.6387
 6609SOL    HW131286   3.820   1.628  13.122  0.9546  0.1747  0.3867
 6609SOL    HW231287   3.769   1.745  13.207 -0.4057 -0.6030 -0.1183
 6610SOL     OW31288   4.402   2.449   5.818  0.3198  0.2773  1.3838
 6610SOL    HW131289   4.307   2.458   5.832  0.3585  0.5347  1.4756
 6610SOL    HW231290   4.420   2.408   5.902  2.4019  1.2316  1.3960
 6611SOL     OW31291   3.579   4.246   2.779  0.3533 -0.5136 -0.5475
 6611SOL    HW131292   3.627   4.207   2.852 -0.9914  0.7298  0.9956
 6611SOL    HW231293   3.491   4.258   2.815 -0.0995 -1.8537 -1.2131
 6612SOL     OW31294   3.100   3.223   6.645  0.0311 -0.2588 -0.0552
 6612SOL    HW131295   3.188   3.228   6.607  1.0280 -2.5243  1.9950
 6612SOL    HW231296   3.131   3.250   6.732  1.0827 -1.2791 -0.1163
 6613SOL     OW31297   1.974   2.004  16.524 -0.1479 -0.0967 -0.3181
 6613SOL    HW131298   2.000   2.056  16.448 -2.1120 -0.5198 -1.2958
 6613SOL    HW231299   1.983   1.914  16.492 -0.7898 -1.5188  3.4737
 6614SOL     OW31300   4.399   0.900   8.575  0.8548  0.2212 -0.1571
 6614SOL    HW131301   4.390   0.987   8.536 -0.6508 -0.1219 -0.5830
 6614SOL    HW231302   4.454   0.855   8.511 -1.8027 -1.1254 -1.4984
 6615SOL     OW31303   0.468   3.095  10.640  0.4917 -0.3064 -0.3385
 6615SOL    HW131304   0.400   3.055  10.693 -0.8968 -0.3643 -2.1594
 6615SOL    HW231305   0.416   3.125  10.566 -0.5473 -1.7667 -0.1873
 6616SOL     OW31306   3.393   2.671   2.185  0.5206 -0.3355  0.1353
 6616SOL    HW131307   3.361   2.661   2.095  0.3342  0.8419  0.0669
 6616SOL    HW231308   3.337   2.600   2.216 -0.4722  0.4101  0.0556
 6617SOL     OW31309   2.500   3.840   2.588 -0.6025  0.8033  0.0652
 6617SOL    HW131310   2.495   3.810   2.498  2.2195 -1.1832  0.5624
 6617SOL    HW231311   2.484   3.757   2.633  0.5836  0.1201 -0.7851
 6618SOL     OW31312   3.581   1.454   6.132 -0.3549  0.4028  0.0207
 6618SOL    HW131313   3.519   1.503   6.078 -1.0072  0.0540  0.4563
 6618SOL    HW231314   3.544   1.486   6.214 -1.0914  2.2157 -1.0115
 6619SOL     OW31315   3.807   1.331   4.033 -0.2367 -0.1211  0.1227
 6619SOL    HW131316   3.896   1.309   4.004  0.3138 -0.8037  2.3176
 6619SOL    HW231317   3.821   1.401   4.096 -0.8665 -2.2604  2.6395
 6620SOL     OW31318   3.849   1.038   8.177 -0.9291 -0.3846  0.7407
 6620SOL    HW131319   3.935   1.078   8.192 -0.2245 -1.6431  0.0057
 6620SOL    HW231320   3.869   0.948   8.201  0.7822 -0.3426 -0.4849
 6621SOL     OW31321   1.975   0.035   3.978 -0.2171 -0.6356  0.1058
 6621SOL    HW131322   1.964   4.673   3.931 -3.0906 -0.4324  0.3887
 6621SOL    HW231323   2.061   0.030   4.018 -1.0581 -0.7619  1.8838
 6622SOL     OW31324   1.069   1.965   7.693  0.3698  0.0942 -0.4548
 6622SOL    HW131325   0.984   1.921   7.688 -0.6567  1.9052  0.8552
 6622SOL    HW231326   1.073   1.979   7.788 -0.6190  1.1997 -0.5783
 6623SOL     OW31327   2.536   1.852   9.104 -0.1436 -0.5368 -0.2844
 6623SOL    HW131328   2.458   1.886   9.060 -0.4332  0.5608  1.0631
 6623SOL    HW231329   2.535   1.769   9.057  0.0243 -0.7643  0.1135
 6624SOL     OW31330   1.579   0.568   7.148  0.2927  0.4705  1.1580
 6624SOL    HW131331   1.494   0.587   7.108  0.0730  1.0682  1.9149
 6624SOL    HW231332   1.610   0.658   7.143  2.0501 -0.2332 -0.2625
 6625SOL     OW31333   3.253   4.632   7.022  0.6852 -0.4375  0.2780
 6625SOL    HW131334   3.290   4.679   7.096  0.3263 -0.4512  0.4650
 6625SOL    HW231335   3.205   4.698   6.972  0.0056 -0.0606  1.4459
 6626SOL     OW31336   0.880   3.318  12.643 -0.5614  0.4885  0.6108
 6626SOL    HW131337   0.893   3.305  12.737  2.2203 -0.7546  0.0785
 6626SOL    HW231338   0.963   3.326  12.595 -1.1667 -2.2490 -0.9284
 6627SOL     OW31339   4.250   3.679   1.339  0.5546  0.3633  0.4698
 6627SOL    HW131340   4.208   3.631   1.411 -1.9953  1.7423 -0.0692
 6627SOL    HW231341   4.251   3.771   1.366 -0.7348  0.9573 -1.4795
 6628SOL     OW31342   4.421   1.988   9.074  0.2001  0.3140 -0.1455
 6628SOL    HW131343   4.387   1.909   9.032  0.0676  0.1710  0.2262
 6628SOL    HW231344   4.514   1.967   9.089  0.1465 -0.4195 -0.8590
 6629SOL     OW31345   3.211   1.148   6.370 -0.6385  0.0182  0.3079
 6629SOL    HW131346   3.222   1.058   6.401 -0.5746 -0.3346 -0.7515
 6629SOL    HW231347   3.226   1.200   6.449  0.3991  1.1805 -0.6680
 6630SOL     OW31348   1.165   2.361   4.930 -0.2979 -0.2525 -0.7640
 6630SOL    HW131349   1.246   2.384   4.884 -0.2637 -0.8058 -0.9790
 6630SOL    HW231350   1.177   2.405   5.015  0.3533 -0.6633 -0.6517
 6631SOL     OW31351   0.947   1.149   4.946  0.1322 -0.3890  0.1608
 6631SOL    HW131352   0.856   1.176   4.963 -0.3202 -1.4827 -0.5040
 6631SOL    HW231353   0.968   1.096   5.022 -1.0704 -0.2182  0.6100
 6632SOL     OW31354   1.864   4.564   4.877 -0.2412 -0.0331  0.1516
 6632SOL    HW131355   1.924   4.610   4.818 -0.9684 -0.1204 -0.6493
 6632SOL    HW231356   1.868   4.477   4.837 -1.0653  0.5861 -1.2785
 6633SOL     OW31357   1.990   1.735   3.045  0.1726 -0.5254 -0.0273
 6633SOL    HW131358   1.899   1.757   3.028  0.2099  0.7756  1.4998
 6633SOL    HW231359   2.004   1.747   3.139  0.0083 -0.1499 -0.0523
 6634SOL     OW31360   1.145   0.532   6.675  0.0961 -0.5966 -0.2208
 6634SOL    HW131361   1.071   0.550   6.733  1.6177 -0.0138  1.5679
 6634SOL    HW231362   1.122   0.587   6.601 -0.7107  0.6278  0.9375
 6635SOL     OW31363   3.841   1.736   1.685 -0.1049 -0.0864  0.0838
 6635SOL    HW131364   3.767   1.729   1.746  0.3198 -1.9089  0.3665
 6635SOL    HW231365   3.837   1.646   1.655 -0.6990 -0.8231  2.3985
 6636SOL     OW31366   2.844   2.998  15.464 -0.5786 -0.7823 -0.3573
 6636SOL    HW131367   2.897   2.962  15.393  0.7192 -0.6590  0.5435
 6636SOL    HW231368   2.754   2.993  15.430 -0.1111  4.9936 -2.4175
 6637SOL     OW31369   3.369   1.769   4.909 -0.1311  0.0691 -0.9220
 6637SOL    HW131370   3.372   1.752   5.003  2.1247  1.0936 -0.8008
 6637SOL    HW231371   3.429   1.705   4.872  1.3041  2.1777 -2.2104
 6638SOL     OW31372   3.426   0.301   4.221  0.3777 -0.4623  0.0590
 6638SOL    HW131373   3.447   0.362   4.149  0.0452 -3.2755 -2.4240
 6638SOL    HW231374   3.342   0.340   4.245  1.7431  3.6777 -1.7711
 6639SOL     OW31375   0.549   1.020   6.706  0.0609  0.0201  0.4953
 6639SOL    HW131376   0.581   0.965   6.635 -1.4456  1.0651 -0.9765
 6639SOL    HW231377   0.482   0.966   6.749  1.3729 -2.2435 -0.3251
 6640SOL     OW31378   1.724   2.661   5.790  0.3184 -0.8140  0.3032
 6640SOL    HW131379   1.787   2.592   5.770  1.7047  0.0019  1.9090
 6640SOL    HW231380   1.643   2.613   5.772 -0.3858  0.3927  0.2284
 6641SOL     OW31381   1.298   4.481   3.908  0.1563 -0.2014 -0.1690
 6641SOL    HW131382   1.343   4.399   3.887 -0.1712 -0.5974  0.6595
 6641SOL    HW231383   1.342   4.541   3.848 -0.1341  1.0404  0.8812
 6642SOL     OW31384   4.358   1.179   3.312 -0.4289 -0.3758 -0.6800
 6642SOL    HW131385   4.294   1.108   3.310 -0.8374  0.0035 -1.1009
 6642SOL    HW231386   4.385   1.182   3.220 -0.5733  2.3932 -0.6229
 6643SOL     OW31387   1.893   4.330   5.218  0.0370 -0.2869 -0.8403
 6643SOL    HW131388   1.938   4.248   5.238 -2.2678 -1.1305  0.8212
 6643SOL    HW231389   1.942   4.365   5.143  2.7300 -0.6441  0.7399
 6644SOL     OW31390   3.266   0.791  10.469  0.2095  0.1285  0.1916
 6644SOL    HW131391   3.258   0.699  10.496  0.8879 -0.0664 -0.2740
 6644SOL    HW231392   3.235   0.782  10.379  0.5983 -1.6371  0.2281
 6645SOL     OW31393   1.307   1.505   5.119 -0.8926  0.5218 -0.5635
 6645SOL    HW131394   1.341   1.570   5.059  2.4298 -1.5408 -0.8836
 6645SOL    HW231395   1.293   1.555   5.199  0.2048 -1.8599  1.1309
 6646SOL     OW31396   0.037   2.056   5.214 -0.1226  0.1150  0.2611
 6646SOL    HW131397   0.085   2.134   5.241  0.0785 -0.8564  2.6338
 6646SOL    HW231398   0.070   1.987   5.272  0.9954  2.0143  1.8855
 6647SOL     OW31399   0.406   3.683   7.211  0.2239  0.0630 -0.2178
 6647SOL    HW131400   0.473   3.750   7.222 -0.3847  0.3431  1.7547
 6647SOL    HW231401   0.458   3.614   7.170 -0.5877 -1.3467  1.1066
 6648SOL     OW31402   4.450   2.876   3.200  0.0807 -0.3561 -0.7099
 6648SOL    HW131403   4.486   2.936   3.264  1.8733 -0.3334 -1.7334
 6648SOL    HW231404   4.532   2.833   3.177 -1.3072 -2.7581 -1.2588
 6649SOL     OW31405   4.031   2.897   6.916 -0.4934 -0.0978  0.0147
 6649SOL    HW131406   3.996   2.986   6.910  0.6616  0.4835  1.8530
 6649SOL    HW231407   3.990   2.855   6.841 -0.5525  0.1741 -0.1036
 6650SOL     OW31408   1.793   4.240  13.161  0.3253 -0.1744 -0.1357
 6650SOL    HW131409   1.846   4.162  13.146  1.2791  0.1496  1.6178
 6650SOL    HW231410   1.706   4.212  13.132 -0.2950  2.6523 -1.0064
 6651SOL     OW31411   0.808   1.586   8.683  0.8285  0.1368 -0.4339
 6651SOL    HW131412   0.844   1.658   8.735 -1.8011  1.6164 -0.6487
 6651SOL    HW231413   0.715   1.608   8.687  0.7329 -0.9868  3.4967
 6652SOL     OW31414   3.585   0.917   9.736  0.4518 -0.1211 -0.2870
 6652SOL    HW131415   3.598   0.830   9.773 -1.0189  0.5143  1.7199
 6652SOL    HW231416   3.493   0.908   9.713 -0.1418  0.1009  1.9331
 6653SOL     OW31417   2.375   4.612  10.515  0.2482 -0.0280  0.1347
 6653SOL    HW131418   2.413   4.700  10.513  1.2561 -0.4390  0.9254
 6653SOL    HW231419   2.349   4.594  10.424  0.7599  2.1868 -0.4387
 6654SOL     OW31420   4.129   3.318   6.065 -0.3414 -0.3357  0.2755
 6654SOL    HW131421   4.102   3.251   6.128 -2.6672  1.1969  0.9413
 6654SOL    HW231422   4.152   3.253   5.999 -1.0190 -0.4688  0.1712
 6655SOL     OW31423   1.177   0.803   0.673  0.0334 -0.3424  0.1493
 6655SOL    HW131424   1.083   0.793   0.655  0.3534 -3.1898  0.1271
 6655SOL    HW231425   1.215   0.734   0.620 -0.9953 -0.6170 -0.2348
 6656SOL     OW31426   3.718   2.426  13.201  0.1914 -0.3786 -0.0635
 6656SOL    HW131427   3.757   2.339  13.192  1.3028  0.0149  1.0065
 6656SOL    HW231428   3.753   2.478  13.128 -0.5762 -1.0819 -0.9368
 6657SOL     OW31429   4.162   2.714   6.314 -0.2629  0.0364 -0.7132
 6657SOL    HW131430   4.107   2.792   6.310 -0.1711  0.0864 -0.9771
 6657SOL    HW231431   4.208   2.707   6.231  1.9004  0.9786  0.3914
 6658SOL     OW31432   4.292   4.311   0.822  0.1943  1.2243  0.0803
 6658SOL    HW131433   4.259   4.232   0.864  1.6896 -0.3654 -1.7630
 6658SOL    HW231434   4.280   4.281   0.732  3.6634  0.0353  0.0321
 6659SOL     OW31435   0.731   4.175   5.527  0.1611 -0.0674 -0.2624
 6659SOL    HW131436   0.805   4.224   5.491  0.1206  0.0238 -0.2212
 6659SOL    HW231437   0.746   4.088   5.491  0.2594  0.2937 -1.0935
 6660SOL     OW31438   1.604   4.649   2.248 -0.8220  0.3479 -0.4585
 6660SOL    HW131439   1.528   4.691   2.288 -0.3823 -0.7275  1.5155
 6660SOL    HW231440   1.573   4.558   2.252  0.9289 -0.1581  1.1276
 6661SOL     OW31441   3.268   3.100   5.220  0.1218  0.6527 -0.2484
 6661SOL    HW131442   3.215   3.055   5.154 -0.0800  1.0306 -0.3427
 6661SOL    HW231443   3.348   3.053   5.196  0.2388  1.3472 -1.2434
 6662SOL     OW31444   1.903   4.348   4.487 -0.5070  0.4501 -0.3502
 6662SOL    HW131445   1.854   4.410   4.540 -0.5653  0.3491 -0.2869
 6662SOL    HW231446   1.920   4.414   4.420  0.4546 -2.3611 -2.8651
 6663SOL     OW31447   0.811   0.017   4.514 -0.0043  0.1934 -0.3140
 6663SOL    HW131448   0.903   0.029   4.535  0.1044  0.7012 -1.0866
 6663SOL    HW231449   0.820   4.667   4.450  0.0034 -0.7843  0.7548
 6664SOL     OW31450   3.955   3.803   6.547 -0.4440  0.5559  0.4029
 6664SOL    HW131451   3.902   3.800   6.467  1.3570  1.9377 -0.8443
 6664SOL    HW231452   4.041   3.787   6.507 -0.5497 -0.1010  0.4371
 6665SOL     OW31453   3.558   3.208   2.006  0.2114 -0.3913 -0.1382
 6665SOL    HW131454   3.650   3.219   1.980  0.2688 -1.6228 -0.4766
 6665SOL    HW231455   3.533   3.295   2.035  1.3626 -0.3591  0.7734
 6666SOL     OW31456   0.205   1.847   7.593 -0.1659 -0.0742 -0.4189
 6666SOL    HW131457   0.285   1.883   7.631 -1.2958  2.0949 -0.0688
 6666SOL    HW231458   0.139   1.917   7.595 -0.3883 -0.3667  3.1231
 6667SOL     OW31459   3.373   0.384  11.267  0.0097 -0.1856  0.1977
 6667SOL    HW131460   3.434   0.409  11.336  0.0392 -0.9972  0.4736
 6667SOL    HW231461   3.431   0.319  11.225 -1.2460 -0.9757 -0.3190
 6668SOL     OW31462   0.970   3.120   6.491  0.0290  0.1440 -0.2982
 6668SOL    HW131463   0.878   3.124   6.463  0.0982 -2.4922 -0.8960
 6668SOL    HW231464   0.997   3.066   6.417 -1.4067 -1.8569  0.6258
 6669SOL     OW31465   0.013   2.955   9.050 -0.2047 -0.4934  0.2054
 6669SOL    HW131466   0.100   2.930   9.020 -0.8978 -0.2796 -1.9890
 6669SOL    HW231467   0.010   3.048   9.074  2.1744 -0.4699  0.4364
 6670SOL     OW31468   3.022   1.932   4.657  0.6721  0.3614 -0.7211
 6670SOL    HW131469   3.052   1.844   4.633  0.7485  0.5972 -1.4733
 6670SOL    HW231470   2.932   1.914   4.682  1.4331 -0.3276  1.5162
 6671SOL     OW31471   3.950   3.958   6.974  0.2205 -0.2270 -0.5286
 6671SOL    HW131472   3.910   4.045   6.978  0.3537 -0.1666 -0.4990
 6671SOL    HW231473   4.015   3.976   6.906 -1.6807  0.9851 -2.0083
 6672SOL     OW31474   4.115   4.439   8.994  0.1391 -0.6175 -0.0286
 6672SOL    HW131475   4.208   4.432   9.014 -0.1654 -1.8376  0.9154
 6672SOL    HW231476   4.096   4.525   9.034  0.3033 -0.4536 -0.3019
 6673SOL     OW31477   3.483   2.945   4.820  0.1106  0.4501  0.0446
 6673SOL    HW131478   3.458   3.032   4.789  0.2328  0.8960  1.1960
 6673SOL    HW231479   3.568   2.937   4.778  1.2616  2.2131  2.0617
 6674SOL     OW31480   2.079   3.131   6.212  0.3309  0.3468 -0.0377
 6674SOL    HW131481   2.164   3.116   6.172  0.3834 -0.5119  0.3866
 6674SOL    HW231482   2.029   3.051   6.193  0.9228 -0.1295  0.4050
 6675SOL     OW31483   1.375   0.408   2.864  0.3908 -0.5998  0.1229
 6675SOL    HW131484   1.298   0.449   2.823  0.0169 -1.2922  0.1347
 6675SOL    HW231485   1.396   0.345   2.796  0.3043  0.5571 -0.9701
 6676SOL     OW31486   0.214   3.867   4.553 -0.3902 -0.3209 -0.7858
 6676SOL    HW131487   0.213   3.962   4.548  2.8918 -0.1958  1.0586
 6676SOL    HW231488   0.193   3.846   4.644  0.5997  2.6193  0.0954
 6677SOL     OW31489   0.809   0.528   0.388 -0.1548 -0.0230  0.2790
 6677SOL    HW131490   0.730   0.485   0.356 -0.1138 -1.4895  2.1622
 6677SOL    HW231491   0.799   0.523   0.483 -0.7255  2.8295  0.3543
 6678SOL     OW31492   2.613   2.483   2.774  0.0780  0.2268 -0.1820
 6678SOL    HW131493   2.561   2.562   2.788 -0.7481 -0.1146 -1.3038
 6678SOL    HW231494   2.548   2.423   2.809  3.5427 -2.3486  1.8622
 6679SOL     OW31495   2.299   3.903   1.631 -0.1875 -0.1907  0.0763
 6679SOL    HW131496   2.318   3.967   1.699  0.5795  0.9023 -1.1676
 6679SOL    HW231497   2.264   3.956   1.560  1.3781  0.9742  0.1749
 6680SOL     OW31498   4.068   3.219   0.446  0.1875  0.6404 -0.1917
 6680SOL    HW131499   4.123   3.149   0.480 -2.0987 -0.6191  0.9267
 6680SOL    HW231500   4.094   3.229   0.355 -1.9416 -0.1059 -0.8832
 6681SOL     OW31501   1.780   1.907   6.669  0.2363  0.1471 -0.4224
 6681SOL    HW131502   1.842   1.835   6.661 -0.3856 -0.3603 -0.7017
 6681SOL    HW231503   1.797   1.927   6.761  2.5865 -2.8920 -0.1920
 6682SOL     OW31504   0.910   4.460   5.985 -0.5535  0.7487 -0.1936
 6682SOL    HW131505   0.981   4.429   6.041 -0.0420  0.0356 -1.2456
 6682SOL    HW231506   0.850   4.394   6.017 -0.1313  0.7370  0.5777
 6683SOL     OW31507   1.168   3.086   3.974  0.2466 -0.2620 -0.4509
 6683SOL    HW131508   1.262   3.069   3.976  0.2524 -0.1077  0.4829
 6683SOL    HW231509   1.139   3.015   3.917  0.6418  0.2975 -1.3393
 6684SOL     OW31510   2.911   4.681   6.142 -0.4202  0.0816 -0.3674
 6684SOL    HW131511   2.819   4.706   6.148 -0.6636 -0.6876 -0.9201
 6684SOL    HW231512   2.955   0.037   6.107 -1.7265 -0.0903 -2.3907
 6685SOL     OW31513   2.585   3.402   7.471  0.1408  0.2823  0.7335
 6685SOL    HW131514   2.509   3.345   7.482 -1.1794  2.2654  1.8218
 6685SOL    HW231515   2.649   3.344   7.429  0.3799  1.7320 -0.8486
 6686SOL     OW31516   2.457   3.971   8.093  0.4274  0.2139 -0.0858
 6686SOL    HW131517   2.535   3.968   8.148  1.6049 -0.7925 -1.8227
 6686SOL    HW231518   2.409   3.892   8.119 -0.1814  0.1113 -1.5214
 6687SOL     OW31519   4.501   2.620   1.509 -0.6058 -0.2030  0.7058
 6687SOL    HW131520   4.542   2.703   1.484  1.0394 -0.8894  1.1420
 6687SOL    HW231521   4.427   2.655   1.560 -1.1226 -2.4003  1.4444
 6688SOL     OW31522   4.275   2.082  11.454 -0.3592  0.3040  0.4199
 6688SOL    HW131523   4.330   2.089  11.377  0.7125  0.2772  1.1845
 6688SOL    HW231524   4.226   2.000  11.446 -0.6991  0.6181 -0.7064
 6689SOL     OW31525   3.415   2.132   1.923 -0.7179  0.7146  0.0890
 6689SOL    HW131526   3.344   2.167   1.869 -0.6619  1.0538  0.2355
 6689SOL    HW231527   3.489   2.132   1.862 -1.1598  0.4960 -0.4518
 6690SOL     OW31528   2.346   1.713   9.821  0.3052  0.2096 -0.1845
 6690SOL    HW131529   2.327   1.753   9.906  2.9384  0.9575  0.0838
 6690SOL    HW231530   2.264   1.738   9.778 -0.9475 -0.9955  1.5235
 6691SOL     OW31531   2.796   2.272   6.342  0.3225  0.7177  0.3597
 6691SOL    HW131532   2.844   2.287   6.423  1.0374  0.5188 -0.0272
 6691SOL    HW231533   2.745   2.352   6.326 -0.1299  0.4919  0.6580
 6692SOL     OW31534   2.680   0.414   7.024  0.2650 -0.3130  0.1680
 6692SOL    HW131535   2.686   0.392   7.117  0.4698  1.9798  0.6996
 6692SOL    HW231536   2.585   0.417   7.015  0.2815 -0.0898  0.0459
 6693SOL     OW31537   1.683   2.126  12.971  0.1907 -0.4773  0.1918
 6693SOL    HW131538   1.771   2.144  12.936 -0.1177 -0.7865 -0.7566
 6693SOL    HW231539   1.627   2.148  12.897 -1.0937  0.3927  1.4327
 6694SOL     OW31540   1.888   1.077   4.254  0.2605 -0.3417  0.0975
 6694SOL    HW131541   1.958   1.142   4.244  1.4687 -1.6789 -0.1930
 6694SOL    HW231542   1.877   1.057   4.161 -0.9083 -0.3379  0.2404
 6695SOL     OW31543   1.235   2.008   2.268  0.4484 -0.3463 -0.3973
 6695SOL    HW131544   1.305   2.024   2.205 -1.4285 -0.5323 -2.5272
 6695SOL    HW231545   1.281   1.979   2.346  0.7497 -0.2543 -0.5411
 6696SOL     OW31546   1.417   0.259   2.634 -0.0323  0.2796 -0.2270
 6696SOL    HW131547   1.420   0.267   2.539 -1.7235 -0.0355 -0.3207
 6696SOL    HW231548   1.496   0.206   2.645 -1.1458 -0.5151  3.8879
 6697SOL     OW31549   0.957   0.276  12.293  0.2165 -0.0620  0.5146
 6697SOL    HW131550   1.034   0.313  12.336 -0.2439 -0.0193  1.3089
 6697SOL    HW231551   0.913   0.250  12.374 -1.4824  0.4224 -0.2667
 6698SOL     OW31552   3.413   0.195  12.124 -0.0121 -0.6551  0.7507
 6698SOL    HW131553   3.508   0.207  12.129 -0.1753 -0.1758  2.5654
 6698SOL    HW231554   3.393   0.112  12.168  0.9303 -0.9020  0.7303
 6699SOL     OW31555   0.940   3.986   8.448  0.8377 -0.0116 -0.2024
 6699SOL    HW131556   0.908   3.896   8.440  1.2687 -0.1300 -0.6568
 6699SOL    HW231557   0.893   4.015   8.526  0.1617 -0.3648 -0.4858
 6700SOL     OW31558   4.627   1.527   5.280 -0.0612 -0.5261 -0.5984
 6700SOL    HW131559   4.678   1.450   5.254  0.2494 -0.3161 -0.6063
 6700SOL    HW231560   4.645   1.524   5.374 -3.4100 -0.2685  0.0454
 6701SOL     OW31561   2.797   1.776   2.761  0.3081 -0.2568 -0.2660
 6701SOL    HW131562   2.748   1.777   2.843 -0.6694  0.6288 -0.8465
 6701SOL    HW231563   2.766   1.857   2.718 -0.0208 -0.1847  0.1004
 6702SOL     OW31564   4.170   4.061  12.607 -0.2407 -0.3620 -0.2098
 6702SOL    HW131565   4.228   3.987  12.626  0.5966 -0.0298 -1.5105
 6702SOL    HW231566   4.137   4.029  12.523  3.0953  2.2871 -2.4932
 6703SOL     OW31567   0.472   4.196  14.150  0.2962  0.5193  0.2823
 6703SOL    HW131568   0.553   4.156  14.119  0.3695  0.6456  0.3125
 6703SOL    HW231569   0.432   4.122  14.198  2.1745  0.0558  1.1245
 6704SOL     OW31570   3.121   0.622   3.167  0.0991 -0.4662 -0.2791
 6704SOL    HW131571   3.118   0.549   3.105 -0.7059  0.1430 -0.9659
 6704SOL    HW231572   3.215   0.623   3.186  0.1434 -1.6849 -0.4255
 6705SOL     OW31573   0.006   2.753   7.808  0.1552  0.4130  0.0427
 6705SOL    HW131574   0.001   2.687   7.877  0.8576  1.2942  0.9559
 6705SOL    HW231575   0.055   2.825   7.849 -1.3912  0.7279  1.3196
 6706SOL     OW31576   0.779   1.825   9.436 -0.2872 -0.2327  0.5085
 6706SOL    HW131577   0.765   1.732   9.417  0.1487 -0.1540 -0.1604
 6706SOL    HW231578   0.784   1.863   9.349 -2.1546  1.5002  1.1468
 6707SOL     OW31579   1.566   4.555  10.375  0.0417  0.2668 -0.3030
 6707SOL    HW131580   1.551   4.467  10.409 -0.6146  1.2476  1.9396
 6707SOL    HW231581   1.480   4.594  10.392  0.0064  0.6658 -1.4222
 6708SOL     OW31582   1.595   2.370   2.503  0.5254  0.0571 -0.1055
 6708SOL    HW131583   1.637   2.414   2.429  0.3388 -2.3260 -1.6327
 6708SOL    HW231584   1.613   2.442   2.564 -1.1086 -0.2124  0.6821
 6709SOL     OW31585   0.798   0.593  12.530 -0.4638 -0.5342  0.6023
 6709SOL    HW131586   0.718   0.588  12.582  0.0419 -2.2077  1.2403
 6709SOL    HW231587   0.783   0.510  12.483 -0.5791 -0.2204  0.0876
 6710SOL     OW31588   0.939   1.820   8.045  0.0257  0.0758 -0.0254
 6710SOL    HW131589   0.954   1.757   7.974 -0.8997 -0.6432  0.4177
 6710SOL    HW231590   0.892   1.757   8.100  1.3837 -1.3971 -0.5384
 6711SOL     OW31591   3.533   1.483   6.453 -0.2885 -0.0480 -0.1946
 6711SOL    HW131592   3.574   1.425   6.517 -2.0918  0.3393  1.3095
 6711SOL    HW231593   3.586   1.561   6.466  1.9546 -1.7231  0.7553
 6712SOL     OW31594   1.590   0.321   9.218 -0.1503 -0.0549 -0.2375
 6712SOL    HW131595   1.675   0.343   9.256 -0.4393  0.5139  0.0781
 6712SOL    HW231596   1.614   0.232   9.193 -0.9242 -0.0725 -0.8904
 6713SOL     OW31597   0.965   3.612   7.691 -0.3349  0.1730 -0.1583
 6713SOL    HW131598   0.911   3.537   7.714 -0.3379 -0.0906 -1.0163
 6713SOL    HW231599   1.051   3.587   7.725  0.7193  1.2231 -2.0574
 6714SOL     OW31600   0.387   1.131   5.784 -0.1242  0.6601  0.3074
 6714SOL    HW131601   0.370   1.133   5.690 -1.1345  1.9795  0.5156
 6714SOL    HW231602   0.310   1.090   5.824  1.0640 -2.8516 -1.0198
 6715SOL     OW31603   4.457   4.633   3.814  0.2766  0.3937  0.1783
 6715SOL    HW131604   4.533   4.601   3.766  0.3733  1.3673 -0.3139
 6715SOL    HW231605   4.387   4.627   3.749  1.6704 -0.4171 -1.2196
 6716SOL     OW31606   0.193   0.954   7.957  0.5472  0.4266 -0.3618
 6716SOL    HW131607   0.235   0.949   7.871  2.4497  0.4359  0.5617
 6716SOL    HW231608   0.113   0.903   7.943  0.3818  0.9645 -1.4037
 6717SOL     OW31609   0.185   2.305   5.300  0.1177 -0.3528  0.5778
 6717SOL    HW131610   0.255   2.247   5.330 -1.5355 -2.3844  0.4860
 6717SOL    HW231611   0.187   2.373   5.367 -1.7029  0.3628 -0.0970
 6718SOL     OW31612   4.519   3.133   4.687  0.3761  0.3253  0.3310
 6718SOL    HW131613   4.429   3.115   4.714 -0.0200 -1.8330 -2.4749
 6718SOL    HW231614   4.516   3.224   4.658 -2.2874 -0.3356 -1.4517
 6719SOL     OW31615   3.704   1.555   0.772  0.0157  0.8177  0.6118
 6719SOL    HW131616   3.684   1.647   0.755 -4.4131 -0.2945 -0.1929
 6719SOL    HW231617   3.797   1.552   0.749 -0.2164  1.0790 -0.3455
 6720SOL     OW31618   1.467   2.806   4.246 -1.2135 -0.1465 -0.5855
 6720SOL    HW131619   1.534   2.835   4.307  0.0058 -1.7853 -1.1557
 6720SOL    HW231620   1.387   2.850   4.273 -0.2264  0.7754  0.7967
 6721SOL     OW31621   2.586   2.111   9.217 -0.3781 -0.2241  0.0712
 6721SOL    HW131622   2.587   2.016   9.201 -2.5277 -0.0197 -1.2925
 6721SOL    HW231623   2.676   2.125   9.245 -0.7213  1.2960  0.4070
 6722SOL     OW31624   0.778   4.453   5.148  0.1438 -0.0012  0.0761
 6722SOL    HW131625   0.849   4.517   5.144 -0.3244  0.5322  0.2744
 6722SOL    HW231626   0.710   4.497   5.199 -0.8244 -1.5836  0.1517
 6723SOL     OW31627   1.456   3.221  10.409  0.2898  0.2042  0.1477
 6723SOL    HW131628   1.401   3.143  10.421 -1.0966  1.4242  1.7965
 6723SOL    HW231629   1.420   3.241  10.323  0.3712  1.8532  0.4823
 6724SOL     OW31630   2.594   1.672   8.041 -0.1564 -0.1883 -0.0517
 6724SOL    HW131631   2.605   1.592   8.091 -2.0767 -0.0735  0.5648
 6724SOL    HW231632   2.502   1.661   8.016  0.0638 -2.8657  0.3892
 6725SOL     OW31633   4.044   1.619   2.326  0.0519  0.1759 -0.5518
 6725SOL    HW131634   4.050   1.664   2.242  1.9006  1.3837  0.2080
 6725SOL    HW231635   4.053   1.526   2.305 -0.1927  0.1779 -0.6590
 6726SOL     OW31636   1.528   1.052  11.029 -0.2680  0.8271 -0.0180
 6726SOL    HW131637   1.560   0.999  11.102 -0.6148 -0.9608 -1.1818
 6726SOL    HW231638   1.543   1.142  11.057  2.1481  0.4575 -0.1238
 6727SOL     OW31639   4.137   4.283   1.852 -0.0096  0.3172 -0.6555
 6727SOL    HW131640   4.229   4.256   1.843 -0.6779 -1.8846 -1.0379
 6727SOL    HW231641   4.113   4.307   1.763 -1.4860  0.1978 -0.2821
 6728SOL     OW31642   3.199   0.426   1.428 -0.2683 -0.0058 -0.3044
 6728SOL    HW131643   3.237   0.512   1.444 -0.6346  0.1851 -0.4697
 6728SOL    HW231644   3.270   0.372   1.394  0.5408 -0.2005  1.6943
 6729SOL     OW31645   2.529   0.821   9.641  0.0280 -0.7024  0.5388
 6729SOL    HW131646   2.574   0.784   9.717  0.9167 -1.3565 -0.2934
 6729SOL    HW231647   2.577   0.903   9.644 -2.6338  0.8471  0.6220
 6730SOL     OW31648   2.224   3.029   8.390  0.6490 -0.1044 -0.4615
 6730SOL    HW131649   2.161   2.968   8.350  2.0924 -1.4476 -0.7032
 6730SOL    HW231650   2.286   3.044   8.318 -0.6025  2.2528 -1.0358
 6731SOL     OW31651   2.467   0.012   5.070  0.0310  0.6146  0.1418
 6731SOL    HW131652   2.459   0.081   5.004 -3.7391  0.6591  0.6448
 6731SOL    HW231653   2.547   4.688   5.042 -0.6438  0.3587 -1.4022
 6732SOL     OW31654   1.720   2.265   4.170 -0.3949 -0.6567 -0.2488
 6732SOL    HW131655   1.665   2.187   4.157  0.1479 -0.6493 -2.5573
 6732SOL    HW231656   1.747   2.261   4.262  1.1741  1.1030 -0.6432
 6733SOL     OW31657   0.970   1.834  13.018  0.1024  0.2269 -0.5194
 6733SOL    HW131658   0.934   1.765  12.962  3.4901 -1.5181 -0.5569
 6733SOL    HW231659   1.049   1.855  12.969  0.3609 -0.5482 -0.4371
 6734SOL     OW31660   3.690   3.262   4.774  0.5247  0.2140  0.6831
 6734SOL    HW131661   3.750   3.266   4.699  0.9133  2.8415  1.1529
 6734SOL    HW231662   3.752   3.282   4.844 -0.2151  0.2354  1.3218
 6735SOL     OW31663   2.044   3.844   3.850  0.8813 -0.4367 -0.2945
 6735SOL    HW131664   2.076   3.819   3.937  0.6738 -0.0765 -0.1143
 6735SOL    HW231665   1.951   3.864   3.861  1.4218  1.8887  0.2388
 6736SOL     OW31666   1.184   3.935   2.342  0.2257 -0.2564 -0.1731
 6736SOL    HW131667   1.139   3.928   2.258  0.0765 -0.8898 -0.0394
 6736SOL    HW231668   1.265   3.979   2.316  0.5768 -1.5396 -1.2128
 6737SOL     OW31669   0.772   3.699   2.570 -0.4330 -0.1739  0.0584
 6737SOL    HW131670   0.739   3.687   2.481  2.1888 -1.1179 -0.8069
 6737SOL    HW231671   0.852   3.648   2.554 -0.3448 -0.2710  0.7995
 6738SOL     OW31672   0.817   1.101   3.848 -0.2459  0.2023  0.4631
 6738SOL    HW131673   0.897   1.149   3.870 -1.4103  1.3617  2.1671
 6738SOL    HW231674   0.813   1.110   3.753  2.1542 -0.6539  0.2940
 6739SOL     OW31675   2.929   0.855   7.299  0.5290  0.0478 -0.2730
 6739SOL    HW131676   2.933   0.762   7.320 -1.8524  0.0711  0.3027
 6739SOL    HW231677   2.844   0.867   7.341 -0.2975 -0.6520 -1.7177
 6740SOL     OW31678   4.389   0.867   0.012  0.1437  0.3272  0.4198
 6740SOL    HW131679   4.444   0.877   0.090  1.0947  0.6825 -0.2937
 6740SOL    HW231680   4.456   0.860  17.630  1.8316 -0.1572  2.1497
 6741SOL     OW31681   2.826   0.708   5.345 -0.2513 -0.1337 -0.4534
 6741SOL    HW131682   2.754   0.723   5.283 -1.0655  0.5771  0.6860
 6741SOL    HW231683   2.877   0.787   5.327 -0.1023  0.0296  0.7479
 6742SOL     OW31684   1.888   3.617   2.551  0.1763  0.0001  0.2735
 6742SOL    HW131685   1.877   3.554   2.479  0.3736 -0.0446  0.2834
 6742SOL    HW231686   1.872   3.702   2.510 -0.9424  0.0519  0.8070
 6743SOL     OW31687   1.122   2.626   0.663 -0.2079 -0.9376 -0.2294
 6743SOL    HW131688   1.204   2.645   0.618 -1.1102  1.6521 -0.7590
 6743SOL    HW231689   1.066   2.620   0.586 -0.9709 -1.4197  0.3584
 6744SOL     OW31690   2.274   1.808   5.488 -0.0007 -0.3945  0.1263
 6744SOL    HW131691   2.237   1.887   5.450  2.2577  0.5218 -0.1849
 6744SOL    HW231692   2.246   1.824   5.578  2.0778  2.6122  0.2381
 6745SOL     OW31693   0.808   2.474   4.699 -0.5064 -0.0594  0.5019
 6745SOL    HW131694   0.826   2.412   4.770 -0.8829 -1.7984 -0.9332
 6745SOL    HW231695   0.717   2.451   4.681  0.5217 -0.1680 -4.5662
 6746SOL     OW31696   2.290   2.575   2.247  1.1013  0.0745  0.0462
 6746SOL    HW131697   2.337   2.636   2.190 -0.2746  0.5382 -0.5893
 6746SOL    HW231698   2.229   2.525   2.194  0.1407 -0.0591  1.2626
 6747SOL     OW31699   3.523   2.220  15.293 -0.3695  0.2041  0.3937
 6747SOL    HW131700   3.578   2.265  15.228  0.3080 -0.9009  0.2008
 6747SOL    HW231701   3.443   2.272  15.304 -0.7471 -0.0217 -1.3006
 6748SOL     OW31702   3.201   3.454   4.223  0.1933  0.4884 -0.9346
 6748SOL    HW131703   3.143   3.456   4.298  1.1914 -1.2238 -0.1004
 6748SOL    HW231704   3.248   3.538   4.228  0.8037 -0.0673  2.3571
 6749SOL     OW31705   2.613   4.330   7.174  0.1749 -0.1948  0.0051
 6749SOL    HW131706   2.520   4.321   7.195  0.4038 -0.1983  0.9997
 6749SOL    HW231707   2.643   4.420   7.188  0.2555 -0.0339 -1.1423
 6750SOL     OW31708   2.123   0.105   9.562 -0.5956 -0.1194 -0.2217
 6750SOL    HW131709   2.164   0.188   9.539 -1.9976  0.7572  0.3876
 6750SOL    HW231710   2.038   0.131   9.599  0.5342 -1.1602  2.9937
 6751SOL     OW31711   0.062   2.847  15.063 -0.2599 -0.6607  0.3302
 6751SOL    HW131712   0.130   2.801  15.113  0.0875  1.4823  1.8143
 6751SOL    HW231713   0.120   2.899  15.007 -0.3165 -2.1235 -1.1012
 6752SOL     OW31714   2.891   1.400   7.498 -0.4064  0.2552 -0.4488
 6752SOL    HW131715   2.863   1.336   7.564 -0.3327  0.9379  0.2518
 6752SOL    HW231716   2.955   1.341   7.458  1.4846  1.5572  0.6785
 6753SOL     OW31717   2.779   2.822   5.771  0.5395  0.2405 -0.6150
 6753SOL    HW131718   2.786   2.918   5.769 -0.9985  0.4304  1.8426
 6753SOL    HW231719   2.683   2.816   5.771  0.5657 -0.2415  1.3025
 6754SOL     OW31720   0.161   0.030   9.987 -0.1473  0.0859 -0.7921
 6754SOL    HW131721   0.067   0.014   9.976 -0.1386  0.8242 -1.9418
 6754SOL    HW231722   0.176   0.049  10.080  0.2408 -3.1530 -0.1957
 6755SOL     OW31723   0.323   4.467   7.884  0.3395 -0.1135 -0.3740
 6755SOL    HW131724   0.366   4.425   7.959 -1.6262  0.3989  1.0616
 6755SOL    HW231725   0.402   4.471   7.831  0.8818  1.5282  0.5750
 6756SOL     OW31726   3.848   4.420   3.086  0.0785 -0.5971  0.2968
 6756SOL    HW131727   3.897   4.338   3.090  3.6170  1.4348 -2.2130
 6756SOL    HW231728   3.827   4.435   2.994  1.0172 -2.0570 -0.1441
 6757SOL     OW31729   4.608   1.251   2.363 -0.2823  0.0065 -0.0099
 6757SOL    HW131730   4.669   1.267   2.435  1.4472 -1.6438 -1.0913
 6757SOL    HW231731   4.562   1.174   2.396 -1.9335 -0.0936 -2.4975
 6758SOL     OW31732   1.915   3.895  16.686 -0.1800 -0.2623 -0.2956
 6758SOL    HW131733   1.990   3.924  16.737 -1.0395  0.1393  0.7379
 6758SOL    HW231734   1.847   3.898  16.753  0.4271 -0.3844  0.3133
 6759SOL     OW31735   4.137   2.928   5.821  0.0102  0.2937  0.1202
 6759SOL    HW131736   4.190   2.899   5.746 -0.2950 -2.2158  0.8589
 6759SOL    HW231737   4.203   2.973   5.874 -0.7767 -0.5310  1.7908
 6760SOL     OW31738   1.072   0.549   2.407  0.3074 -0.4684 -0.0108
 6760SOL    HW131739   1.106   0.493   2.338  3.0042  2.2318 -0.8297
 6760SOL    HW231740   0.986   0.505   2.414  0.4587 -0.8211 -0.3748
 6761SOL     OW31741   3.685   1.414   7.295  0.3247  0.5474  0.8795
 6761SOL    HW131742   3.590   1.429   7.300  0.0634 -1.1103  0.8175
 6761SOL    HW231743   3.709   1.428   7.203 -0.6191 -0.4687  0.4811
 6762SOL     OW31744   1.337   4.231  13.884 -0.4522 -0.0783 -0.4761
 6762SOL    HW131745   1.311   4.142  13.861  0.2398 -0.8655  1.7764
 6762SOL    HW231746   1.268   4.284  13.844  0.3599  1.3345 -0.0256
 6763SOL     OW31747   1.350   3.154   6.787  0.4978  0.1037 -0.2051
 6763SOL    HW131748   1.313   3.242   6.785  1.1308  0.3644 -0.3400
 6763SOL    HW231749   1.440   3.170   6.817  1.2251 -1.3714 -1.5618
 6764SOL     OW31750   0.633   2.131   2.352 -0.0636  0.6372 -0.2838
 6764SOL    HW131751   0.586   2.054   2.383  0.0037  0.6547 -0.1382
 6764SOL    HW231752   0.713   2.114   2.403 -0.4124  0.8451  0.3344
 6765SOL     OW31753   3.416   1.041   3.310 -0.6820  0.6014 -0.4785
 6765SOL    HW131754   3.323   1.055   3.330 -0.6572  2.2961 -1.5083
 6765SOL    HW231755   3.442   1.115   3.254 -3.0775  1.0293 -1.0600
 6766SOL     OW31756   0.195   0.825   1.701 -0.5080  0.7227  0.2701
 6766SOL    HW131757   0.194   0.729   1.695 -1.8140  0.7511  0.0393
 6766SOL    HW231758   0.264   0.847   1.639 -1.2246  0.9658 -0.4480
 6767SOL     OW31759   2.193   0.219   4.277 -0.0969  0.5845 -0.5556
 6767SOL    HW131760   2.208   0.170   4.196  1.1634 -1.3468  0.8609
 6767SOL    HW231761   2.275   0.269   4.283  0.2644 -0.0717 -0.0922
 6768SOL     OW31762   4.431   0.740  15.244 -0.3651  0.1884  0.2032
 6768SOL    HW131763   4.349   0.771  15.282  0.0462  2.9659 -1.1990
 6768SOL    HW231764   4.501   0.778  15.297  0.5506 -1.9908  0.5357
 6769SOL     OW31765   1.602   4.495   4.910 -0.1815 -0.5103  0.0373
 6769SOL    HW131766   1.540   4.565   4.889 -0.8333 -0.6534  1.4933
 6769SOL    HW231767   1.684   4.544   4.910  0.2276 -1.1919 -1.7474
 6770SOL     OW31768   1.399   0.745  11.144 -0.3374  0.3599 -0.7896
 6770SOL    HW131769   1.494   0.751  11.136 -0.2119 -1.9006 -1.0163
 6770SOL    HW231770   1.382   0.821  11.201 -0.3381 -0.8296  0.7944
 6771SOL     OW31771   0.519   2.689  15.633  0.7230 -0.2169  0.0231
 6771SOL    HW131772   0.612   2.671  15.636  0.3669 -1.6587  2.3680
 6771SOL    HW231773   0.501   2.692  15.727  1.2246  1.2378  0.0763
 6772SOL     OW31774   1.384   3.373   4.582 -0.2491  0.0253 -0.2438
 6772SOL    HW131775   1.352   3.416   4.502 -1.3288  0.1898  0.2697
 6772SOL    HW231776   1.352   3.435   4.648  0.4486  0.2250 -0.0933
 6773SOL     OW31777   3.774   1.463   1.658 -0.3772  0.6988  0.4754
 6773SOL    HW131778   3.798   1.409   1.734  1.4162 -1.0881 -1.3412
 6773SOL    HW231779   3.715   1.399   1.618  1.5879  1.4322 -3.5584
 6774SOL     OW31780   1.943   4.297   3.751 -0.0791 -0.2647 -0.0973
 6774SOL    HW131781   1.867   4.251   3.785  0.0933 -0.2982  0.2501
 6774SOL    HW231782   2.010   4.228   3.761  0.4413  0.3913  0.9140
 6775SOL     OW31783   0.503   0.493   6.200 -0.1268 -0.2594 -0.0891
 6775SOL    HW131784   0.464   0.417   6.157 -0.0701  0.2128 -0.9842
 6775SOL    HW231785   0.507   0.449   6.285  0.5276 -0.5859 -0.2886
 6776SOL     OW31786   4.045   2.465   1.092 -0.4580 -1.0448 -0.0339
 6776SOL    HW131787   4.131   2.492   1.061  0.8880 -2.4289  2.5811
 6776SOL    HW231788   4.070   2.424   1.175 -1.0938 -1.4439 -0.0360
 6777SOL     OW31789   3.445   4.584   8.514 -0.0290 -0.1397 -0.1582
 6777SOL    HW131790   3.529   4.606   8.555 -1.5716  0.5706  2.6612
 6777SOL    HW231791   3.383   4.640   8.561 -2.2647 -1.8146 -1.1246
 6778SOL     OW31792   0.574   4.216   0.848 -0.3694 -0.1318 -0.1380
 6778SOL    HW131793   0.511   4.288   0.851  2.0839  1.8944  2.7264
 6778SOL    HW231794   0.529   4.148   0.898 -1.6424  1.0758  0.3650
 6779SOL     OW31795   1.713   0.755  17.403  0.4673 -0.1131  0.5179
 6779SOL    HW131796   1.669   0.767  17.487 -0.2451 -0.4471  0.1904
 6779SOL    HW231797   1.793   0.720  17.441 -0.2152 -0.1461  1.9232
 6780SOL     OW31798   4.691   2.839   6.840 -0.3598  0.2502  0.2859
 6780SOL    HW131799   4.641   2.855   6.920 -1.6471 -0.4013 -0.3909
 6780SOL    HW231800   0.013   2.923   6.822 -1.3922  0.8163  0.4361
 6781SOL     OW31801   2.795   3.393   8.307 -0.1035  0.3531 -0.0433
 6781SOL    HW131802   2.734   3.363   8.239 -0.4180  0.5957  0.1321
 6781SOL    HW231803   2.741   3.377   8.384 -2.2783  0.0967 -1.6069
 6782SOL     OW31804   2.910   3.292   0.275  0.0219  0.7386  0.1423
 6782SOL    HW131805   2.942   3.281   0.185 -0.2637  1.3525 -0.0411
 6782SOL    HW231806   2.824   3.251   0.264  0.0477  0.8773 -0.6062
 6783SOL     OW31807   1.811   3.476   2.786 -0.5135  0.2184 -0.0577
 6783SOL    HW131808   1.858   3.533   2.847 -0.8507 -0.2138  0.6150
 6783SOL    HW231809   1.828   3.517   2.702 -0.7686 -1.2696 -0.8478
 6784SOL     OW31810   2.448   3.701   3.331  0.1718  0.2125 -0.3689
 6784SOL    HW131811   2.490   3.742   3.406 -0.9399  1.4648 -0.4401
 6784SOL    HW231812   2.415   3.777   3.285 -0.2017 -0.2106 -0.8030
 6785SOL     OW31813   2.881   3.029  16.099  0.2303 -0.2066 -0.4189
 6785SOL    HW131814   2.934   3.081  16.039  0.9189 -1.8146 -1.1879
 6785SOL    HW231815   2.794   3.069  16.095 -0.4743 -1.6791  0.1050
 6786SOL     OW31816   3.061   2.118   3.366  0.6714  0.4154 -0.5145
 6786SOL    HW131817   2.982   2.080   3.402  1.0187 -0.9620 -1.2194
 6786SOL    HW231818   3.025   2.165   3.291  0.7099  1.0399 -0.1463
 6787SOL     OW31819   4.076   2.752   1.952 -0.1053  0.7818  0.1733
 6787SOL    HW131820   4.001   2.693   1.936  0.1063  0.4744  0.3195
 6787SOL    HW231821   4.127   2.702   2.015  1.0520  0.6291 -0.8794
 6788SOL     OW31822   4.307   0.272   7.388 -0.5077  0.1687  0.4588
 6788SOL    HW131823   4.306   0.264   7.292 -1.1103 -3.0020  0.7030
 6788SOL    HW231824   4.215   0.251   7.408 -0.5354  1.3342  1.5339
 6789SOL     OW31825   2.621   3.013   7.040  0.8494  0.6262  0.6490
 6789SOL    HW131826   2.672   2.939   7.073  0.1747  0.8886  2.2404
 6789SOL    HW231827   2.559   2.954   6.996  1.2043 -0.0638  1.0773
 6790SOL     OW31828   1.194   1.742   2.547 -0.2670  0.3537 -0.3846
 6790SOL    HW131829   1.270   1.789   2.511  0.8560 -2.4272 -1.6456
 6790SOL    HW231830   1.163   1.805   2.612  0.0087  0.9816 -0.8541
 6791SOL     OW31831   0.781   3.768  11.172 -0.0471  0.3232 -0.1798
 6791SOL    HW131832   0.754   3.818  11.250  1.3041  1.4810 -0.4470
 6791SOL    HW231833   0.877   3.767  11.173  0.0251  3.9964  0.0687
 6792SOL     OW31834   2.125   4.398  11.226  0.2547  0.2464 -0.3898
 6792SOL    HW131835   2.072   4.459  11.175 -0.1309  0.1017 -0.1618
 6792SOL    HW231836   2.107   4.311  11.191  2.5206  0.4850 -2.2021
 6793SOL     OW31837   3.527   0.655   9.817  0.2206 -0.2775 -0.2692
 6793SOL    HW131838   3.557   0.598   9.746  1.6751 -0.4017  0.4379
 6793SOL    HW231839   3.493   0.596   9.884  0.0525 -0.5800 -0.6208
 6794SOL     OW31840   2.379   4.108   1.801  0.1089  0.0528  0.5109
 6794SOL    HW131841   2.384   4.080   1.892 -0.4764  1.8651  1.0898
 6794SOL    HW231842   2.344   4.197   1.804  0.7369  0.3523 -1.0437
 6795SOL     OW31843   4.447   1.725   2.876  0.4761 -0.0159 -0.2587
 6795SOL    HW131844   4.532   1.768   2.862 -0.4377  2.4687  1.8224
 6795SOL    HW231845   4.397   1.776   2.812 -0.0560  1.2160  1.1463
 6796SOL     OW31846   1.180   3.741  12.852  0.0786  0.4572  0.3033
 6796SOL    HW131847   1.223   3.730  12.768  1.9133 -1.7736  1.5371
 6796SOL    HW231848   1.246   3.715  12.917 -1.1979  2.8573  2.5762
 6797SOL     OW31849   3.710   1.524   4.365  0.0366 -0.0692  0.4876
 6797SOL    HW131850   3.634   1.488   4.410  0.0950  1.8287  2.1180
 6797SOL    HW231851   3.671   1.585   4.302 -0.7344 -0.2841  0.7591
 6798SOL     OW31852   3.425   1.226   7.452  0.1429  0.3464  0.1383
 6798SOL    HW131853   3.452   1.270   7.532  0.7155  1.0540 -0.4480
 6798SOL    HW231854   3.403   1.298   7.393  1.7415  0.7745  0.0902
 6799SOL     OW31855   1.498   4.125  14.647  0.0325 -0.4085  0.3769
 6799SOL    HW131856   1.551   4.045  14.646  1.0387  0.2386  1.4199
 6799SOL    HW231857   1.524   4.151  14.559  1.7187 -1.2465  0.6229
 6800SOL     OW31858   1.416   4.371   8.232  0.9617  0.0114 -0.1293
 6800SOL    HW131859   1.349   4.353   8.298  3.7949  0.0551  2.7812
 6800SOL    HW231860   1.486   4.349   8.293  0.8704  0.9493  0.3158
 6801SOL     OW31861   3.524   0.518   1.586 -0.4531 -0.1430 -0.2317
 6801SOL    HW131862   3.568   0.530   1.501 -0.7531  0.4189 -0.3078
 6801SOL    HW231863   3.551   0.428   1.603  0.5645  0.1522 -0.2879
 6802SOL     OW31864   0.373   4.064   5.721  0.0768  0.1222 -0.1574
 6802SOL    HW131865   0.325   3.990   5.758  2.2764 -2.9544 -3.3722
 6802SOL    HW231866   0.463   4.037   5.741  0.2299  0.9994  0.3320
 6803SOL     OW31867   0.723   0.326   7.294  0.5302 -0.4922 -0.5791
 6803SOL    HW131868   0.720   0.281   7.378 -2.4867  2.1288  0.6979
 6803SOL    HW231869   0.814   0.328   7.264  0.1344 -0.2134 -1.7601
 6804SOL     OW31870   2.545   3.317  16.346 -0.5940 -0.0561 -0.6408
 6804SOL    HW131871   2.451   3.308  16.329 -0.7209 -1.5607  0.8748
 6804SOL    HW231872   2.558   3.355  16.433  1.1903 -0.2256 -0.8353
 6805SOL     OW31873   3.596   1.179  14.893 -0.2480  0.4041 -0.4178
 6805SOL    HW131874   3.575   1.092  14.860 -0.5387 -0.5739  2.3627
 6805SOL    HW231875   3.658   1.201  14.824  2.5450  1.7696  2.4882
 6806SOL     OW31876   2.281   0.789  16.358  0.1275 -0.2377  0.3547
 6806SOL    HW131877   2.312   0.838  16.281 -0.2135  1.8361  1.5388
 6806SOL    HW231878   2.272   0.705  16.313 -2.7182 -0.8975  2.1505
 6807SOL     OW31879   1.255   4.675   6.484 -0.3646 -0.3224  0.3038
 6807SOL    HW131880   1.296   0.000   6.558  1.3432 -2.2857  0.5714
 6807SOL    HW231881   1.211   0.025   6.437  0.2184 -1.1395 -1.4603
 6808SOL     OW31882   1.808   1.042   4.769 -0.7031 -0.2996  0.1105
 6808SOL    HW131883   1.899   1.026   4.745 -1.3486 -1.5431 -1.5335
 6808SOL    HW231884   1.810   1.137   4.756  0.6170 -0.4575 -0.8684
 6809SOL     OW31885   4.108   1.371   2.970  0.0582 -0.1004 -0.0478
 6809SOL    HW131886   4.101   1.420   3.051 -2.0160 -1.7188  0.7578
 6809SOL    HW231887   4.185   1.420   2.941  1.0607 -2.7915 -1.9648
 6810SOL     OW31888   4.127   3.714  12.717  0.3557 -0.5021  0.1539
 6810SOL    HW131889   4.144   3.648  12.650  0.1125  0.0192 -0.4239
 6810SOL    HW231890   4.168   3.785  12.667 -0.2466  0.3140  0.8101
 6811SOL     OW31891   0.294   1.709   7.864 -0.0996 -0.3436 -0.8716
 6811SOL    HW131892   0.292   1.768   7.940  0.0015 -0.1421 -1.0265
 6811SOL    HW231893   0.341   1.763   7.801 -0.6353  2.1837  0.8736
 6812SOL     OW31894   2.456   3.808   5.770  0.1372 -0.2403 -0.2502
 6812SOL    HW131895   2.421   3.865   5.838 -0.8969 -1.4621  0.2528
 6812SOL    HW231896   2.520   3.866   5.730 -0.4347  1.2108  0.9351
 6813SOL     OW31897   4.621   0.461  11.324 -0.2627  0.1110  0.8375
 6813SOL    HW131898   4.634   0.552  11.299 -2.1337 -0.4220 -2.0000
 6813SOL    HW231899   4.527   0.467  11.343 -0.6865 -1.0258 -0.8533
 6814SOL     OW31900   2.376   1.979  14.635 -0.0499 -0.0341 -0.6767
 6814SOL    HW131901   2.286   2.004  14.654  0.2032 -0.7744  1.4776
 6814SOL    HW231902   2.371   1.883  14.642 -0.5927 -0.0171 -0.8775
 6815SOL     OW31903   0.309   3.629   2.284  0.0911 -0.5310  0.3596
 6815SOL    HW131904   0.278   3.637   2.374  1.7274  0.1176  0.8637
 6815SOL    HW231905   0.270   3.544   2.265  0.4049 -1.0673  2.1462
 6816SOL     OW31906   3.213   3.727   3.879  0.6442 -0.2374 -0.0444
 6816SOL    HW131907   3.223   3.635   3.856 -0.8087 -0.6300  0.8483
 6816SOL    HW231908   3.139   3.723   3.940  0.6487 -2.1140 -0.1670
 6817SOL     OW31909   4.078   3.422   1.700 -0.3785 -0.1014 -0.0792
 6817SOL    HW131910   4.043   3.441   1.613  1.5325  0.1824 -0.7963
 6817SOL    HW231911   4.152   3.366   1.676 -1.3513 -1.7302  0.6801
 6818SOL     OW31912   3.182   2.773   6.922 -0.0279 -0.0688 -0.4718
 6818SOL    HW131913   3.109   2.818   6.966 -0.2328  0.1023 -0.9806
 6818SOL    HW231914   3.245   2.845   6.925 -0.0616 -0.1443  1.9893
 6819SOL     OW31915   0.653   2.343  11.491  0.1562 -0.1868 -0.2593
 6819SOL    HW131916   0.700   2.334  11.574 -1.2358  0.9065  0.6463
 6819SOL    HW231917   0.706   2.308  11.419 -0.5075  1.1126 -1.3651
 6820SOL     OW31918   3.050   2.963   7.087 -0.1556 -0.4988  0.2063
 6820SOL    HW131919   3.065   3.011   7.169 -0.5527  0.5803 -0.3521
 6820SOL    HW231920   2.957   2.942   7.092 -0.0920 -0.9359 -0.5596
 6821SOL     OW31921   4.155   3.016   7.535 -0.1435  0.2236 -0.1839
 6821SOL    HW131922   4.170   2.964   7.456  0.3685  0.4071 -0.2110
 6821SOL    HW231923   4.072   3.061   7.521 -0.4407 -0.3239 -0.1624
 6822SOL     OW31924   3.245   4.534   5.950  0.4576 -0.1210 -0.5803
 6822SOL    HW131925   3.204   4.618   5.930  2.1721  1.5826  3.1482
 6822SOL    HW231926   3.336   4.558   5.938  0.4650 -0.1356 -0.5527
 6823SOL     OW31927   4.243   2.803   2.454  0.0495 -0.0762 -0.2375
 6823SOL    HW131928   4.278   2.718   2.482  0.8073 -0.0002 -0.9668
 6823SOL    HW231929   4.263   2.816   2.362  1.5185  2.1893  0.4011
 6824SOL     OW31930   3.762   4.495   1.574 -0.2346 -0.1046  0.5955
 6824SOL    HW131931   3.819   4.535   1.640  0.0220  0.1154  0.2442
 6824SOL    HW231932   3.830   4.483   1.507 -1.5811  1.6855 -1.0959
 6825SOL     OW31933   1.190   1.286   1.982 -0.4961 -0.5461  0.1053
 6825SOL    HW131934   1.257   1.334   2.031 -1.9917  0.7690  0.8636
 6825SOL    HW231935   1.246   1.254   1.911  0.1918  2.7487 -0.8405
 6826SOL     OW31936   4.074   0.569  10.275  0.1071  0.3961  0.1519
 6826SOL    HW131937   4.115   0.653  10.258  0.3939 -0.1672 -1.9209
 6826SOL    HW231938   4.093   0.554  10.368 -0.4179  1.4899  0.4309
 6827SOL     OW31939   0.617   1.534   5.882 -0.3979  0.2101 -0.4849
 6827SOL    HW131940   0.588   1.451   5.846  0.3811 -0.5507  0.6352
 6827SOL    HW231941   0.708   1.531   5.853 -0.5667 -1.8331 -0.7390
 6828SOL     OW31942   1.456   1.039   2.455  0.2373  0.1706  0.0855
 6828SOL    HW131943   1.362   1.041   2.440  0.5570  1.0409 -1.8436
 6828SOL    HW231944   1.482   1.016   2.366  0.8435 -0.0800  0.3260
 6829SOL     OW31945   2.444   2.918   8.633 -0.0786 -0.1444 -0.2693
 6829SOL    HW131946   2.405   2.986   8.687  0.6246 -0.0590  0.1355
 6829SOL    HW231947   2.381   2.896   8.564 -1.2770 -3.0638  1.7696
 6830SOL     OW31948   1.974   0.462  13.108 -0.6485 -0.2432  0.0130
 6830SOL    HW131949   1.994   0.497  13.195  3.1575 -1.4680 -0.3453
 6830SOL    HW231950   2.051   0.501  13.067 -0.0509 -2.7540 -1.2863
 6831SOL     OW31951   2.815   0.288   6.030 -0.1554 -0.1415 -0.8462
 6831SOL    HW131952   2.812   0.254   6.120  0.2159 -2.1031 -1.5839
 6831SOL    HW231953   2.783   0.220   5.971  0.4815 -2.2915  1.2676
 6832SOL     OW31954   4.369   4.053   5.059 -0.1425 -0.1139  0.1948
 6832SOL    HW131955   4.406   4.122   5.113 -2.4746  2.0783 -0.9935
 6832SOL    HW231956   4.361   3.992   5.132 -1.3936  0.3423  0.4443
 6833SOL     OW31957   1.239   0.511   3.100 -0.1429  0.4704 -0.2993
 6833SOL    HW131958   1.286   0.438   3.059 -0.5116  0.2507 -0.3388
 6833SOL    HW231959   1.163   0.472   3.144  0.5438  1.2409  1.5806
 6834SOL     OW31960   3.756   0.568  11.613  0.0009  0.1131  0.3494
 6834SOL    HW131961   3.839   0.536  11.578 -0.3910  0.6889 -1.1185
 6834SOL    HW231962   3.765   0.663  11.606 -0.3832  0.1557  0.3901
 6835SOL     OW31963   2.747   2.214   9.513 -0.1272  0.0972  0.1050
 6835SOL    HW131964   2.743   2.308   9.528  0.2493 -0.0321  1.0190
 6835SOL    HW231965   2.787   2.210   9.426  0.9837  2.6143  0.4955
 6836SOL     OW31966   3.806   3.352   0.371 -0.7839 -0.1447 -0.5405
 6836SOL    HW131967   3.779   3.321   0.457  1.1530  0.0891  0.1370
 6836SOL    HW231968   3.899   3.331   0.367 -0.5323  0.8399  0.3349
 6837SOL     OW31969   1.909   4.254   2.464  0.1813 -0.3959  0.0860
 6837SOL    HW131970   1.934   4.303   2.386  1.2655 -1.5897 -0.3269
 6837SOL    HW231971   1.870   4.179   2.419  0.2405  1.2222 -2.6209
 6838SOL     OW31972   0.148   2.854  13.631 -0.2601  0.0315  0.0559
 6838SOL    HW131973   0.190   2.924  13.581 -0.6919  0.3422  0.1313
 6838SOL    HW231974   0.057   2.869  13.604 -0.0770  0.1035 -0.5305
 6839SOL     OW31975   0.827   3.740   1.442  0.3711  0.0812  0.0987
 6839SOL    HW131976   0.857   3.705   1.526  0.3939  2.0879  0.9343
 6839SOL    HW231977   0.864   3.828   1.450 -0.1601  0.2835  0.3418
 6840SOL     OW31978   3.431   4.414  14.821  0.2782 -0.3242 -0.3536
 6840SOL    HW131979   3.403   4.469  14.748 -0.5016  0.5512  0.6241
 6840SOL    HW231980   3.518   4.402  14.781  0.2534 -0.4925 -0.3597
 6841SOL     OW31981   0.947   1.741   6.980 -0.0740  0.6783 -0.0694
 6841SOL    HW131982   0.977   1.654   7.005 -0.2960 -0.3233 -3.3502
 6841SOL    HW231983   0.991   1.753   6.896  1.0782 -1.5743  0.2040
 6842SOL     OW31984   1.079   1.655   4.864  0.2801 -0.4688 -0.1829
 6842SOL    HW131985   1.160   1.655   4.814  0.9131  1.4290  0.8378
 6842SOL    HW231986   1.019   1.636   4.791  0.4481 -0.4426 -0.3277
 6843SOL     OW31987   1.532   0.364   4.580  0.7196 -0.5313 -0.1620
 6843SOL    HW131988   1.549   0.370   4.486  0.1734 -1.6252 -0.3286
 6843SOL    HW231989   1.474   0.435   4.607  0.7575 -1.0896  1.4019
 6844SOL     OW31990   4.409   2.616   2.585 -0.3840 -0.3965 -0.1954
 6844SOL    HW131991   4.464   2.691   2.608  0.1973 -0.6018 -0.8887
 6844SOL    HW231992   4.466   2.542   2.562 -2.0788 -1.4824 -0.9391
 6845SOL     OW31993   0.643   4.636   2.852  0.1041  0.6276  0.4760
 6845SOL    HW131994   0.554   4.617   2.882 -1.2731  3.5525 -1.8634
 6845SOL    HW231995   0.638   4.606   2.761  0.9076  0.9828  0.3167
 6846SOL     OW31996   3.881   1.937   3.898  0.4885  0.6646  0.2146
 6846SOL    HW131997   3.838   1.887   3.828  0.0818  0.7427  0.4113
 6846SOL    HW231998   3.865   2.025   3.865  1.6616 -0.8824 -4.5004
 6847SOL     OW31999   2.568   4.458   7.768  0.2837  0.2021 -0.4085
 6847SOL    HW132000   2.657   4.437   7.741  0.4997  0.6083 -0.0060
 6847SOL    HW232001   2.573   4.449   7.863  0.3302 -0.1966 -0.4501
 6848SOL     OW32002   2.567   2.116   6.444  0.0261 -0.3689  0.2283
 6848SOL    HW132003   2.594   2.207   6.433 -0.2328 -0.3320 -0.0955
 6848SOL    HW232004   2.651   2.071   6.450 -1.9074 -4.0690 -0.6380
 6849SOL     OW32005   2.636   4.562   6.710 -0.0401  0.2881 -0.1220
 6849SOL    HW132006   2.559   4.587   6.659  0.2787 -1.3023 -1.3918
 6849SOL    HW232007   2.615   4.471   6.731 -0.9158  0.6002  0.3529
 6850SOL     OW32008   0.324   2.662   8.952 -0.0279  0.1232 -0.6802
 6850SOL    HW132009   0.310   2.756   8.963 -1.8406 -0.0361 -1.7107
 6850SOL    HW232010   0.268   2.633   9.023 -0.3223 -1.5709 -1.6213
 6851SOL     OW32011   3.342   2.062   0.782 -1.1473 -0.1775 -0.5184
 6851SOL    HW132012   3.270   2.124   0.788 -1.2432 -0.3117 -0.2748
 6851SOL    HW232013   3.309   1.973   0.784  3.1682 -1.7539  1.7900
 6852SOL     OW32014   1.216   0.676   4.991  0.0623 -0.2282  0.7499
 6852SOL    HW132015   1.259   0.754   4.956 -0.3180 -0.1850  0.3788
 6852SOL    HW232016   1.186   0.709   5.076 -0.8016 -0.3823  0.5118
 6853SOL     OW32017   0.359   1.224   4.055 -0.1552 -0.0018 -0.1391
 6853SOL    HW132018   0.423   1.275   4.005  1.4806  0.8134  2.8088
 6853SOL    HW232019   0.329   1.169   3.982  0.9053 -0.7492 -0.0123
 6854SOL     OW32020   3.810   1.518   5.993 -0.0793  0.2451 -0.2809
 6854SOL    HW132021   3.749   1.472   6.051 -1.3216  3.7269  1.2215
 6854SOL    HW232022   3.890   1.543   6.041  0.1347 -0.9272 -0.0318
 6855SOL     OW32023   0.562   3.376  11.629 -0.5007  0.7155 -0.3231
 6855SOL    HW132024   0.482   3.343  11.587  0.2023 -2.8380  1.1570
 6855SOL    HW232025   0.549   3.321  11.706  1.2489  0.2057 -0.3971
 6856SOL     OW32026   1.203   3.554   8.182 -0.1552 -0.0487 -0.4518
 6856SOL    HW132027   1.233   3.642   8.205 -0.1586 -0.1576 -0.0194
 6856SOL    HW232028   1.121   3.541   8.228  1.4425  2.4751  3.0786
 6857SOL     OW32029   2.234   4.505   7.326  0.2233 -0.1347  0.0109
 6857SOL    HW132030   2.196   4.417   7.315  0.1432 -0.1612  0.4834
 6857SOL    HW232031   2.156   4.545   7.366  1.0444 -0.2720  1.7782
 6858SOL     OW32032   3.631   1.312   6.635  0.2796  0.4983 -0.0161
 6858SOL    HW132033   3.614   1.231   6.586  0.3190  0.6244 -0.2401
 6858SOL    HW232034   3.722   1.293   6.655  0.0800  1.1504  1.5122
 6859SOL     OW32035   3.010   1.648   7.847  0.3900  0.0223 -0.4683
 6859SOL    HW132036   3.095   1.622   7.882 -0.5880 -1.7529  0.5989
 6859SOL    HW232037   2.966   1.673   7.928  1.8528  1.4018 -0.1099
 6860SOL     OW32038   3.365   3.083  16.026 -0.3782  0.0023  0.2372
 6860SOL    HW132039   3.308   3.068  16.102  1.6830  0.7406  1.9059
 6860SOL    HW232040   3.357   3.178  16.015 -0.1190  0.0433  0.4346
 6861SOL     OW32041   2.777   0.314   4.059 -0.6289 -0.0395 -0.4109
 6861SOL    HW132042   2.859   0.296   4.015  0.7534  0.2732  2.0182
 6861SOL    HW232043   2.737   0.385   4.008  1.9187  2.2916  0.8467
 6862SOL     OW32044   4.582   1.725  16.073  0.1886 -0.3060 -0.6019
 6862SOL    HW132045   4.487   1.712  16.077 -0.0464  0.6621 -3.3477
 6862SOL    HW232046   4.605   1.665  16.144  1.4472  0.6995 -0.1545
 6863SOL     OW32047   0.364   2.143   3.680 -0.2679  0.1017  0.0574
 6863SOL    HW132048   0.397   2.208   3.742 -0.7152 -0.0583  0.4664
 6863SOL    HW232049   0.441   2.120   3.628  0.0085 -3.2245  1.9076
 6864SOL     OW32050   2.873   2.905   2.496  0.0542  0.4085  0.4975
 6864SOL    HW132051   2.815   2.979   2.478  0.5735  1.0681  1.5701
 6864SOL    HW232052   2.819   2.830   2.471  1.5181  0.1812 -1.9876
 6865SOL     OW32053   4.348   3.971   0.571  0.5201  0.6438 -0.4075
 6865SOL    HW132054   4.330   3.877   0.569  0.2069  0.7289 -1.5395
 6865SOL    HW232055   4.338   3.991   0.664  0.6869  0.0387 -0.2590
 6866SOL     OW32056   2.746   3.428   9.116 -0.0336  0.2021 -0.0575
 6866SOL    HW132057   2.667   3.482   9.123  0.9827  1.6434  0.1944
 6866SOL    HW232058   2.806   3.490   9.076  0.1676  0.2057  0.2509
 6867SOL     OW32059   4.393   1.228  13.577 -0.3472 -0.0347 -0.7410
 6867SOL    HW132060   4.336   1.262  13.646  3.3372  4.1334  0.2747
 6867SOL    HW232061   4.343   1.151  13.549 -0.5204 -0.1634 -0.0801
 6868SOL     OW32062   0.177   1.614   1.415  0.2669 -0.6082  0.1328
 6868SOL    HW132063   0.133   1.533   1.441  0.8867 -0.8106  0.5345
 6868SOL    HW232064   0.237   1.570   1.355  1.0237  1.9076 -0.9848
 6869SOL     OW32065   2.666   2.955  11.445 -0.3888 -0.4047 -0.0106
 6869SOL    HW132066   2.758   2.932  11.459 -0.6215 -2.0991 -1.3043
 6869SOL    HW232067   2.615   2.877  11.466 -0.0094 -0.5970  0.2002
 6870SOL     OW32068   4.323   3.727  13.546  0.0724  0.3123 -0.2970
 6870SOL    HW132069   4.365   3.813  13.557 -0.0031  0.3168 -0.0344
 6870SOL    HW232070   4.307   3.701  13.637  0.3579 -4.3835 -1.5964
 6871SOL     OW32071   2.066   1.993   8.321  0.3131  0.6460 -0.7698
 6871SOL    HW132072   2.025   2.070   8.360  0.4472  0.7951 -0.9229
 6871SOL    HW232073   2.150   1.994   8.367 -1.0398 -1.7445  1.7824
 6872SOL     OW32074   3.245   1.872  16.201 -0.1861  0.2326 -0.1011
 6872SOL    HW132075   3.303   1.927  16.149 -1.2134  1.8378  0.4637
 6872SOL    HW232076   3.218   1.824  16.122  0.0117  1.1957 -0.7567
 6873SOL     OW32077   2.959   2.650   7.888  0.5021  0.2494  0.5019
 6873SOL    HW132078   2.977   2.573   7.942  2.5236 -0.4347 -1.1796
 6873SOL    HW232079   2.863   2.643   7.893  0.5749 -2.0063 -1.3222
 6874SOL     OW32080   2.519   1.963  11.962  0.1393 -0.0510 -0.6010
 6874SOL    HW132081   2.494   1.912  12.040 -0.4760 -2.8621 -2.6371
 6874SOL    HW232082   2.512   1.902  11.888  3.3828  0.3179 -1.1984
 6875SOL     OW32083   1.469   1.914  12.800  0.1920 -0.2150 -0.1212
 6875SOL    HW132084   1.453   1.821  12.818 -2.8337  0.1588 -0.9142
 6875SOL    HW232085   1.390   1.947  12.843 -0.7219 -1.1548 -1.0674
 6876SOL     OW32086   0.478   4.229   5.987 -0.4357 -0.6196  0.3674
 6876SOL    HW132087   0.467   4.134   5.977  0.3023 -0.6111 -0.5048
 6876SOL    HW232088   0.416   4.251   5.918  0.5216  2.4369  0.4577
 6877SOL     OW32089   1.474   4.679   8.387 -0.2327  0.4364  0.5128
 6877SOL    HW132090   1.558   4.672   8.343 -0.3264 -3.5841  0.9121
 6877SOL    HW232091   1.500   4.711   8.473  0.5673  1.0189  0.0504
 6878SOL     OW32092   3.182   4.249   7.570 -0.6508  0.5342  0.6438
 6878SOL    HW132093   3.143   4.269   7.485  0.5379  0.7885  0.1691
 6878SOL    HW232094   3.217   4.334   7.594  0.0866  0.2251  0.6574
 6879SOL     OW32095   2.619   3.730   6.747  0.4983  0.3116  0.0497
 6879SOL    HW132096   2.552   3.765   6.805  0.1770 -1.1112  0.5507
 6879SOL    HW232097   2.617   3.636   6.766  3.7413  0.2065 -0.1491
 6880SOL     OW32098   1.870   2.922   4.099  0.4490  0.0544 -0.0813
 6880SOL    HW132099   1.848   2.949   4.010  0.5634 -0.9345 -0.4095
 6880SOL    HW232100   1.806   2.965   4.156  1.8109 -1.0857  2.3036
 6881SOL     OW32101   4.676   1.779   6.875 -0.1329  0.5487 -0.1135
 6881SOL    HW132102   0.028   1.817   6.826 -0.8454  0.7939 -1.0086
 6881SOL    HW232103   4.710   1.774   6.964 -0.4133  0.2402 -0.0262
 6882SOL     OW32104   1.523   0.608   6.503  0.0586 -0.3448  0.5422
 6882SOL    HW132105   1.478   0.590   6.586 -0.9616 -1.7113 -0.3139
 6882SOL    HW232106   1.605   0.561   6.521 -0.5265 -1.9569 -1.0563
 6883SOL     OW32107   0.012   3.225   8.051 -0.1412  0.3858 -0.4612
 6883SOL    HW132108   0.012   3.208   8.146  1.3718  1.0217 -0.3438
 6883SOL    HW232109   4.642   3.213   8.025  0.0353  0.5742 -1.1535
 6884SOL     OW32110   3.442   0.151   4.966  0.0655  0.0147  0.2488
 6884SOL    HW132111   3.462   0.059   4.981  1.7137  0.0304 -1.8618
 6884SOL    HW232112   3.474   0.185   5.050  0.6201 -0.6916  0.3199
 6885SOL     OW32113   0.384   3.158   5.038 -0.0562 -0.3003 -1.0521
 6885SOL    HW132114   0.396   3.123   4.950  3.2798 -2.0352  0.1235
 6885SOL    HW232115   0.373   3.074   5.081 -1.4576  0.8199  0.7920
 6886SOL     OW32116   4.085   4.362  17.492 -0.3356  0.4847  0.4179
 6886SOL    HW132117   4.170   4.393  17.461  0.4727 -1.0273  1.1218
 6886SOL    HW232118   4.024   4.415  17.440  0.3089  0.0060 -0.8143
 6887SOL     OW32119   4.416   2.158  11.215  0.1043  0.7480  0.0935
 6887SOL    HW132120   4.427   2.223  11.146 -1.9912  0.3749 -0.5998
 6887SOL    HW232121   4.502   2.133  11.251  0.1060  1.1670  0.3851
 6888SOL     OW32122   0.781   3.756  12.654 -0.3182 -0.4596 -0.1605
 6888SOL    HW132123   0.746   3.671  12.628  0.9206 -1.0113  0.0138
 6888SOL    HW232124   0.766   3.822  12.586 -0.3684 -2.9602 -2.6130
 6889SOL     OW32125   1.439   0.889   9.987 -0.0122 -0.0917  0.2998
 6889SOL    HW132126   1.353   0.928   9.971  0.6990  0.9748 -0.9862
 6889SOL    HW232127   1.463   0.936  10.066 -1.8527 -1.8492  1.9159
 6890SOL     OW32128   4.158   1.041   9.141  0.3354  0.3828  0.4854
 6890SOL    HW132129   4.229   1.105   9.127 -0.0489  0.6489 -0.2392
 6890SOL    HW232130   4.106   1.089   9.205 -2.4356 -1.5783 -0.2883
 6891SOL     OW32131   1.201   2.375   8.162 -0.3287 -0.2136  0.3067
 6891SOL    HW132132   1.128   2.367   8.100 -1.5473 -0.5816  1.8037
 6891SOL    HW232133   1.231   2.464   8.141 -0.6720 -0.1556  0.0645
 6892SOL     OW32134   2.219   3.391   3.465  0.5598  0.0724 -1.0017
 6892SOL    HW132135   2.290   3.386   3.401  2.2855 -0.8928  0.9790
 6892SOL    HW232136   2.155   3.354   3.404  0.3080  1.9706 -1.8979
 6893SOL     OW32137   0.416   2.064   7.272 -0.2776 -0.1405 -0.0869
 6893SOL    HW132138   0.435   2.007   7.197  1.8936 -0.4427  0.6856
 6893SOL    HW232139   0.490   2.035   7.326 -0.7786  0.1260  0.7357
 6894SOL     OW32140   3.645   2.739   7.008 -0.1868 -0.3256 -0.1709
 6894SOL    HW132141   3.571   2.693   6.968 -2.5345  2.8794  0.4897
 6894SOL    HW232142   3.720   2.703   6.960  0.7497  0.4839  0.6945
 6895SOL     OW32143   3.225   4.687   2.547 -0.3945  0.2186  0.1352
 6895SOL    HW132144   3.226   4.613   2.486 -3.0933 -0.3499  0.7913
 6895SOL    HW232145   3.167   4.647   2.611  0.0411  0.6345  0.7819
 6896SOL     OW32146   1.087   1.271  14.257  0.5846  0.4155 -0.0101
 6896SOL    HW132147   1.136   1.334  14.203 -0.3399  0.2991 -0.9651
 6896SOL    HW232148   1.049   1.332  14.320 -2.0446 -1.5038  0.2645
 6897SOL     OW32149   3.457   1.242   0.269  0.0085 -0.2597  0.1581
 6897SOL    HW132150   3.521   1.174   0.293  1.6743 -0.0257 -3.4934
 6897SOL    HW232151   3.506   1.286   0.199 -1.2320  0.2120 -0.4171
 6898SOL     OW32152   2.055   3.383  16.165 -0.1062 -0.4568  0.3891
 6898SOL    HW132153   2.103   3.406  16.245  0.7797  3.0505 -1.1186
 6898SOL    HW232154   1.987   3.328  16.203 -0.4561  0.6747  1.4264
 6899SOL     OW32155   4.688   3.658  10.859  0.0383 -0.5246 -0.1641
 6899SOL    HW132156   0.038   3.704  10.905  0.3384 -1.0984 -0.0529
 6899SOL    HW232157   4.657   3.728  10.802  0.2857  0.7845  1.2925
 6900SOL     OW32158   2.894   0.500   2.685 -0.4093 -0.4108 -0.0430
 6900SOL    HW132159   2.911   0.594   2.697 -0.0648 -0.2902 -1.4271
 6900SOL    HW232160   2.980   0.464   2.703 -0.9289 -0.6229  1.9897
 6901SOL     OW32161   1.506   0.238   7.590  0.1806  0.1572 -0.0491
 6901SOL    HW132162   1.528   0.158   7.542 -0.2101  0.6437 -1.0266
 6901SOL    HW232163   1.497   0.305   7.522  1.1339  2.0632  1.6878
 6902SOL     OW32164   2.307   0.703   4.227 -0.2360 -0.3720 -0.3940
 6902SOL    HW132165   2.279   0.788   4.260 -2.1781 -0.4102 -1.9579
 6902SOL    HW232166   2.293   0.712   4.133 -0.7971  3.4928  0.0432
 6903SOL     OW32167   1.948   2.657   1.013  0.3781  0.0252  0.4982
 6903SOL    HW132168   1.988   2.667   1.100 -0.3465  1.4985  0.6690
 6903SOL    HW232169   1.910   2.745   1.012 -2.0481 -1.0241  2.6743
 6904SOL     OW32170   0.902   3.244   1.809  0.0561 -0.5626 -0.0067
 6904SOL    HW132171   0.957   3.197   1.872  3.2416  1.3113 -1.3594
 6904SOL    HW232172   0.880   3.180   1.742 -2.1200  1.5289 -1.2463
 6905SOL     OW32173   0.182   3.072   2.889  0.2228 -0.5720 -0.1140
 6905SOL    HW132174   0.123   3.105   2.821  0.7982  2.3257  0.7969
 6905SOL    HW232175   0.218   2.993   2.848  0.6495 -1.8595  2.6967
 6906SOL     OW32176   4.326   4.175   6.570 -0.9043 -0.6660  0.6775
 6906SOL    HW132177   4.234   4.154   6.555 -1.1762 -0.1508  1.5983
 6906SOL    HW232178   4.318   4.219   6.655 -2.1644  0.1027  0.1597
 6907SOL     OW32179   2.237   0.173   3.056 -0.1911 -0.4394  0.1672
 6907SOL    HW132180   2.236   0.170   2.960  0.6952  0.1237  0.1505
 6907SOL    HW232181   2.182   0.097   3.075 -0.5746 -0.4375 -0.9068
 6908SOL     OW32182   2.869   0.101   6.590  0.0268  0.4769 -0.1198
 6908SOL    HW132183   2.916   0.184   6.582 -1.2624  0.9567 -2.5697
 6908SOL    HW232184   2.798   0.139   6.641  0.4220 -0.2311  0.9684
 6909SOL     OW32185   4.007   1.044   6.750  0.0780  0.4806  0.3268
 6909SOL    HW132186   4.013   1.040   6.655 -2.8723 -3.0587  0.2793
 6909SOL    HW232187   4.097   1.060   6.775 -0.0743  1.1873  0.4106
 6910SOL     OW32188   3.046   4.240   6.981 -0.0184  0.0408 -0.3260
 6910SOL    HW132189   3.128   4.199   7.009  0.0609  1.5600  1.5825
 6910SOL    HW232190   3.086   4.316   6.940  1.4095 -0.8901 -0.6782
 6911SOL     OW32191   3.688   1.771   5.874  0.1091  0.1498 -0.4265
 6911SOL    HW132192   3.702   1.685   5.914 -1.5356  0.9139  1.7741
 6911SOL    HW232193   3.774   1.783   5.833 -0.6577  2.3878 -1.3928
 6912SOL     OW32194   2.939   3.665  10.465  0.1806  0.4463  0.3082
 6912SOL    HW132195   2.970   3.643  10.553 -1.2948 -0.5868  0.5603
 6912SOL    HW232196   2.851   3.630  10.471  1.6794 -3.2761  0.8051
 6913SOL     OW32197   2.544   1.801   2.900  0.0285  0.7402  0.0609
 6913SOL    HW132198   2.540   1.742   2.975  0.0725  1.8937  0.9601
 6913SOL    HW232199   2.472   1.777   2.841  0.5944  0.4486 -0.5093
 6914SOL     OW32200   4.011   0.521   4.806 -0.0178  0.4803  0.4094
 6914SOL    HW132201   4.016   0.484   4.718  0.0506  0.3297  0.4763
 6914SOL    HW232202   3.984   0.441   4.851 -0.5870  0.2991 -0.2439
 6915SOL     OW32203   1.581   0.155   7.996  0.3029  0.3575  0.2597
 6915SOL    HW132204   1.581   0.095   8.071 -0.4603  0.1750  0.1208
 6915SOL    HW232205   1.614   0.235   8.036  1.7149  1.5049 -3.2143
 6916SOL     OW32206   3.723   4.108   2.965  0.4275  0.1514 -0.0109
 6916SOL    HW132207   3.714   4.019   2.933  1.4472 -0.2798  0.9190
 6916SOL    HW232208   3.816   4.117   2.945  0.6257 -0.4361  0.6650
 6917SOL     OW32209   0.077   2.568   0.836  0.6403 -0.6319  0.7684
 6917SOL    HW132210   0.040   2.480   0.829 -0.2368 -0.2422  0.5304
 6917SOL    HW232211   0.163   2.546   0.873 -0.4567  0.3230  3.8820
 6918SOL     OW32212   1.344   0.914   4.928  0.4481  0.4167  0.5495
 6918SOL    HW132213   1.329   0.964   4.848  2.1538  1.2163  0.7329
 6918SOL    HW232214   1.438   0.932   4.929  0.7449 -1.1505  1.4536
 6919SOL     OW32215   4.334   0.850   8.231 -0.1849  0.0986  0.3598
 6919SOL    HW132216   4.293   0.930   8.263  1.1330  1.1172 -0.4851
 6919SOL    HW232217   4.423   0.842   8.265  1.0997 -1.8735 -3.4942
 6920SOL     OW32218   4.441   1.600  15.798  0.0528  0.5970  0.8446
 6920SOL    HW132219   4.422   1.688  15.764 -0.3217  0.4936  0.7861
 6920SOL    HW232220   4.528   1.607  15.836  0.0868  1.9649  0.5448
 6921SOL     OW32221   3.262   0.405   3.868 -0.0953 -0.5922  0.1731
 6921SOL    HW132222   3.306   0.417   3.783 -2.5966  0.1318 -1.0241
 6921SOL    HW232223   3.282   0.494   3.897 -0.4216 -0.0096 -1.3662
 6922SOL     OW32224   0.830   0.878   8.938  0.0215 -0.0481 -0.2942
 6922SOL    HW132225   0.884   0.957   8.933  0.7663 -0.3929  2.5721
 6922SOL    HW232226   0.787   0.897   9.021 -0.3927  0.6765 -0.6672
 6923SOL     OW32227   3.598   3.152   6.813 -0.0733 -0.1104 -0.2713
 6923SOL    HW132228   3.553   3.212   6.753  0.9964  1.5900  0.6578
 6923SOL    HW232229   3.621   3.200   6.892  1.2426 -0.3148 -0.5413
 6924SOL     OW32230   3.808   1.650   8.289  0.4804  0.6399  0.4482
 6924SOL    HW132231   3.798   1.707   8.212  2.5058  0.7219  0.2433
 6924SOL    HW232232   3.717   1.631   8.313  0.8634 -1.4644  0.2625
 6925SOL     OW32233   1.867   0.608   3.096 -0.2398  0.1229  0.0071
 6925SOL    HW132234   1.826   0.587   3.012  0.2078  0.8816 -0.4004
 6925SOL    HW232235   1.839   0.700   3.096 -0.9478 -0.0912 -0.4457
 6926SOL     OW32236   0.964   4.481  13.090 -0.4803 -0.5469  0.5370
 6926SOL    HW132237   0.905   4.432  13.031  1.4488 -1.5107 -0.5904
 6926SOL    HW232238   0.905   4.490  13.164 -0.6369 -2.1830  0.6107
 6927SOL     OW32239   1.645   1.486   1.444 -0.0838 -0.4166 -0.1441
 6927SOL    HW132240   1.571   1.547   1.444  2.3301  2.4892  1.2864
 6927SOL    HW232241   1.612   1.398   1.426 -0.9169 -0.2345  0.4932
 6928SOL     OW32242   2.027   2.653   3.031 -0.2890 -0.1918  0.1141
 6928SOL    HW132243   1.949   2.605   3.003  0.1265  0.0273 -1.4297
 6928SOL    HW232244   2.090   2.585   3.008 -0.5726 -0.4821  0.1952
 6929SOL     OW32245   3.498   4.647   5.565 -0.2168  0.2209  0.3502
 6929SOL    HW132246   3.496   4.554   5.588  1.3509 -0.0717 -0.6605
 6929SOL    HW232247   3.569   4.639   5.501 -0.4558 -1.9574  0.3549
 6930SOL     OW32248   3.942   4.083   7.488 -0.3106  0.1983  0.3826
 6930SOL    HW132249   3.979   4.171   7.489  0.3220 -0.0645 -1.5483
 6930SOL    HW232250   3.910   4.092   7.578 -0.8039 -0.2434  0.2540
 6931SOL     OW32251   1.821   3.781   4.333 -0.1492  0.7787 -0.0385
 6931SOL    HW132252   1.758   3.714   4.359  0.7909  0.4319  1.3195
 6931SOL    HW232253   1.842   3.821   4.417  4.0228  0.4863 -0.9207
 6932SOL     OW32254   1.170   2.751   1.777 -0.2448  0.0724 -0.3467
 6932SOL    HW132255   1.246   2.716   1.731  0.4928  1.7214 -0.3977
 6932SOL    HW232256   1.103   2.718   1.717 -0.3202 -0.7697  0.2066
 6933SOL     OW32257   2.401   2.823   2.887  0.7691 -0.7055  0.1600
 6933SOL    HW132258   2.376   2.886   2.819 -0.5576  0.3212  1.6038
 6933SOL    HW232259   2.344   2.752   2.856 -0.6322 -0.6319  2.5692
 6934SOL     OW32260   3.813   3.149  10.047  0.2551 -0.1184  0.4830
 6934SOL    HW132261   3.842   3.084   9.982  4.1472  1.2596  0.7922
 6934SOL    HW232262   3.881   3.215  10.033 -1.0064  0.8480 -1.0414
 6935SOL     OW32263   2.203   3.902   0.492  0.3141 -0.6142  0.4993
 6935SOL    HW132264   2.163   3.858   0.416  0.6994  1.7505 -1.0808
 6935SOL    HW232265   2.131   3.896   0.555  0.1076 -0.0228  0.3193
 6936SOL     OW32266   0.967   0.216   3.645 -0.3014 -0.2139  0.0019
 6936SOL    HW132267   0.974   0.145   3.581  0.0409 -0.6548  0.5238
 6936SOL    HW232268   1.032   0.277   3.613  1.0979 -1.7587 -0.1008
 6937SOL     OW32269   3.384   2.557   3.976 -0.1236 -0.2718  0.5096
 6937SOL    HW132270   3.340   2.476   3.947  0.0574  0.7064 -2.5203
 6937SOL    HW232271   3.450   2.580   3.911  0.5115  0.8729  1.5785
 6938SOL     OW32272   2.748   3.808  16.244  0.8693 -0.0987 -0.0276
 6938SOL    HW132273   2.708   3.878  16.296  1.1403 -0.3168  0.4857
 6938SOL    HW232274   2.763   3.742  16.312 -4.0015  1.2427  2.3505
 6939SOL     OW32275   4.309   1.399   1.746 -0.1408 -0.3671  0.6649
 6939SOL    HW132276   4.355   1.417   1.664 -0.7473  0.9078  0.6049
 6939SOL    HW232277   4.240   1.337   1.720  1.0037 -1.5294  0.4432
 6940SOL     OW32278   4.282   3.355  11.308  0.0439 -0.5751 -0.0653
 6940SOL    HW132279   4.208   3.375  11.250  0.1851  0.2259  0.0275
 6940SOL    HW232280   4.357   3.355  11.248  0.5932  1.1100  0.6396
 6941SOL     OW32281   2.401   3.700  14.119  0.2356  0.4963  0.5843
 6941SOL    HW132282   2.418   3.717  14.211 -1.0463 -1.4401  1.1668
 6941SOL    HW232283   2.319   3.751  14.117 -0.2440 -0.4229 -4.6843
 6942SOL     OW32284   3.287   4.353   9.345  0.0278 -0.2511 -0.0141
 6942SOL    HW132285   3.368   4.319   9.307  1.3444  1.0574  1.6053
 6942SOL    HW232286   3.219   4.325   9.284 -0.2348  0.8878 -0.2424
 6943SOL     OW32287   4.331   0.451   6.751 -0.0998  0.5135 -0.2389
 6943SOL    HW132288   4.362   0.532   6.712  0.2605  0.6379  0.3098
 6943SOL    HW232289   4.250   0.478   6.795 -0.3319 -0.5382 -0.0053
 6944SOL     OW32290   4.299   3.302   0.712  0.0874  0.3645  0.1664
 6944SOL    HW132291   4.293   3.312   0.807  2.8343 -0.9568  0.4938
 6944SOL    HW232292   4.343   3.218   0.697  0.3062  0.3731  0.7685
 6945SOL     OW32293   2.922   3.475   0.469  0.3742  0.4945  0.3399
 6945SOL    HW132294   2.841   3.439   0.504 -0.5574  0.6385 -1.7080
 6945SOL    HW232295   2.924   3.432   0.383  0.6870  0.2658  0.4619
 6946SOL     OW32296   0.617   0.068   4.770 -0.0210  0.0925 -0.5632
 6946SOL    HW132297   0.639   4.715   4.713  0.1034 -0.2448 -0.0814
 6946SOL    HW232298   0.525   0.045   4.788  0.4997 -0.1230  1.8240
 6947SOL     OW32299   2.323   0.797   9.484 -0.2490  0.5002 -0.0485
 6947SOL    HW132300   2.270   0.858   9.535  0.6495  0.0791  1.4132
 6947SOL    HW232301   2.404   0.809   9.534 -0.7368  2.2538  0.3036
 6948SOL     OW32302   1.962   1.091   8.459  0.4646  0.0371  0.6216
 6948SOL    HW132303   1.897   1.044   8.406  0.6518  2.3711 -1.7169
 6948SOL    HW232304   1.901   1.163   8.475 -1.5013 -0.8992 -2.5856
 6949SOL     OW32305   3.831   0.658  16.165 -0.1292  0.4279  0.2377
 6949SOL    HW132306   3.803   0.612  16.086 -0.7664  1.3952 -0.0930
 6949SOL    HW232307   3.924   0.634  16.164 -0.2964 -0.0496 -3.8306
 6950SOL     OW32308   3.597   2.232   2.874 -0.2362 -0.2147  0.2080
 6950SOL    HW132309   3.622   2.324   2.861  0.8801 -0.5533  0.0256
 6950SOL    HW232310   3.627   2.191   2.793 -2.1627 -0.0548 -0.5981
 6951SOL     OW32311   3.219   1.464   7.634 -0.0877  0.2055 -0.2964
 6951SOL    HW132312   3.178   1.435   7.716  2.8746  0.1672  1.1574
 6951SOL    HW232313   3.167   1.541   7.613  2.3535  1.6162 -1.1150
 6952SOL     OW32314   1.637   1.168   8.303  0.0487 -0.1583 -0.0473
 6952SOL    HW132315   1.681   1.182   8.387  1.6288  3.2720 -1.4356
 6952SOL    HW232316   1.552   1.205   8.327 -0.2074 -0.1727 -0.9691
 6953SOL     OW32317   3.817   2.150   3.029 -0.0286 -0.6051  0.5819
 6953SOL    HW132318   3.774   2.204   2.962  1.1107 -0.5820 -0.1416
 6953SOL    HW232319   3.889   2.205   3.059  0.0906 -1.6757  2.2523
 6954SOL     OW32320   0.090   1.875   1.296  0.0049  0.0048 -0.4011
 6954SOL    HW132321   0.138   1.923   1.364  1.3292  0.6523 -1.7970
 6954SOL    HW232322   0.110   1.785   1.321  0.2993 -0.1211 -1.0852
 6955SOL     OW32323   0.683   4.236   7.050  0.2975 -0.2252 -0.0990
 6955SOL    HW132324   0.767   4.203   7.081  0.0622  0.2554  1.0782
 6955SOL    HW232325   0.629   4.163   7.082 -0.7586  1.0879  1.1439
 6956SOL     OW32326   3.606   0.937   8.759 -0.1438  0.2800 -0.3751
 6956SOL    HW132327   3.511   0.923   8.763 -0.0594 -0.5852 -1.2882
 6956SOL    HW232328   3.605   1.030   8.781 -2.9051 -0.1503  1.2128
 6957SOL     OW32329   3.886   1.650   9.736 -0.2735  0.4517  0.1591
 6957SOL    HW132330   3.976   1.619   9.733 -0.4640  0.0301 -1.5807
 6957SOL    HW232331   3.842   1.583   9.683  1.4924 -0.7993  0.2710
 6958SOL     OW32332   4.274   0.836   0.301  0.0136 -0.6658  0.0610
 6958SOL    HW132333   4.246   0.890   0.374  1.1071 -0.5756  0.4208
 6958SOL    HW232334   4.359   0.810   0.337  0.2852  0.7178  0.4335
 6959SOL     OW32335   0.288   0.543   9.487  0.4045 -0.6755  0.1643
 6959SOL    HW132336   0.294   0.615   9.424 -1.6584  0.7002  1.5619
 6959SOL    HW232337   0.205   0.562   9.531  0.0269 -1.1011 -0.3571
 6960SOL     OW32338   3.499   4.437   2.080  0.0525  0.6976  0.5366
 6960SOL    HW132339   3.570   4.388   2.039  0.5402  2.5335 -0.8059
 6960SOL    HW232340   3.449   4.367   2.122 -0.7438  1.0044  0.0905
 6961SOL     OW32341   3.708   3.840   8.964 -0.1199  0.0756 -0.2605
 6961SOL    HW132342   3.673   3.802   9.045  2.2890 -0.5887  0.4462
 6961SOL    HW232343   3.682   3.932   8.968 -1.8387 -0.3905 -0.5352
 6962SOL     OW32344   1.417   3.158   4.766 -0.0413 -0.4880 -0.4093
 6962SOL    HW132345   1.386   3.212   4.694 -1.2458 -0.0493  0.4383
 6962SOL    HW232346   1.493   3.120   4.723 -1.6822 -1.7123 -2.2144
 6963SOL     OW32347   0.458   4.404  11.745  0.2511  0.1663  0.8529
 6963SOL    HW132348   0.479   4.464  11.817  0.4378 -0.3183  1.1977
 6963SOL    HW232349   0.549   4.384  11.722  0.4199 -0.4647  2.1081
 6964SOL     OW32350   0.863   3.682   5.506  0.4773  0.1716  0.1760
 6964SOL    HW132351   0.946   3.711   5.467  1.0020 -0.3460  0.8937
 6964SOL    HW232352   0.823   3.652   5.425  0.7074 -1.5482  0.6917
 6965SOL     OW32353   2.080   4.406  14.920 -0.0948  0.0497  0.2753
 6965SOL    HW132354   1.989   4.429  14.897 -0.0963 -1.1258 -0.9045
 6965SOL    HW232355   2.076   4.412  15.015 -1.9315 -1.3177  0.2787
 6966SOL     OW32356   0.014   0.406   2.231 -0.2457 -0.4354  0.1140
 6966SOL    HW132357   0.023   0.369   2.143  2.3982 -2.1506  1.1261
 6966SOL    HW232358   4.656   0.458   2.215 -0.8212 -0.9778  1.1800
 6967SOL     OW32359   4.566   0.039  11.782 -0.5908  0.3180 -0.4617
 6967SOL    HW132360   4.514   0.043  11.863 -2.1100  0.5608 -1.4527
 6967SOL    HW232361   4.603   4.673  11.800  1.7532  1.2523 -0.8854
 6968SOL     OW32362   4.520   1.974   0.304 -0.3480 -0.3611 -0.6129
 6968SOL    HW132363   4.431   2.008   0.307 -0.6188 -0.9527 -2.3026
 6968SOL    HW232364   4.514   1.882   0.279  0.3617  0.5267 -3.9919
 6969SOL     OW32365   0.952   4.599  16.606  0.6168  0.0177 -0.1711
 6969SOL    HW132366   0.994   4.658  16.543 -0.5539  0.7779 -0.2596
 6969SOL    HW232367   1.012   4.610  16.679 -0.2339 -0.6840  0.6281
 6970SOL     OW32368   3.192   0.062  14.476  0.0231 -0.5811 -0.3694
 6970SOL    HW132369   3.222   0.072  14.386  0.1870  0.4142 -0.2043
 6970SOL    HW232370   3.143   4.702  14.463  0.1877 -0.4825 -1.5988
 6971SOL     OW32371   0.597   2.224   1.648 -0.5469  0.2204 -0.3210
 6971SOL    HW132372   0.568   2.313   1.670  3.0278  0.9353  1.5131
 6971SOL    HW232373   0.551   2.207   1.566 -2.6071 -2.7576  1.4551
 6972SOL     OW32374   2.708   3.345   4.223 -0.1765  0.1631  0.5924
 6972SOL    HW132375   2.680   3.273   4.166  1.9776 -1.0440  1.0053
 6972SOL    HW232376   2.638   3.409   4.216  0.9208  1.3273  0.2821
 6973SOL     OW32377   1.620   1.302   7.697 -0.5000 -0.0302 -0.1275
 6973SOL    HW132378   1.566   1.329   7.622  0.5136  2.6089  0.0854
 6973SOL    HW232379   1.596   1.363   7.768 -0.0678  0.3384 -0.2959
 6974SOL     OW32380   1.156   4.280   2.312  0.2663 -0.1830  0.3124
 6974SOL    HW132381   1.129   4.306   2.224 -0.2386  0.3227  0.6234
 6974SOL    HW232382   1.213   4.207   2.285  1.5990  0.1020  2.3872
 6975SOL     OW32383   0.487   1.570   2.390  0.1591  0.1243  0.8671
 6975SOL    HW132384   0.525   1.522   2.316 -1.3209 -1.0827  0.9058
 6975SOL    HW232385   0.474   1.502   2.456  1.0228  0.5089  1.4453
 6976SOL     OW32386   0.137   2.143   9.257 -0.2237 -0.1528  0.2267
 6976SOL    HW132387   0.193   2.210   9.297  1.0250 -1.7390  1.1258
 6976SOL    HW232388   0.137   2.162   9.164 -2.4079 -2.8792 -0.3333
 6977SOL     OW32389   3.199   4.430   6.861  0.0834  0.6282 -0.0382
 6977SOL    HW132390   3.214   4.503   6.920  0.0301 -0.0865  0.8686
 6977SOL    HW232391   3.278   4.440   6.809  0.3164  0.3407  0.2550
 6978SOL     OW32392   0.045   4.682  17.582 -0.2764 -0.1121 -0.1408
 6978SOL    HW132393   4.678   4.648  17.598 -0.5045  0.5748  0.0531
 6978SOL    HW232394   0.027   0.008  17.501 -1.0897  0.4080  0.3415
 6979SOL     OW32395   0.629   0.086  11.552 -0.0061 -0.0262  0.2619
 6979SOL    HW132396   0.685   0.106  11.627 -0.1575 -0.6304  0.5415
 6979SOL    HW232397   0.686   0.099  11.477 -1.7622 -0.7779 -1.1922
 6980SOL     OW32398   2.899   2.277   1.827 -0.3323 -0.4860  0.3234
 6980SOL    HW132399   2.810   2.244   1.823 -0.8644  1.0387 -0.4193
 6980SOL    HW232400   2.934   2.196   1.789 -0.9608 -0.4616 -0.3100
 6981SOL     OW32401   0.656   0.616   8.093  0.6672  0.3460 -0.2667
 6981SOL    HW132402   0.602   0.665   8.031 -1.8727 -1.5486  0.4357
 6981SOL    HW232403   0.595   0.589   8.161 -0.3663  0.0572 -1.3051
 6982SOL     OW32404   1.901   4.223   1.968 -0.1833  0.4887 -0.5484
 6982SOL    HW132405   1.951   4.160   1.917  1.3672  1.0024  0.3441
 6982SOL    HW232406   1.884   4.293   1.905 -1.7011  3.0143  2.6549
 6983SOL     OW32407   2.218   0.618   5.107 -0.1096  0.4257 -0.0442
 6983SOL    HW132408   2.255   0.617   5.195  0.4251  1.2249 -0.2651
 6983SOL    HW232409   2.206   0.525   5.087 -0.5548  0.5185 -0.2329
 6984SOL     OW32410   1.342   0.141   4.657  0.2766  0.2238  0.3693
 6984SOL    HW132411   1.390   0.199   4.598 -1.7058  0.3369 -1.1500
 6984SOL    HW232412   1.324   0.073   4.592  1.6464  0.8980 -0.7178
 6985SOL     OW32413   3.695   1.019   6.565  0.1162  0.0773 -0.2634
 6985SOL    HW132414   3.764   1.013   6.499 -1.8643 -0.3160 -2.3163
 6985SOL    HW232415   3.739   0.996   6.647 -0.4216 -1.2052 -0.3356
 6986SOL     OW32416   0.871   0.430   2.600  0.3878  0.2681 -0.0895
 6986SOL    HW132417   0.808   0.501   2.589 -0.0607  0.0052  0.8481
 6986SOL    HW232418   0.960   0.467   2.600  0.2451  0.6053  0.1276
 6987SOL     OW32419   1.989   3.111   8.671  0.2827 -0.0880 -0.5471
 6987SOL    HW132420   1.908   3.161   8.679  0.7260  0.4354  0.6985
 6987SOL    HW232421   1.970   3.030   8.717 -0.9238  0.4757 -0.0496
 6988SOL     OW32422   2.286   3.200  16.494 -0.1893  0.3169 -0.2224
 6988SOL    HW132423   2.306   3.145  16.418 -0.8119  0.7946 -0.7367
 6988SOL    HW232424   2.338   3.145  16.553 -1.0525  0.2177  0.4568
 6989SOL     OW32425   3.807   3.137  15.533 -0.1509 -0.1189 -0.0292
 6989SOL    HW132426   3.863   3.113  15.606 -1.7233  0.4475  1.3591
 6989SOL    HW232427   3.870   3.164  15.466  0.2045 -1.1971 -0.1156
 6990SOL     OW32428   1.049   2.367   1.806  0.5795  0.4748  0.1271
 6990SOL    HW132429   1.033   2.362   1.712 -0.6545  2.1241  0.2442
 6990SOL    HW232430   1.134   2.411   1.794  1.3246 -1.3345 -1.0766
 6991SOL     OW32431   1.074   4.272   6.111  0.2082  1.0986 -0.4156
 6991SOL    HW132432   1.141   4.210   6.083  0.7360  1.2772  0.4610
 6991SOL    HW232433   1.090   4.268   6.205 -0.5695 -1.8667 -0.4110
 6992SOL     OW32434   3.872   3.792   3.579 -0.2423  0.2504 -0.2039
 6992SOL    HW132435   3.889   3.702   3.552 -0.8219  0.6981 -2.0302
 6992SOL    HW232436   3.890   3.833   3.495  0.1571 -1.4072 -0.9345
 6993SOL     OW32437   2.955   0.634   4.767 -0.2630 -0.7579  0.3188
 6993SOL    HW132438   2.955   0.702   4.836 -1.5284  0.0822 -0.5144
 6993SOL    HW232439   3.006   0.676   4.698  0.7849 -0.3091  1.3618
 6994SOL     OW32440   2.503   0.936   2.053  0.4767  0.2450 -0.1637
 6994SOL    HW132441   2.560   0.989   2.109 -0.2869  1.8500 -0.9349
 6994SOL    HW232442   2.442   0.903   2.120  0.5156  0.0650 -0.2153
 6995SOL     OW32443   1.118   3.980  14.350 -0.8583 -0.3824  0.3323
 6995SOL    HW132444   1.212   3.976  14.330 -0.8926  0.1541  0.0611
 6995SOL    HW232445   1.095   3.980  14.257  1.3726 -1.9782 -0.2271
 6996SOL     OW32446   1.592   3.792   8.236  0.1207 -0.0881  0.5024
 6996SOL    HW132447   1.498   3.788   8.220  0.4092 -1.0947 -0.9800
 6996SOL    HW232448   1.590   3.802   8.331  1.0646  2.3855  0.2736
 6997SOL     OW32449   0.973   0.633  14.396  0.2642 -0.0649 -0.2795
 6997SOL    HW132450   0.971   0.621  14.301  0.6061  2.7688 -0.6575
 6997SOL    HW232451   1.048   0.575  14.412  1.1982  1.0614 -0.5227
 6998SOL     OW32452   4.664   1.830   2.774  0.3469 -0.3362 -0.1804
 6998SOL    HW132453   4.651   1.833   2.679 -0.8654 -1.2225 -0.0438
 6998SOL    HW232454   0.039   1.824   2.779  0.5053  0.1422 -2.3065
 6999SOL     OW32455   3.308   0.969   7.394  0.0902 -0.3429  0.0711
 6999SOL    HW132456   3.365   1.036   7.431 -1.1389  1.3154 -1.0174
 6999SOL    HW232457   3.284   0.928   7.477 -0.0188  1.8877  1.1443
 7000SOL     OW32458   2.541   0.397  12.708 -0.4598  0.3355 -0.0144
 7000SOL    HW132459   2.571   0.438  12.790 -0.1056  0.3217 -0.1391
 7000SOL    HW232460   2.623   0.361  12.676  0.2787  1.3532  0.7327
 7001SOL     OW32461   3.067   2.035  11.352 -0.8325  0.3444 -0.3873
 7001SOL    HW132462   3.148   2.007  11.394 -0.6544  2.2794  0.5669
 7001SOL    HW232463   3.113   2.091  11.289  0.2983 -0.8931 -0.6573
 7002SOL     OW32464   3.336   1.176   1.721  0.0640  0.3821 -0.7902
 7002SOL    HW132465   3.402   1.202   1.785 -0.2833  1.4009 -0.8445
 7002SOL    HW232466   3.357   1.218   1.638 -0.2291  1.7589 -0.1704
 7003SOL     OW32467   4.445   2.753   6.554 -0.3787  0.8687  0.0772
 7003SOL    HW132468   4.355   2.765   6.582 -1.1377 -2.3353 -1.0325
 7003SOL    HW232469   4.441   2.803   6.472 -1.6406 -0.4742 -0.6652
 7004SOL     OW32470   0.239   3.953   1.842 -0.0161  0.0133  0.4781
 7004SOL    HW132471   0.187   3.934   1.920 -2.3589  0.0133 -1.0807
 7004SOL    HW232472   0.193   3.903   1.774 -0.9658  1.3442  0.1437
 7005SOL     OW32473   4.389   1.842   3.123  0.4615  0.5154 -0.4324
 7005SOL    HW132474   4.397   1.752   3.092  2.3956  0.5153  0.0624
 7005SOL    HW232475   4.311   1.872   3.077  0.6381  0.6044 -0.6752
 7006SOL     OW32476   1.267   0.391  13.710  0.0360 -0.1636  0.5861
 7006SOL    HW132477   1.209   0.449  13.660 -0.2397 -2.2319 -1.5271
 7006SOL    HW232478   1.328   0.348  13.650  1.1307  1.4699  0.5254
 7007SOL     OW32479   3.345   1.693   3.152 -0.7770  0.0848 -0.3098
 7007SOL    HW132480   3.421   1.651   3.192 -0.3042  0.3869 -0.9020
 7007SOL    HW232481   3.393   1.738   3.083 -0.3218 -0.3707 -0.2919
 7008SOL     OW32482   3.779   4.332  11.026  0.1144  0.2667 -1.1603
 7008SOL    HW132483   3.760   4.369  10.940 -0.5699  2.1220 -0.2071
 7008SOL    HW232484   3.844   4.395  11.058  0.2114 -0.6095  0.3820
 7009SOL     OW32485   2.480   4.051   7.165 -0.2940  0.0925 -0.7806
 7009SOL    HW132486   2.512   4.024   7.251 -0.9017  0.7236 -0.3592
 7009SOL    HW232487   2.436   4.135   7.179  0.2921  0.2508  0.1114
 7010SOL     OW32488   3.600   0.402   9.683 -0.1130  0.6528 -0.1674
 7010SOL    HW132489   3.613   0.316   9.643  0.5775 -0.1582  1.7893
 7010SOL    HW232490   3.526   0.375   9.738 -0.6903  2.5392 -0.0221
 7011SOL     OW32491   2.693   2.376   5.723  0.3685  0.2180 -0.4375
 7011SOL    HW132492   2.688   2.401   5.815 -3.0208  0.2663 -0.6391
 7011SOL    HW232493   2.748   2.298   5.718 -1.2419 -0.8914 -0.8439
 7012SOL     OW32494   3.637   3.298   8.042  0.5217 -0.7373 -0.0776
 7012SOL    HW132495   3.718   3.341   8.069  1.8805 -2.5005 -1.3459
 7012SOL    HW232496   3.613   3.263   8.128 -2.1315  0.5869 -0.2711
 7013SOL     OW32497   1.297   0.708   3.851 -0.1786 -0.5193 -0.0357
 7013SOL    HW132498   1.286   0.615   3.871  1.3367 -0.9839 -1.3697
 7013SOL    HW232499   1.227   0.734   3.792 -0.7289 -0.7174  0.5368
 7014SOL     OW32500   1.586   1.122  12.476  0.2040  0.2418  0.6043
 7014SOL    HW132501   1.635   1.152  12.400 -1.8410  0.6075 -0.5832
 7014SOL    HW232502   1.493   1.135  12.454  0.6267 -0.4322 -1.5886
 7015SOL     OW32503   2.899   1.274   3.915  0.9992 -0.7212 -0.8103
 7015SOL    HW132504   2.825   1.233   3.870  1.0055 -2.2491  0.5877
 7015SOL    HW232505   2.939   1.203   3.964 -1.4019 -0.9091  0.8613
 7016SOL     OW32506   4.043   0.651   3.746 -0.3668 -0.6220  0.0846
 7016SOL    HW132507   3.951   0.625   3.755  0.2549 -1.6146  3.5606
 7016SOL    HW232508   4.073   0.670   3.835  0.4489  0.0784 -0.3472
 7017SOL     OW32509   3.839   3.884   6.178 -0.2998 -0.6022  0.1650
 7017SOL    HW132510   3.909   3.939   6.212  0.7128 -1.4226 -0.5942
 7017SOL    HW232511   3.764   3.939   6.199  1.5495  2.1257 -0.3934
 7018SOL     OW32512   1.635   1.865   7.181  0.0887 -0.5132  0.0290
 7018SOL    HW132513   1.596   1.934   7.127  1.1202 -0.0622 -0.1399
 7018SOL    HW232514   1.668   1.906   7.261 -0.2670  0.1556 -0.1708
 7019SOL     OW32515   3.021   4.575   4.910 -0.0853  0.0908 -0.4810
 7019SOL    HW132516   2.980   4.630   4.843 -0.6948  1.6517  1.1529
 7019SOL    HW232517   3.026   4.640   4.981  0.1563 -0.5968  0.1275
 7020SOL     OW32518   3.673   3.694   7.243 -0.8236 -0.8783  0.3852
 7020SOL    HW132519   3.678   3.786   7.269  0.1615 -0.2543 -1.9609
 7020SOL    HW232520   3.699   3.704   7.151  0.9427 -0.9700  0.8725
 7021SOL     OW32521   0.997   1.606  12.621  0.1051 -0.0290 -0.4051
 7021SOL    HW132522   0.976   1.686  12.670 -2.8232 -0.3042 -1.2397
 7021SOL    HW232523   1.022   1.539  12.685  1.5375 -0.6548 -1.6496
 7022SOL     OW32524   4.280   0.816   4.823  0.2563 -0.3932 -0.2041
 7022SOL    HW132525   4.349   0.749   4.830  2.2440  1.7446  0.6805
 7022SOL    HW232526   4.212   0.777   4.878  0.4119  1.1367  1.0402
 7023SOL     OW32527   4.404   4.430   4.796 -0.0474 -0.1601  0.2572
 7023SOL    HW132528   4.433   4.479   4.719 -2.1363  3.9808  2.1232
 7023SOL    HW232529   4.471   4.460   4.858 -0.2034  1.3474 -0.2966
 7024SOL     OW32530   2.681   3.513   3.425  0.5702 -0.0575 -0.5814
 7024SOL    HW132531   2.616   3.549   3.364 -0.0796  0.8716  0.6523
 7024SOL    HW232532   2.718   3.454   3.359 -1.0766 -2.4508  0.6400
 7025SOL     OW32533   1.150   3.897   6.126  0.4701  0.1825  0.0529
 7025SOL    HW132534   1.223   3.837   6.113  0.4655  0.2701 -0.3527
 7025SOL    HW232535   1.197   3.976   6.154 -0.3451  1.4823 -2.2192
 7026SOL     OW32536   4.443   1.457   5.949 -0.1435  0.0024 -0.3852
 7026SOL    HW132537   4.389   1.474   6.027 -1.1995 -2.8606 -0.4784
 7026SOL    HW232538   4.395   1.396   5.892  0.2617 -0.2430 -0.4628
 7027SOL     OW32539   2.990   4.538   4.428  0.1051 -0.1049  0.1553
 7027SOL    HW132540   2.959   4.493   4.350 -2.0975 -0.7646  1.3778
 7027SOL    HW232541   2.990   4.467   4.492  0.0721 -1.4533 -1.3509
 7028SOL     OW32542   3.887   2.568   2.171  0.2749 -0.2899  0.2229
 7028SOL    HW132543   3.808   2.618   2.192  0.6129  0.1041  0.5571
 7028SOL    HW232544   3.936   2.592   2.250 -1.8586  1.6862  0.9654
 7029SOL     OW32545   1.325   3.826   6.760 -0.5556 -0.7276  0.1725
 7029SOL    HW132546   1.387   3.754   6.763 -0.0283 -0.1974  2.5753
 7029SOL    HW232547   1.249   3.794   6.808 -1.1431  0.5875  0.1431
 7030SOL     OW32548   1.580   3.287   5.134 -0.2370  0.2145 -0.3480
 7030SOL    HW132549   1.640   3.289   5.209 -1.1946 -1.7376  0.4690
 7030SOL    HW232550   1.588   3.194   5.110 -0.1801 -0.1868  1.2433
 7031SOL     OW32551   3.258   0.637   7.468  0.0491  1.4395 -0.1727
 7031SOL    HW132552   3.332   0.586   7.503 -1.0319  0.8977  1.3351
 7031SOL    HW232553   3.283   0.659   7.378  1.8043  2.4433  0.5612
 7032SOL     OW32554   0.875   1.743   7.258 -0.8269  0.3680 -0.1351
 7032SOL    HW132555   0.882   1.744   7.162 -2.9772  3.8507 -0.2344
 7032SOL    HW232556   0.954   1.792   7.282 -0.5478 -0.8032  1.3313
 7033SOL     OW32557   4.054   2.201   6.472  0.3503  0.0177  0.4654
 7033SOL    HW132558   4.084   2.290   6.453 -1.1912  0.7890  1.6436
 7033SOL    HW232559   4.041   2.167   6.384 -0.0353  1.3533  0.0174
 7034SOL     OW32560   1.730   1.570   8.728 -0.6804  0.6843  0.3900
 7034SOL    HW132561   1.751   1.494   8.782 -0.8611  1.2132  1.2029
 7034SOL    HW232562   1.682   1.544   8.649  0.3785 -0.9874  0.2960
 7035SOL     OW32563   3.837   3.105   9.035 -0.8666  0.3605 -0.2152
 7035SOL    HW132564   3.924   3.090   9.071 -0.4890  1.8256 -0.5081
 7035SOL    HW232565   3.786   3.074   9.110  1.2226  0.5250  1.2499
 7036SOL     OW32566   3.748   3.717   6.749 -0.3676  0.4251 -0.0062
 7036SOL    HW132567   3.678   3.756   6.697 -1.1771 -0.9908  0.0393
 7036SOL    HW232568   3.826   3.728   6.695 -0.6668  0.4444 -0.4287
 7037SOL     OW32569   3.784   0.748  11.246 -0.6284  0.3224  0.1814
 7037SOL    HW132570   3.859   0.783  11.293 -1.6773  0.5645  1.7022
 7037SOL    HW232571   3.824   0.733  11.160 -3.1770  1.8725 -1.2906
 7038SOL     OW32572   1.733   2.524  11.962 -0.3131 -0.1199 -0.6556
 7038SOL    HW132573   1.720   2.502  12.054 -2.2363  0.6133 -0.7531
 7038SOL    HW232574   1.786   2.454  11.924  0.1396 -0.5179  0.7013
 7039SOL     OW32575   0.325   1.440   7.832 -0.6101  0.1601 -0.0400
 7039SOL    HW132576   0.308   1.448   7.738 -1.4839 -0.0565  0.1060
 7039SOL    HW232577   0.315   1.533   7.853  1.9080  0.4338  0.0117
 7040SOL     OW32578   0.981   3.526  11.313  0.1809  0.0639  0.4866
 7040SOL    HW132579   0.916   3.567  11.255 -0.4771  0.1726  1.2895
 7040SOL    HW232580   1.041   3.483  11.252  0.9539  0.4567  0.9722
 7041SOL     OW32581   3.765   4.621   6.644  0.2106 -0.3901  0.4742
 7041SOL    HW132582   3.823   4.561   6.692  1.5282 -1.0805 -1.9942
 7041SOL    HW232583   3.775   4.596   6.552  0.5261  1.3827  0.0378
 7042SOL     OW32584   3.752   1.383   1.353  0.4752  0.0394  0.1728
 7042SOL    HW132585   3.730   1.327   1.428  1.1286  1.5289  1.4822
 7042SOL    HW232586   3.738   1.317   1.285 -2.6647 -0.6863  1.5608
 7043SOL     OW32587   2.852   2.341   8.003  0.5633  0.5542 -0.8515
 7043SOL    HW132588   2.890   2.414   8.052  2.4105 -1.0996  0.2040
 7043SOL    HW232589   2.828   2.288   8.078  1.7762  2.0246  0.5961
 7044SOL     OW32590   2.516   0.576   4.013 -0.4970  0.1963  0.6414
 7044SOL    HW132591   2.464   0.637   3.961 -1.2546  1.0011  2.3612
 7044SOL    HW232592   2.579   0.543   3.949  0.2834  3.0358 -0.0495
 7045SOL     OW32593   3.908   0.307   5.574  0.1894  0.1501  0.0717
 7045SOL    HW132594   3.947   0.220   5.559  1.5990  0.4191  2.1406
 7045SOL    HW232595   3.872   0.294   5.662 -0.5444 -0.0070 -0.2502
 7046SOL     OW32596   1.052   3.685   8.908 -0.2471 -0.0002 -0.4938
 7046SOL    HW132597   0.990   3.726   8.848  0.3267  1.6610  0.0477
 7046SOL    HW232598   1.126   3.667   8.850 -0.8529  0.7475 -1.5060
 7047SOL     OW32599   4.057   0.799  10.639  0.3420 -0.5217 -0.2714
 7047SOL    HW132600   4.136   0.760  10.676  0.1463  0.8882  1.6292
 7047SOL    HW232601   3.992   0.766  10.701  0.6655 -0.7897 -0.0747
 7048SOL     OW32602   0.972   0.040   7.518  0.0503 -0.1865 -0.2366
 7048SOL    HW132603   1.015   4.686   7.477 -0.5141 -1.0822  0.8368
 7048SOL    HW232604   1.045   0.094   7.548  0.5817 -0.8616 -0.3231
 7049SOL     OW32605   1.220   3.679   6.446  0.3413  0.4657  0.2266
 7049SOL    HW132606   1.256   3.690   6.358 -0.4491 -2.8361 -0.5214
 7049SOL    HW232607   1.216   3.769   6.477  4.1135  1.1745 -1.3392
 7050SOL     OW32608   1.110   1.913   7.213  0.6073 -0.4185 -0.0762
 7050SOL    HW132609   1.197   1.942   7.241 -0.2047  1.9584 -0.0517
 7050SOL    HW232610   1.138   1.853   7.144  1.6449  2.4334 -2.1383
 7051SOL     OW32611   0.241   2.839   3.610  0.3263  0.0519  0.3126
 7051SOL    HW132612   0.292   2.757   3.608 -0.5674 -0.4689 -1.5584
 7051SOL    HW232613   0.281   2.895   3.676  1.6319  0.3570 -0.7226
 7052SOL     OW32614   4.225   2.147   3.114  0.0168 -0.2910 -0.1082
 7052SOL    HW132615   4.186   2.166   3.029 -1.3067  0.1168  0.5968
 7052SOL    HW232616   4.295   2.212   3.105 -1.0441  0.6778 -1.3924
 7053SOL     OW32617   2.242   2.068   8.719  0.1277 -0.2797 -0.1490
 7053SOL    HW132618   2.197   2.147   8.692  0.7035  0.7038  1.7797
 7053SOL    HW232619   2.168   2.014   8.747  0.3525 -0.1979  0.6183
 7054SOL     OW32620   3.056   1.794   8.794 -0.2717 -0.3970  0.3435
 7054SOL    HW132621   3.034   1.720   8.737  0.4694 -0.9242  0.7305
 7054SOL    HW232622   3.057   1.755   8.881  2.0717  0.6499  0.7930
 7055SOL     OW32623   3.183   0.066   4.093  0.4017  0.5905 -0.3156
 7055SOL    HW132624   3.095   0.061   4.129 -0.0150  0.9243 -1.2919
 7055SOL    HW232625   3.217   4.714   4.145  2.9805  0.2828 -2.4421
 7056SOL     OW32626   1.022   1.687  12.359 -0.1618  0.1126  0.7000
 7056SOL    HW132627   1.026   1.666  12.453  0.3614 -0.4973  0.5415
 7056SOL    HW232628   1.110   1.717  12.337 -1.1773  2.0172 -0.7095
 7057SOL     OW32629   3.470   4.393   0.859  0.2881 -0.0530  0.0726
 7057SOL    HW132630   3.566   4.396   0.866  0.2794  0.5128 -0.1132
 7057SOL    HW232631   3.465   4.317   0.800 -0.4886  0.2593 -0.2566
 7058SOL     OW32632   0.418   1.876   4.874 -0.5690 -0.7498 -0.3824
 7058SOL    HW132633   0.398   1.782   4.865  0.0321 -1.0946  1.9246
 7058SOL    HW232634   0.478   1.890   4.800 -2.1731  1.2039 -1.3245
 7059SOL     OW32635   0.160   1.997   2.513 -0.0737 -0.0801 -0.7198
 7059SOL    HW132636   0.192   2.030   2.430  1.9223  0.9219  0.4405
 7059SOL    HW232637   0.070   2.027   2.505 -0.0911  0.6475  2.2258
 7060SOL     OW32638   4.428   3.425   3.171 -0.2995  0.0046 -0.4448
 7060SOL    HW132639   4.336   3.399   3.169 -1.5946  4.7290 -1.4345
 7060SOL    HW232640   4.466   3.351   3.219  0.8936 -0.2898 -1.8423
 7061SOL     OW32641   0.764   4.531   7.586 -0.2909  0.0297 -0.6081
 7061SOL    HW132642   0.804   4.578   7.660  0.2489 -0.3387 -0.6712
 7061SOL    HW232643   0.676   4.518   7.623 -0.0540 -0.9148 -0.3800
 7062SOL     OW32644   3.765   4.651   8.286 -0.0286 -0.1365  0.4780
 7062SOL    HW132645   3.684   4.679   8.244 -0.6297 -1.1332  0.9699
 7062SOL    HW232646   3.808   0.015   8.297  0.0127 -0.2030  0.8096
 7063SOL     OW32647   2.637   2.113   0.989 -0.0634 -0.1034  1.0790
 7063SOL    HW132648   2.704   2.059   1.029 -0.0653 -1.0292 -0.1715
 7063SOL    HW232649   2.578   2.046   0.954  0.4593 -0.7494  1.4452
 7064SOL     OW32650   4.492   0.405  17.082 -0.5374 -0.2570 -0.2391
 7064SOL    HW132651   4.568   0.444  17.125 -0.5681 -0.2362 -0.2039
 7064SOL    HW232652   4.537   0.350  17.018  0.7903 -0.0860  0.5608
 7065SOL     OW32653   3.019   0.709   7.558  0.3428  0.3869  0.3820
 7065SOL    HW132654   3.058   0.713   7.646  1.3540 -1.1317 -0.0144
 7065SOL    HW232655   3.079   0.651   7.511  0.3126  2.1424 -1.8354
 7066SOL     OW32656   2.327   4.417   8.102 -0.2530 -0.5158 -0.4922
 7066SOL    HW132657   2.356   4.384   8.017  0.0596 -0.6338 -0.3376
 7066SOL    HW232658   2.342   4.512   8.106  1.8273 -0.8878  0.2821
 7067SOL     OW32659   4.037   2.953   9.205  0.1424 -0.8720 -0.2173
 7067SOL    HW132660   4.117   2.966   9.257 -0.5502  0.4143  0.5238
 7067SOL    HW232661   4.066   2.878   9.152  0.1943 -0.3267 -0.9626
 7068SOL     OW32662   0.266   3.673   3.728 -0.0413 -0.2757  0.4770
 7068SOL    HW132663   0.335   3.719   3.775 -0.0728  0.7211 -0.4531
 7068SOL    HW232664   0.318   3.604   3.689  0.1579  1.4381 -2.2670
 7069SOL     OW32665   4.029   1.422  12.636 -0.1987 -0.2796 -0.0786
 7069SOL    HW132666   3.958   1.423  12.572  1.7874  0.6555 -2.2531
 7069SOL    HW232667   4.110   1.429  12.585 -1.4380  0.3803 -1.9281
 7070SOL     OW32668   1.701   0.163   3.506  0.3315 -0.1556 -0.5721
 7070SOL    HW132669   1.750   0.226   3.453  1.8992 -0.6870  0.2348
 7070SOL    HW232670   1.777   0.128   3.552  0.0467  0.5035  0.3955
 7071SOL     OW32671   0.648   1.876   2.088  0.0950  0.0014  0.5303
 7071SOL    HW132672   0.621   1.953   2.038  0.4283 -0.3792 -0.2369
 7071SOL    HW232673   0.594   1.806   2.049  0.5601 -0.2955  0.4179
 7072SOL     OW32674   0.698   2.520  10.338 -0.3722 -0.4437 -0.0490
 7072SOL    HW132675   0.769   2.551  10.395  0.3403  0.5856 -1.4991
 7072SOL    HW232676   0.736   2.505  10.252  0.1064  3.0196 -0.4317
 7073SOL     OW32677   4.370   2.796   4.078  0.1775  0.4601  0.6318
 7073SOL    HW132678   4.290   2.802   4.131  0.7079 -1.6920  1.6731
 7073SOL    HW232679   4.342   2.797   3.987  0.5804  1.1290  0.5196
 7074SOL     OW32680   2.023   1.534   5.792  0.3063 -0.4087 -0.3986
 7074SOL    HW132681   2.024   1.492   5.706 -1.1599  0.4493 -0.8389
 7074SOL    HW232682   1.929   1.535   5.807  0.3519  0.2123 -0.1559
 7075SOL     OW32683   4.707   1.440   2.983 -0.1009 -0.0524 -0.0859
 7075SOL    HW132684   4.703   1.452   2.888  2.8120  2.1305  0.0831
 7075SOL    HW232685   0.074   1.474   2.999 -0.7738  1.0226  1.2499
 7076SOL     OW32686   3.151   3.667   3.223  0.0912 -0.5268 -0.0032
 7076SOL    HW132687   3.090   3.644   3.293  1.0246 -0.4867  0.8117
 7076SOL    HW232688   3.229   3.614   3.239 -0.3432 -0.6048  1.7897
 7077SOL     OW32689   0.762   2.345   0.594  0.4674 -0.2949 -0.1553
 7077SOL    HW132690   0.748   2.333   0.500  2.0321 -0.9008 -0.3128
 7077SOL    HW232691   0.850   2.382   0.591  0.5161 -0.4321 -0.3948
 7078SOL     OW32692   2.962   3.206   4.200 -0.7063  0.0730  0.6427
 7078SOL    HW132693   2.952   3.231   4.108  0.8378 -1.0253  0.1750
 7078SOL    HW232694   3.023   3.133   4.190 -1.7164 -0.1403 -3.8369
 7079SOL     OW32695   0.691   0.158   3.491  0.2362 -0.1034  0.5885
 7079SOL    HW132696   0.780   0.126   3.476 -0.6147 -1.3333 -1.9370
 7079SOL    HW232697   0.666   0.110   3.570  0.4182  0.3083  0.8942
 7080SOL     OW32698   1.718   2.766  11.152 -0.2484 -0.0330 -0.3451
 7080SOL    HW132699   1.791   2.828  11.150  0.9306 -1.5044 -2.8643
 7080SOL    HW232700   1.658   2.811  11.212  1.1191  0.2666  0.8001
 7081SOL     OW32701   2.756   0.767   9.223 -0.0569 -0.0268  0.2487
 7081SOL    HW132702   2.694   0.694   9.214 -0.7026  0.2333  2.4879
 7081SOL    HW232703   2.804   0.769   9.140 -0.5609  0.6737 -0.0327
 7082SOL     OW32704   0.765   1.225   4.111 -0.3109  0.1348  0.2330
 7082SOL    HW132705   0.763   1.276   4.030 -0.9888  1.6779  1.2368
 7082SOL    HW232706   0.819   1.150   4.085 -0.0099  0.1790  0.7311
 7083SOL     OW32707   3.232   2.269   1.445  0.1781 -0.3474 -0.3865
 7083SOL    HW132708   3.187   2.237   1.522  1.2116  2.3888  1.3632
 7083SOL    HW232709   3.202   2.360   1.445 -0.3431 -0.5207  2.1514
 7084SOL     OW32710   0.744   3.067   7.579 -0.5210 -0.2795 -0.0019
 7084SOL    HW132711   0.700   3.137   7.627 -0.4570 -1.0870  1.2198
 7084SOL    HW232712   0.715   2.991   7.629 -1.1244  0.8201  1.3140
 7085SOL     OW32713   3.321   3.986   5.395 -0.2492  0.6886  1.0420
 7085SOL    HW132714   3.305   4.057   5.457  1.4925  0.6627  1.5217
 7085SOL    HW232715   3.289   4.034   5.319  0.8246  0.5021  0.4693
 7086SOL     OW32716   0.293   0.839   4.821  0.3543 -0.3583 -0.2000
 7086SOL    HW132717   0.365   0.807   4.767 -0.5918 -3.2104  0.2405
 7086SOL    HW232718   0.263   0.752   4.847 -1.2277  0.2356 -0.0244
 7087SOL     OW32719   4.108   4.151  17.190  0.7957  0.7131  0.6510
 7087SOL    HW132720   4.107   4.064  17.149  0.7337  2.3839 -2.8899
 7087SOL    HW232721   4.163   4.198  17.128  1.2550 -0.5316  0.1075
 7088SOL     OW32722   3.655   2.541  15.034 -0.5265 -0.5837  0.2880
 7088SOL    HW132723   3.590   2.546  14.964 -1.7206 -0.7464  1.3999
 7088SOL    HW232724   3.624   2.606  15.097  0.2610 -0.1057  0.1942
 7089SOL     OW32725   4.232   2.680   6.061 -0.4269 -0.1254  0.9076
 7089SOL    HW132726   4.291   2.693   5.987 -0.4589 -0.0408  0.8971
 7089SOL    HW232727   4.274   2.602   6.097 -0.5064  0.4097  2.1880
 7090SOL     OW32728   2.708   3.999  11.737  0.9119 -0.8008  0.0977
 7090SOL    HW132729   2.639   4.037  11.684  1.4635  1.2862  0.9021
 7090SOL    HW232730   2.742   3.935  11.674 -2.7098 -0.5020 -2.1495
 7091SOL     OW32731   4.394   4.557   8.776 -0.0480 -0.2871  0.0202
 7091SOL    HW132732   4.383   4.474   8.730 -0.2538  0.4602 -1.2912
 7091SOL    HW232733   4.471   4.597   8.734  1.3673  0.2084  3.0740
 7092SOL     OW32734   1.245   3.014   5.714  0.0625  0.0655  0.7221
 7092SOL    HW132735   1.235   2.971   5.629 -1.3406 -0.2260  1.0409
 7092SOL    HW232736   1.330   3.055   5.695  0.6706 -1.1944  0.7177
 7093SOL     OW32737   3.361   0.893   9.132 -0.2677  0.4818 -0.1561
 7093SOL    HW132738   3.331   0.978   9.166 -1.2353  0.4641 -0.9636
 7093SOL    HW232739   3.395   0.848   9.210  0.1232 -0.1709 -0.7048
 7094SOL     OW32740   3.374   1.774   3.691 -0.4411 -0.5581  0.1446
 7094SOL    HW132741   3.413   1.763   3.604 -0.7380  0.3704 -0.1029
 7094SOL    HW232742   3.318   1.851   3.680 -0.7404 -0.7906  0.0533
 7095SOL     OW32743   4.458   1.189  16.664 -0.1555 -0.5948  0.8294
 7095SOL    HW132744   4.406   1.262  16.697  0.3260  0.4746 -0.7545
 7095SOL    HW232745   4.398   1.115  16.667  1.6545 -2.1883 -1.7012
 7096SOL     OW32746   3.455   2.652  12.407 -0.1248 -0.4626  0.3256
 7096SOL    HW132747   3.461   2.649  12.503 -0.6083 -0.0584  0.3716
 7096SOL    HW232748   3.530   2.598  12.382  1.5532  1.4733  1.1622
 7097SOL     OW32749   1.501   1.612   6.348 -0.0066  0.6702 -0.3267
 7097SOL    HW132750   1.482   1.538   6.406 -0.5149  1.4895  0.5552
 7097SOL    HW232751   1.436   1.679   6.367  0.6504  1.4208 -0.7412
 7098SOL     OW32752   3.284   0.580   9.612 -0.5039  0.5550 -0.4420
 7098SOL    HW132753   3.257   0.668   9.588 -2.0103  0.2171  0.0080
 7098SOL    HW232754   3.374   0.592   9.642 -0.7248  1.0150  0.0392
 7099SOL     OW32755   0.676   1.461   7.617  0.1912  0.0639 -0.2316
 7099SOL    HW132756   0.711   1.532   7.564  0.4528 -0.9394 -1.3973
 7099SOL    HW232757   0.629   1.513   7.682  3.4025  3.1011 -0.3601
 7100SOL     OW32758   2.453   3.273  10.118  0.6570 -0.3780 -0.0658
 7100SOL    HW132759   2.540   3.312  10.108  0.3805  0.3991  0.6286
 7100SOL    HW232760   2.406   3.325  10.183  0.3760 -0.3381 -0.2981
 7101SOL     OW32761   3.237   0.929   2.650 -0.3164  0.0982  0.2932
 7101SOL    HW132762   3.287   1.009   2.640  1.7005 -0.9980  1.7380
 7101SOL    HW232763   3.204   0.942   2.739  0.0096 -1.0168  0.5788
 7102SOL     OW32764   0.717   2.006   4.993 -0.0417 -0.5261 -0.3376
 7102SOL    HW132765   0.767   1.998   4.913 -1.8591 -0.1121 -1.5230
 7102SOL    HW232766   0.629   1.977   4.967  0.5367 -0.3035 -2.4714
 7103SOL     OW32767   2.674   0.491   5.888 -0.0709  0.5882  0.0087
 7103SOL    HW132768   2.686   0.413   5.943  0.9069  0.3596 -0.5343
 7103SOL    HW232769   2.600   0.466   5.833 -1.4902 -0.5402  2.4109
 7104SOL     OW32770   0.580   1.250   5.929 -0.4445  0.3129 -0.5088
 7104SOL    HW132771   0.499   1.211   5.896 -1.0518 -0.8268  2.3324
 7104SOL    HW232772   0.639   1.227   5.857 -1.1621  0.3373 -1.1130
 7105SOL     OW32773   2.042   1.803   7.186 -0.0629 -0.1523  0.1378
 7105SOL    HW132774   1.965   1.849   7.220 -1.3131 -1.3429 -1.0144
 7105SOL    HW232775   2.030   1.737   7.255 -0.0005 -0.1539  0.1465
 7106SOL     OW32776   0.871   1.855   5.363  1.1483  0.1895  0.1257
 7106SOL    HW132777   0.920   1.774   5.378  2.1462  0.5881 -0.9515
 7106SOL    HW232778   0.935   1.923   5.383  0.0976  1.2002  0.0353
 7107SOL     OW32779   0.015   0.507  16.784  0.5198  0.6060  0.4385
 7107SOL    HW132780   4.696   0.448  16.848 -0.0055  1.2472  0.6963
 7107SOL    HW232781   4.667   0.569  16.760  1.2986  1.0791 -0.5590
 7108SOL     OW32782   0.168   0.730   7.175  0.2186 -0.0046 -0.2278
 7108SOL    HW132783   0.247   0.766   7.215  1.2713  1.1426 -3.2705
 7108SOL    HW232784   0.135   0.812   7.139  4.1970  0.4186 -2.9724
 7109SOL     OW32785   0.411   2.154   9.903  0.1626  0.2000  0.2563
 7109SOL    HW132786   0.369   2.210   9.969 -0.9683 -0.4330  0.0793
 7109SOL    HW232787   0.460   2.217   9.850 -0.1774  1.6987  1.7248
 7110SOL     OW32788   2.880   1.817  17.390  0.0097  0.0606  0.8074
 7110SOL    HW132789   2.940   1.824  17.464  0.2382  1.1435  0.5250
 7110SOL    HW232790   2.808   1.774  17.435  0.5537 -2.9179 -1.1583
 7111SOL     OW32791   1.118   3.688   7.935 -0.6322 -0.1785 -0.2661
 7111SOL    HW132792   1.170   3.625   7.984 -0.9754  0.1337  0.4922
 7111SOL    HW232793   1.188   3.737   7.891 -0.9835  2.5505  2.1897
 7112SOL     OW32794   0.420   0.542   6.964  0.9069 -0.0868 -0.7273
 7112SOL    HW132795   0.346   0.485   6.985  1.0079 -0.6767 -1.9815
 7112SOL    HW232796   0.491   0.490   7.002  0.5995  0.3370  0.4110
 7113SOL     OW32797   1.403   3.316   9.409  0.0529  0.4364 -0.2217
 7113SOL    HW132798   1.477   3.286   9.461 -2.9562 -0.8831  3.2223
 7113SOL    HW232799   1.329   3.270   9.448  1.5479 -1.3512  0.4511
 7114SOL     OW32800   1.583   1.607   4.996 -0.0812  0.0481  0.2438
 7114SOL    HW132801   1.678   1.593   4.993 -0.2680 -1.0760 -0.6619
 7114SOL    HW232802   1.559   1.577   4.908  2.5555  1.1421 -0.8542
 7115SOL     OW32803   2.947   3.516   4.707  0.2020  0.1059  0.5131
 7115SOL    HW132804   2.911   3.427   4.697 -1.7127  1.0594 -1.0937
 7115SOL    HW232805   2.875   3.554   4.758  0.1242  2.5659 -1.4288
 7116SOL     OW32806   2.782   4.648   1.548 -0.0043  0.2267  0.3509
 7116SOL    HW132807   2.783   0.014   1.589 -0.2381 -0.6272  2.2024
 7116SOL    HW232808   2.874   4.632   1.533 -0.0368 -0.3856  0.8060
 7117SOL     OW32809   2.738   2.275   2.675  0.1392  0.7084 -0.4715
 7117SOL    HW132810   2.682   2.342   2.716  0.3575  0.0733  0.8468
 7117SOL    HW232811   2.812   2.306   2.726  1.2010 -1.5883 -0.6227
 7118SOL     OW32812   3.392   1.884  17.269 -0.0583 -0.0321 -0.1491
 7118SOL    HW132813   3.370   1.811  17.327 -1.7860  0.5289 -0.1183
 7118SOL    HW232814   3.342   1.961  17.299  1.4759  0.0472  2.2782
 7119SOL     OW32815   0.247   2.449   6.405  0.4009  0.7375 -0.1192
 7119SOL    HW132816   0.275   2.509   6.473 -0.0993  1.1253 -0.2584
 7119SOL    HW232817   0.331   2.434   6.361 -1.2390  0.3948 -3.1559
 7120SOL     OW32818   2.030   3.115   1.609  0.2107 -0.5583 -0.2168
 7120SOL    HW132819   1.953   3.140   1.558  0.1324 -2.4479 -1.0250
 7120SOL    HW232820   2.030   3.170   1.687 -1.2869 -1.1909  0.2279
 7121SOL     OW32821   3.545   1.358   0.573 -0.0071 -0.3001  0.2069
 7121SOL    HW132822   3.510   1.380   0.659  0.7465 -1.2052  0.7455
 7121SOL    HW232823   3.491   1.280   0.559  0.2036 -0.6373  1.2730
 7122SOL     OW32824   2.967   3.285  11.633  0.3913 -0.6662  0.1530
 7122SOL    HW132825   2.992   3.374  11.658 -1.7902  0.4590 -1.6694
 7122SOL    HW232826   3.053   3.245  11.619  0.9008  0.0636  1.1462
 7123SOL     OW32827   0.044   3.519   8.148 -0.7640  0.2033  0.8034
 7123SOL    HW132828   4.680   3.536   8.109  0.9399  1.6449 -2.2992
 7123SOL    HW232829   0.097   3.518   8.068 -0.5321  0.6594  0.9458
 7124SOL     OW32830   2.652   1.148   2.604 -0.0777 -0.2071  0.0553
 7124SOL    HW132831   2.638   1.241   2.586 -1.8515 -0.2478  1.2254
 7124SOL    HW232832   2.728   1.154   2.661  0.3486 -1.7452 -0.3559
 7125SOL     OW32833   4.651   4.683   2.055 -0.6955  0.1168  0.4009
 7125SOL    HW132834   4.653   4.595   2.093 -0.3257 -0.0331  0.0476
 7125SOL    HW232835   0.021   4.704   2.076 -0.8292  0.5660  0.5263
 7126SOL     OW32836   1.487   1.329  15.542 -1.0964  0.2133  0.7014
 7126SOL    HW132837   1.484   1.238  15.511 -1.0470  0.3895  0.1655
 7126SOL    HW232838   1.580   1.352  15.549 -1.0841  0.5285 -0.4826
 7127SOL     OW32839   1.458   2.782   5.641 -0.1369  0.1269 -0.3709
 7127SOL    HW132840   1.367   2.775   5.671 -0.0671  0.1979 -0.1408
 7127SOL    HW232841   1.479   2.696   5.606 -0.0743  0.7152 -1.7727
 7128SOL     OW32842   1.912   0.046   3.630  0.4780 -0.1270  0.1636
 7128SOL    HW132843   1.934   4.708   3.703  1.4814  0.6429  0.4778
 7128SOL    HW232844   1.994   0.080   3.596 -0.5617  1.3331 -0.8797
 7129SOL     OW32845   0.847   3.462   5.721 -0.6561  0.0471 -0.1235
 7129SOL    HW132846   0.834   3.547   5.681 -1.6396  0.2405  0.5850
 7129SOL    HW232847   0.781   3.409   5.676  1.0368 -0.4762 -2.0026
 7130SOL     OW32848   3.233   3.924  10.757  0.5622  0.2322  0.2047
 7130SOL    HW132849   3.306   3.872  10.790  1.8758  1.6843 -0.3993
 7130SOL    HW232850   3.275   3.978  10.691  1.1276 -1.5458 -0.8772
 7131SOL     OW32851   3.172   2.189   4.935 -0.5818  0.4722  1.0669
 7131SOL    HW132852   3.218   2.212   5.016  0.8480  0.2603  0.3086
 7131SOL    HW232853   3.245   2.142   4.896 -1.0977 -0.2756  1.0065
 7132SOL     OW32854   3.100   4.545   3.752 -0.3320  0.3720 -0.0492
 7132SOL    HW132855   3.014   4.577   3.724 -0.6826  0.6692  1.3222
 7132SOL    HW232856   3.087   4.520   3.844 -0.2545 -3.5443 -1.0841
 7133SOL     OW32857   2.563   1.876   3.211 -0.2843 -0.3945 -0.0111
 7133SOL    HW132858   2.531   1.787   3.196 -0.4622 -0.2014 -0.7731
 7133SOL    HW232859   2.610   1.859   3.293 -2.5623 -0.9046  1.1932
 7134SOL     OW32860   2.473   3.240   6.740 -0.2034  0.1657 -0.0452
 7134SOL    HW132861   2.397   3.183   6.731  0.0030 -0.4520  2.2354
 7134SOL    HW232862   2.548   3.182   6.734 -1.2888 -1.2000 -0.2669
 7135SOL     OW32863   1.258   3.692  16.918 -0.1834 -0.1830 -0.7237
 7135SOL    HW132864   1.333   3.645  16.954  1.1397  1.1428 -1.7882
 7135SOL    HW232865   1.235   3.756  16.985 -0.3230  0.4684 -1.3949
 7136SOL     OW32866   1.751   4.678   0.304  0.2179 -1.0876  0.2402
 7136SOL    HW132867   1.693   0.033   0.312  3.3286  1.1731  1.6412
 7136SOL    HW232868   1.839   4.716   0.310 -0.3759  0.4429 -0.8174
 7137SOL     OW32869   2.711   3.654   8.553  0.1758 -0.1379  0.4000
 7137SOL    HW132870   2.788   3.660   8.497  0.6622  1.4019  1.2390
 7137SOL    HW232871   2.691   3.748   8.558 -2.0388 -0.5279 -1.2431
 7138SOL     OW32872   1.896   3.941   4.577  0.4533  0.1066 -0.0898
 7138SOL    HW132873   1.970   3.929   4.635  1.5829  0.9253 -1.3472
 7138SOL    HW232874   1.827   3.968   4.638  3.2726  0.7168  2.8214
 7139SOL     OW32875   3.443   1.693   0.737 -0.2037  0.0632  0.3031
 7139SOL    HW132876   3.435   1.599   0.750 -0.6474 -0.2092 -2.0368
 7139SOL    HW232877   3.482   1.692   0.650  0.6672  1.3673  0.6606
 7140SOL     OW32878   1.043   2.347   0.391 -0.1730  0.0003 -0.0387
 7140SOL    HW132879   1.050   2.256   0.362  1.3664 -0.3742  1.5101
 7140SOL    HW232880   1.096   2.344   0.470 -1.8395 -1.8915  1.0053
 7141SOL     OW32881   1.163   0.428   6.185  1.0695  0.0376 -0.6722
 7141SOL    HW132882   1.168   0.390   6.272 -0.9449  1.5580  0.0980
 7141SOL    HW232883   1.220   0.505   6.191 -1.8889  2.1048  0.6496
 7142SOL     OW32884   0.661   3.479  11.226 -0.4153  0.2099 -0.1902
 7142SOL    HW132885   0.735   3.420  11.209  0.7795  1.8278 -0.6707
 7142SOL    HW232886   0.691   3.570  11.217 -0.6953  0.3080 -0.1367
 7143SOL     OW32887   2.344   2.617   4.415 -0.1690 -0.1436  0.0052
 7143SOL    HW132888   2.281   2.687   4.433  1.1206  1.2517 -0.9935
 7143SOL    HW232889   2.272   2.564   4.382 -1.2319  0.0385  2.0376
 7144SOL     OW32890   2.093   1.226  15.549  0.2211 -0.0090  0.1430
 7144SOL    HW132891   2.093   1.139  15.590  2.5401 -0.2508 -0.3368
 7144SOL    HW232892   2.122   1.202  15.461  0.1415 -0.7423  0.3186
 7145SOL     OW32893   0.044   2.407  17.202 -0.0164  0.1857  0.6442
 7145SOL    HW132894   0.060   2.488  17.252 -2.7687 -0.4031  2.4776
 7145SOL    HW232895   4.687   2.428  17.151  0.8073  0.2120 -0.5964
 7146SOL     OW32896   3.281   0.022  13.984 -0.4813 -0.7003  0.4086
 7146SOL    HW132897   3.302   4.715  13.895 -1.3799 -0.5443  0.1584
 7146SOL    HW232898   3.199   0.067  13.967 -0.3854 -0.9572 -0.7353
 7147SOL     OW32899   1.268   1.368   0.675  0.6971 -0.4485 -0.3439
 7147SOL    HW132900   1.178   1.402   0.675  0.7729 -0.2490 -0.2962
 7147SOL    HW232901   1.282   1.352   0.768  1.8577  0.3452 -0.3774
 7148SOL     OW32902   0.993   1.687   3.274  0.3981 -0.2820  0.0619
 7148SOL    HW132903   0.935   1.675   3.199  1.1375  0.2697 -0.5927
 7148SOL    HW232904   0.967   1.774   3.305  0.1983  0.2084 -1.5027
 7149SOL     OW32905   2.618   2.699   2.582  0.3313 -0.4482 -0.6040
 7149SOL    HW132906   2.672   2.707   2.660 -1.2128 -1.9557  0.6246
 7149SOL    HW232907   2.605   2.605   2.568 -0.5854 -0.3070 -0.7106
 7150SOL     OW32908   4.257   1.147   2.951  0.0877  0.0245 -0.2629
 7150SOL    HW132909   4.262   1.121   3.043 -1.7773  1.4277  0.2235
 7150SOL    HW232910   4.235   1.239   2.963  0.3126 -0.3305  3.0881
 7151SOL     OW32911   1.519   2.095  11.830  0.1138 -0.3366 -0.1911
 7151SOL    HW132912   1.521   2.048  11.913 -2.5075  2.5422  1.4977
 7151SOL    HW232913   1.521   2.187  11.858 -0.0805  0.6720 -3.4188
 7152SOL     OW32914   3.193   4.085   6.171 -0.4362 -0.4231  0.4394
 7152SOL    HW132915   3.236   4.164   6.137 -0.6235 -0.1144  0.9159
 7152SOL    HW232916   3.124   4.128   6.222  0.2374 -0.7748  1.6577
 7153SOL     OW32917   2.015   2.127   1.476  0.2479 -0.0078 -0.3709
 7153SOL    HW132918   2.105   2.123   1.444 -0.3612 -1.2457 -1.9091
 7153SOL    HW232919   2.034   2.191   1.545  2.2928 -0.2744 -0.6905
 7154SOL     OW32920   2.974   1.516   6.417 -0.2905  0.1391 -0.0692
 7154SOL    HW132921   3.006   1.514   6.327 -1.1713 -1.1519 -0.3502
 7154SOL    HW232922   3.027   1.451   6.464 -0.0595  1.2315  1.1824
 7155SOL     OW32923   2.306   2.159   3.766  0.0518  0.5928 -0.1493
 7155SOL    HW132924   2.373   2.171   3.699 -0.8298  2.2208 -0.7457
 7155SOL    HW232925   2.245   2.233   3.768  1.8827  2.1740 -1.5251
 7156SOL     OW32926   2.876   2.563  11.953  0.2912  0.2814 -0.2427
 7156SOL    HW132927   2.969   2.568  11.929  0.6203 -1.5258  0.6705
 7156SOL    HW232928   2.887   2.609  12.037  0.0713  1.0307 -0.6208
 7157SOL     OW32929   3.432   2.926   8.204  0.1276 -0.5303  0.2558
 7157SOL    HW132930   3.470   2.856   8.257 -2.3332 -2.3372 -0.3971
 7157SOL    HW232931   3.464   2.903   8.117  1.8813  0.0380  0.7504
 7158SOL     OW32932   2.161   3.832   5.816 -0.0352 -0.5705  0.2218
 7158SOL    HW132933   2.172   3.916   5.861  1.2307  0.2811 -1.7006
 7158SOL    HW232934   2.243   3.840   5.769  0.4919 -1.4226  0.9942
 7159SOL     OW32935   2.567   3.042   3.725  0.1493 -0.4117  0.4342
 7159SOL    HW132936   2.472   3.031   3.714 -0.0402  2.5578 -0.8850
 7159SOL    HW232937   2.566   3.077   3.636  0.3592 -0.8117  0.2757
 7160SOL     OW32938   1.718   0.707  15.323 -0.2209  0.3160 -0.0580
 7160SOL    HW132939   1.814   0.708  15.316 -0.3131  4.6617 -1.2301
 7160SOL    HW232940   1.697   0.675  15.235  0.5279 -0.9069  0.2017
 7161SOL     OW32941   0.778   3.311   7.122 -0.3211  0.1540 -0.4159
 7161SOL    HW132942   0.804   3.268   7.041 -2.9366  0.1116 -1.2122
 7161SOL    HW232943   0.788   3.243   7.189 -1.5662 -1.0981 -1.4819
 7162SOL     OW32944   3.611   0.541  13.291  0.0229 -0.1484 -0.2088
 7162SOL    HW132945   3.540   0.501  13.240  1.2769 -0.4497 -1.6945
 7162SOL    HW232946   3.585   0.632  13.304  0.9566  0.0766  0.0772
 7163SOL     OW32947   1.547   1.223   1.392  0.2494 -0.1417 -0.1866
 7163SOL    HW132948   1.468   1.212   1.445  1.0797 -1.0526  0.8680
 7163SOL    HW232949   1.526   1.179   1.310  0.1169  1.3409 -0.9343
 7164SOL     OW32950   0.975   3.521  10.982 -0.2702  0.3237  0.0870
 7164SOL    HW132951   1.054   3.516  11.036 -0.5067 -0.9861  0.2925
 7164SOL    HW232952   1.008   3.513  10.893  1.4970  2.3128  0.5392
 7165SOL     OW32953   2.689   4.472   3.356  0.1979  0.3747 -0.0884
 7165SOL    HW132954   2.604   4.431   3.339  0.0121  0.2867  1.0445
 7165SOL    HW232955   2.719   4.472   3.265  1.2347  0.4671  0.2550
 7166SOL     OW32956   0.097   4.280   5.491  0.5502 -0.1181  0.3803
 7166SOL    HW132957   0.085   4.282   5.396 -0.3797  1.4803  0.5272
 7166SOL    HW232958   0.007   4.286   5.524  0.3478 -2.2932  0.2088
 7167SOL     OW32959   2.192   0.083   7.157  0.2257 -0.4114 -0.1066
 7167SOL    HW132960   2.203   4.717   7.118 -0.7083 -0.5449 -0.0736
 7167SOL    HW232961   2.168   0.055   7.245 -1.1307 -0.1378 -0.3861
 7168SOL     OW32962   4.676   3.699   1.278  0.1991  0.1487 -0.0741
 7168SOL    HW132963   0.009   3.694   1.198 -0.0841 -1.9050 -0.1207
 7168SOL    HW232964   4.600   3.650   1.249 -1.0474  1.2779  1.3254
 7169SOL     OW32965   1.067   2.759   3.132  0.2568  1.1079  0.1033
 7169SOL    HW132966   0.999   2.691   3.135  0.1378  1.1399 -1.8371
 7169SOL    HW232967   1.100   2.756   3.221  2.3958  0.4010 -0.7111
 7170SOL     OW32968   0.434   2.615   7.352  0.0471 -0.2452 -0.2007
 7170SOL    HW132969   0.418   2.526   7.320 -0.9793  1.1233 -3.4589
 7170SOL    HW232970   0.347   2.646   7.377 -0.3060 -0.6377 -0.9432
 7171SOL     OW32971   0.405   4.600  13.061 -0.0955  0.1129 -0.4223
 7171SOL    HW132972   0.418   4.505  13.055  1.5290  0.4140 -1.5855
 7171SOL    HW232973   0.385   4.620  12.970 -0.2539  1.4525 -0.0970
 7172SOL     OW32974   3.859   3.201  10.320 -0.6483  0.5798  0.1975
 7172SOL    HW132975   3.827   3.165  10.238  1.3805 -1.5188  0.3216
 7172SOL    HW232976   3.839   3.291  10.292 -1.2387  0.7143  1.0587
 7173SOL     OW32977   3.023   3.687   5.062 -0.3938  0.1990 -0.7124
 7173SOL    HW132978   2.949   3.718   5.114  0.5984  1.7102 -0.2055
 7173SOL    HW232979   2.983   3.696   4.975  0.0944  0.1389 -0.9469
 7174SOL     OW32980   2.204   0.350   7.557 -0.2334  0.1111  0.1458
 7174SOL    HW132981   2.160   0.300   7.489 -0.5073 -0.1768  0.5354
 7174SOL    HW232982   2.271   0.391   7.502 -0.6104  1.3368  0.5967
 7175SOL     OW32983   2.980   4.335   2.924 -0.1907 -0.7764 -0.3908
 7175SOL    HW132984   3.073   4.357   2.922 -0.2501 -0.6969 -1.7540
 7175SOL    HW232985   2.950   4.413   2.877 -3.3090 -0.7976  1.5591
 7176SOL     OW32986   0.335   0.278   2.725  0.3636  0.8343 -0.2363
 7176SOL    HW132987   0.427   0.296   2.703  0.1843  0.8029 -0.9882
 7176SOL    HW232988   0.312   0.369   2.745 -1.9999 -0.0697  1.0935
 7177SOL     OW32989   1.047   3.530   5.004 -0.1332 -0.4629 -0.3404
 7177SOL    HW132990   1.005   3.515   4.919 -1.1048 -0.9814  0.2232
 7177SOL    HW232991   1.011   3.618   5.017 -0.2777 -0.6730  0.6743
 7178SOL     OW32992   0.545   0.941   1.764  0.5611 -0.1187 -0.8371
 7178SOL    HW132993   0.517   0.881   1.833 -3.1442  0.5216 -1.7787
 7178SOL    HW232994   0.617   0.981   1.813 -0.0823 -0.1901  0.1737
 7179SOL     OW32995   4.611   1.967  11.004  0.6309  0.0072 -0.5332
 7179SOL    HW132996   4.605   2.051  10.959  0.7989  1.2356  1.7360
 7179SOL    HW232997   4.523   1.942  11.034  1.0574 -1.2652 -0.3149
 7180SOL     OW32998   1.501   3.676   3.865  0.2979 -0.1963  0.0185
 7180SOL    HW132999   1.486   3.746   3.801  2.7871  0.0509 -0.3147
 7180SOL    HW233000   1.448   3.715   3.934  1.1711  1.4655 -0.2374
 7181SOL     OW33001   3.689   4.350   4.232  0.0649  0.1974  0.6828
 7181SOL    HW133002   3.739   4.431   4.239  0.6255 -0.0207 -0.7473
 7181SOL    HW233003   3.759   4.294   4.197 -0.3344 -0.4926  0.9805
 7182SOL     OW33004   1.717   0.910  17.171  0.0629 -0.2203 -0.2102
 7182SOL    HW133005   1.671   0.849  17.229 -1.5883 -0.0590 -1.3604
 7182SOL    HW233006   1.799   0.863  17.157  1.0157  1.1604  0.7956
 7183SOL     OW33007   4.542   2.083   3.691  0.0999 -0.3007  0.0135
 7183SOL    HW133008   4.584   2.076   3.605  0.4216  0.1632  0.1326
 7183SOL    HW233009   4.515   1.993   3.706 -0.8222 -0.0113  0.0699
 7184SOL     OW33010   1.186   1.269   6.316  0.0380  0.5524  0.2813
 7184SOL    HW133011   1.257   1.319   6.357  0.0901 -1.8191  3.1115
 7184SOL    HW233012   1.114   1.305   6.368  0.7457 -0.4161  1.9503
 7185SOL     OW33013   0.137   1.791   8.580  0.2049  0.6215  0.5260
 7185SOL    HW133014   0.180   1.864   8.536  1.5808 -0.3769  0.2561
 7185SOL    HW233015   0.045   1.810   8.557  0.5159  1.9402  0.3717
 7186SOL     OW33016   3.035   3.962   0.930 -0.4407  0.0117  0.0776
 7186SOL    HW133017   2.978   3.938   1.004 -1.8980 -2.8866 -1.9861
 7186SOL    HW233018   2.991   3.924   0.854 -1.2244 -2.7343  1.8908
 7187SOL     OW33019   1.824   4.285  13.479 -0.2094 -0.9217  0.0434
 7187SOL    HW133020   1.774   4.325  13.551 -1.9341 -2.5468 -0.2471
 7187SOL    HW233021   1.823   4.357  13.417  0.7097 -0.9658 -0.0203
 7188SOL     OW33022   2.386   4.419   1.555 -0.1585  0.1682 -0.2410
 7188SOL    HW133023   2.384   4.507   1.593  2.2043 -0.3950  1.1697
 7188SOL    HW233024   2.468   4.381   1.587 -0.3136  0.3217  0.3298
 7189SOL     OW33025   2.807   0.780   1.959 -0.6000  0.4370 -0.1679
 7189SOL    HW133026   2.858   0.843   1.908 -0.7741  1.7938  1.3291
 7189SOL    HW233027   2.748   0.841   2.002  2.5319  0.7707  3.6480
 7190SOL     OW33028   2.374   0.145  12.887  0.3329 -0.2654 -0.1829
 7190SOL    HW133029   2.314   0.175  12.955 -0.5129 -2.8032  0.1989
 7190SOL    HW233030   2.359   0.220  12.830  0.7044 -0.0354  0.0286
 7191SOL     OW33031   4.331   3.722   7.848  0.1864 -0.5436  0.0715
 7191SOL    HW133032   4.376   3.806   7.835  1.2055 -1.4106 -1.9296
 7191SOL    HW233033   4.398   3.669   7.890  0.0724 -0.4447  0.3792
 7192SOL     OW33034   4.703   4.635  14.106 -0.0667 -0.3281  0.3734
 7192SOL    HW133035   0.045   4.589  14.161 -0.0647 -0.8470 -0.0648
 7192SOL    HW233036   4.623   4.628  14.158 -0.8303  0.1058 -0.7507
 7193SOL     OW33037   1.713   3.822  11.360  0.5457 -0.1655  0.6594
 7193SOL    HW133038   1.802   3.848  11.385  0.7814  1.4939 -1.8828
 7193SOL    HW233039   1.691   3.745  11.412  2.1402 -1.0141  0.0732
 7194SOL     OW33040   1.044   1.534   2.660  1.0753  0.0535 -0.1987
 7194SOL    HW133041   1.081   1.565   2.742 -0.3569  1.1241  0.0520
 7194SOL    HW233042   1.084   1.604   2.608  0.7219 -0.0580 -0.6220
 7195SOL     OW33043   3.489   4.028   3.713  0.4190 -0.2484  0.4659
 7195SOL    HW133044   3.462   4.069   3.630  4.4262 -0.1041 -0.7736
 7195SOL    HW233045   3.557   4.089   3.742 -0.2961  0.0261  1.5609
 7196SOL     OW33046   1.242   3.475  15.176 -0.2280 -0.0249  0.4621
 7196SOL    HW133047   1.197   3.514  15.101 -2.0482 -2.5692  0.2270
 7196SOL    HW233048   1.207   3.520  15.253 -0.0893  2.4387 -0.9104
 7197SOL     OW33049   1.746   4.669  17.501  0.5943 -0.1382  0.1286
 7197SOL    HW133050   1.746   4.638  17.410  0.9409  0.2380 -0.0023
 7197SOL    HW233051   1.752   4.593  17.558  1.1180 -0.0212  0.2323
 7198SOL     OW33052   4.635   2.469   1.700 -0.9041 -0.1874  0.2826
 7198SOL    HW133053   4.707   2.431   1.648 -0.0273  0.1756  1.2419
 7198SOL    HW233054   4.603   2.524   1.628 -0.8744  1.2266  1.3599
 7199SOL     OW33055   3.045   0.851   6.772 -1.0141 -0.0127 -0.5234
 7199SOL    HW133056   2.960   0.810   6.756 -1.2007 -0.2607  1.0782
 7199SOL    HW233057   3.043   0.936   6.727  0.9978  0.1356 -0.3148
 7200SOL     OW33058   3.761   0.660   4.913 -0.7029 -0.1598 -0.2178
 7200SOL    HW133059   3.784   0.657   4.820  0.9424 -0.8916  0.2097
 7200SOL    HW233060   3.734   0.570   4.932 -0.3428 -0.2413 -0.0879
 7201SOL     OW33061   3.765   0.391   8.402  0.5592  0.1594 -0.4069
 7201SOL    HW133062   3.690   0.431   8.445 -0.7333 -1.4324 -1.1738
 7201SOL    HW233063   3.714   0.313   8.382 -1.7620  1.3393  1.0391
 7202SOL     OW33064   2.255   3.810   3.073 -0.2414 -0.3599 -0.5476
 7202SOL    HW133065   2.211   3.857   3.002  0.5921  2.6882  0.9233
 7202SOL    HW233066   2.332   3.867   3.087  0.6289 -1.9413  0.9967
 7203SOL     OW33067   2.658   1.631   4.331  0.1836  0.0322 -0.8979
 7203SOL    HW133068   2.656   1.698   4.263  1.9068  1.0397  0.0536
 7203SOL    HW233069   2.588   1.571   4.305 -1.3964  0.3333  2.5162
 7204SOL     OW33070   0.833   0.954   5.780  0.7055  0.3610  0.4309
 7204SOL    HW133071   0.886   0.975   5.858  0.9275  2.8040 -0.3655
 7204SOL    HW233072   0.881   1.009   5.718 -0.1041  0.2410 -0.3006
 7205SOL     OW33073   1.083   2.014   9.724  0.0756  0.4284 -0.0867
 7205SOL    HW133074   1.149   2.056   9.668 -1.2069 -1.0367 -2.6748
 7205SOL    HW233075   1.109   1.924   9.711 -0.8852 -0.1329  1.7985
 7206SOL     OW33076   0.818   4.659  12.037  0.4947  0.0532 -0.3100
 7206SOL    HW133077   0.880   4.627  11.971  2.8531  2.7616  0.5926
 7206SOL    HW233078   0.869   0.010  12.074 -2.1981  1.8403 -0.1130
 7207SOL     OW33079   2.452   3.241   4.411 -0.2610  0.3323 -0.0120
 7207SOL    HW133080   2.392   3.261   4.339 -0.2264  1.6914  0.3233
 7207SOL    HW233081   2.468   3.147   4.402  0.1703  0.5423 -1.3635
 7208SOL     OW33082   0.633   3.571   7.617  0.7894  0.0343 -0.5078
 7208SOL    HW133083   0.569   3.627   7.573 -0.5736  0.5466  2.1318
 7208SOL    HW233084   0.651   3.618   7.698  1.4226 -1.2946  0.1227
 7209SOL     OW33085   2.139   3.648   2.679 -0.9918  0.2630  0.5343
 7209SOL    HW133086   2.120   3.594   2.757  2.0466 -0.7887  0.5593
 7209SOL    HW233087   2.081   3.605   2.617  0.3598  1.2380 -1.3804
 7210SOL     OW33088   3.278   3.975   3.372  0.3043 -0.4090 -0.6609
 7210SOL    HW133089   3.272   3.918   3.449  0.3654 -1.6534 -1.5784
 7210SOL    HW233090   3.300   3.926   3.293  0.4232 -1.3401 -0.0567
 7211SOL     OW33091   0.971   1.999  13.799 -0.2591 -0.1921 -0.3497
 7211SOL    HW133092   1.030   2.069  13.772 -1.5894 -0.3073 -3.5358
 7211SOL    HW233093   0.960   1.951  13.717  1.8037 -0.0200 -0.7209
 7212SOL     OW33094   1.548   1.499   5.695  0.0442 -0.6631 -0.7027
 7212SOL    HW133095   1.473   1.481   5.751 -0.9362  0.1883 -1.7404
 7212SOL    HW233096   1.518   1.447   5.621  0.6695 -1.7658 -0.1852
 7213SOL     OW33097   2.031   2.361   8.248 -0.7817 -0.8171  0.2106
 7213SOL    HW133098   2.047   2.338   8.157  1.4271 -0.4483  0.4873
 7213SOL    HW233099   2.054   2.454   8.242 -0.4608 -1.0659 -2.2185
 7214SOL     OW33100   3.421   2.642   6.868 -0.0491 -0.1802 -0.1849
 7214SOL    HW133101   3.422   2.618   6.775 -0.7647 -0.5556 -0.0977
 7214SOL    HW233102   3.344   2.699   6.866  0.2069  0.2614  3.0775
 7215SOL     OW33103   2.797   0.570  11.809 -0.0902 -0.3991 -0.2434
 7215SOL    HW133104   2.876   0.591  11.858  0.4521 -2.0806 -0.3654
 7215SOL    HW233105   2.764   0.659  11.799  0.0347 -0.3893 -0.5970
 7216SOL     OW33106   2.653   3.216   6.203  0.0128  0.0400  0.7030
 7216SOL    HW133107   2.598   3.249   6.275 -1.0661 -0.0339 -0.0978
 7216SOL    HW233108   2.610   3.259   6.129 -1.4857  0.0409  1.5611
 7217SOL     OW33109   0.134   0.668   7.438  0.5643 -0.2647 -0.2283
 7217SOL    HW133110   0.115   0.695   7.348  2.0041 -0.1146 -0.4799
 7217SOL    HW233111   0.222   0.702   7.452  0.7351 -0.4973 -0.7307
 7218SOL     OW33112   0.866   2.065   1.125  0.0428 -0.5359 -0.2730
 7218SOL    HW133113   0.788   2.043   1.074 -0.8498 -0.9549  1.2670
 7218SOL    HW233114   0.905   2.127   1.065 -2.0589  0.3210 -0.7474
 7219SOL     OW33115   3.707   4.614   4.530  0.2530 -0.0780 -0.4472
 7219SOL    HW133116   3.766   4.597   4.457  1.7241  1.4642  0.3749
 7219SOL    HW233117   3.638   4.671   4.495 -1.0389  0.0475  2.3027
 7220SOL     OW33118   3.515   0.500   4.601  0.3763  0.2262 -0.4544
 7220SOL    HW133119   3.433   0.497   4.551 -0.8457  1.4126  1.4863
 7220SOL    HW233120   3.582   0.468   4.540  1.3441  0.4756  0.4766
 7221SOL     OW33121   3.258   2.820  12.131  0.2544  0.3352 -0.0465
 7221SOL    HW133122   3.335   2.872  12.153  2.3963 -3.4809  1.3244
 7221SOL    HW233123   3.235   2.873  12.054  2.1200 -0.2253 -0.9764
 7222SOL     OW33124   3.441   1.498   8.879 -0.3237 -0.5969 -0.1028
 7222SOL    HW133125   3.405   1.587   8.878  3.1194  0.8042 -0.1709
 7222SOL    HW233126   3.417   1.472   8.790 -0.7576 -0.3429 -0.0616
 7223SOL     OW33127   4.256   0.347   4.620 -0.4476  0.2663 -0.0943
 7223SOL    HW133128   4.197   0.403   4.568 -1.2314 -1.9896 -1.6151
 7223SOL    HW233129   4.333   0.368   4.567 -1.2958  1.5407 -0.8520
 7224SOL     OW33130   3.413   1.924   8.090  0.0488 -0.1998  0.5807
 7224SOL    HW133131   3.354   1.894   8.159  2.5492 -3.4243  1.3225
 7224SOL    HW233132   3.485   1.864   8.107  0.1061  0.2575  1.9051
 7225SOL     OW33133   0.058   0.670   2.895 -0.4406  0.1197 -0.5330
 7225SOL    HW133134   0.142   0.624   2.891 -1.2690 -1.3312 -0.8810
 7225SOL    HW233135   0.025   0.648   2.982 -0.6608 -3.0528 -1.4403
 7226SOL     OW33136   4.022   0.512   6.436 -0.0389  0.0803  0.5177
 7226SOL    HW133137   4.100   0.502   6.380 -2.2906 -2.0916 -2.2383
 7226SOL    HW233138   3.986   0.423   6.428 -0.5498  0.4583 -1.4009
 7227SOL     OW33139   0.727   0.343   8.842  0.9540 -0.0020 -0.0984
 7227SOL    HW133140   0.789   0.384   8.782  0.2695  0.1538 -0.7076
 7227SOL    HW233141   0.686   0.420   8.882  0.1046 -1.0805  1.1084
 7228SOL     OW33142   1.662   1.698   5.516  0.3865  0.4546 -0.1039
 7228SOL    HW133143   1.655   1.608   5.547 -1.1711  1.3179  2.0452
 7228SOL    HW233144   1.663   1.680   5.422 -1.4064  0.8654 -0.1947
 7229SOL     OW33145   3.717   2.304  15.120  0.8203 -0.0229  0.0228
 7229SOL    HW133146   3.667   2.382  15.100  2.6949  0.9921 -0.7139
 7229SOL    HW233147   3.779   2.346  15.179  0.5613  0.5720 -0.1357
 7230SOL     OW33148   3.692   2.871   5.614 -0.0817 -0.3799  0.0202
 7230SOL    HW133149   3.637   2.934   5.660 -0.5987 -0.1753 -0.8726
 7230SOL    HW233150   3.766   2.866   5.674 -0.3553  0.1381  0.3963
 7231SOL     OW33151   1.756   3.861  12.214 -0.1113 -0.2495  1.0553
 7231SOL    HW133152   1.702   3.938  12.194  0.5635 -0.5817 -2.0544
 7231SOL    HW233153   1.846   3.893  12.223 -0.1513  0.1826 -0.1270
 7232SOL     OW33154   0.326   4.408   5.116 -0.4020 -0.5741 -0.5388
 7232SOL    HW133155   0.254   4.361   5.157  0.6266  0.3202  2.2496
 7232SOL    HW233156   0.389   4.390   5.185 -0.3847  2.4109  0.1995
 7233SOL     OW33157   1.153   3.035   9.128  0.5815 -0.0601  0.2883
 7233SOL    HW133158   1.202   2.957   9.104  1.8578  0.4525  1.2301
 7233SOL    HW233159   1.168   3.033   9.223  1.7670  0.7312  0.1134
 7234SOL     OW33160   1.228   4.199  16.901 -0.2955  0.0116 -0.5305
 7234SOL    HW133161   1.319   4.186  16.927 -0.3312  1.5640  0.3398
 7234SOL    HW233162   1.181   4.194  16.984  0.1977 -1.3230 -0.3388
 7235SOL     OW33163   0.275   3.521   2.544 -0.7079  0.2445 -0.2993
 7235SOL    HW133164   0.346   3.458   2.528 -0.9110 -0.1258  0.2618
 7235SOL    HW233165   0.297   3.547   2.634  0.0934 -0.5556 -0.2651
 7236SOL     OW33166   2.002   1.490   6.676  0.0012  0.0436  0.0545
 7236SOL    HW133167   2.024   1.579   6.648 -1.2743  0.0878 -0.7746
 7236SOL    HW233168   2.027   1.493   6.768  2.1996 -0.9276 -0.5273
 7237SOL     OW33169   1.657   2.441   3.954 -0.2588  0.2285 -0.2518
 7237SOL    HW133170   1.637   2.347   3.955  1.3926 -0.1067 -0.0542
 7237SOL    HW233171   1.658   2.449   4.049 -0.9990 -0.7811 -0.1500
 7238SOL     OW33172   3.533   3.030   3.464  0.1635 -0.5166  0.3104
 7238SOL    HW133173   3.558   2.980   3.386 -0.5804  0.2675 -0.4339
 7238SOL    HW233174   3.504   2.966   3.529 -0.2051 -1.2745 -0.6074
 7239SOL     OW33175   0.910   0.610  16.518  0.0394  0.9737  0.1772
 7239SOL    HW133176   0.951   0.677  16.572 -0.1465  1.7798 -0.6846
 7239SOL    HW233177   0.868   0.679  16.467 -0.7329  0.0491 -0.4364
 7240SOL     OW33178   3.197   1.284   9.372 -0.1699 -0.4054  0.1281
 7240SOL    HW133179   3.245   1.313   9.449  1.1161 -2.9354  0.2637
 7240SOL    HW233180   3.107   1.291   9.403  1.3722  3.1751  3.6731
 7241SOL     OW33181   0.126   3.479   8.840 -0.0062  0.2469  0.3259
 7241SOL    HW133182   0.114   3.471   8.935  0.8590  0.0383  0.4146
 7241SOL    HW233183   0.036   3.500   8.814 -0.9585 -1.7788  1.9985
 7242SOL     OW33184   0.271   4.528   3.132  0.4185 -0.1857  0.3789
 7242SOL    HW133185   0.253   4.536   3.225  0.1285 -1.1658  0.4124
 7242SOL    HW233186   0.270   4.432   3.126  2.1824 -0.1689 -0.3240
 7243SOL     OW33187   0.138   1.642   3.970  0.4861 -0.1389  0.2382
 7243SOL    HW133188   0.166   1.570   4.027 -2.3341  0.5175  2.4623
 7243SOL    HW233189   0.116   1.594   3.890 -2.1222  0.7986  0.4011
 7244SOL     OW33190   4.581   3.686   0.796  0.4555  0.1376 -0.4256
 7244SOL    HW133191   4.556   3.607   0.749 -2.9474 -0.5545  2.5497
 7244SOL    HW233192   4.644   3.730   0.739 -1.8311  1.7292 -1.6965
 7245SOL     OW33193   0.837   2.185   6.279  0.1227  0.1271  0.2398
 7245SOL    HW133194   0.924   2.167   6.244  0.2457  0.9158  0.1502
 7245SOL    HW233195   0.806   2.255   6.222  0.1927 -2.3327 -2.8058
 7246SOL     OW33196   1.494   1.132   2.720 -0.1823 -0.7088 -0.1988
 7246SOL    HW133197   1.477   1.104   2.630  0.4001  3.1818 -1.4982
 7246SOL    HW233198   1.581   1.168   2.707  0.0792 -0.4250  2.2263
 7247SOL     OW33199   2.331   2.183   6.933  0.4729  0.7234  0.0773
 7247SOL    HW133200   2.325   2.140   7.019 -3.3469 -1.5590 -1.3405
 7247SOL    HW233201   2.246   2.159   6.896  0.0743  0.6706  1.0212
 7248SOL     OW33202   2.131   3.452   4.126 -0.1834  0.2021 -0.3181
 7248SOL    HW133203   2.156   3.536   4.087 -0.3693  0.8780  1.0410
 7248SOL    HW233204   2.171   3.471   4.211 -1.5434 -0.5231  0.4933
 7249SOL     OW33205   0.185   3.728   6.439  0.0615  0.2135 -0.7683
 7249SOL    HW133206   0.138   3.775   6.508 -0.5621  0.7548 -1.5637
 7249SOL    HW233207   0.126   3.652   6.435  0.1708  0.0155  1.3001
 7250SOL     OW33208   0.510   0.801   4.683  0.2111 -0.7016  0.0449
 7250SOL    HW133209   0.589   0.856   4.683 -1.5232  1.7481  0.5292
 7250SOL    HW233210   0.542   0.723   4.636 -1.5688 -0.7645 -1.0346
 7251SOL     OW33211   1.310   0.162   8.375  0.7905  0.5060  0.1702
 7251SOL    HW133212   1.373   0.218   8.421 -0.9939  1.7059  1.1582
 7251SOL    HW233213   1.358   0.080   8.362  2.1826  1.3147  0.2873
 7252SOL     OW33214   1.464   0.613   7.614  0.6044 -0.7722 -0.8480
 7252SOL    HW133215   1.371   0.597   7.630  0.9451 -3.5078 -1.6630
 7252SOL    HW233216   1.487   0.546   7.550  1.3228  1.2807 -2.7264
 7253SOL     OW33217   3.998   0.171   3.129 -0.4365  0.1613  0.0070
 7253SOL    HW133218   4.060   0.098   3.120 -2.3870 -1.2849 -1.6645
 7253SOL    HW233219   4.053   0.247   3.149  0.7109 -0.4842 -0.7299
 7254SOL     OW33220   0.763   1.447  13.206 -0.1879  0.7700 -0.5242
 7254SOL    HW133221   0.802   1.438  13.119 -2.5819  0.0041 -1.5228
 7254SOL    HW233222   0.685   1.500  13.194  0.0448  1.1284 -0.4559
 7255SOL     OW33223   2.129   3.282   5.549 -0.0281 -0.0567 -0.1322
 7255SOL    HW133224   2.083   3.302   5.630  1.2187  0.0096  0.5655
 7255SOL    HW233225   2.219   3.262   5.576 -0.0087  0.9527  0.5491
 7256SOL     OW33226   0.904   1.381   4.304  0.0508  0.0286 -0.2250
 7256SOL    HW133227   0.867   1.309   4.252 -0.9576 -1.0065  1.9596
 7256SOL    HW233228   0.996   1.355   4.296 -0.3673 -1.6079  0.3928
 7257SOL     OW33229   2.944   0.408   3.668 -0.4228  0.1641  0.2735
 7257SOL    HW133230   2.924   0.324   3.709 -2.2242  0.4384 -0.0321
 7257SOL    HW233231   2.899   0.395   3.584  0.2971  0.6543 -0.1856
 7258SOL     OW33232   3.062   1.633   9.417 -0.0317  0.3363  0.2825
 7258SOL    HW133233   3.147   1.621   9.458  0.7519 -0.1743 -1.4950
 7258SOL    HW233234   3.030   1.543   9.423 -1.5984  1.0215  2.0032
 7259SOL     OW33235   4.491   1.660   7.569  0.3504  0.2992 -0.4362
 7259SOL    HW133236   4.518   1.583   7.519  0.0132  1.6707 -2.7563
 7259SOL    HW233237   4.548   1.654   7.645 -0.2488  2.6217  0.2266
 7260SOL     OW33238   4.049   4.351   4.417  0.0750 -0.5574  0.4992
 7260SOL    HW133239   4.056   4.288   4.345 -0.2490  0.7825 -0.7119
 7260SOL    HW233240   4.112   4.314   4.478 -0.3537  0.5176  1.5812
 7261SOL     OW33241   2.792   4.270  13.817 -0.2730  0.3229  0.0122
 7261SOL    HW133242   2.835   4.186  13.833  1.1982  0.9401 -0.6830
 7261SOL    HW233243   2.747   4.260  13.733  0.1844  2.4740 -0.4959
 7262SOL     OW33244   2.706   1.806   4.127  0.3916  0.3056 -0.5730
 7262SOL    HW133245   2.694   1.899   4.142  0.9350  0.6869 -2.5246
 7262SOL    HW233246   2.693   1.802   4.032 -1.7488 -3.0816 -0.1513
 7263SOL     OW33247   0.079   0.294   7.892  0.0423 -0.0033  0.6447
 7263SOL    HW133248   0.157   0.249   7.925  0.1616 -0.2421  0.0302
 7263SOL    HW233249   0.122   0.370   7.853  1.2667 -0.6862  0.6798
 7264SOL     OW33250   1.934   3.550   9.405  0.3260  0.0276 -0.2777
 7264SOL    HW133251   1.892   3.587   9.483  0.0472 -0.0513 -0.3904
 7264SOL    HW233252   1.964   3.635   9.374 -1.6799  0.2324 -1.6806
 7265SOL     OW33253   1.840   0.612   3.780  0.0667 -0.6800  0.7792
 7265SOL    HW133254   1.903   0.557   3.732 -2.8212 -1.1721 -2.4608
 7265SOL    HW233255   1.772   0.608   3.713 -0.1455  0.0367  0.9612
 7266SOL     OW33256   1.463   3.858   3.656 -0.0931 -0.2462  0.1662
 7266SOL    HW133257   1.418   3.830   3.576  0.4421  0.5741 -0.4192
 7266SOL    HW233258   1.527   3.914   3.613  1.3436 -0.6545  1.7451
 7267SOL     OW33259   0.032   2.175   6.588  0.0190 -0.1048 -0.2357
 7267SOL    HW133260   0.037   2.193   6.494  0.9008  0.4198 -0.0947
 7267SOL    HW233261   0.124   2.174   6.614 -0.4625  0.2032  1.4695
 7268SOL     OW33262   4.453   0.023  12.034 -0.1680 -0.2281 -0.1748
 7268SOL    HW133263   4.450   4.666  12.091 -0.0301 -1.8624 -2.4155
 7268SOL    HW233264   4.433   0.096  12.093  1.2723  0.5101 -0.6224
 7269SOL     OW33265   3.609   0.568  15.210 -0.6870 -0.1812 -0.1278
 7269SOL    HW133266   3.620   0.629  15.283  0.2602 -0.5259  0.0233
 7269SOL    HW233267   3.538   0.516  15.247  0.4357 -1.1893  0.6078
 7270SOL     OW33268   0.331   0.558   9.822 -0.0746 -0.1770 -0.6555
 7270SOL    HW133269   0.345   0.478   9.874 -0.1669  1.3852  1.7679
 7270SOL    HW233270   0.329   0.525   9.732 -2.2026  0.7104 -0.9153
 7271SOL     OW33271   3.173   0.689   9.921  0.5658 -0.1611 -0.0611
 7271SOL    HW133272   3.196   0.723   9.834  1.4944  1.5610  0.8606
 7271SOL    HW233273   3.176   0.593   9.919 -0.3613 -0.1857 -0.0918
 7272SOL     OW33274   0.499   3.847   8.426  0.8780 -0.4594  0.1504
 7272SOL    HW133275   0.500   3.758   8.390 -2.5220  0.3289 -1.8901
 7272SOL    HW233276   0.537   3.836   8.513  1.5375  1.1060  0.0518
 7273SOL     OW33277   1.287   4.211  16.516  0.0277  0.2949 -0.1415
 7273SOL    HW133278   1.379   4.187  16.505  0.6524  1.6654  2.0742
 7273SOL    HW233279   1.263   4.284  16.460 -0.5627 -1.5270 -2.2443
 7274SOL     OW33280   4.650   1.939   8.420  0.1132  0.4240  0.3407
 7274SOL    HW133281   4.604   2.018   8.449  2.1134  0.8032  2.4520
 7274SOL    HW233282   4.688   1.972   8.339  0.8728 -1.2530  0.0240
 7275SOL     OW33283   0.534   3.896  12.005  0.5339 -0.0401  0.2825
 7275SOL    HW133284   0.508   3.841  12.079  0.2266 -0.8702 -0.4467
 7275SOL    HW233285   0.464   3.958  12.026  0.0318 -0.8320  0.9406
 7276SOL     OW33286   0.895   4.304   5.332  0.2907 -0.2698 -0.2652
 7276SOL    HW133287   0.903   4.233   5.268  1.1361  0.7479 -1.2949
 7276SOL    HW233288   0.844   4.364   5.278 -1.4129 -1.1134  0.4100
 7277SOL     OW33289   4.563   2.637   3.846  0.0425 -0.2705 -0.2251
 7277SOL    HW133290   4.492   2.700   3.856  1.4099  1.3598 -0.7291
 7277SOL    HW233291   4.627   2.681   3.902 -1.9488  2.4108 -0.0588
 7278SOL     OW33292   2.236   1.491   8.996 -0.2314 -0.1316  0.8339
 7278SOL    HW133293   2.287   1.420   8.957  1.8381  0.9927  1.5242
 7278SOL    HW233294   2.275   1.499   9.083  1.4566  1.0950 -0.0348
 7279SOL     OW33295   3.291   1.186   0.802 -0.5611 -0.0171 -0.5953
 7279SOL    HW133296   3.218   1.156   0.747  0.4933 -0.6842 -1.6182
 7279SOL    HW233297   3.253   1.185   0.890 -1.4375 -0.4160 -0.9715
 7280SOL     OW33298   3.220   4.358   4.192 -0.0561 -0.3006 -0.1390
 7280SOL    HW133299   3.306   4.316   4.192  0.6557  1.1404 -0.6822
 7280SOL    HW233300   3.248   4.445   4.220 -1.7352  0.5012 -0.9465
 7281SOL     OW33301   0.479   4.435  14.751 -0.4296  0.1693 -1.1027
 7281SOL    HW133302   0.537   4.383  14.695 -0.1196 -3.1619  2.3333
 7281SOL    HW233303   0.456   4.509  14.695 -0.8153 -1.5146 -3.1546
 7282SOL     OW33304   2.240   0.756   3.218 -0.5167  0.4299 -0.3865
 7282SOL    HW133305   2.311   0.694   3.202 -1.1422 -0.5044  0.4554
 7282SOL    HW233306   2.278   0.839   3.190 -0.3570  1.1536  2.0007
 7283SOL     OW33307   0.971   3.412   6.733 -0.5162  0.3824 -0.1062
 7283SOL    HW133308   0.964   3.502   6.701  1.7251  0.7593  0.4741
 7283SOL    HW233309   1.018   3.377   6.657  1.8410 -2.9359  2.8554
 7284SOL     OW33310   2.892   3.673   6.635  0.6500  0.2643 -0.4098
 7284SOL    HW133311   2.893   3.584   6.600 -1.4652  0.4083 -0.8524
 7284SOL    HW233312   2.847   3.729   6.571 -1.1943  0.1112  0.7629
 7285SOL     OW33313   3.427   2.416   2.643  0.3039  0.1268 -0.0376
 7285SOL    HW133314   3.518   2.390   2.631  0.3775 -0.4782  1.9135
 7285SOL    HW233315   3.434   2.508   2.667 -1.5584  0.2436  0.0967
 7286SOL     OW33316   1.557   0.952   7.255  0.8787 -0.0832  0.1622
 7286SOL    HW133317   1.473   0.943   7.300 -0.3379  1.4643 -1.8251
 7286SOL    HW233318   1.594   1.030   7.295  3.0145 -1.5558  1.0563
 7287SOL     OW33319   2.649   2.334   4.540 -0.0547  0.1625 -0.3101
 7287SOL    HW133320   2.649   2.279   4.618  0.0807 -0.8785 -1.0368
 7287SOL    HW233321   2.676   2.420   4.571 -0.7253  1.0487 -2.1811
 7288SOL     OW33322   2.952   2.473   9.086 -0.0245 -0.4830  0.0470
 7288SOL    HW133323   2.997   2.550   9.120  0.2075 -0.8467  0.5587
 7288SOL    HW233324   3.022   2.415   9.055  0.9316  0.1046  1.1302
 7289SOL     OW33325   4.084   3.820   4.887  0.3468 -0.3120 -0.1987
 7289SOL    HW133326   4.076   3.810   4.982 -0.0304 -0.1665 -0.2152
 7289SOL    HW233327   3.992   3.840   4.872 -0.2605 -1.7198  1.7491
 7290SOL     OW33328   4.167   4.707   8.768  0.4646  0.1752 -0.0782
 7290SOL    HW133329   4.254   4.683   8.801 -0.2173  0.6984  2.0960
 7290SOL    HW233330   4.193   0.008   8.678  1.0034 -0.8109 -0.1583
 7291SOL     OW33331   0.062   1.411  12.502  0.4517 -0.3205 -0.4222
 7291SOL    HW133332   0.119   1.378  12.432  1.6774  2.8977 -0.9063
 7291SOL    HW233333   0.125   1.467  12.547 -1.4687  0.5168  1.1633
 7292SOL     OW33334   3.135   4.270   4.804  0.7718  0.0320 -0.7806
 7292SOL    HW133335   3.150   4.178   4.783  1.7150 -0.4279  1.8657
 7292SOL    HW233336   3.225   4.302   4.810  1.5104 -1.8055 -2.1502
 7293SOL     OW33337   1.215   3.100   3.652 -0.1197  0.7197  0.1551
 7293SOL    HW133338   1.195   3.126   3.562 -1.4731 -0.0165  0.2434
 7293SOL    HW233339   1.142   3.043   3.674 -0.1463  0.3842 -0.8092
 7294SOL     OW33340   2.715   3.643  10.671 -0.1551 -0.0197 -0.3197
 7294SOL    HW133341   2.742   3.733  10.656 -0.5490  0.3744  1.3046
 7294SOL    HW233342   2.709   3.628  10.765 -2.9034 -1.8346 -0.7908
 7295SOL     OW33343   0.173   1.083   4.622 -0.3384  0.3244  0.0702
 7295SOL    HW133344   0.094   1.087   4.676  0.0477 -1.7985  0.7733
 7295SOL    HW233345   0.204   1.002   4.663 -1.8006 -0.2994 -0.0445
 7296SOL     OW33346   3.043   3.637   9.227 -0.6424 -0.1573  0.0565
 7296SOL    HW133347   2.976   3.658   9.162  0.4816  0.7584 -0.7948
 7296SOL    HW233348   3.123   3.676   9.193 -0.7394 -0.6631 -0.7429
 7297SOL     OW33349   3.116   1.433   4.689 -0.4811  0.0726  0.5589
 7297SOL    HW133350   3.163   1.349   4.687 -0.6861 -0.0613  1.2610
 7297SOL    HW233351   3.053   1.423   4.761 -0.1726  0.9274  0.9499
 7298SOL     OW33352   2.775   0.685   1.594 -0.1690  0.1857 -0.3511
 7298SOL    HW133353   2.689   0.654   1.565 -0.9146  1.7249  0.1582
 7298SOL    HW233354   2.760   0.779   1.605  1.4733  0.6863 -2.4827
 7299SOL     OW33355   1.545   0.113   2.880  0.1581  0.0447 -0.0672
 7299SOL    HW133356   1.627   0.066   2.898  1.1877  1.5787 -0.6931
 7299SOL    HW233357   1.550   0.113   2.785  2.9492 -0.8787  0.0660
 7300SOL     OW33358   2.149   3.495   3.702 -0.2769  0.3973  0.0880
 7300SOL    HW133359   2.181   3.444   3.627 -0.0851  0.2269  0.2819
 7300SOL    HW233360   2.099   3.562   3.656 -1.9446 -0.4872  0.6398
 7301SOL     OW33361   2.893   1.176   2.763 -0.5828 -0.1580 -0.0329
 7301SOL    HW133362   2.937   1.131   2.835  1.1264  2.0594  0.2994
 7301SOL    HW233363   2.921   1.266   2.779  0.2391 -0.0981 -1.8341
 7302SOL     OW33364   0.199   4.538  17.383  1.1060 -0.0883 -0.2545
 7302SOL    HW133365   0.203   4.622  17.337  0.5338  0.9410  1.5498
 7302SOL    HW233366   0.163   4.563  17.468 -0.5867  3.3961 -2.0007
 7303SOL     OW33367   1.640   2.957   6.957  0.1722  0.3210 -0.0298
 7303SOL    HW133368   1.704   2.941   7.026  0.0664  0.7876  0.1730
 7303SOL    HW233369   1.659   2.879   6.904 -0.2044 -0.9761  1.7525
 7304SOL     OW33370   0.249   1.891  13.624 -0.0855 -0.0831  0.1038
 7304SOL    HW133371   0.314   1.896  13.694  0.9833  2.0472 -1.0420
 7304SOL    HW233372   0.176   1.862  13.679 -1.5920  0.6220 -1.5234
 7305SOL     OW33373   1.744   1.280   6.839  0.3873  0.3535 -0.1916
 7305SOL    HW133374   1.727   1.374   6.839  0.9564  0.4545  0.8722
 7305SOL    HW233375   1.766   1.266   6.747  3.2910 -0.1291  0.5682
 7306SOL     OW33376   2.817   1.297   4.193  0.3349  0.0996  0.1348
 7306SOL    HW133377   2.859   1.382   4.177 -0.0832 -0.1588 -2.3480
 7306SOL    HW233378   2.886   1.233   4.174 -0.7834 -0.7845 -1.0102
 7307SOL     OW33379   2.617   1.153   6.736 -0.3482  0.1924  0.2925
 7307SOL    HW133380   2.602   1.238   6.695 -0.5257  0.2628  0.5045
 7307SOL    HW233381   2.541   1.150   6.794 -1.3704  1.1711 -1.0151
 7308SOL     OW33382   4.651   0.120  16.391  0.0461  0.2830  0.0404
 7308SOL    HW133383   4.689   0.143  16.306  1.0434  0.3917  0.5082
 7308SOL    HW233384   4.610   0.204  16.407  0.1800  0.2778  0.4177
 7309SOL     OW33385   0.011   1.462   6.091  0.1831  0.2139  0.5930
 7309SOL    HW133386   0.026   1.533   6.153  4.6392 -0.8262  0.7031
 7309SOL    HW233387   0.063   1.398   6.139 -0.4585  0.8465  2.1305
 7310SOL     OW33388   0.068   2.562   1.904  0.2253 -0.2004 -0.6532
 7310SOL    HW133389   0.010   2.532   1.834 -2.5128  2.3875  0.5195
 7310SOL    HW233390   0.119   2.486   1.933  1.0145  0.2217 -0.9369
 7311SOL     OW33391   4.283   2.071   0.322 -0.1850 -0.5676 -0.4228
 7311SOL    HW133392   4.209   2.057   0.382  1.2678  1.8976  1.9239
 7311SOL    HW233393   4.259   2.152   0.278  2.2473  0.9943  1.1608
 7312SOL     OW33394   2.637   0.210   8.149  0.1176  0.5236 -0.1883
 7312SOL    HW133395   2.669   0.165   8.227  1.4524  1.6542 -0.0909
 7312SOL    HW233396   2.604   0.142   8.090 -1.8169  1.5919 -0.3395
 7313SOL     OW33397   1.767   1.171   3.179 -0.2487  0.0925 -0.2729
 7313SOL    HW133398   1.762   1.075   3.182 -0.7167  0.1502  1.0650
 7313SOL    HW233399   1.721   1.195   3.260  0.4937 -0.3529  0.2836
 7314SOL     OW33400   2.722   3.380  15.082  0.0443 -0.4887 -0.4433
 7314SOL    HW133401   2.765   3.411  15.002 -1.8041 -1.9198 -1.9803
 7314SOL    HW233402   2.637   3.422  15.068  1.2624  1.5090 -1.8698
 7315SOL     OW33403   2.848   3.370   4.005 -0.6194 -0.4430 -0.0389
 7315SOL    HW133404   2.792   3.401   4.076  0.5304 -1.0302  1.1226
 7315SOL    HW233405   2.782   3.344   3.940 -0.8165 -0.7660  0.2907
 7316SOL     OW33406   0.690   1.806   2.595  0.1878  0.2799 -0.2613
 7316SOL    HW133407   0.711   1.801   2.501  2.3451  0.6287  0.2024
 7316SOL    HW233408   0.727   1.726   2.632  3.6121  2.8356  1.9479
 7317SOL     OW33409   0.899   2.156   6.540  0.2218  0.0648 -0.0389
 7317SOL    HW133410   0.865   2.160   6.450 -0.1570  0.8726  0.1431
 7317SOL    HW233411   0.985   2.199   6.539 -0.5230  1.5437  0.5767
 7318SOL     OW33412   0.359   1.080   8.156 -0.1779 -0.2466 -0.3984
 7318SOL    HW133413   0.309   1.065   8.075 -2.0209  1.7367  0.3724
 7318SOL    HW233414   0.349   0.994   8.196  0.0619 -0.1458 -0.1286
 7319SOL     OW33415   4.347   3.181  16.005 -0.0757 -0.1309  0.3525
 7319SOL    HW133416   4.424   3.126  15.990 -0.0963  0.2143 -1.0404
 7319SOL    HW233417   4.279   3.117  15.982 -0.9747  0.9255  0.0566
 7320SOL     OW33418   4.574   4.124   6.150 -0.5308 -0.9673 -0.3795
 7320SOL    HW133419   4.585   4.195   6.087 -2.0588 -0.5803 -0.1912
 7320SOL    HW233420   4.612   4.050   6.101  1.1968  0.8682 -1.7931
 7321SOL     OW33421   1.026   2.052   5.248 -0.1354 -0.2142 -0.5313
 7321SOL    HW133422   1.048   1.978   5.191 -0.2756 -0.8660  0.2646
 7321SOL    HW233423   1.102   2.046   5.306 -0.0537  1.6417 -0.4240
 7322SOL     OW33424   2.106   4.316   8.689  0.2164  0.2713  0.2127
 7322SOL    HW133425   2.170   4.293   8.757 -0.8123  1.6895  1.6544
 7322SOL    HW233426   2.161   4.271   8.624 -0.2690 -2.5324  1.7323
 7323SOL     OW33427   3.238   0.396   1.072  0.1830  0.3070  0.2445
 7323SOL    HW133428   3.266   0.410   1.163 -0.3823 -1.5576  0.7096
 7323SOL    HW233429   3.273   0.308   1.061 -1.2173 -0.1222 -0.7049
 7324SOL     OW33430   2.532   1.564  10.616 -0.4006 -0.1374 -0.2276
 7324SOL    HW133431   2.533   1.646  10.666  1.4064  0.3700 -1.0953
 7324SOL    HW233432   2.465   1.507  10.654 -1.2090  0.3912 -0.8673
 7325SOL     OW33433   1.325   2.286   2.716  0.2263  0.3203  0.6441
 7325SOL    HW133434   1.399   2.225   2.726  0.5343  0.5444 -0.3394
 7325SOL    HW233435   1.359   2.363   2.762 -0.2209  0.9627 -0.1063
 7326SOL     OW33436   3.595   2.138   9.163 -0.0293  0.1844 -0.2572
 7326SOL    HW133437   3.586   2.060   9.219 -0.7695  1.7451  1.8128
 7326SOL    HW233438   3.679   2.176   9.188  0.4041 -0.7123 -0.3306
 7327SOL     OW33439   3.864   4.412   7.040 -0.0154 -0.2842 -0.1067
 7327SOL    HW133440   3.926   4.361   7.093  1.6435  1.6413 -0.1730
 7327SOL    HW233441   3.789   4.408   7.099 -2.2480 -0.4241 -2.9205
 7328SOL     OW33442   0.187   4.315   2.843  0.1446  0.7619  0.0747
 7328SOL    HW133443   0.238   4.308   2.762 -0.3686 -2.3811  0.0234
 7328SOL    HW233444   0.230   4.266   2.913 -1.7294 -0.1273  0.6004
 7329SOL     OW33445   3.683   0.403   9.147 -0.0569  0.1427 -0.3501
 7329SOL    HW133446   3.760   0.360   9.185 -1.0113 -1.1273  0.1191
 7329SOL    HW233447   3.723   0.479   9.103  3.7406 -0.2921  2.3012
 7330SOL     OW33448   0.748   3.275   2.437  0.0046 -0.1263  0.0413
 7330SOL    HW133449   0.827   3.290   2.385  0.4316 -0.0592  0.7136
 7330SOL    HW233450   0.788   3.218   2.503  0.7913  0.6805  0.2618
 7331SOL     OW33451   1.952   4.486   2.852  0.1564  0.2825 -0.2744
 7331SOL    HW133452   1.891   4.447   2.790  0.1549  1.0715 -0.7629
 7331SOL    HW233453   2.038   4.472   2.813  0.9455  0.3299  1.4605
 7332SOL     OW33454   2.913   0.811   5.007 -0.2441 -0.1670 -0.0075
 7332SOL    HW133455   2.872   0.894   4.985  1.5601  0.8047  0.2707
 7332SOL    HW233456   2.845   0.769   5.060  0.1675 -0.7805  0.0427
 7333SOL     OW33457   1.837   3.785   8.157  0.5140 -0.3427  0.1617
 7333SOL    HW133458   1.812   3.745   8.073 -0.1319  0.8090 -0.2022
 7333SOL    HW233459   1.748   3.782   8.192  0.2115  1.2513 -0.4346
 7334SOL     OW33460   3.341   0.613   6.316  0.1820 -0.1294  0.8382
 7334SOL    HW133461   3.392   0.659   6.382  0.7228  2.0569 -1.0797
 7334SOL    HW233462   3.399   0.540   6.293 -0.0056 -0.3419  1.0388
 7335SOL     OW33463   4.698   4.408  17.240 -0.2723  0.5377 -1.1570
 7335SOL    HW133464   0.060   4.430  17.283  1.5039 -1.8322 -3.3223
 7335SOL    HW233465   4.665   4.488  17.201  1.5732  0.5499 -2.6970
 7336SOL     OW33466   3.578   4.442   3.105  0.0668  0.6418  0.1588
 7336SOL    HW133467   3.660   4.399   3.124 -0.2063 -0.2803 -0.7486
 7336SOL    HW233468   3.599   4.472   3.017 -1.6680  0.6956 -0.2499
 7337SOL     OW33469   3.256   1.268   8.023  0.1038 -0.1409  0.4685
 7337SOL    HW133470   3.343   1.247   8.056  0.0846  1.8287  1.7978
 7337SOL    HW233471   3.273   1.360   8.001 -0.0427 -0.5802 -1.5438
 7338SOL     OW33472   1.532   0.239  10.289  0.6039 -0.5031 -0.0176
 7338SOL    HW133473   1.561   0.239  10.381  1.4518  0.5029 -0.2812
 7338SOL    HW233474   1.440   0.216  10.299  0.5164 -0.1862 -0.0854
 7339SOL     OW33475   1.080   0.857  14.525 -0.3384  0.0219 -0.5883
 7339SOL    HW133476   1.106   0.907  14.448 -1.4118  0.7241 -0.4964
 7339SOL    HW233477   1.051   0.775  14.486 -0.9511 -0.5553  1.0651
 7340SOL     OW33478   1.254   0.050   7.115  0.6974 -0.4895  0.3223
 7340SOL    HW133479   1.306   0.116   7.161 -1.7633  0.3199  1.9654
 7340SOL    HW233480   1.328   0.014   7.066 -0.1129 -2.0026  0.1964
 7341SOL     OW33481   1.170   4.255  10.310  0.3254  0.9161 -0.0299
 7341SOL    HW133482   1.140   4.230  10.223 -1.1137 -1.1162  1.0567
 7341SOL    HW233483   1.187   4.348  10.295 -1.2838  0.8941 -1.9871
 7342SOL     OW33484   2.089   4.597   6.570  0.0973 -0.2111 -0.1469
 7342SOL    HW133485   2.064   4.507   6.547 -1.0880  0.8155 -2.8716
 7342SOL    HW233486   2.004   4.640   6.560  0.5683  0.1619 -2.5726
 7343SOL     OW33487   0.973   2.739   8.350  0.0315 -0.1110  0.5644
 7343SOL    HW133488   0.960   2.824   8.393 -1.0712  0.0385 -0.0837
 7343SOL    HW233489   1.043   2.699   8.403 -0.0143 -1.2773 -0.2679
 7344SOL     OW33490   0.339   3.175  12.464 -0.7037  0.1849  0.4916
 7344SOL    HW133491   0.276   3.244  12.447  0.3221  1.0641  0.2680
 7344SOL    HW233492   0.352   3.140  12.376 -1.1148 -1.5033  1.0890
 7345SOL     OW33493   3.105   1.055   8.404  0.1915 -0.1915  0.4025
 7345SOL    HW133494   3.019   1.091   8.383  0.8283  0.4599 -1.0777
 7345SOL    HW233495   3.175   1.120   8.404  0.1374 -0.1386  2.1347
 7346SOL     OW33496   1.005   2.102   3.964 -0.1203  0.5483  0.4627
 7346SOL    HW133497   1.001   2.139   4.053 -0.8739  1.0665  0.2095
 7346SOL    HW233498   1.025   2.176   3.906 -0.3783  1.0208  0.9725
 7347SOL     OW33499   1.820   1.841  11.205  0.5441  0.4899 -0.2886
 7347SOL    HW133500   1.728   1.862  11.215  0.7472  2.1073 -1.8137
 7347SOL    HW233501   1.819   1.792  11.122  0.9166  0.7977 -0.4748
 7348SOL     OW33502   3.907   0.227   2.422  0.6093  0.1053  0.4787
 7348SOL    HW133503   3.851   0.230   2.345 -0.1717 -3.2569  0.9087
 7348SOL    HW233504   3.876   0.150   2.470  1.1846 -0.5859 -0.2645
 7349SOL     OW33505   0.211   2.828   8.398  0.0949  0.2383  0.7918
 7349SOL    HW133506   0.137   2.769   8.387 -1.3486  2.4181 -1.3710
 7349SOL    HW233507   0.279   2.768   8.367 -0.4025  0.5458 -0.9015
 7350SOL     OW33508   0.930   3.863   9.941 -0.8209 -0.4076  0.4810
 7350SOL    HW133509   0.841   3.855   9.976 -1.2567 -1.9880 -0.9383
 7350SOL    HW233510   0.948   3.769   9.939  1.1146 -0.0291  0.3915
 7351SOL     OW33511   0.743   1.721   5.638  0.3946  0.0143 -0.1945
 7351SOL    HW133512   0.765   1.642   5.688  0.5638 -1.8409 -3.2077
 7351SOL    HW233513   0.813   1.774   5.676 -1.2075  2.0206 -0.0738
 7352SOL     OW33514   3.584   0.424  12.332 -0.0980 -0.2415  0.2506
 7352SOL    HW133515   3.597   0.329  12.327 -0.8158 -0.3230 -0.1012
 7352SOL    HW233516   3.619   0.449  12.246  1.0059 -2.5522  0.0137
 7353SOL     OW33517   4.256   1.117   2.658 -0.2467 -0.1644  0.6864
 7353SOL    HW133518   4.183   1.056   2.661 -1.3197  1.0622 -0.7122
 7353SOL    HW233519   4.249   1.147   2.749 -0.5566  0.7967  0.3427
 7354SOL     OW33520   3.626   2.407   1.708  0.1640  0.1556 -0.5029
 7354SOL    HW133521   3.586   2.492   1.725  0.9196  0.0690  1.7472
 7354SOL    HW233522   3.692   2.432   1.643  2.0439 -4.1888 -0.2805
 7355SOL     OW33523   4.260   0.454   6.240  0.3758  0.8294 -0.3603
 7355SOL    HW133524   4.333   0.401   6.270  1.5078  1.7309 -1.5253
 7355SOL    HW233525   4.294   0.534   6.200  0.7260  1.2312  0.7434
 7356SOL     OW33526   4.649   1.445   4.316  0.1932 -0.1370 -0.6600
 7356SOL    HW133527   4.663   1.498   4.394 -0.8863 -2.3780  1.0345
 7356SOL    HW233528   4.647   1.515   4.250 -1.8353  1.0746  0.7007
 7357SOL     OW33529   3.328   0.440  14.599 -0.2398  0.2169 -0.2173
 7357SOL    HW133530   3.279   0.382  14.657 -1.6662 -0.3730 -2.0117
 7357SOL    HW233531   3.285   0.430  14.514 -0.9542  2.6027 -0.1298
 7358SOL     OW33532   2.439   4.477   4.630 -0.2615 -0.6111  0.4224
 7358SOL    HW133533   2.364   4.430   4.593  1.3305 -1.4725 -1.7272
 7358SOL    HW233534   2.490   4.402   4.660 -0.4395 -0.8981  0.0167
 7359SOL     OW33535   0.895   4.140   4.797  0.1748 -0.0646  0.1394
 7359SOL    HW133536   0.968   4.163   4.740  1.6430  1.8850  2.7962
 7359SOL    HW233537   0.917   4.195   4.872  2.3924 -0.7143 -0.0239
 7360SOL     OW33538   2.275   2.021   2.916 -0.0886  0.1260  0.0330
 7360SOL    HW133539   2.313   1.950   2.865  0.1639  0.8185 -0.7353
 7360SOL    HW233540   2.184   1.991   2.919 -0.3985  1.0018 -0.4937
 7361SOL     OW33541   4.536   4.248   8.293  0.0999 -0.1197  0.4587
 7361SOL    HW133542   4.558   4.186   8.363 -0.9673 -1.9741 -0.8519
 7361SOL    HW233543   4.539   4.196   8.213 -0.1428  0.6951 -0.0763
 7362SOL     OW33544   1.769   1.706  13.692 -0.2030  0.6302  0.1950
 7362SOL    HW133545   1.749   1.613  13.702  0.2436  0.7750  2.3721
 7362SOL    HW233546   1.854   1.709  13.735  0.6000 -0.8696 -1.2937
 7363SOL     OW33547   4.515   3.754   1.511 -0.3563 -0.1944  0.5376
 7363SOL    HW133548   4.592   3.762   1.455  0.0796 -0.2161  1.1255
 7363SOL    HW233549   4.442   3.776   1.454  1.2033  2.3188 -0.4859
 7364SOL     OW33550   3.634   1.616   9.289  0.4361 -0.7325  0.0270
 7364SOL    HW133551   3.580   1.634   9.366  0.3268 -4.3637  0.7724
 7364SOL    HW233552   3.655   1.525   9.308 -1.9660 -1.6264 -1.7195
 7365SOL     OW33553   1.512   1.428   3.928  0.1593 -0.0546  0.1183
 7365SOL    HW133554   1.454   1.503   3.939  0.3993  0.4803 -2.2418
 7365SOL    HW233555   1.574   1.453   3.859 -0.3676 -1.2994 -0.8026
 7366SOL     OW33556   2.051   3.380   5.313 -0.2188 -0.4154  0.6074
 7366SOL    HW133557   1.964   3.339   5.314 -0.3761 -0.1285 -0.7417
 7366SOL    HW233558   2.075   3.354   5.402 -1.0754 -1.4405  0.5480
 7367SOL     OW33559   3.926   2.948   8.345  0.0857  0.4090  0.0996
 7367SOL    HW133560   3.932   3.043   8.348  2.0831  0.3029 -0.4578
 7367SOL    HW233561   3.961   2.938   8.256  0.3423  1.1903  0.1085
 7368SOL     OW33562   1.200   4.238   3.187 -0.2559 -0.1164 -0.1815
 7368SOL    HW133563   1.288   4.272   3.172 -0.1404 -0.6636 -0.7292
 7368SOL    HW233564   1.155   4.284   3.117  0.3655  2.1126  0.8809
 7369SOL     OW33565   2.152   2.629   5.169  0.3570 -1.2309  0.0995
 7369SOL    HW133566   2.205   2.683   5.227 -1.1255  1.8687 -1.4068
 7369SOL    HW233567   2.116   2.568   5.233  1.6996  1.0703  3.0697
 7370SOL     OW33568   0.876   3.861  11.794  0.2510  0.5332 -0.1365
 7370SOL    HW133569   0.952   3.806  11.775  0.3898  0.3437  0.9500
 7370SOL    HW233570   0.912   3.916  11.864  1.5833 -0.5724  0.0451
 7371SOL     OW33571   1.586   3.887   8.507  0.5074  0.1121 -0.2590
 7371SOL    HW133572   1.627   3.945   8.442 -0.7184  0.3472 -0.8320
 7371SOL    HW233573   1.662   3.869   8.562 -0.7285  1.4759  1.9041
 7372SOL     OW33574   1.135   3.622   7.091  0.3448  0.2253  0.0032
 7372SOL    HW133575   1.067   3.583   7.146  0.8691 -0.3843  0.2223
 7372SOL    HW233576   1.087   3.651   7.014  0.6372  0.2967 -0.1521
 7373SOL     OW33577   0.386   2.085   2.030 -0.0685 -0.1176  0.3117
 7373SOL    HW133578   0.473   2.100   2.069 -0.9028  0.2921  2.0177
 7373SOL    HW233579   0.396   2.098   1.936 -0.8033 -0.7541  0.1467
 7374SOL     OW33580   2.593   2.255   3.989 -0.2068  0.1615 -0.0491
 7374SOL    HW133581   2.512   2.285   4.030  0.1333 -1.1556  1.5705
 7374SOL    HW233582   2.616   2.182   4.047 -0.8474 -1.1110 -1.3964
 7375SOL     OW33583   3.781   2.327  14.041 -0.8194  0.2147 -0.5582
 7375SOL    HW133584   3.755   2.274  13.966 -0.2419 -1.1223  0.1852
 7375SOL    HW233585   3.711   2.302  14.101 -2.3244  0.7144 -2.1113
 7376SOL     OW33586   2.377   2.609   4.672 -0.2067  0.1200 -0.5802
 7376SOL    HW133587   2.350   2.517   4.670  2.6326 -0.7494  0.9590
 7376SOL    HW233588   2.375   2.637   4.581 -0.8855  0.6980 -0.3799
 7377SOL     OW33589   2.913   2.909   5.413 -0.1960 -0.5848 -0.2429
 7377SOL    HW133590   2.969   2.977   5.452 -0.9354 -0.3821  0.4603
 7377SOL    HW233591   2.971   2.870   5.348  1.1738  2.0325 -0.6114
 7378SOL     OW33592   2.366   3.354   8.108  0.0662 -0.0418 -0.8721
 7378SOL    HW133593   2.309   3.333   8.035 -0.4208 -0.8122 -0.2728
 7378SOL    HW233594   2.311   3.411   8.161 -1.5760 -1.7584 -0.7307
 7379SOL     OW33595   4.074   4.679   1.394 -0.0663 -0.9731  0.6471
 7379SOL    HW133596   4.155   4.633   1.371 -0.5710 -0.4325 -2.2070
 7379SOL    HW233597   4.011   4.607   1.387 -0.2145 -0.9165  1.3981
 7380SOL     OW33598   0.140   4.023  11.384  0.3637  0.3375  0.4883
 7380SOL    HW133599   0.118   4.107  11.343 -0.8928 -1.1695 -1.9057
 7380SOL    HW233600   0.233   4.009  11.366 -0.2102 -2.3460 -0.3612
 7381SOL     OW33601   2.069   0.594   8.636  0.3177 -0.2893 -0.3230
 7381SOL    HW133602   2.152   0.572   8.594  1.3559  2.2811  0.3927
 7381SOL    HW233603   2.008   0.585   8.562  0.4741  1.9299 -0.7108
 7382SOL     OW33604   0.544   3.214   5.767  0.2029 -0.1477 -0.1382
 7382SOL    HW133605   0.634   3.243   5.783 -0.5215  0.4888  2.7773
 7382SOL    HW233606   0.502   3.281   5.713  0.7072 -0.6709 -1.1753
 7383SOL     OW33607   0.685   2.550  16.141 -0.0075  0.1563  0.0757
 7383SOL    HW133608   0.701   2.586  16.229  1.0393  0.2295 -0.1404
 7383SOL    HW233609   0.622   2.481  16.160 -0.4191  0.5820  0.2674
 7384SOL     OW33610   4.256   1.726   5.691  0.0291  0.5108 -0.1172
 7384SOL    HW133611   4.187   1.677   5.645  0.6267 -0.0273 -0.4430
 7384SOL    HW233612   4.268   1.793   5.624  0.0047  0.7851  0.1581
 7385SOL     OW33613   2.988   0.916   6.237 -0.0129 -0.3072  0.0085
 7385SOL    HW133614   3.032   0.917   6.322 -1.0881  1.7816  0.5419
 7385SOL    HW233615   3.007   0.827   6.207  1.9723  0.4678 -1.0567
 7386SOL     OW33616   1.349   3.843   0.173 -0.0249  0.7551  0.7548
 7386SOL    HW133617   1.444   3.852   0.169 -0.0706  1.0973  0.3604
 7386SOL    HW233618   1.334   3.807   0.086  0.6403  0.4447  0.7744
 7387SOL     OW33619   2.444   3.750   0.468 -0.2681  0.7655  0.5782
 7387SOL    HW133620   2.442   3.786   0.379  1.9543  1.5481  0.8316
 7387SOL    HW233621   2.358   3.779   0.498 -0.5754 -0.5794  0.9667
 7388SOL     OW33622   4.464   0.648  13.872  0.2319 -0.5551 -0.2767
 7388SOL    HW133623   4.397   0.590  13.837  0.3215 -2.3872  2.6063
 7388SOL    HW233624   4.415   0.689  13.943 -0.5843 -2.0955  0.0352
 7389SOL     OW33625   0.966   4.619  11.219  0.3870  0.6571  0.2927
 7389SOL    HW133626   1.053   4.658  11.211  0.3498  0.5904 -0.5316
 7389SOL    HW233627   0.917   4.648  11.142  1.9783  1.8199 -0.2677
 7390SOL     OW33628   0.902   1.084   2.283  0.1002 -0.1628 -0.0553
 7390SOL    HW133629   0.986   1.093   2.328  0.5086 -0.4536 -0.7674
 7390SOL    HW233630   0.928   1.085   2.191 -0.6448 -1.1577 -0.2748
 7391SOL     OW33631   4.495   3.384   2.643 -0.3481  0.0607  0.0212
 7391SOL    HW133632   4.406   3.385   2.606 -1.5327  0.7677  2.8873
 7391SOL    HW233633   4.487   3.309   2.701 -1.6265 -1.2966 -1.8792
 7392SOL     OW33634   4.610   1.381  10.229 -0.7360  0.2067 -0.3264
 7392SOL    HW133635   4.614   1.422  10.142 -1.0536  0.7139 -0.1022
 7392SOL    HW233636   4.671   1.433  10.280 -2.5894  2.0033  0.0785
 7393SOL     OW33637   0.905   4.383   5.666 -0.5787 -0.0310  0.1300
 7393SOL    HW133638   0.899   4.338   5.750 -1.3541 -1.0752 -0.4818
 7393SOL    HW233639   0.831   4.340   5.623 -0.7095 -3.9994  4.4129
 7394SOL     OW33640   2.987   2.016   4.402 -0.5302 -0.3808 -0.4406
 7394SOL    HW133641   3.018   2.002   4.492  1.1251  1.6025 -0.7129
 7394SOL    HW233642   2.969   1.924   4.383  0.8285 -0.9358  0.9577
 7395SOL     OW33643   0.139   2.607   6.217  0.0802  0.5616  0.4978
 7395SOL    HW133644   0.181   2.565   6.292  1.3674  1.9849  0.5954
 7395SOL    HW233645   0.051   2.611   6.254 -0.2479 -0.8789 -0.1413
 7396SOL     OW33646   4.096   3.261   0.167 -0.2203  0.3180  0.1591
 7396SOL    HW133647   4.112   3.181   0.116 -0.6288  0.7061 -0.5788
 7396SOL    HW233648   4.014   3.288   0.126  0.0652  2.6587  1.1237
 7397SOL     OW33649   1.871   3.153  15.124 -0.0683 -0.0031  0.6204
 7397SOL    HW133650   1.836   3.232  15.085 -1.3360 -1.5765 -1.3945
 7397SOL    HW233651   1.796   3.135  15.180 -0.4448  0.9019  0.3956
 7398SOL     OW33652   4.073   3.446   5.111  0.0390 -0.2268  0.3992
 7398SOL    HW133653   4.072   3.541   5.113 -2.1484 -0.2494  0.4297
 7398SOL    HW233654   4.036   3.415   5.194 -0.1863  0.8673  0.7037
 7399SOL     OW33655   3.832   3.653   3.325 -0.3542 -0.0609 -0.0496
 7399SOL    HW133656   3.879   3.572   3.341  0.9308  0.5457 -0.7816
 7399SOL    HW233657   3.746   3.642   3.365 -0.5756 -1.9114 -1.0378
 7400SOL     OW33658   4.462   4.606   7.007  0.3177 -0.8139  0.6794
 7400SOL    HW133659   4.462   4.519   6.965 -0.9394  0.3764 -1.8164
 7400SOL    HW233660   4.417   4.583   7.089  0.2680  1.8472  1.3725
 7401SOL     OW33661   3.244   0.383   5.355  0.0475 -0.2499 -0.1022
 7401SOL    HW133662   3.306   0.411   5.423 -1.9347 -0.6444  1.8949
 7401SOL    HW233663   3.271   0.442   5.285 -0.5777  2.0894  1.6297
 7402SOL     OW33664   4.712   0.429   8.166 -0.2731  0.2747 -0.1193
 7402SOL    HW133665   4.675   0.366   8.228  1.5734 -0.8976 -0.2353
 7402SOL    HW233666   4.658   0.404   8.091  1.7421  0.1460 -1.5102
 7403SOL     OW33667   1.420   1.933   8.067  0.4012  0.2270 -0.3161
 7403SOL    HW133668   1.481   1.998   8.103 -0.0241  1.7584 -2.3138
 7403SOL    HW233669   1.381   1.973   7.989  0.7017  0.1987 -0.4829
 7404SOL     OW33670   0.555   1.880   7.102  0.0009 -0.4603 -0.1264
 7404SOL    HW133671   0.520   1.793   7.121  0.1177 -0.3339  0.6591
 7404SOL    HW233672   0.643   1.877   7.140 -0.7689  1.6681  1.7312
 7405SOL     OW33673   4.695   0.022   7.970 -0.5828  0.7520  0.7466
 7405SOL    HW133674   4.694   0.102   7.916  1.7234 -0.7133 -1.4640
 7405SOL    HW233675   4.632   0.041   8.040  1.0139  0.3420  2.3057
 7406SOL     OW33676   0.893   2.301   3.301  0.4375  0.7079  0.4532
 7406SOL    HW133677   0.988   2.304   3.290  0.2007  0.4447 -1.5165
 7406SOL    HW233678   0.887   2.210   3.330 -0.8201  0.0780 -1.7629
 7407SOL     OW33679   3.675   0.984   1.317 -0.4402 -0.4231  0.3356
 7407SOL    HW133680   3.672   1.005   1.224  0.9886 -0.4616  0.2912
 7407SOL    HW233681   3.712   1.063   1.355 -0.1352  1.0483 -3.0224
 7408SOL     OW33682   2.918   1.279  17.103  0.1368  0.8787 -0.4886
 7408SOL    HW133683   2.922   1.350  17.167 -3.4033  0.1127  0.5926
 7408SOL    HW233684   2.950   1.325  17.025 -2.6379  0.9781 -1.5717
 7409SOL     OW33685   3.592   3.556   4.709  0.1254  0.1353 -0.5213
 7409SOL    HW133686   3.670   3.532   4.759  0.3539 -1.0346 -1.4542
 7409SOL    HW233687   3.627   3.570   4.621 -0.7660  0.8293 -0.7602
 7410SOL     OW33688   0.362   4.273   6.997 -0.0879 -0.0229 -0.4099
 7410SOL    HW133689   0.343   4.216   7.071  0.5049 -1.7918 -1.6221
 7410SOL    HW233690   0.352   4.208   6.928  0.1773  0.6776 -1.1058
 7411SOL     OW33691   1.301   1.139  12.476  0.3310 -0.0691 -0.0353
 7411SOL    HW133692   1.267   1.127  12.565  1.0064  0.1232  0.2505
 7411SOL    HW233693   1.224   1.107  12.431  1.1777  0.2164 -1.6809
 7412SOL     OW33694   1.287   1.088   5.441 -0.0183  0.1895 -0.7073
 7412SOL    HW133695   1.205   1.049   5.412 -0.3689  2.1798 -2.3715
 7412SOL    HW233696   1.343   1.052   5.371 -0.1215 -1.4814  0.0724
 7413SOL     OW33697   0.198   3.403  16.048  0.0359 -0.3847  0.2160
 7413SOL    HW133698   0.270   3.392  16.110  0.0584 -0.0193  0.2514
 7413SOL    HW233699   0.158   3.315  16.054  1.0272 -0.7897  0.8242
 7414SOL     OW33700   1.366   2.911  14.364 -0.1547  0.0425 -0.1103
 7414SOL    HW133701   1.407   2.961  14.294  0.2319 -0.6587 -0.3908
 7414SOL    HW233702   1.352   2.827  14.320  0.4650 -1.1507  1.9677
 7415SOL     OW33703   3.934   4.589   1.752  0.2263  0.2390 -0.1385
 7415SOL    HW133704   3.954   4.618   1.841  2.1737 -2.2164  0.2142
 7415SOL    HW233705   3.998   4.637   1.700  1.1876 -0.1298  0.7101
 7416SOL     OW33706   1.318   2.761   1.368 -0.2065  0.4589  0.5164
 7416SOL    HW133707   1.338   2.854   1.371  0.7005  0.2624  0.4617
 7416SOL    HW233708   1.233   2.762   1.324  0.4786  1.6094 -0.7529
 7417SOL     OW33709   1.995   4.148   9.066 -0.2929 -0.0049  0.0382
 7417SOL    HW133710   1.901   4.145   9.085 -0.7076 -1.1974 -2.1670
 7417SOL    HW233711   2.029   4.127   9.154 -0.1592 -0.8619 -0.2180
 7418SOL     OW33712   2.857   2.491   3.596 -0.6524 -0.3854  0.7825
 7418SOL    HW133713   2.787   2.440   3.638 -1.8762  0.4815 -0.1846
 7418SOL    HW233714   2.841   2.569   3.649  0.9464  0.7552 -0.4451
 7419SOL     OW33715   3.442   4.228   4.169  0.7241 -0.3749 -0.2043
 7419SOL    HW133716   3.446   4.253   4.076  1.1567  2.6593  0.6330
 7419SOL    HW233717   3.519   4.276   4.199 -1.1584  2.0276  0.8039
 7420SOL     OW33718   2.589   3.109  12.844  0.2130 -0.4883  0.1176
 7420SOL    HW133719   2.613   3.042  12.908 -1.5107 -2.1772 -1.0071
 7420SOL    HW233720   2.583   3.051  12.767 -0.8914  2.4535 -2.0141
 7421SOL     OW33721   1.247   3.511   1.710  0.1951 -0.2720 -0.4205
 7421SOL    HW133722   1.268   3.447   1.642 -0.5570 -1.5657  0.5320
 7421SOL    HW233723   1.329   3.559   1.704 -0.2560  0.6082  0.5431
 7422SOL     OW33724   0.109   3.671   7.223  0.6228 -0.2370 -0.4107
 7422SOL    HW133725   0.199   3.674   7.190  0.5279  1.3943 -0.5230
 7422SOL    HW233726   0.087   3.763   7.237 -0.7151 -0.4702 -0.9116
 7423SOL     OW33727   3.000   2.055  15.396  0.6118  0.2588  0.3009
 7423SOL    HW133728   2.954   2.110  15.332 -0.3038 -1.3990 -0.4474
 7423SOL    HW233729   2.956   1.971  15.384  0.3856  0.3769  0.2896
 7424SOL     OW33730   1.088   2.957  11.537  0.6656  1.1489  0.1140
 7424SOL    HW133731   1.175   2.963  11.498 -0.2279  0.2617 -2.0445
 7424SOL    HW233732   1.035   3.001  11.470  1.1878  0.5706 -0.6760
 7425SOL     OW33733   0.505   4.066   1.117  0.9750  0.5786 -0.4350
 7425SOL    HW133734   0.518   4.074   1.211 -1.3227  1.6071 -0.2175
 7425SOL    HW233735   0.423   4.112   1.100 -0.4567 -1.9384 -0.1939
 7426SOL     OW33736   0.940   2.947   8.995 -0.3050 -0.2692  0.1904
 7426SOL    HW133737   1.000   2.966   9.067 -0.6280 -2.0840  0.9247
 7426SOL    HW233738   0.926   2.854   9.011  1.0163 -0.6817 -1.0974
 7427SOL     OW33739   2.343   0.328   8.721 -0.2303  0.5330  0.1464
 7427SOL    HW133740   2.422   0.375   8.697 -1.0714  2.8663  2.0279
 7427SOL    HW233741   2.379   0.265   8.783  2.2324  1.1653 -0.6657
 7428SOL     OW33742   1.871   2.286   3.294 -0.5508  0.4779  0.7605
 7428SOL    HW133743   1.782   2.297   3.327 -0.1139  0.7547  1.8464
 7428SOL    HW233744   1.919   2.363   3.323  0.4215  0.6033 -1.2073
 7429SOL     OW33745   0.375   0.438  11.902  0.0459  0.1122  0.2974
 7429SOL    HW133746   0.431   0.499  11.949  0.0101  1.4947 -1.4598
 7429SOL    HW233747   0.292   0.477  11.930 -1.0572 -0.7255 -1.7690
 7430SOL     OW33748   1.849   0.398   3.409 -1.2428 -0.4757 -0.3585
 7430SOL    HW133749   1.871   0.433   3.495 -0.8424  0.1253 -0.7014
 7430SOL    HW233750   1.927   0.425   3.360 -1.6489 -0.4068 -0.9734
 7431SOL     OW33751   2.197   0.279   8.474  0.6615  0.7716 -0.3179
 7431SOL    HW133752   2.251   0.286   8.553  0.5086  1.4350 -0.2734
 7431SOL    HW233753   2.233   0.351   8.423  0.5295  0.2872 -1.0822
 7432SOL     OW33754   1.198   0.093   1.411 -0.0673 -0.5267 -0.1380
 7432SOL    HW133755   1.155   0.031   1.470 -1.6651  0.7456  0.0357
 7432SOL    HW233756   1.287   0.081   1.445  0.3398 -2.3559 -1.8809
 7433SOL     OW33757   0.095   2.396   2.944  0.2417  0.2555 -0.2135
 7433SOL    HW133758   0.097   2.384   2.849  0.8675  2.1008 -0.4197
 7433SOL    HW233759   0.008   2.432   2.964 -0.4445 -2.3997  1.5911
 7434SOL     OW33760   4.069   3.618   2.342 -0.1990 -0.2833  0.5032
 7434SOL    HW133761   4.056   3.653   2.254 -0.9045  2.1896  1.6073
 7434SOL    HW233762   4.133   3.682   2.372  0.8503 -0.2746 -1.6991
 7435SOL     OW33763   0.764   3.003   3.372 -0.2532 -0.4087 -0.2677
 7435SOL    HW133764   0.732   3.075   3.317  0.2807  0.0186 -0.0221
 7435SOL    HW233765   0.780   2.937   3.305 -1.2825 -2.0132  1.0626
 7436SOL     OW33766   3.806   3.463  10.260 -0.8089  0.4113 -0.0944
 7436SOL    HW133767   3.712   3.479  10.254 -0.7984  0.3599 -0.4025
 7436SOL    HW233768   3.821   3.542  10.313 -0.5100 -0.2840  0.8548
 7437SOL     OW33769   0.176   4.085   7.860  0.1376 -0.3203  0.4099
 7437SOL    HW133770   0.152   3.994   7.844 -0.9544  0.5802 -3.1254
 7437SOL    HW233771   0.268   4.084   7.884  0.7177  4.1085 -1.5890
 7438SOL     OW33772   2.315   4.210  12.140  0.2891 -0.0942 -0.2391
 7438SOL    HW133773   2.242   4.199  12.200  0.2429 -0.9956 -0.4651
 7438SOL    HW233774   2.392   4.165  12.176  2.0031  0.2643 -3.4127
 7439SOL     OW33775   0.093   0.012  14.463  0.3829  0.3540 -0.4620
 7439SOL    HW133776   0.129   0.093  14.425 -0.2872  0.5254 -0.7353
 7439SOL    HW233777   0.101   4.670  14.392 -4.0727 -0.5634 -0.1007
 7440SOL     OW33778   2.107   4.314   3.381 -0.3619  0.1583  0.0699
 7440SOL    HW133779   2.019   4.303   3.344 -1.2682  1.3221  1.8539
 7440SOL    HW233780   2.104   4.228   3.423 -1.6485 -0.3243 -0.9915
 7441SOL     OW33781   4.252   2.318   1.249 -0.0950  0.1140 -0.0545
 7441SOL    HW133782   4.296   2.278   1.324  1.3640  0.8772 -0.5050
 7441SOL    HW233783   4.329   2.343   1.197  1.4182  0.6346  2.4636
 7442SOL     OW33784   3.333   1.763  10.189  0.6327 -0.0773 -0.5940
 7442SOL    HW133785   3.408   1.804  10.146  0.4962  0.2023 -0.5693
 7442SOL    HW233786   3.378   1.687  10.224  3.2887  2.0846  0.6615
 7443SOL     OW33787   3.836   4.657   6.315  0.2422 -0.0627 -0.1847
 7443SOL    HW133788   3.923   4.675   6.279 -0.4847  3.9808  0.0690
 7443SOL    HW233789   3.828   4.562   6.310  0.1156 -0.0240 -0.7866
 7444SOL     OW33790   0.133   2.587   7.035 -0.8166  0.3035  0.6779
 7444SOL    HW133791   0.158   2.679   7.024 -0.7005 -0.1028 -2.3199
 7444SOL    HW233792   0.219   2.545   7.025 -0.1225  2.2111 -1.1820
 7445SOL     OW33793   1.594   2.216   8.069 -0.0715  0.5129 -0.1834
 7445SOL    HW133794   1.542   2.291   8.040 -3.2811 -2.2940 -1.6407
 7445SOL    HW233795   1.668   2.261   8.110  0.2785 -2.3451  2.3201
 7446SOL     OW33796   1.370   0.920   5.235 -0.0253 -0.0521  0.0047
 7446SOL    HW133797   1.372   0.912   5.140 -1.0824 -1.8463  0.1469
 7446SOL    HW233798   1.395   0.833   5.265  0.9225  0.1586 -0.1696
 7447SOL     OW33799   0.868   1.601   8.226 -0.0842 -0.5211  0.2784
 7447SOL    HW133800   0.804   1.550   8.177 -1.5787 -0.9235  2.6491
 7447SOL    HW233801   0.864   1.553   8.309 -0.6866  1.7936  1.6195
 7448SOL     OW33802   1.492   3.053   1.886  0.1033 -0.1259 -0.0476
 7448SOL    HW133803   1.507   3.120   1.820  0.9046 -1.2551 -1.0094
 7448SOL    HW233804   1.581   3.033   1.915  0.5901  0.6128 -1.0393
 7449SOL     OW33805   4.026   2.303   0.873  0.5358  0.5803  0.0667
 7449SOL    HW133806   4.015   2.364   0.945 -2.4831 -0.4379  0.4958
 7449SOL    HW233807   4.097   2.248   0.907  1.1206  1.7639  0.7485
 7450SOL     OW33808   1.442   0.808   8.456 -1.1866  0.3093 -0.4324
 7450SOL    HW133809   1.355   0.783   8.486 -2.2278  1.9631 -2.1462
 7450SOL    HW233810   1.443   0.749   8.381  0.2636  2.3556 -2.0194
 7451SOL     OW33811   1.571   4.351   2.170  0.3007  0.1791  0.0596
 7451SOL    HW133812   1.654   4.304   2.181  1.2311  1.3421 -1.9050
 7451SOL    HW233813   1.556   4.352   2.075  0.4896  3.1099  0.0627
 7452SOL     OW33814   3.749   0.352   1.842  0.4463  0.3855 -0.2135
 7452SOL    HW133815   3.771   0.263   1.869  1.6021 -0.3483 -3.5050
 7452SOL    HW233816   3.710   0.325   1.758 -0.6683 -1.1134  0.7946
 7453SOL     OW33817   2.820   2.827   7.055 -0.0429  0.1279  0.6515
 7453SOL    HW133818   2.883   2.760   7.081 -0.5065  0.6661  3.1798
 7453SOL    HW233819   2.811   2.810   6.962 -0.5077 -1.0943  0.9283
 7454SOL     OW33820   3.532   1.431   7.882  0.0222  0.3126  0.2653
 7454SOL    HW133821   3.555   1.420   7.974  1.9727  0.3604 -0.2146
 7454SOL    HW233822   3.619   1.458   7.852  0.4773 -1.8216 -0.3202
 7455SOL     OW33823   2.646   2.984  11.924  0.2326 -0.4896  0.1390
 7455SOL    HW133824   2.699   2.982  11.845  0.0561  1.2317 -0.0359
 7455SOL    HW233825   2.564   3.022  11.891 -0.7296 -4.2843 -1.8054
 7456SOL     OW33826   1.956   0.714   7.701 -0.1044  0.4948  0.3270
 7456SOL    HW133827   1.870   0.699   7.740 -0.0322  0.1688  0.3567
 7456SOL    HW233828   1.998   0.630   7.719 -0.0537  0.2606 -0.9094
 7457SOL     OW33829   1.476   1.591   2.707 -0.4687 -0.5565  0.7775
 7457SOL    HW133830   1.439   1.598   2.618  0.9068  1.5701  0.3789
 7457SOL    HW233831   1.401   1.574   2.764 -1.5602 -0.6322 -0.6756
 7458SOL     OW33832   4.619   0.292   6.019  0.5687 -0.2130 -0.5163
 7458SOL    HW133833   4.623   0.219   6.082  1.8376  0.5548  0.2934
 7458SOL    HW233834   4.702   0.279   5.974  1.1496 -1.5523  0.9081
 7459SOL     OW33835   4.171   1.307   6.803 -0.4907 -0.2276  0.0661
 7459SOL    HW133836   4.086   1.286   6.843  0.4612 -6.7747 -1.4190
 7459SOL    HW233837   4.226   1.295   6.881  2.2503 -0.9404 -2.0043
 7460SOL     OW33838   3.886   2.670   0.988  0.0187 -0.2304 -0.0620
 7460SOL    HW133839   3.807   2.625   0.958 -0.7032  0.1018  1.3691
 7460SOL    HW233840   3.938   2.603   1.033 -1.2859 -2.5170 -1.9056
 7461SOL     OW33841   4.710   2.280   3.406  0.2316 -0.0698  0.2385
 7461SOL    HW133842   0.062   2.334   3.375  0.5372 -1.3440 -1.2600
 7461SOL    HW233843   4.666   2.348   3.457  0.5290 -0.0098  0.4144
 7462SOL     OW33844   0.925   3.314  10.368 -0.2451 -0.0364  0.1350
 7462SOL    HW133845   0.988   3.275  10.428 -1.8725 -1.9747  0.6139
 7462SOL    HW233846   0.840   3.297  10.410  0.3519  1.2798  1.8600
 7463SOL     OW33847   3.933   3.377  10.009  0.8750  0.2577 -0.0630
 7463SOL    HW133848   3.916   3.451   9.949  1.3438 -1.6693 -2.5793
 7463SOL    HW233849   3.928   3.433  10.086  0.0839  0.3419 -0.1787
 7464SOL     OW33850   4.402   2.167  16.888  0.0933  0.0992  0.0396
 7464SOL    HW133851   4.347   2.102  16.845  1.4486 -0.8553 -0.2527
 7464SOL    HW233852   4.402   2.241  16.828 -0.1745  0.0740  0.0072
 7465SOL     OW33853   3.746   1.910   6.482  0.2059  0.1553 -0.2088
 7465SOL    HW133854   3.812   1.976   6.502  1.6701 -1.6300  0.7434
 7465SOL    HW233855   3.742   1.850   6.556  2.8394  0.9730  0.5781
 7466SOL     OW33856   0.827   2.567   4.191 -0.4004 -0.3467  0.3848
 7466SOL    HW133857   0.833   2.622   4.269  2.0404 -1.0865  0.7376
 7466SOL    HW233858   0.756   2.600   4.137  0.1620  1.1635  0.5621
 7467SOL     OW33859   3.349   3.609   8.357 -0.3722 -0.0446  0.3923
 7467SOL    HW133860   3.405   3.532   8.362  0.8887  0.9311  1.1324
 7467SOL    HW233861   3.309   3.593   8.443  1.0859  2.3919  1.5019
 7468SOL     OW33862   4.449   2.799  17.211  0.0452 -0.3698 -0.1890
 7468SOL    HW133863   4.472   2.752  17.291  4.5355  0.6502 -0.9144
 7468SOL    HW233864   4.456   2.893  17.229 -1.7890 -0.2104 -0.2319
 7469SOL     OW33865   3.463   1.325  16.669 -0.1053  0.2256  0.1005
 7469SOL    HW133866   3.515   1.389  16.717 -4.2353  2.9444  0.9395
 7469SOL    HW233867   3.459   1.373  16.586 -0.3893 -2.7026 -1.5927
 7470SOL     OW33868   1.332   1.680   4.783 -0.2243 -0.0879  0.7566
 7470SOL    HW133869   1.413   1.630   4.795 -0.7288 -1.4718 -1.7028
 7470SOL    HW233870   1.363   1.761   4.742 -2.8738  0.8570  0.6197
 7471SOL     OW33871   4.658   0.779  17.493  0.0204  0.1786  0.3513
 7471SOL    HW133872   4.601   0.720  17.443  0.3897  1.3743 -1.4584
 7471SOL    HW233873   4.662   0.856  17.436 -1.7289  0.2431  0.3110
 7472SOL     OW33874   2.499   3.876   4.078 -0.4806 -0.0446  0.3495
 7472SOL    HW133875   2.446   3.906   4.152  0.2671  0.4323  0.6860
 7472SOL    HW233876   2.583   3.858   4.120  0.2927  1.7902 -0.4082
 7473SOL     OW33877   4.409   3.312   2.148 -0.0563  0.1105 -0.3847
 7473SOL    HW133878   4.443   3.224   2.167 -1.7855 -0.4931 -0.0634
 7473SOL    HW233879   4.326   3.308   2.195 -0.8210 -1.1656 -1.8221
 7474SOL     OW33880   0.152   1.758   9.968  0.4846  0.1077  0.3368
 7474SOL    HW133881   0.240   1.789   9.947  0.3819 -1.6436 -2.7961
 7474SOL    HW233882   0.177   1.667   9.987 -0.2217 -0.3258 -0.8058
 7475SOL     OW33883   3.475   0.159   2.934 -0.7848  0.3108 -0.3238
 7475SOL    HW133884   3.489   0.150   2.840  0.3193  0.4364 -0.1751
 7475SOL    HW233885   3.557   0.199   2.965 -0.9107  2.3047 -2.5567
 7476SOL     OW33886   3.117   1.702   4.867 -0.0933 -0.5226 -0.2156
 7476SOL    HW133887   3.201   1.741   4.889 -1.0904  0.8898  1.0887
 7476SOL    HW233888   3.124   1.692   4.772 -2.0083 -1.7996 -0.2305
 7477SOL     OW33889   3.513   2.210   3.432  0.4340 -0.1420 -0.0900
 7477SOL    HW133890   3.524   2.135   3.372  1.4023  0.3667 -0.5513
 7477SOL    HW233891   3.555   2.167   3.506  0.4833  2.0208  1.1271
 7478SOL     OW33892   3.088   1.488   2.609 -0.1240 -0.1100 -0.2567
 7478SOL    HW133893   3.074   1.554   2.677  0.7386  0.9661 -1.1094
 7478SOL    HW233894   3.182   1.476   2.622 -0.4447 -2.5332 -0.1883
 7479SOL     OW33895   0.728   0.738   6.316 -0.2152  0.6278 -0.1069
 7479SOL    HW133896   0.783   0.660   6.315  1.2289  1.6615 -0.9868
 7479SOL    HW233897   0.715   0.740   6.222 -1.8295 -2.2559  0.0519
 7480SOL     OW33898   4.258   0.513  17.006  0.2586  0.5497 -0.4060
 7480SOL    HW133899   4.281   0.573  16.936  2.0744 -1.7825 -1.8249
 7480SOL    HW233900   4.341   0.471  17.029  0.5482  2.2144  1.5585
 7481SOL     OW33901   1.681   0.961  15.692  0.1744  0.2771 -0.1244
 7481SOL    HW133902   1.641   1.036  15.737 -0.3711  0.0759 -0.2709
 7481SOL    HW233903   1.667   0.897  15.763 -0.2421 -2.0132 -2.2566
 7482SOL     OW33904   4.624   3.575   7.901 -0.1632 -0.0564  0.1251
 7482SOL    HW133905   4.687   3.511   7.869  1.4725  1.2977  0.6128
 7482SOL    HW233906   4.549   3.520   7.877  0.2657 -0.6342  0.1102
 7483SOL     OW33907   0.910   3.747  15.454 -0.8083  0.2619  1.3048
 7483SOL    HW133908   0.912   3.818  15.518  0.5872 -0.6598  2.2743
 7483SOL    HW233909   0.845   3.773  15.389  1.0456  0.4595 -0.4662
 7484SOL     OW33910   0.440   0.978   2.421  0.3825  0.1052  0.2577
 7484SOL    HW133911   0.518   1.006   2.374 -0.2336  2.0497  0.4006
 7484SOL    HW233912   0.382   0.983   2.344  0.7439 -2.0960 -0.1498
 7485SOL     OW33913   0.574   3.497   7.060 -0.6545 -0.0481  0.3592
 7485SOL    HW133914   0.629   3.419   7.067 -2.1655 -0.8845  2.8181
 7485SOL    HW233915   0.566   3.498   6.964 -0.1386  2.4445  0.3347
 7486SOL     OW33916   1.176   2.068  17.009 -0.1529  0.4612  0.7142
 7486SOL    HW133917   1.160   2.162  16.999  2.3781  0.9504  1.1065
 7486SOL    HW233918   1.252   2.054  16.953  1.3083  0.1136  2.7765
 7487SOL     OW33919   0.394   3.605  14.962 -0.6580  0.2748 -0.3213
 7487SOL    HW133920   0.478   3.651  14.966 -0.3865 -0.2171 -0.4754
 7487SOL    HW233921   0.333   3.678  14.948  0.1749  1.1230  0.4424
 7488SOL     OW33922   4.242   3.982  11.822  0.1329  0.2306  0.6633
 7488SOL    HW133923   4.328   4.018  11.800 -1.2446  1.9834 -1.8620
 7488SOL    HW233924   4.265   3.898  11.862  0.7792 -0.0139 -0.2070
 7489SOL     OW33925   3.682   0.433   6.989  0.6210  0.0755  0.7122
 7489SOL    HW133926   3.618   0.501   6.967 -0.4277 -1.6807 -1.5858
 7489SOL    HW233927   3.754   0.477   7.035  0.1008  0.5898  1.0429
 7490SOL     OW33928   2.443   4.642   6.519 -0.1841 -0.0109 -0.0849
 7490SOL    HW133929   2.404   4.556   6.536 -0.3303  0.1189  0.2371
 7490SOL    HW233930   2.368   4.701   6.515  1.2889  1.7165 -2.0165
 7491SOL     OW33931   1.422   4.036   0.667  0.4957 -0.0388 -0.1504
 7491SOL    HW133932   1.497   4.059   0.721 -0.3843  0.9825  0.6362
 7491SOL    HW233933   1.447   3.955   0.623 -1.2229 -0.6213 -0.0549
 7492SOL     OW33934   1.466   3.095   5.969  0.2491 -1.1108 -0.5612
 7492SOL    HW133935   1.531   3.105   5.900  1.5189  2.7209  1.2230
 7492SOL    HW233936   1.418   3.015   5.946 -0.1774 -1.3245  1.0932
 7493SOL     OW33937   1.640   2.757   6.268 -0.5684  0.0760 -0.0654
 7493SOL    HW133938   1.704   2.771   6.198 -1.2247 -0.4915 -0.7739
 7493SOL    HW233939   1.684   2.706   6.336 -1.4352  0.4217  0.7480
 7494SOL     OW33940   2.027   0.785  13.532  0.7832 -0.5855 -0.4605
 7494SOL    HW133941   2.023   0.872  13.492  1.1749 -0.7392 -0.8368
 7494SOL    HW233942   2.007   0.799  13.624 -0.8557 -2.3022 -0.5554
 7495SOL     OW33943   1.757   1.437  15.643 -0.0242  0.6622 -0.2811
 7495SOL    HW133944   1.771   1.350  15.607 -0.2451 -0.0682  1.3933
 7495SOL    HW233945   1.835   1.488  15.624  1.0068 -0.8311 -0.0021
 7496SOL     OW33946   1.249   2.705  14.218 -0.7705  0.2610  0.4730
 7496SOL    HW133947   1.155   2.718  14.225 -1.1054 -1.0420 -1.6327
 7496SOL    HW233948   1.238   2.648  14.142 -0.7232  4.0040 -2.2940
 7497SOL     OW33949   0.951   4.027   8.844  0.4814  0.1208  0.1337
 7497SOL    HW133950   0.876   4.068   8.801 -1.3093 -0.4979  2.7085
 7497SOL    HW233951   0.939   4.056   8.934 -0.1534  0.1264  0.0481
 7498SOL     OW33952   4.659   3.603  16.943 -0.3422  0.4160 -0.3157
 7498SOL    HW133953   4.706   3.577  17.022 -3.5764  1.3057  1.9047
 7498SOL    HW233954   4.699   3.686  16.918 -0.0475  0.5472  0.5852
 7499SOL     OW33955   4.482   2.418  17.117 -0.1160  0.0479 -0.0632
 7499SOL    HW133956   4.444   2.388  17.199 -2.6507 -0.4943 -1.4585
 7499SOL    HW233957   4.457   2.350  17.055  2.8691 -1.3173  0.2436
 7500SOL     OW33958   3.586   1.394   2.968 -0.1215  0.1849  0.4329
 7500SOL    HW133959   3.636   1.427   2.893 -0.1479  2.3239  1.3558
 7500SOL    HW233960   3.603   1.465   3.030 -1.7062  1.3129 -0.4246
 7501SOL     OW33961   3.344   4.003   8.153  0.1892  0.1592 -0.1443
 7501SOL    HW133962   3.306   3.984   8.068  1.4472  0.1010 -0.6829
 7501SOL    HW233963   3.346   3.914   8.189  0.1516  0.1587 -0.1432
 7502SOL     OW33964   4.397   4.567   3.172 -0.1102 -0.1864 -0.3631
 7502SOL    HW133965   4.413   4.492   3.116  0.7844 -0.9586  0.9397
 7502SOL    HW233966   4.420   4.535   3.259  1.1789  1.5578 -0.0609
 7503SOL     OW33967   2.094   0.586   0.836 -0.5189 -0.8207 -1.1745
 7503SOL    HW133968   2.080   0.575   0.742  1.3604 -2.3529 -1.2717
 7503SOL    HW233969   2.130   0.501   0.863 -2.6548 -0.9741  1.2187
 7504SOL     OW33970   3.269   3.845  13.407 -0.1017 -0.0512 -0.2364
 7504SOL    HW133971   3.202   3.885  13.351 -1.2741 -1.8256 -0.1147
 7504SOL    HW233972   3.345   3.897  13.382  0.5349 -0.5725  0.6351
 7505SOL     OW33973   3.338   3.629   2.646  1.0850 -0.2396  0.4146
 7505SOL    HW133974   3.422   3.623   2.599 -0.0807 -1.5760 -1.4719
 7505SOL    HW233975   3.276   3.629   2.573  0.1435 -2.5311  1.2294
 7506SOL     OW33976   2.399   1.515   4.596  0.4480 -0.0801  0.3036
 7506SOL    HW133977   2.432   1.428   4.571 -1.2196 -0.4115 -0.7823
 7506SOL    HW233978   2.337   1.483   4.662  1.2104  0.8171  1.4295
 7507SOL     OW33979   2.899   4.465   5.975  0.4503 -0.2486 -1.0596
 7507SOL    HW133980   2.917   4.550   6.014  2.3272 -1.5215  0.7900
 7507SOL    HW233981   2.949   4.459   5.893 -0.7337 -0.1282 -1.8006
 7508SOL     OW33982   2.389   2.064   4.714  0.2353  0.1558 -0.5402
 7508SOL    HW133983   2.472   2.024   4.738  0.6781  0.3488 -1.7721
 7508SOL    HW233984   2.331   1.988   4.716 -1.3051  1.3188 -0.7572
 7509SOL     OW33985   1.189   1.536  14.207  0.1260  0.1647 -0.2135
 7509SOL    HW133986   1.124   1.574  14.147  0.7867 -2.7911 -2.7916
 7509SOL    HW233987   1.239   1.613  14.236 -1.1744  1.5699 -1.6617
 7510SOL     OW33988   3.352   1.801   1.839  0.1935  0.0122 -0.2921
 7510SOL    HW133989   3.319   1.866   1.778 -1.2397 -1.0959 -0.6988
 7510SOL    HW233990   3.329   1.715   1.803  0.9439 -0.5405  0.5361
 7511SOL     OW33991   4.226   0.933   6.068 -0.1431  0.5565  0.5238
 7511SOL    HW133992   4.295   0.867   6.077  1.1047  1.9387  1.1384
 7511SOL    HW233993   4.242   0.951   5.976 -0.8966 -1.5132 -0.0129
 7512SOL     OW33994   1.452   3.039   3.976 -0.7365 -0.0981  0.2182
 7512SOL    HW133995   1.509   3.036   3.899 -0.6581 -1.1980  0.3189
 7512SOL    HW233996   1.463   2.952   4.013  0.1730 -0.2883 -0.5058
 7513SOL     OW33997   4.491   0.201   5.376  0.1253 -0.6477 -0.2144
 7513SOL    HW133998   4.525   0.282   5.337 -0.3825 -0.9415 -1.2791
 7513SOL    HW233999   4.446   0.235   5.454  0.3617  0.9603 -0.7712
 7514SOL     OW34000   0.946   3.502   4.761 -0.0828 -0.1010 -0.0052
 7514SOL    HW134001   0.882   3.542   4.702 -1.9923 -0.8005  1.5961
 7514SOL    HW234002   1.014   3.476   4.699  2.6059  1.1597  2.4376
 7515SOL     OW34003   2.656   4.168   3.151 -0.7831  0.0183  0.8511
 7515SOL    HW134004   2.719   4.152   3.221 -3.7466 -1.4528  3.1950
 7515SOL    HW234005   2.653   4.256   3.188  2.2051  0.4992 -0.0380
 7516SOL     OW34006   2.742   1.460   7.280  0.2244  0.3893 -0.6797
 7516SOL    HW134007   2.768   1.371   7.256  3.3158  0.4149  2.5905
 7516SOL    HW234008   2.792   1.467   7.362  1.2005  2.3154 -1.4558
 7517SOL     OW34009   1.104   3.553   6.050 -0.2590  0.2316  0.2527
 7517SOL    HW134010   1.095   3.625   5.988 -0.5488  0.0532  0.0863
 7517SOL    HW234011   1.097   3.476   5.994  0.3029  1.0426 -0.9262
 7518SOL     OW34012   0.172   3.788   5.640 -0.2828 -0.7032 -0.3166
 7518SOL    HW134013   0.120   3.867   5.627 -2.3740 -1.8315  1.2089
 7518SOL    HW234014   0.227   3.788   5.562 -0.4540 -3.1511 -0.4475
 7519SOL     OW34015   0.278   2.536   1.629  0.3679 -0.6031  0.2384
 7519SOL    HW134016   0.322   2.477   1.690  3.1308  1.4347  0.2095
 7519SOL    HW234017   0.282   2.482   1.551 -0.4708 -0.3044 -0.0168
 7520SOL     OW34018   0.156   0.465   7.104 -0.0368 -0.1122  0.5876
 7520SOL    HW134019   0.160   0.555   7.136  1.7609 -0.0011  0.0300
 7520SOL    HW234020   0.147   0.423   7.189  0.4909 -1.0530  0.1748
 7521SOL     OW34021   4.335   2.307  16.670  0.0302  0.0321  0.0234
 7521SOL    HW134022   4.244   2.283  16.655 -0.4368  1.8767 -0.0571
 7521SOL    HW234023   4.354   2.347  16.585  0.3679  0.0610  0.1121
 7522SOL     OW34024   3.664   4.008   1.850  0.6717  0.1811 -0.1085
 7522SOL    HW134025   3.706   4.041   1.772  0.0216 -1.6465 -1.2407
 7522SOL    HW234026   3.615   3.932   1.818  3.5148 -1.9641  0.5783
 7523SOL     OW34027   2.109   1.007  13.118 -0.2204  0.7359  0.1725
 7523SOL    HW134028   2.074   1.030  13.032  0.0506 -0.2195 -0.1944
 7523SOL    HW234029   2.176   0.941  13.100  0.8919  1.3371  2.1277
 7524SOL     OW34030   1.105   0.756   6.158 -0.0648  0.0930  0.3243
 7524SOL    HW134031   1.180   0.697   6.168  0.8260  1.2135  0.2174
 7524SOL    HW234032   1.039   0.698   6.120 -2.8080  1.1359  3.5322
 7525SOL     OW34033   3.015   1.883   1.940 -0.1691  0.1335  0.3180
 7525SOL    HW134034   2.977   1.795   1.945 -3.1421  1.2624 -2.5641
 7525SOL    HW234035   3.078   1.885   2.012 -0.0979 -1.3675  0.3080
 7526SOL     OW34036   4.392   1.085   5.635  0.2885 -0.1740  0.7879
 7526SOL    HW134037   4.321   1.059   5.577 -0.3939  1.2007  0.9961
 7526SOL    HW234038   4.457   1.018   5.613 -1.3386 -1.9945  1.6095
 7527SOL     OW34039   1.799   2.308  13.500 -0.1715 -0.2422 -0.2119
 7527SOL    HW134040   1.715   2.268  13.477 -0.6614  1.6874 -1.7868
 7527SOL    HW234041   1.819   2.367  13.427  0.9335  1.3218  1.3856
 7528SOL     OW34042   3.996   4.472  12.761 -0.2288 -0.9575 -0.6209
 7528SOL    HW134043   3.990   4.386  12.718  1.0996 -2.0742  1.4363
 7528SOL    HW234044   3.910   4.463  12.803 -0.4131  1.4369 -0.5078
 7529SOL     OW34045   4.032   3.098  17.462 -0.1760 -0.4238  0.1403
 7529SOL    HW134046   3.985   3.181  17.455 -0.7343 -1.0193 -3.1129
 7529SOL    HW234047   4.115   3.127  17.424 -2.1559  2.8831 -1.6294
 7530SOL     OW34048   2.904   3.889   9.869 -0.4162  0.1406 -0.1635
 7530SOL    HW134049   2.918   3.924   9.957 -1.6994 -1.6593  0.7397
 7530SOL    HW234050   2.991   3.852   9.852 -0.8573 -0.8754 -0.2075
 7531SOL     OW34051   3.229   1.758  15.254  0.0485  0.7709  0.0598
 7531SOL    HW134052   3.278   1.676  15.262 -0.8151  0.1184 -1.3631
 7531SOL    HW234053   3.296   1.808  15.300 -1.8543  0.8196  2.8383
 7532SOL     OW34054   4.308   2.992   8.584 -0.2876  0.9767 -0.4441
 7532SOL    HW134055   4.219   3.006   8.553 -0.2961  0.8877 -0.4594
 7532SOL    HW234056   4.326   3.084   8.605 -0.4629  1.1162 -0.9004
 7533SOL     OW34057   2.972   0.569   2.207  0.1463  0.0497 -0.1867
 7533SOL    HW134058   3.018   0.615   2.276 -1.4912 -0.8701  1.5202
 7533SOL    HW234059   2.962   0.639   2.142  2.6726  0.4593 -0.0990
 7534SOL     OW34060   0.473   2.351   4.643 -0.2797 -0.5515  0.2435
 7534SOL    HW134061   0.393   2.312   4.609 -0.3734 -0.2407  0.1065
 7534SOL    HW234062   0.437   2.411   4.708 -2.3317  0.4446 -1.8203
 7535SOL     OW34063   3.050   0.631  16.291  0.9882 -0.1570 -0.3153
 7535SOL    HW134064   3.086   0.718  16.277 -0.8647  0.5009 -0.9431
 7535SOL    HW234065   2.991   0.661  16.361  1.0084 -0.9313  0.0371
 7536SOL     OW34066   1.347   2.754  13.652 -0.6051 -0.0047  0.0871
 7536SOL    HW134067   1.416   2.701  13.613  1.3083  1.4674  1.4763
 7536SOL    HW234068   1.273   2.703  13.620  0.2636  0.0446 -1.9942
 7537SOL     OW34069   0.512   3.907   4.295  0.1542  0.3069  0.0755
 7537SOL    HW134070   0.486   3.826   4.251 -2.1433  1.1031 -0.0609
 7537SOL    HW234071   0.449   3.965   4.253 -0.6485  0.2052  1.1460
 7538SOL     OW34072   3.648   2.335  16.894  0.0432  0.3817 -0.6779
 7538SOL    HW134073   3.687   2.415  16.859  3.6340 -0.6530  0.9111
 7538SOL    HW234074   3.573   2.356  16.950  0.2946 -2.2601  0.6437
 7539SOL     OW34075   1.140   3.511   1.172  0.1320 -0.3750  0.0327
 7539SOL    HW134076   1.137   3.509   1.268  0.1272 -1.2458  0.0147
 7539SOL    HW234077   1.067   3.570   1.155  1.4809  1.0647 -0.7397
 7540SOL     OW34078   2.368   1.016   8.414  0.1031  0.3400  0.6788
 7540SOL    HW134079   2.320   1.099   8.414 -0.1045  0.2132 -0.4776
 7540SOL    HW234080   2.301   0.948   8.426  0.0732  0.4494  1.1542
 7541SOL     OW34081   3.581   2.405   6.008 -0.1972  0.3805 -0.0068
 7541SOL    HW134082   3.531   2.418   5.927 -2.0887  0.7408  1.2216
 7541SOL    HW234083   3.668   2.431   5.977  0.1293  1.9730  2.2441
 7542SOL     OW34084   2.884   0.427   1.621  0.0434 -0.7776 -0.4303
 7542SOL    HW134085   2.888   0.458   1.712 -0.7313  1.5780 -1.2124
 7542SOL    HW234086   2.867   0.506   1.570 -0.8036  1.3704  3.1307
 7543SOL     OW34087   4.406   3.055  15.113 -0.3310 -0.3719 -0.4865
 7543SOL    HW134088   4.367   3.097  15.036 -0.3931 -0.5199 -0.5363
 7543SOL    HW234089   4.477   3.116  15.132  0.9576 -2.2508  0.7103
 7544SOL     OW34090   3.106   1.916   2.978  0.0643  0.2104 -0.1287
 7544SOL    HW134091   3.063   1.998   3.004  0.3383  0.4261 -0.3547
 7544SOL    HW234092   3.122   1.949   2.890 -0.2439  1.1794  0.1746
 7545SOL     OW34093   3.978   4.421   4.711 -0.1961 -0.0209 -0.1585
 7545SOL    HW134094   4.012   4.392   4.626  2.8277 -0.1922  1.1138
 7545SOL    HW234095   4.050   4.475   4.744 -1.4721  0.5448  1.6903
 7546SOL     OW34096   2.521   0.144  14.031  0.0298 -0.0774  0.0059
 7546SOL    HW134097   2.559   0.204  13.966 -1.4374  2.2189  1.2675
 7546SOL    HW234098   2.583   0.159  14.101  0.4601  2.1073 -0.8249
 7547SOL     OW34099   1.298   4.658   7.731  0.5121  0.4883 -0.0813
 7547SOL    HW134100   1.321   4.613   7.650  0.9446  0.1576  0.2247
 7547SOL    HW234101   1.250   0.012   7.695 -1.0626 -0.6028 -0.2538
 7548SOL     OW34102   0.882   3.326   1.418  0.3342  0.1605 -0.2545
 7548SOL    HW134103   0.825   3.357   1.489 -1.6772 -0.0713 -1.7470
 7548SOL    HW234104   0.820   3.287   1.356  1.2636  0.3238 -1.2841
 7549SOL     OW34105   3.537   4.401   1.245 -0.2039  0.0767  0.1810
 7549SOL    HW134106   3.462   4.349   1.216  1.2943 -2.6494  1.2647
 7549SOL    HW234107   3.608   4.337   1.239  0.2268  0.4651  1.0926
 7550SOL     OW34108   4.681   0.004  10.571  0.4847  0.3658  0.3413
 7550SOL    HW134109   0.014   4.688  10.500  0.9745  2.3389 -0.3176
 7550SOL    HW234110   4.654   4.647  10.619  1.7929 -1.9389 -2.6368
 7551SOL     OW34111   1.040   0.021   8.387 -0.0477  0.4963 -0.4518
 7551SOL    HW134112   0.997   0.048   8.468 -1.1337 -0.0945 -0.8205
 7551SOL    HW234113   1.129   0.051   8.405  0.1752  0.2488 -1.1275
 7552SOL     OW34114   2.444   1.503   3.928 -0.6990  0.4584 -0.3218
 7552SOL    HW134115   2.445   1.516   3.834  1.3186 -0.0363 -0.3684
 7552SOL    HW234116   2.423   1.590   3.961 -1.6161  0.1742 -0.1618
 7553SOL     OW34117   2.443   4.365  16.252 -0.3752 -0.2799  0.2809
 7553SOL    HW134118   2.403   4.355  16.165 -1.6822  0.2127  0.8299
 7553SOL    HW234119   2.460   4.275  16.280 -1.6353 -0.0494  1.7289
 7554SOL     OW34120   4.585   3.152  10.672 -0.0526  0.2907  0.8424
 7554SOL    HW134121   4.575   3.243  10.699  0.4791  0.8702 -0.8956
 7554SOL    HW234122   4.587   3.105  10.755 -1.0361  2.0760  1.8598
 7555SOL     OW34123   4.258   1.800   5.956 -0.3828  0.0482 -0.0099
 7555SOL    HW134124   4.288   1.783   5.866 -0.7962 -1.4407  0.1357
 7555SOL    HW234125   4.196   1.873   5.951 -0.6077 -0.0150  2.0532
 7556SOL     OW34126   1.227   3.485   5.303 -0.0561 -0.0458  0.3665
 7556SOL    HW134127   1.187   3.572   5.300  0.9724  0.4167  0.1743
 7556SOL    HW234128   1.271   3.494   5.387 -0.0043 -0.2862  0.3646
 7557SOL     OW34129   2.338   1.838  12.695 -0.1900  0.4224  0.0803
 7557SOL    HW134130   2.337   1.873  12.784  0.5056 -0.2933  0.3721
 7557SOL    HW234131   2.429   1.859  12.672  0.8205 -1.2858  2.5119
 7558SOL     OW34132   1.807   3.890   8.983  0.3398 -0.3636  0.0598
 7558SOL    HW134133   1.768   3.839   8.912 -2.5203 -0.7297  1.8772
 7558SOL    HW234134   1.894   3.895   8.944  1.1746  0.4157  2.0596
 7559SOL     OW34135   0.281   4.719  10.790  0.1646  0.3049 -0.6081
 7559SOL    HW134136   0.307   0.025  10.878  1.2789  1.2969 -1.2488
 7559SOL    HW234137   0.245   4.632  10.805 -3.4261  1.3474 -2.9172
 7560SOL     OW34138   2.309   0.126  17.649  0.1415  0.0298  1.0144
 7560SOL    HW134139   2.347   0.038  17.643 -0.4793 -0.1160 -0.7608
 7560SOL    HW234140   2.216   0.106  17.644  0.1049  0.5508 -0.5155
 7561SOL     OW34141   2.844   2.449   4.984  0.0287 -0.0022 -0.3205
 7561SOL    HW134142   2.900   2.439   5.061  1.2409 -0.0646 -1.2035
 7561SOL    HW234143   2.903   2.434   4.910 -0.7266 -0.0285 -0.9122
 7562SOL     OW34144   1.095   0.666   6.469 -0.1057  0.0101 -0.4129
 7562SOL    HW134145   1.011   0.637   6.432 -1.1718 -0.5658  2.4490
 7562SOL    HW234146   1.096   0.759   6.446 -0.1587  0.2387  0.5061
 7563SOL     OW34147   2.312   0.555  17.231 -0.7629  0.4817 -1.4297
 7563SOL    HW134148   2.240   0.510  17.187 -0.6706 -2.3080  1.2176
 7563SOL    HW234149   2.384   0.541  17.170 -0.2783 -0.0362 -0.7485
 7564SOL     OW34150   2.721   2.151   6.097 -0.0642  0.0733 -0.1589
 7564SOL    HW134151   2.725   2.181   6.188 -2.6132  0.1310 -0.0568
 7564SOL    HW234152   2.697   2.059   6.104 -1.3907  0.0303 -5.2325
 7565SOL     OW34153   4.336   3.542   4.553  0.2546 -0.2987  0.3364
 7565SOL    HW134154   4.273   3.491   4.604 -0.5802  0.3977  0.0126
 7565SOL    HW234155   4.292   3.547   4.467  0.1902 -0.3243  0.3675
 7566SOL     OW34156   3.901   0.050   3.853 -0.0037 -0.0399 -0.0361
 7566SOL    HW134157   3.815   0.060   3.893  0.7878  2.8558  0.9622
 7566SOL    HW234158   3.884   4.698   3.793  1.1639  1.3478 -2.0766
 7567SOL     OW34159   4.269   1.014  13.467 -0.0498 -0.2599  0.0059
 7567SOL    HW134160   4.311   0.975  13.390 -0.6799 -1.3271  0.2102
 7567SOL    HW234161   4.208   0.945  13.491  0.4003 -0.6360  0.0711
 7568SOL     OW34162   2.313   0.924  16.119  0.6746 -0.2359  0.3343
 7568SOL    HW134163   2.370   1.000  16.107  0.8905 -0.6279 -1.1130
 7568SOL    HW234164   2.237   0.942  16.065  0.1231 -0.4226  1.0480
 7569SOL     OW34165   2.483   1.676   4.904  0.0496  0.1346 -0.2108
 7569SOL    HW134166   2.502   1.586   4.930  0.5416  0.1778 -0.4117
 7569SOL    HW234167   2.402   1.673   4.854  0.2211 -0.2768 -0.4611
 7570SOL     OW34168   3.088   3.390   5.416  0.0244 -0.2373 -0.2400
 7570SOL    HW134169   3.000   3.424   5.432 -0.1790 -2.6576  3.9024
 7570SOL    HW234170   3.081   3.398   5.321 -3.3849 -0.6916 -0.0428
 7571SOL     OW34171   0.602   2.281  10.521  0.0360 -0.2232 -0.0213
 7571SOL    HW134172   0.677   2.284  10.461 -1.7322  0.6626 -2.1882
 7571SOL    HW234173   0.623   2.364  10.564 -2.2676  1.9663 -3.1255
 7572SOL     OW34174   1.388   2.734   5.144 -0.5409  0.4705  0.1647
 7572SOL    HW134175   1.419   2.761   5.231 -1.3208 -1.0328  0.9088
 7572SOL    HW234176   1.341   2.812   5.114 -2.0014 -0.8519 -0.9227
 7573SOL     OW34177   3.080   1.102  17.527  0.1961 -0.3470  1.3587
 7573SOL    HW134178   3.157   1.064  17.568 -0.4241 -0.3382  2.5480
 7573SOL    HW234179   3.041   1.022  17.492  0.0130 -0.2490  1.3394
 7574SOL     OW34180   1.990   3.780   7.016 -0.1707 -0.1062 -0.3574
 7574SOL    HW134181   1.929   3.707   7.004 -1.6388  1.1960 -0.8566
 7574SOL    HW234182   2.035   3.766   7.099  0.7026 -3.3567 -1.3913
 7575SOL     OW34183   3.671   3.604   5.688  0.4859  0.2600 -0.3341
 7575SOL    HW134184   3.610   3.545   5.644  1.1544 -1.0841  0.5239
 7575SOL    HW234185   3.620   3.685   5.691 -1.5024 -1.0371  0.9799
 7576SOL     OW34186   4.131   1.448  10.182  0.0303 -0.4646 -0.0940
 7576SOL    HW134187   4.199   1.423  10.120  1.3325 -1.6372  1.7822
 7576SOL    HW234188   4.070   1.374  10.189  0.3046 -0.7119 -0.3263
 7577SOL     OW34189   1.485   1.434  13.063 -0.0216  0.5181  0.6808
 7577SOL    HW134190   1.468   1.358  13.120  1.3455 -1.1833 -1.1537
 7577SOL    HW234191   1.580   1.440  13.051  0.1229  0.0919  1.5798
 7578SOL     OW34192   2.569   0.044   7.952  0.5118 -0.3913  0.6430
 7578SOL    HW134193   2.624   0.014   7.880 -0.4992  1.9489 -1.0985
 7578SOL    HW234194   2.504   0.092   7.901 -0.1493 -1.6098  0.3449
 7579SOL     OW34195   0.331   0.457   5.290  0.0547 -0.5838  0.0429
 7579SOL    HW134196   0.417   0.417   5.282  1.2987  1.4328  3.0139
 7579SOL    HW234197   0.296   0.418   5.210 -1.9030 -1.2445  1.2273
 7580SOL     OW34198   3.159   2.039   2.317  0.0294  0.5794  0.1644
 7580SOL    HW134199   3.212   2.080   2.386  0.0379  1.1860 -0.2011
 7580SOL    HW234200   3.154   2.120   2.266  1.2592  1.4297  1.3908
 7581SOL     OW34201   0.911   2.947   8.559  0.3049  0.2434 -0.6072
 7581SOL    HW134202   1.000   2.960   8.591 -0.0813 -0.8556  0.8905
 7581SOL    HW234203   0.857   2.957   8.637  1.7308 -1.7437  0.6466
 7582SOL     OW34204   3.936   1.617   0.636  0.1013  0.2527  0.1924
 7582SOL    HW134205   3.924   1.668   0.555  4.7446  0.8950 -0.0728
 7582SOL    HW234206   4.016   1.574   0.608 -1.4436 -1.2953 -1.9389
 7583SOL     OW34207   1.662   0.795   7.847 -0.2956  0.7745  0.2186
 7583SOL    HW134208   1.682   0.705   7.872 -2.1840  0.6445  1.2296
 7583SOL    HW234209   1.597   0.823   7.910 -2.0479 -1.8916 -0.4148
 7584SOL     OW34210   1.494   2.139   0.664  0.0412 -0.7604 -0.8055
 7584SOL    HW134211   1.543   2.220   0.655  1.4938 -1.8585 -2.6273
 7584SOL    HW234212   1.507   2.109   0.754  0.1559  1.6484 -0.0117
 7585SOL     OW34213   2.501   2.474   2.426  0.6868 -0.4174 -0.5042
 7585SOL    HW134214   2.495   2.381   2.401  0.4947 -0.9024  1.2788
 7585SOL    HW234215   2.426   2.505   2.375 -0.4624 -0.6354  1.0357
 7586SOL     OW34216   1.414   1.046   7.748  0.0665  0.4444  0.2101
 7586SOL    HW134217   1.509   1.055   7.743 -0.1256  1.6873 -1.1834
 7586SOL    HW234218   1.401   0.959   7.710  0.5837  0.6508 -0.4339
 7587SOL     OW34219   1.061   3.994  13.583  0.1384 -0.8814  0.4366
 7587SOL    HW134220   1.000   3.925  13.610  1.6202 -2.1205  0.6253
 7587SOL    HW234221   0.991   4.047  13.545 -0.0025 -2.0808 -0.9782
 7588SOL     OW34222   4.509   4.548   9.483  0.3449 -0.8449  0.7572
 7588SOL    HW134223   4.417   4.528   9.498 -0.0163  0.0281 -0.2940
 7588SOL    HW234224   4.500   4.643   9.497 -0.9791 -1.0229  1.0888
 7589SOL     OW34225   4.359   0.437   8.338 -0.2464  0.2203 -0.0411
 7589SOL    HW134226   4.404   0.354   8.352  0.2948  0.2489 -1.5418
 7589SOL    HW234227   4.421   0.482   8.281 -0.1451 -1.4158 -1.2132
 7590SOL     OW34228   4.717   1.688   7.716  0.2454  0.4279  0.0176
 7590SOL    HW134229   0.055   1.748   7.670  0.3839 -0.7729 -1.3533
 7590SOL    HW234230   0.061   1.655   7.778 -0.9485  1.7297  1.9528
 7591SOL     OW34231   4.062   4.493   6.044 -0.4160  0.4943  0.5319
 7591SOL    HW134232   4.124   4.557   6.010  0.6595 -0.8871 -0.1086
 7591SOL    HW234233   4.118   4.415   6.042 -1.2331 -0.0768  0.0405
 7592SOL     OW34234   1.474   3.651   7.559  0.0299 -0.3311  0.3537
 7592SOL    HW134235   1.561   3.610   7.559 -0.5517 -1.6008 -1.1165
 7592SOL    HW234236   1.444   3.640   7.469  1.4906  2.2509 -0.4490
 7593SOL     OW34237   2.462   0.685  12.936 -0.0725 -0.3433 -0.5540
 7593SOL    HW134238   2.527   0.617  12.953  0.9426  0.8621  0.3024
 7593SOL    HW234239   2.394   0.633  12.892 -1.2917  0.2998  0.5531
 7594SOL     OW34240   2.867   3.786  11.605  0.7910  0.3044 -0.4042
 7594SOL    HW134241   2.909   3.759  11.687  1.1709  0.0451 -0.6831
 7594SOL    HW234242   2.798   3.721  11.589  1.4619  0.1458 -2.6220
 7595SOL     OW34243   3.776   1.764   2.784 -0.0215 -0.0144  0.3277
 7595SOL    HW134244   3.814   1.677   2.794  1.5454  0.6705  0.3950
 7595SOL    HW234245   3.802   1.791   2.696  2.8547 -1.0565  0.8407
 7596SOL     OW34246   2.626   0.570   1.941  0.6668 -0.4207  0.6142
 7596SOL    HW134247   2.709   0.618   1.945  0.3422  0.2183 -0.1549
 7596SOL    HW234248   2.657   0.488   1.978  1.3021 -0.7252 -0.5820
 7597SOL     OW34249   0.300   2.673   2.270 -0.2851 -0.5062 -0.8931
 7597SOL    HW134250   0.382   2.637   2.235  1.0316  1.5758  0.0850
 7597SOL    HW234251   0.318   2.688   2.363  3.5280 -1.7993 -1.4136
 7598SOL     OW34252   4.595   3.207   3.257 -0.1412 -0.0222  0.4360
 7598SOL    HW134253   4.639   3.137   3.209 -1.3575  1.1017 -2.2673
 7598SOL    HW234254   4.555   3.156   3.328 -2.3046  1.8304  0.5441
 7599SOL     OW34255   1.693   3.232  11.754 -0.0010 -0.0391  0.0477
 7599SOL    HW134256   1.719   3.142  11.738 -0.0729  0.0243 -0.4188
 7599SOL    HW234257   1.752   3.252  11.828 -0.7150  1.9874  0.0696
 7600SOL     OW34258   0.145   2.210   6.305  0.5054 -0.0448 -0.5122
 7600SOL    HW134259   0.121   2.252   6.222 -0.5703 -1.4418 -0.9090
 7600SOL    HW234260   0.191   2.281   6.349  0.3642  0.4571 -1.1664
 7601SOL     OW34261   0.482   2.708   5.521 -0.0678  0.0727  0.4612
 7601SOL    HW134262   0.441   2.706   5.607 -0.3851 -0.4350  0.3002
 7601SOL    HW234263   0.528   2.624   5.509  3.0333  1.6645  1.1901
 7602SOL     OW34264   2.915   2.934   4.540 -0.0141 -0.5300  0.1137
 7602SOL    HW134265   2.992   2.972   4.582 -0.3125 -0.1385  0.3111
 7602SOL    HW234266   2.898   3.003   4.476  1.4436  0.4832  0.8031
 7603SOL     OW34267   3.716   2.822  12.146 -0.1983 -0.1957 -0.4721
 7603SOL    HW134268   3.724   2.747  12.205  1.2808  1.0906  0.9631
 7603SOL    HW234269   3.631   2.807  12.104  0.4750 -0.9409 -1.5854
 7604SOL     OW34270   0.329   0.051   6.465 -0.2178  0.0625 -0.3419
 7604SOL    HW134271   0.329   0.068   6.371 -4.0914 -0.7605 -0.4934
 7604SOL    HW234272   0.422   0.029   6.473 -0.9869 -2.9323  0.7106
 7605SOL     OW34273   0.538   2.951   5.742 -0.1297  0.2940 -0.9163
 7605SOL    HW134274   0.536   3.043   5.768 -1.8117  0.5681 -2.0076
 7605SOL    HW234275   0.452   2.930   5.705 -0.7495  1.0402  0.1144
 7606SOL     OW34276   0.448   1.091   4.304  0.4998  0.1889  0.3661
 7606SOL    HW134277   0.367   1.042   4.319  1.1363 -1.3144 -1.1110
 7606SOL    HW234278   0.432   1.148   4.228  4.4520 -1.6036 -1.8015
 7607SOL     OW34279   3.320   4.377   2.861  0.0373  0.0651  0.2019
 7607SOL    HW134280   3.369   4.459   2.864  2.3684 -1.2771 -1.8492
 7607SOL    HW234281   3.302   4.372   2.768  0.2917 -1.8222  0.2582
 7608SOL     OW34282   3.185   4.106  17.603 -0.1658  0.1790  0.4033
 7608SOL    HW134283   3.097   4.123  17.637  0.1702  2.6424  0.0427
 7608SOL    HW234284   3.220   4.050  17.672  0.0734 -1.1634 -0.8105
 7609SOL     OW34285   2.061   1.917  15.765  0.2069  0.3993 -0.1825
 7609SOL    HW134286   2.060   2.004  15.805  0.9648  1.1442 -1.7913
 7609SOL    HW234287   2.002   1.913  15.690 -1.6131 -1.6758  1.3503
 7610SOL     OW34288   0.349   1.071   8.750 -0.3649 -0.2118  0.0395
 7610SOL    HW134289   0.390   1.051   8.834  0.2416 -1.6436 -0.5970
 7610SOL    HW234290   0.379   0.999   8.695 -0.9134  0.0067 -0.5508
 7611SOL     OW34291   4.147   3.763   6.121 -0.1400  0.8533 -0.8700
 7611SOL    HW134292   4.224   3.754   6.064  2.0356  1.2713  1.9899
 7611SOL    HW234293   4.107   3.679   6.140  2.6601 -0.4071 -0.5966
 7612SOL     OW34294   0.714   3.533   8.753 -0.4602  0.7088  0.9676
 7612SOL    HW134295   0.669   3.452   8.778  0.2073 -0.1047 -0.4786
 7612SOL    HW234296   0.784   3.495   8.700 -1.5650 -0.3519  0.2588
 7613SOL     OW34297   3.079   0.239  16.622  0.1227 -0.2182 -0.9461
 7613SOL    HW134298   3.055   0.285  16.542  0.8631  3.3254  0.8840
 7613SOL    HW234299   3.033   0.291  16.688 -0.1544  0.6689 -1.8411
 7614SOL     OW34300   0.001   4.402   3.026 -0.1995  0.4186 -0.3912
 7614SOL    HW134301   0.072   4.390   2.964  1.2718 -0.3452  1.4253
 7614SOL    HW234302   0.012   4.316   3.067 -1.6634  1.0058  1.2234
 7615SOL     OW34303   1.558   2.559   5.015 -0.0493 -0.1043  0.4328
 7615SOL    HW134304   1.481   2.605   5.051 -1.9107 -1.3321 -1.9833
 7615SOL    HW234305   1.514   2.534   4.934  2.3292  3.6037 -2.0136
 7616SOL     OW34306   4.640   0.640   0.034 -0.1643  0.6027  0.1477
 7616SOL    HW134307   4.620   0.549   0.011  1.5049  0.4188 -0.5422
 7616SOL    HW234308   4.693   0.668  17.645 -3.5675 -1.4063 -3.0465
 7617SOL     OW34309   0.615   4.617   5.329  0.1115 -0.2424 -0.0680
 7617SOL    HW134310   0.561   4.650   5.401 -1.5165 -0.0828 -1.3879
 7617SOL    HW234311   0.705   4.624   5.360 -0.4329  1.9789  0.9981
 7618SOL     OW34312   2.164   3.525   7.977 -0.2290 -0.0141 -0.3684
 7618SOL    HW134313   2.178   3.557   7.888 -0.0464  2.4103  0.5333
 7618SOL    HW234314   2.087   3.473   7.955 -0.2917  0.7144 -1.8922
 7619SOL     OW34315   4.400   3.353   1.843  0.8655 -0.1341 -0.1659
 7619SOL    HW134316   4.405   3.259   1.825 -1.9797  0.0496 -1.8727
 7619SOL    HW234317   4.397   3.352   1.938  0.6923 -3.1822 -0.1856
 7620SOL     OW34318   0.531   3.248   2.292 -0.9516  0.0742  0.1604
 7620SOL    HW134319   0.613   3.249   2.341 -0.3937  1.5327 -0.8039
 7620SOL    HW234320   0.566   3.266   2.205 -0.2769 -3.2262 -0.2321
 7621SOL     OW34321   3.353   3.425  15.594 -0.2323  0.0160 -0.3869
 7621SOL    HW134322   3.441   3.390  15.582 -0.7689 -1.5827  0.3431
 7621SOL    HW234323   3.363   3.509  15.549  1.7063  1.2086  2.2817
 7622SOL     OW34324   0.786   0.634   5.584  0.2500  0.1267  0.6004
 7622SOL    HW134325   0.771   0.544   5.611  0.0891  0.0936  0.4012
 7622SOL    HW234326   0.700   0.655   5.547  1.2539 -0.8518 -2.2933
 7623SOL     OW34327   4.220   3.652   5.707  0.1141 -0.3369  0.5934
 7623SOL    HW134328   4.167   3.597   5.764  0.7367 -0.7501  0.7855
 7623SOL    HW234329   4.277   3.686   5.776  2.0859  2.6066 -2.5027
 7624SOL     OW34330   2.241   0.190   8.114 -0.0442 -0.2361 -0.7600
 7624SOL    HW134331   2.213   0.189   8.023 -1.9361 -0.5164 -0.1775
 7624SOL    HW234332   2.276   0.279   8.121 -1.6030  0.4491 -1.6481
 7625SOL     OW34333   1.684   2.598   8.974 -0.4867  0.2992 -0.1946
 7625SOL    HW134334   1.691   2.506   8.951  1.9521  0.6443 -0.9191
 7625SOL    HW234335   1.776   2.615   8.998 -0.8668  1.8548  0.1550
 7626SOL     OW34336   0.108   1.208   8.730  0.2702  0.9711  0.0198
 7626SOL    HW134337   0.128   1.294   8.693  0.6546 -0.3161 -2.7153
 7626SOL    HW234338   0.197   1.174   8.733 -0.5719 -1.0658  1.7401
 7627SOL     OW34339   2.617   3.302   7.079  0.2831  0.6875 -0.5683
 7627SOL    HW134340   2.549   3.345   7.026 -0.3779  0.2365 -0.0909
 7627SOL    HW234341   2.670   3.261   7.011 -1.6054 -3.1162  0.3112
 7628SOL     OW34342   2.624   1.247   3.997 -0.3026  0.1928  0.4934
 7628SOL    HW134343   2.607   1.330   3.953 -1.4630 -0.2860  0.0309
 7628SOL    HW234344   2.713   1.267   4.025 -0.1906 -0.4204  0.5730
 7629SOL     OW34345   1.756   1.105   5.064 -0.0823 -0.3381  0.1821
 7629SOL    HW134346   1.724   1.045   5.131 -0.0937  0.8108  1.2246
 7629SOL    HW234347   1.850   1.085   5.063  0.0153  0.2458 -2.3370
 7630SOL     OW34348   4.145   1.668   6.954 -0.4756  0.6727  0.1474
 7630SOL    HW134349   4.204   1.742   6.961 -0.2360  0.6973 -2.2375
 7630SOL    HW234350   4.154   1.648   7.047 -2.7211 -0.6718  0.0786
 7631SOL     OW34351   2.867   2.186  15.177  0.3579  0.8016 -0.2460
 7631SOL    HW134352   2.911   2.255  15.127  3.9926 -1.1239  0.3540
 7631SOL    HW234353   2.838   2.126  15.108  3.7323 -0.6924 -0.3557
 7632SOL     OW34354   1.260   1.023   3.772 -0.1872  0.3178 -0.0168
 7632SOL    HW134355   1.302   1.108   3.768 -1.4255  0.9685  0.6007
 7632SOL    HW234356   1.288   0.967   3.700 -0.5871 -0.0118  0.0803
 7633SOL     OW34357   0.415   3.701   1.135 -0.3227 -0.2018 -0.4761
 7633SOL    HW134358   0.408   3.647   1.214 -1.5883  0.8433  0.1274
 7633SOL    HW234359   0.473   3.643   1.086 -0.6935 -0.5167 -0.5365
 7634SOL     OW34360   0.400   1.524   4.594  0.0354 -0.5847 -0.0065
 7634SOL    HW134361   0.399   1.527   4.498 -0.7141  0.9082  0.0565
 7634SOL    HW234362   0.453   1.445   4.592  1.1426  0.1470  1.0855
 7635SOL     OW34363   3.933   4.597  14.229  0.0697  0.4438 -0.1980
 7635SOL    HW134364   4.028   4.592  14.219 -0.0330 -1.5318 -0.1504
 7635SOL    HW234365   3.917   4.533  14.299 -0.9895 -0.4660 -1.2675
 7636SOL     OW34366   2.814   3.782   5.838 -0.4539  0.0324  0.0446
 7636SOL    HW134367   2.779   3.781   5.749 -1.6012  0.8314  0.4830
 7636SOL    HW234368   2.799   3.870   5.873  0.7174  1.3279 -2.7791
 7637SOL     OW34369   1.523   3.294   9.127 -0.2688  0.4795  0.4915
 7637SOL    HW134370   1.585   3.359   9.160  0.3048  0.5187 -0.6479
 7637SOL    HW234371   1.485   3.270   9.211 -0.9698 -1.8438 -0.4929
 7638SOL     OW34372   3.153   3.816   6.128  0.1529 -0.4024 -0.1219
 7638SOL    HW134373   3.164   3.911   6.127  0.0972 -0.3963 -0.3666
 7638SOL    HW234374   3.223   3.794   6.067  1.1455  0.5876  0.6726
 7639SOL     OW34375   2.738   3.315  10.967  0.1918 -0.1333 -0.4853
 7639SOL    HW134376   2.759   3.369  11.043 -0.3917 -1.6131  0.7299
 7639SOL    HW234377   2.730   3.379  10.897  1.6992  1.9059  1.2008
 7640SOL     OW34378   3.535   2.345   4.736 -0.3861  0.0469  0.1161
 7640SOL    HW134379   3.629   2.346   4.718 -0.7505  0.3988 -1.8101
 7640SOL    HW234380   3.538   2.375   4.826 -2.5568 -1.1699  0.5966
 7641SOL     OW34381   0.934   1.855   9.911 -0.5646  0.3599  0.7066
 7641SOL    HW134382   0.975   1.924   9.858  1.4692 -0.4724  1.1935
 7641SOL    HW234383   0.851   1.891   9.941 -0.6720  0.6037  0.1142
 7642SOL     OW34384   4.204   1.622   7.891  0.3371  0.7790 -0.4314
 7642SOL    HW134385   4.248   1.654   7.813  1.1784 -1.8716 -1.0292
 7642SOL    HW234386   4.244   1.678   7.959 -1.0557 -0.4579  1.4169
 7643SOL     OW34387   1.500   2.361   8.366 -0.0880  0.7325  0.2562
 7643SOL    HW134388   1.431   2.401   8.313  0.7160  0.7787 -0.7520
 7643SOL    HW234389   1.446   2.298   8.413  2.2588 -0.7917  0.9163
 7644SOL     OW34390   4.345   4.533   2.801 -0.9186  0.1049 -0.3522
 7644SOL    HW134391   4.440   4.520   2.801 -0.9124  0.1943 -1.9058
 7644SOL    HW234392   4.312   4.480   2.874  1.0538 -2.3807 -1.2748
 7645SOL     OW34393   1.384   2.238   8.557  0.0086 -0.0711 -0.1564
 7645SOL    HW134394   1.453   2.192   8.606  0.5815 -1.5157 -2.3086
 7645SOL    HW234395   1.315   2.189   8.602  0.9526  1.9278  3.4914
 7646SOL     OW34396   1.798   2.019   8.566  0.0843 -0.7149  0.1792
 7646SOL    HW134397   1.829   1.934   8.537  0.8911  0.3939 -2.2100
 7646SOL    HW234398   1.867   2.077   8.532 -2.3973  1.0493 -1.8297
 7647SOL     OW34399   0.522   4.449   1.504  0.2105 -0.5296  0.1794
 7647SOL    HW134400   0.488   4.394   1.433 -3.5405  0.6369  1.0689
 7647SOL    HW234401   0.546   4.384   1.570 -1.3535 -0.5492  0.7368
 7648SOL     OW34402   0.478   4.610   6.021  0.1266 -0.0143  0.6148
 7648SOL    HW134403   0.437   4.615   5.934  1.1450  0.5491  0.1702
 7648SOL    HW234404   0.531   4.531   6.012 -1.5201 -1.2191  1.5147
 7649SOL     OW34405   0.893   1.702  16.974 -0.1937  0.4159 -1.0471
 7649SOL    HW134406   0.872   1.683  16.883 -1.2060 -1.5334 -0.3988
 7649SOL    HW234407   0.933   1.789  16.962  1.1153 -0.6544 -4.5605
 7650SOL     OW34408   3.679   1.752   3.805 -0.0923 -0.6686  0.6288
 7650SOL    HW134409   3.601   1.786   3.850 -0.6521 -0.6956 -0.3145
 7650SOL    HW234410   3.652   1.660   3.800  0.5746 -0.6706 -2.6520
 7651SOL     OW34411   0.055   3.633   3.238  0.3613 -0.2843 -0.4155
 7651SOL    HW134412   0.147   3.622   3.262  0.2316  1.4668  0.8505
 7651SOL    HW234413   0.019   3.563   3.292 -2.3325  0.6445 -1.0221
 7652SOL     OW34414   3.842   2.215  10.726  0.2846 -0.7405  0.4447
 7652SOL    HW134415   3.870   2.166  10.648 -2.1217 -1.7803  0.2134
 7652SOL    HW234416   3.758   2.177  10.753  0.2954 -1.3326 -0.3584
 7653SOL     OW34417   3.761   3.411   3.088  0.4149  0.5294 -0.1036
 7653SOL    HW134418   3.672   3.383   3.107 -0.0809  1.5360 -0.9059
 7653SOL    HW234419   3.743   3.457   3.006  1.3376  1.9086  0.4587
 7654SOL     OW34420   0.892   2.319   4.903 -0.2873  0.3013 -0.4361
 7654SOL    HW134421   0.986   2.336   4.909 -0.0130 -1.8871  1.4700
 7654SOL    HW234422   0.871   2.285   4.990  0.8294 -1.2381 -0.7871
 7655SOL     OW34423   2.233   1.338   3.533 -0.8876 -0.2228  0.3805
 7655SOL    HW134424   2.207   1.307   3.446 -1.9961  2.5491 -0.2714
 7655SOL    HW234425   2.170   1.277   3.570  0.7824 -1.4207  1.2650
 7656SOL     OW34426   2.999   2.309   4.002  0.0417  0.1827 -0.3858
 7656SOL    HW134427   2.985   2.217   3.983 -1.7592  0.4257 -0.2539
 7656SOL    HW234428   3.092   2.319   3.983 -0.2539 -0.8597 -2.3522
 7657SOL     OW34429   2.588   1.556   0.029  0.4118 -0.1563  0.1275
 7657SOL    HW134430   2.532   1.557   0.107  1.3999 -0.0888  0.8346
 7657SOL    HW234431   2.663   1.507   0.062  0.5641  0.8386  1.2357
 7658SOL     OW34432   3.847   1.243   7.465 -0.1188 -0.1632 -0.2650
 7658SOL    HW134433   3.823   1.180   7.397 -0.9196 -1.8236  1.5635
 7658SOL    HW234434   3.786   1.315   7.451 -0.7187 -0.6998 -0.4302
 7659SOL     OW34435   3.138   0.880   3.783 -0.2013  0.2775 -0.0280
 7659SOL    HW134436   3.176   0.906   3.699 -0.4691 -3.3648 -1.2998
 7659SOL    HW234437   3.132   0.967   3.822  3.8787  0.0829  1.0366
 7660SOL     OW34438   2.195   4.437   9.585  0.6255  0.1527  0.1202
 7660SOL    HW134439   2.224   4.397   9.667  3.6699  0.3895 -0.8344
 7660SOL    HW234440   2.272   4.490   9.565  0.7847  0.5779  1.8697
 7661SOL     OW34441   3.020   4.284   8.633 -0.1350 -0.7539  0.5121
 7661SOL    HW134442   3.032   4.225   8.707 -2.4057 -1.0408  0.6645
 7661SOL    HW234443   2.926   4.265   8.631 -0.6186  1.7623 -0.3025
 7662SOL     OW34444   2.741   0.600   3.135 -0.0976 -0.2450 -0.4356
 7662SOL    HW134445   2.652   0.608   3.101  0.8742  0.4973 -2.7790
 7662SOL    HW234446   2.765   0.510   3.113  1.6370  0.3686 -1.0280
 7663SOL     OW34447   1.267   3.688  15.971  0.2297 -0.8248 -0.3340
 7663SOL    HW134448   1.303   3.728  15.892  0.8569 -0.5809  0.0758
 7663SOL    HW234449   1.331   3.700  16.040  1.4119 -2.6155 -1.1178
 7664SOL     OW34450   2.467   4.458   0.685 -0.2785 -0.0627  0.0329
 7664SOL    HW134451   2.387   4.406   0.676  0.0505 -0.6785  0.7468
 7664SOL    HW234452   2.493   4.423   0.770 -1.8005 -0.9640  0.1244
 7665SOL     OW34453   4.526   2.807   4.638  0.2223 -0.1726  0.1137
 7665SOL    HW134454   4.462   2.779   4.572 -0.3577  0.5644  0.3657
 7665SOL    HW234455   4.609   2.800   4.590 -0.7395 -2.3363 -1.2507
 7666SOL     OW34456   2.139   0.389   4.840 -0.1447 -0.1816  0.6438
 7666SOL    HW134457   2.105   0.478   4.832  1.5040  0.2811 -1.2285
 7666SOL    HW234458   2.092   0.343   4.771 -0.9520  0.8107  0.5415
 7667SOL     OW34459   3.434   0.375   2.629  0.1325 -0.1140  0.3126
 7667SOL    HW134460   3.503   0.391   2.565 -0.6752 -0.7784 -0.7224
 7667SOL    HW234461   3.395   0.462   2.626  0.6741  0.1341  0.4146
 7668SOL     OW34462   2.320   0.764   3.945 -0.7066 -0.4276  0.0283
 7668SOL    HW134463   2.240   0.798   3.904  0.0852 -0.6547 -1.7205
 7668SOL    HW234464   2.381   0.837   3.930  0.0517 -1.5305 -2.2617
 7669SOL     OW34465   0.201   2.607   2.706 -0.2079  0.2252  0.1829
 7669SOL    HW134466   0.127   2.631   2.651  0.0087 -0.1728 -0.2841
 7669SOL    HW234467   0.271   2.595   2.642 -1.7097  2.4448 -1.8653
 7670SOL     OW34468   4.234   4.441   2.569  0.5795  0.7056 -0.2528
 7670SOL    HW134469   4.160   4.398   2.611 -0.1502  0.4589 -1.8092
 7670SOL    HW234470   4.277   4.471   2.649  0.7112  1.8392 -0.7364
 7671SOL     OW34471   4.410   2.177  14.888  0.2001 -0.0024 -0.0249
 7671SOL    HW134472   4.368   2.094  14.911 -2.1723  1.4421  0.8647
 7671SOL    HW234473   4.500   2.158  14.913 -0.2263 -1.5259  0.3706
 7672SOL     OW34474   2.375   2.466   3.933 -0.1832 -0.0793  0.1649
 7672SOL    HW134475   2.366   2.558   3.957  2.8227  0.0099  0.9703
 7672SOL    HW234476   2.370   2.412   4.012  3.1090 -0.1485  0.3414
 7673SOL     OW34477   3.199   1.702  15.974  0.0337 -0.1704 -1.0256
 7673SOL    HW134478   3.118   1.651  15.982  1.6634 -2.5615 -0.0436
 7673SOL    HW234479   3.250   1.635  15.929  1.0205 -0.0984  0.0138
 7674SOL     OW34480   3.193   0.413   9.918 -0.3259 -0.2933  0.0889
 7674SOL    HW134481   3.261   0.353   9.887 -2.0172 -3.4668  2.4372
 7674SOL    HW234482   3.112   0.361   9.913 -1.1478  0.7073  2.9702
 7675SOL     OW34483   3.007   1.603   9.004  0.6154 -0.6111  0.0583
 7675SOL    HW134484   3.072   1.547   9.046  1.3297 -0.3789 -0.7324
 7675SOL    HW234485   2.933   1.563   9.049 -0.2452  0.4172 -0.4399
 7676SOL     OW34486   4.322   2.651   3.531 -0.4678  0.3204 -0.4352
 7676SOL    HW134487   4.296   2.568   3.490  0.9829 -1.0378  1.3982
 7676SOL    HW234488   4.285   2.721   3.478  0.4531  1.2759  0.1929
 7677SOL     OW34489   1.056   4.509   4.005 -0.1555  0.6400 -0.2729
 7677SOL    HW134490   1.136   4.505   3.952 -0.5209 -3.1195 -0.5268
 7677SOL    HW234491   1.066   4.421   4.042 -0.4214  0.8381  0.2763
 7678SOL     OW34492   2.751   0.415   3.448  0.1270  0.3560 -0.1279
 7678SOL    HW134493   2.712   0.441   3.365 -1.7447  0.7510  0.8739
 7678SOL    HW234494   2.675   0.380   3.494 -0.3600  1.6359  0.0452
 7679SOL     OW34495   2.879   2.553   2.446  0.0631 -0.2250 -0.2840
 7679SOL    HW134496   2.843   2.515   2.526  1.1929 -0.8549 -0.0777
 7679SOL    HW234497   2.965   2.513   2.453  0.4915  0.5907 -0.8235
 7680SOL     OW34498   3.850   1.165   7.112 -0.7071 -0.2253 -1.0623
 7680SOL    HW134499   3.863   1.235   7.048 -0.6889  0.5306 -0.2294
 7680SOL    HW234500   3.781   1.206   7.164 -0.8795 -1.3315 -0.3940
 7681SOL     OW34501   0.279   2.273   4.965 -0.3379 -0.2593 -0.7616
 7681SOL    HW134502   0.246   2.199   4.915 -0.1677 -1.4223  0.8572
 7681SOL    HW234503   0.366   2.247   4.997 -1.2760  0.6181  2.5207
 7682SOL     OW34504   4.198   2.690  17.295 -0.1585  0.1031  0.1411
 7682SOL    HW134505   4.268   2.738  17.250  0.4568 -1.1349 -0.2172
 7682SOL    HW234506   4.242   2.638  17.362  1.6385  2.4067  0.7881
 7683SOL     OW34507   2.142   4.083   3.763  0.2748  0.0770 -0.3180
 7683SOL    HW134508   2.108   3.998   3.791 -0.5581  0.5151 -0.0116
 7683SOL    HW234509   2.218   4.105   3.816 -1.5208 -3.4129  3.6281
 7684SOL     OW34510   1.039   3.132   8.336 -0.6618  0.0566  0.4406
 7684SOL    HW134511   1.104   3.078   8.383 -1.6328 -1.7413 -0.2614
 7684SOL    HW234512   0.953   3.092   8.352 -0.3545 -0.8632 -0.1914
 7685SOL     OW34513   3.107   0.680  11.805  0.2762  0.6743 -0.4352
 7685SOL    HW134514   3.202   0.683  11.820  0.1581 -3.4100  1.0451
 7685SOL    HW234515   3.088   0.755  11.748 -0.2134 -0.5198 -1.8149
 7686SOL     OW34516   1.544   0.618  10.951  0.2230  0.2388  0.6839
 7686SOL    HW134517   1.619   0.671  10.978 -0.6402  1.7158  0.2217
 7686SOL    HW234518   1.480   0.647  11.016 -0.2695 -0.5737  0.5577
 7687SOL     OW34519   4.588   0.090   4.939 -0.5329  0.4120  0.7378
 7687SOL    HW134520   4.518   0.110   4.877  1.8157  4.2009 -0.6832
 7687SOL    HW234521   4.545   0.018   4.984 -0.0142  0.3472  1.1341
 7688SOL     OW34522   4.278   3.074   6.822 -0.2522 -0.0917  0.1345
 7688SOL    HW134523   4.270   3.160   6.864 -0.1254 -0.6446  1.3050
 7688SOL    HW234524   4.239   3.015   6.887 -0.1385  0.2142  0.4852
 7689SOL     OW34525   2.800   2.595   5.574 -0.4519 -0.4277 -0.2151
 7689SOL    HW134526   2.737   2.528   5.599  0.2653 -1.4156 -1.0343
 7689SOL    HW234527   2.797   2.659   5.645  7.6356 -1.3955  1.0096
 7690SOL     OW34528   3.167   3.682   8.934  0.2022  0.2338  0.1048
 7690SOL    HW134529   3.171   3.595   8.972  0.7911 -0.3036 -1.1688
 7690SOL    HW234530   3.209   3.735   9.002 -1.4166  3.2861 -1.2304
 7691SOL     OW34531   2.265   3.555   2.016  0.2988  0.0697  0.3593
 7691SOL    HW134532   2.342   3.587   2.064  1.3673 -0.7245 -0.8540
 7691SOL    HW234533   2.244   3.475   2.065  0.8334  0.3630  1.0718
 7692SOL     OW34534   4.367   2.364  14.686  0.1236  0.2547 -0.4263
 7692SOL    HW134535   4.407   2.437  14.733 -0.8944  0.8750 -0.5181
 7692SOL    HW234536   4.376   2.297  14.754  2.1031  1.0496  0.0763
 7693SOL     OW34537   2.511   1.804   5.777 -0.6285 -0.4238 -0.2365
 7693SOL    HW134538   2.523   1.872   5.710  1.7130  1.1947  1.8197
 7693SOL    HW234539   2.426   1.768   5.755 -0.4293 -1.1488  0.1950
 7694SOL     OW34540   0.494   3.015  17.061  0.2905 -0.4511 -0.4791
 7694SOL    HW134541   0.503   3.024  16.966 -1.8322  0.9611 -0.5371
 7694SOL    HW234542   0.547   3.086  17.098  1.0582 -1.7473  0.9423
 7695SOL     OW34543   4.316   0.583  14.806  0.2395  0.3476  0.1945
 7695SOL    HW134544   4.356   0.627  14.881  0.8637 -2.1728  1.3533
 7695SOL    HW234545   4.347   0.641  14.737 -0.0734 -0.7130 -0.8273
 7696SOL     OW34546   1.742   3.444  14.656  0.5250  0.1024 -0.0114
 7696SOL    HW134547   1.706   3.452  14.744 -0.9318  2.0202 -0.7674
 7696SOL    HW234548   1.663   3.426  14.605  1.6717 -0.0183 -1.7324
 7697SOL     OW34549   2.872   4.394  16.003 -0.3084  0.1084  0.0865
 7697SOL    HW134550   2.842   4.433  16.085 -2.3414 -0.8764 -0.1926
 7697SOL    HW234551   2.933   4.459  15.968  0.7165 -0.8522  0.1115
 7698SOL     OW34552   3.340   0.664   2.625 -0.3537  0.0799 -0.5189
 7698SOL    HW134553   3.312   0.745   2.667  0.3155 -0.3535  0.7730
 7698SOL    HW234554   3.434   0.684   2.630 -0.9012  1.9807  2.4373
 7699SOL     OW34555   2.159   1.606   2.650 -0.1257 -0.2465  0.2000
 7699SOL    HW134556   2.163   1.596   2.745  1.5546 -2.0522 -0.0567
 7699SOL    HW234557   2.116   1.522   2.635 -0.0964 -0.3586  0.7479
 7700SOL     OW34558   1.666   4.246   7.585  0.7322  0.0975 -0.0233
 7700SOL    HW134559   1.590   4.261   7.529  0.2726 -1.8197  0.0892
 7700SOL    HW234560   1.702   4.183   7.523  0.3087  0.0842 -0.2583
 7701SOL     OW34561   0.034   3.108   5.226 -0.3043  0.5810 -0.7313
 7701SOL    HW134562   0.061   3.167   5.156 -0.3505 -0.5676 -1.7230
 7701SOL    HW234563   4.707   3.164   5.287  0.2819  0.5268 -0.2227
 7702SOL     OW34564   1.141   3.782   2.555  0.1842 -0.1922 -0.1993
 7702SOL    HW134565   1.153   3.843   2.482 -0.5741  0.1543 -0.0331
 7702SOL    HW234566   1.102   3.705   2.515  0.9880 -1.0296  0.6251
 7703SOL     OW34567   3.096   0.280   6.954 -0.1972 -0.2320 -0.4031
 7703SOL    HW134568   3.173   0.313   7.001  1.9841 -1.9644 -2.7704
 7703SOL    HW234569   3.029   0.262   7.020  1.4777  0.7552  1.5674
 7704SOL     OW34570   0.025   0.027  13.861  0.4127 -0.5806 -0.3518
 7704SOL    HW134571   0.007   4.668  13.811  0.7395 -1.4507  0.9354
 7704SOL    HW234572   0.012   4.713  13.949  1.7103  0.2302  0.1590
 7705SOL     OW34573   0.976   0.574   8.322  0.3943 -0.5767  0.6007
 7705SOL    HW134574   1.046   0.562   8.385  1.2412 -1.0371 -0.4330
 7705SOL    HW234575   1.007   0.516   8.253  1.6152  0.4224  0.3292
 7706SOL     OW34576   3.644   2.806  17.329  0.4184  0.4094  0.1168
 7706SOL    HW134577   3.683   2.742  17.388  0.8485 -1.7842 -2.5737
 7706SOL    HW234578   3.557   2.765  17.337  0.1635  0.7387 -0.8729
 7707SOL     OW34579   0.319   3.055   0.091 -0.0083 -0.1300 -0.1005
 7707SOL    HW134580   0.385   3.118   0.120  0.6141 -0.3196 -1.1177
 7707SOL    HW234581   0.253   3.057   0.161 -0.6110 -0.1549 -0.6658
 7708SOL     OW34582   4.704   0.064  17.346 -0.1363  0.0194  0.0997
 7708SOL    HW134583   4.658   0.019  17.275 -0.5932  0.0789  0.3566
 7708SOL    HW234584   0.012   0.143  17.299 -0.6007 -0.7679 -1.4885
 7709SOL     OW34585   4.260   0.528   2.257  0.4265  0.3318 -0.0471
 7709SOL    HW134586   4.302   0.495   2.178  0.3739  1.5854 -0.6041
 7709SOL    HW234587   4.196   0.458   2.271  2.8471 -1.5401  1.6056
 7710SOL     OW34588   3.642   4.699   2.444  0.3144  0.3411  1.0557
 7710SOL    HW134589   3.583   4.627   2.422  2.1631 -1.5036  2.0810
 7710SOL    HW234590   3.603   4.718   2.530  2.9237  2.2393  1.8045
 7711SOL     OW34591   0.092   2.140  13.190 -0.2735 -0.3849 -0.2257
 7711SOL    HW134592   0.098   2.236  13.197 -1.6251 -0.3922  0.9014
 7711SOL    HW234593   0.117   2.120  13.280 -2.0867 -0.1532  0.3118
 7712SOL     OW34594   2.884   1.612   4.994  0.1298 -0.2608  0.1910
 7712SOL    HW134595   2.971   1.644   4.969  0.2935 -0.0250  1.0852
 7712SOL    HW234596   2.894   1.635   5.086  1.8645 -0.5353  0.0808
 7713SOL     OW34597   1.667   1.464  13.727 -0.2815  0.0241 -0.8380
 7713SOL    HW134598   1.583   1.450  13.771  1.1064 -1.6847  1.2859
 7713SOL    HW234599   1.701   1.376  13.713  1.6677  0.4916  0.9020
 7714SOL     OW34600   3.741   2.259  12.513 -0.3674  0.0539  0.6436
 7714SOL    HW134601   3.683   2.329  12.545  1.9840  1.3965  1.9279
 7714SOL    HW234602   3.825   2.297  12.536 -0.0654 -0.4247  0.3392
 7715SOL     OW34603   1.319   2.846   8.992 -0.8013 -0.0800 -0.0080
 7715SOL    HW134604   1.405   2.869   8.957 -0.4485 -1.2236  0.0972
 7715SOL    HW234605   1.339   2.761   9.032  2.4682 -0.3143 -2.1357
 7716SOL     OW34606   4.320   4.472   1.601 -0.4225  0.5297 -0.0332
 7716SOL    HW134607   4.315   4.392   1.550 -1.1990 -1.3381  2.9979
 7716SOL    HW234608   4.406   4.463   1.642  0.6300  1.3126 -2.0463
 7717SOL     OW34609   2.650   3.882   2.953 -0.0446 -0.0293 -0.1916
 7717SOL    HW134610   2.711   3.897   3.025 -0.3328  2.6056 -0.4851
 7717SOL    HW234611   2.650   3.787   2.940 -1.3881 -0.1709  0.8102
 7718SOL     OW34612   0.417   4.102   1.994 -0.1289 -0.5785  0.6987
 7718SOL    HW134613   0.356   4.142   2.057 -1.0472  0.3835 -0.8087
 7718SOL    HW234614   0.363   4.032   1.959 -1.9305  0.3594  1.5462
 7719SOL     OW34615   1.453   2.406   1.086  0.0708  0.8560 -0.5758
 7719SOL    HW134616   1.459   2.373   0.997 -2.9376 -0.1335 -0.3988
 7719SOL    HW234617   1.545   2.395   1.110 -0.7931 -1.9094  1.5633
 7720SOL     OW34618   3.223   2.273   7.175 -0.2907  0.6182  0.6712
 7720SOL    HW134619   3.168   2.295   7.100 -0.2072 -1.1976  0.0802
 7720SOL    HW234620   3.312   2.293   7.146 -1.0171  2.5922 -0.1560
 7721SOL     OW34621   0.792   2.557   3.835 -0.0830 -0.1918  0.3500
 7721SOL    HW134622   0.886   2.566   3.820 -0.3076 -0.0415 -0.9606
 7721SOL    HW234623   0.765   2.587   3.748  1.4039 -0.1872 -0.1034
 7722SOL     OW34624   1.455   0.390   8.444 -0.0635  0.4506  0.0203
 7722SOL    HW134625   1.493   0.424   8.525  0.8309  0.2326 -0.3106
 7722SOL    HW234626   1.512   0.429   8.378 -0.2612  2.5479  1.0871
 7723SOL     OW34627   2.104   1.144   5.753 -0.1821  1.1559 -0.6301
 7723SOL    HW134628   2.178   1.203   5.770 -0.1801  0.6950  0.9456
 7723SOL    HW234629   2.048   1.197   5.695  1.4046  1.9871 -1.4044
 7724SOL     OW34630   3.158   0.496  11.061 -0.0351 -0.2472 -0.3333
 7724SOL    HW134631   3.093   0.564  11.042 -0.1248  0.3594  2.1154
 7724SOL    HW234632   3.179   0.462  10.974  2.4194  0.2243  0.0770
 7725SOL     OW34633   0.151   3.988  15.718  0.0406 -0.2494 -0.3373
 7725SOL    HW134634   0.087   4.036  15.665 -1.3552 -0.1095  1.4823
 7725SOL    HW234635   0.183   3.915  15.666 -1.2283 -0.5818 -0.6366
 7726SOL     OW34636   1.166   3.138  12.960 -0.2076  0.1634 -0.4573
 7726SOL    HW134637   1.072   3.150  12.973 -0.2494 -2.8682  1.8713
 7726SOL    HW234638   1.176   3.209  12.895 -1.8722  1.6203  0.8800
 7727SOL     OW34639   0.906   3.511  12.407 -0.5394 -0.5031 -0.0828
 7727SOL    HW134640   0.992   3.471  12.417 -0.7262 -1.1081 -0.8972
 7727SOL    HW234641   0.939   3.598  12.427 -0.0915 -0.8537  0.7038
 7728SOL     OW34642   3.871   4.296  17.260 -0.3785  1.1991 -0.1874
 7728SOL    HW134643   3.947   4.239  17.257 -0.2457  1.5032 -2.1164
 7728SOL    HW234644   3.838   4.282  17.349 -1.0483 -0.0784 -0.6370
 7729SOL     OW34645   3.323   0.194  16.848  0.0690 -0.3918 -0.4104
 7729SOL    HW134646   3.325   0.164  16.939  2.0140 -0.6016 -0.5266
 7729SOL    HW234647   3.272   0.274  16.859  0.7761  0.0983 -0.6672
 7730SOL     OW34648   0.004   2.537   8.901  0.4454 -0.2338 -0.3024
 7730SOL    HW134649   0.006   2.619   8.950  1.4924 -1.2527  1.3446
 7730SOL    HW234650   4.633   2.510   8.894 -0.1634  1.7183 -0.0523
 7731SOL     OW34651   1.788   0.862   8.600 -0.5620 -0.2697  0.1362
 7731SOL    HW134652   1.777   0.832   8.690  1.2301  2.1368  1.1504
 7731SOL    HW234653   1.712   0.920   8.598 -0.6907 -0.3882  1.4793
 7732SOL     OW34654   0.105   3.092   6.841 -0.0329  0.2623  0.2559
 7732SOL    HW134655   0.103   3.153   6.767 -1.6963  0.7533  0.6859
 7732SOL    HW234656   0.192   3.107   6.878 -0.7588 -3.0693  3.3130
 7733SOL     OW34657   3.966   1.170   9.307  0.3902 -0.0845 -0.0107
 7733SOL    HW134658   3.889   1.122   9.335 -0.0735  0.2630 -0.6788
 7733SOL    HW234659   3.916   1.241   9.266  0.4821  0.8434  1.5183
 7734SOL     OW34660   0.366   1.612   6.216  1.0079  0.0550 -0.1410
 7734SOL    HW134661   0.306   1.659   6.275 -1.6241 -0.9699 -2.0286
 7734SOL    HW234662   0.300   1.595   6.149 -1.2799  0.2992  2.0425
 7735SOL     OW34663   3.175   2.084   8.827  0.2586 -0.2020 -0.0388
 7735SOL    HW134664   3.223   2.125   8.900 -1.5009 -0.5391  1.3071
 7735SOL    HW234665   3.098   2.053   8.875  1.3332 -0.6502  1.4173
 7736SOL     OW34666   2.704   0.722  12.494  0.3217  0.0640  0.2311
 7736SOL    HW134667   2.644   0.703  12.422  0.8500  3.1327 -1.0161
 7736SOL    HW234668   2.784   0.741  12.445  1.8160 -2.9597  1.4954
 7737SOL     OW34669   4.197   0.190   2.050  0.4950  0.3579 -0.0206
 7737SOL    HW134670   4.262   0.238   2.103 -1.3414  1.6159  1.1256
 7737SOL    HW234671   4.156   0.259   1.998 -1.2487  0.1795  1.1275
 7738SOL     OW34672   1.055   0.855   3.274  0.0289  0.1429 -0.2951
 7738SOL    HW134673   1.069   0.869   3.180 -1.1985  0.2260 -0.4678
 7738SOL    HW234674   1.080   0.764   3.291 -2.3905 -0.5090 -0.3103
 7739SOL     OW34675   1.804   0.089   2.403  0.2697  0.1817 -0.3631
 7739SOL    HW134676   1.879   0.032   2.386 -1.7031 -1.8659 -2.1595
 7739SOL    HW234677   1.762   0.064   2.320 -1.6372 -2.2764  1.3505
 7740SOL     OW34678   4.058   1.304   3.935 -0.1555 -0.3371  0.0657
 7740SOL    HW134679   4.105   1.307   4.018 -2.7320 -1.4783  1.5624
 7740SOL    HW234680   4.123   1.326   3.868 -1.5224  1.3779 -0.7029
 7741SOL     OW34681   1.857   4.342   8.758  0.0106 -0.3876 -0.3759
 7741SOL    HW134682   1.831   4.387   8.678 -1.1755  1.1091  0.8642
 7741SOL    HW234683   1.948   4.327   8.733  0.0113 -2.4297  0.8506
 7742SOL     OW34684   0.005   1.250   1.721 -0.4541 -0.3685 -0.4521
 7742SOL    HW134685   4.654   1.281   1.776  1.1177  0.7464  0.9789
 7742SOL    HW234686   4.707   1.157   1.710  1.2500 -0.7965  0.2168
 7743SOL     OW34687   1.099   2.074  15.857 -0.3161  0.8770  0.7069
 7743SOL    HW134688   1.177   2.022  15.878 -2.8747 -2.2649  2.4192
 7743SOL    HW234689   1.103   2.130  15.934 -0.8273 -0.3571  1.6259
 7744SOL     OW34690   3.606   2.077   0.797  0.0569  0.2919  0.5339
 7744SOL    HW134691   3.512   2.061   0.786  0.0260  2.6161 -2.4679
 7744SOL    HW234692   3.626   2.003   0.854 -1.6354  0.1377  0.9376
 7745SOL     OW34693   0.096   2.142   1.076 -0.3153 -0.4152 -0.0264
 7745SOL    HW134694   0.169   2.091   1.113  0.8520 -0.0285 -1.7937
 7745SOL    HW234695   0.017   2.120   1.125 -0.7086 -0.5321 -0.7245
 7746SOL     OW34696   0.620   0.537  12.766 -0.3226 -0.1385 -0.1328
 7746SOL    HW134697   0.574   0.482  12.702  2.5608 -3.0937  0.3297
 7746SOL    HW234698   0.561   0.612  12.776  1.7246  1.6191 -1.0696
 7747SOL     OW34699   2.957   1.077   5.579  0.0894  0.5354  0.0936
 7747SOL    HW134700   2.923   1.018   5.647  0.5037  0.5248  0.2902
 7747SOL    HW234701   3.044   1.096   5.614  0.7411 -0.3395 -1.0423
 7748SOL     OW34702   2.785   3.080   5.587  0.1750  0.6259 -0.2717
 7748SOL    HW134703   2.813   3.007   5.531  1.2595  1.6739 -1.0920
 7748SOL    HW234704   2.783   3.160   5.534 -0.7080 -0.0414 -1.2511
 7749SOL     OW34705   0.807   2.038  12.963 -0.1132  0.0441  0.1351
 7749SOL    HW134706   0.858   1.964  12.996 -1.2639 -0.1438  1.4848
 7749SOL    HW234707   0.847   2.103  13.020 -0.5174 -1.4002  2.0460
 7750SOL     OW34708   4.585   0.736   6.751 -0.7181 -0.1921  0.3284
 7750SOL    HW134709   4.568   0.764   6.841 -0.4297  0.6051  0.1336
 7750SOL    HW234710   4.656   0.671   6.756 -1.3918 -0.7372  2.9927
 7751SOL     OW34711   1.102   2.980  17.444 -0.4482 -0.1374  0.0489
 7751SOL    HW134712   1.075   2.891  17.466 -0.3272 -0.0755  0.4458
 7751SOL    HW234713   1.175   2.976  17.382 -0.8618  0.2661 -0.4629
 7752SOL     OW34714   0.414   3.417   5.626  0.2963  0.2581  0.0114
 7752SOL    HW134715   0.490   3.409   5.568 -0.0147  0.0011 -0.3624
 7752SOL    HW234716   0.406   3.512   5.628  2.7986  0.4652  0.6497
 7753SOL     OW34717   2.442   2.310   7.285 -0.0054  0.0829  0.1241
 7753SOL    HW134718   2.537   2.303   7.278 -0.2729 -2.2863 -1.1395
 7753SOL    HW234719   2.422   2.356   7.203 -0.5146 -1.8534 -0.8311
 7754SOL     OW34720   1.241   2.947   8.431  0.1618 -0.3816 -0.0724
 7754SOL    HW134721   1.257   2.961   8.524  0.4019 -0.0538 -0.1627
 7754SOL    HW234722   1.267   2.856   8.413 -1.0480 -0.8533  0.5665
 7755SOL     OW34723   0.433   3.886   4.860 -0.7622 -0.0940 -0.3059
 7755SOL    HW134724   0.528   3.887   4.857 -0.8159  1.6521 -1.6320
 7755SOL    HW234725   0.407   3.976   4.882  0.8748  0.3055 -0.0403
 7756SOL     OW34726   2.372   2.299   4.148  0.5108  0.7489  0.7120
 7756SOL    HW134727   2.410   2.280   4.234  1.5969 -1.6210 -0.2887
 7756SOL    HW234728   2.278   2.280   4.151  1.0843 -2.5667 -2.7616
 7757SOL     OW34729   3.211   3.181  16.588 -0.2731  0.2392 -0.1277
 7757SOL    HW134730   3.190   3.092  16.557  2.0247 -0.4988  0.4086
 7757SOL    HW234731   3.228   3.227  16.505  2.5317 -2.4845 -1.0938
 7758SOL     OW34732   1.242   4.427   0.390 -0.1007  0.1508 -0.2409
 7758SOL    HW134733   1.177   4.491   0.416 -1.9405 -0.9714 -2.1246
 7758SOL    HW234734   1.317   4.482   0.367 -0.9109  1.0309 -0.7514
 7759SOL     OW34735   0.363   3.267   1.520 -0.4893  0.3912  0.2916
 7759SOL    HW134736   0.370   3.279   1.426  1.2133 -1.5109  0.1791
 7759SOL    HW234737   0.452   3.231   1.529 -0.2625  1.1566  1.1577
 7760SOL     OW34738   4.618   0.920   3.117 -0.1618  0.0495 -0.1036
 7760SOL    HW134739   4.713   0.911   3.120 -0.2045 -0.7092 -1.1101
 7760SOL    HW234740   4.598   0.907   3.210 -0.0582  2.5493  0.2625
 7761SOL     OW34741   3.137   0.171  11.238 -0.4182  0.2826  0.0853
 7761SOL    HW134742   3.179   0.112  11.300  1.1309  2.0192  0.6804
 7761SOL    HW234743   3.173   0.134  11.158  1.6222 -0.7456  1.4936
 7762SOL     OW34744   1.165   1.835   5.101  0.4337 -0.2104 -0.7854
 7762SOL    HW134745   1.197   1.904   5.042  1.5450  0.2606  0.3743
 7762SOL    HW234746   1.122   1.781   5.034 -0.9111 -0.8878  0.6319
 7763SOL     OW34747   4.476   3.811   2.116 -0.3936 -0.1945 -0.6247
 7763SOL    HW134748   4.442   3.727   2.147  0.7380 -0.5826 -0.4571
 7763SOL    HW234749   4.475   3.803   2.021 -0.9469 -1.4540 -0.5191
 7764SOL     OW34750   3.325   4.592  15.531  0.2560  0.2819  0.2314
 7764SOL    HW134751   3.407   4.585  15.580 -0.3260 -1.7096  0.9027
 7764SOL    HW234752   3.304   4.499  15.523  0.5079  0.5343 -3.2041
 7765SOL     OW34753   3.547   3.846   7.805  0.2461  0.1681 -1.0491
 7765SOL    HW134754   3.469   3.792   7.812 -1.3938  2.3605 -2.2566
 7765SOL    HW234755   3.609   3.826   7.875 -0.4603 -0.4320 -0.6021
 7766SOL     OW34756   4.700   3.464  11.195  0.4139  0.3759  0.1823
 7766SOL    HW134757   4.666   3.548  11.165 -0.1062  0.4737  1.0560
 7766SOL    HW234758   0.066   3.480  11.157  1.2052  2.5586  2.9247
 7767SOL     OW34759   1.038   3.965  12.920  0.2232 -0.3825  0.1460
 7767SOL    HW134760   1.072   3.885  12.879  2.2138  1.0049 -0.9717
 7767SOL    HW234761   1.065   3.945  13.009  0.1752  0.5801  0.3745
 7768SOL     OW34762   3.961   2.593  11.445 -0.1186 -0.2218  0.2694
 7768SOL    HW134763   3.910   2.634  11.375  0.3534 -1.4511 -0.7874
 7768SOL    HW234764   3.900   2.612  11.516  2.4581 -0.8780  2.6233
 7769SOL     OW34765   4.581   2.193  12.789 -0.0467  0.2999  0.2520
 7769SOL    HW134766   4.615   2.275  12.824 -1.1936  1.3433 -1.0221
 7769SOL    HW234767   4.494   2.175  12.826 -0.1455  3.0284  1.3200
 7770SOL     OW34768   3.967   2.132   4.821 -0.3744 -0.3946 -0.1694
 7770SOL    HW134769   3.925   2.190   4.757 -0.9749 -1.9336 -1.1759
 7770SOL    HW234770   3.894   2.070   4.819 -0.0996 -0.6890 -1.5016
 7771SOL     OW34771   1.603   0.505   2.976 -0.0780 -0.2736 -0.2134
 7771SOL    HW134772   1.546   0.433   2.949  1.1156 -1.8003  1.3038
 7771SOL    HW234773   1.613   0.562   2.900 -2.2538  1.1367  0.5570
 7772SOL     OW34774   3.261   1.101   2.898 -1.0349  0.1885 -0.1929
 7772SOL    HW134775   3.299   1.167   2.840  0.0311  0.6899  1.0696
 7772SOL    HW234776   3.246   1.166   2.966  0.2490 -0.4979  0.7527
 7773SOL     OW34777   3.253   1.490   6.486  0.1201 -0.3870 -0.4816
 7773SOL    HW134778   3.242   1.496   6.581  0.4469 -1.9586 -0.3519
 7773SOL    HW234779   3.340   1.451   6.473  0.6438  0.3213  0.8259
 7774SOL     OW34780   4.376   1.581   8.863 -0.0076  0.4904 -0.0180
 7774SOL    HW134781   4.285   1.553   8.851  0.4831 -0.6302 -1.2193
 7774SOL    HW234782   4.385   1.596   8.957 -0.6307  1.9829 -0.2036
 7775SOL     OW34783   0.797   3.193   4.025  0.3811  0.1547  0.0276
 7775SOL    HW134784   0.766   3.111   4.061 -0.9125  1.1822  1.2652
 7775SOL    HW234785   0.866   3.177   3.960 -0.1031 -0.8285 -0.2349
 7776SOL     OW34786   0.035   0.321   3.363  0.0619  0.4912 -0.3502
 7776SOL    HW134787   4.700   0.260   3.411  1.8495 -1.0851 -0.2404
 7776SOL    HW234788   0.102   0.262   3.329 -1.1346  0.1212 -2.0752
 7777SOL     OW34789   3.066   0.601   7.153  0.0428  0.0740 -0.4757
 7777SOL    HW134790   2.980   0.572   7.182  0.7239 -1.4189  0.0450
 7777SOL    HW234791   3.049   0.684   7.107 -1.9472  0.0632  0.2475
 7778SOL     OW34792   0.746   1.776   6.069  0.3821 -0.1388 -0.0890
 7778SOL    HW134793   0.734   1.688   6.033 -1.9295  0.5865 -1.1086
 7778SOL    HW234794   0.705   1.757   6.153  2.0617  0.7526  0.9317
 7779SOL     OW34795   0.187   4.115   4.951  0.3040  0.6334  0.0891
 7779SOL    HW134796   0.276   4.139   4.923  0.4262 -1.4784 -1.2908
 7779SOL    HW234797   0.125   4.140   4.883  1.7198  2.4875 -0.5332
 7780SOL     OW34798   3.932   1.248   5.534  0.4158 -0.1088  0.3768
 7780SOL    HW134799   3.887   1.287   5.609 -0.8513 -1.6067  0.3948
 7780SOL    HW234800   3.892   1.287   5.456  1.3978  0.3619  0.1122
 7781SOL     OW34801   0.758   1.592  15.309 -0.5388 -0.0995  0.2338
 7781SOL    HW134802   0.823   1.564  15.245 -2.4198  1.1652 -2.2435
 7781SOL    HW234803   0.759   1.682  15.277  0.0129 -0.1206  0.1829
 7782SOL     OW34804   3.144   1.349  17.409 -0.0469  0.1485 -0.1327
 7782SOL    HW134805   3.068   1.372  17.356 -0.9299 -1.3263  0.5019
 7782SOL    HW234806   3.123   1.259  17.434 -1.4888  0.2316 -1.0357
 7783SOL     OW34807   1.315   4.490  16.811  0.1342 -0.4177  0.3108
 7783SOL    HW134808   1.304   4.406  16.854  1.0350 -0.9763 -0.5442
 7783SOL    HW234809   1.350   4.458  16.728  1.6139  0.9266  0.4114
 7784SOL     OW34810   2.976   2.101   3.776  0.1900  0.2971  0.1169
 7784SOL    HW134811   3.042   2.167   3.800  0.0238 -0.1430  1.7817
 7784SOL    HW234812   3.034   2.040   3.730 -0.4984 -0.2619  0.0012
 7785SOL     OW34813   1.521   4.277   5.980 -0.2104 -0.4027  0.5591
 7785SOL    HW134814   1.613   4.274   6.007  0.1909 -1.2816 -0.8611
 7785SOL    HW234815   1.519   4.342   5.909  0.1465  0.1150  1.0259
 7786SOL     OW34816   4.649   3.191  17.426 -0.4365 -0.0725  0.3182
 7786SOL    HW134817   4.628   3.284  17.418  0.3121  0.1362  0.6787
 7786SOL    HW234818   0.014   3.207  17.467  0.3386 -0.2742 -1.2154
 7787SOL     OW34819   4.360   1.731   9.938  0.2358  0.0321  0.1241
 7787SOL    HW134820   4.361   1.824   9.915 -1.0810  0.4417  1.7150
 7787SOL    HW234821   4.381   1.741  10.031 -0.4122 -1.9813  0.4825
 7788SOL     OW34822   2.696   3.985   4.595  0.1095 -0.5241 -0.3251
 7788SOL    HW134823   2.629   3.927   4.633 -1.2540  0.5976 -0.9951
 7788SOL    HW234824   2.751   3.928   4.543  1.3183 -0.3573  0.7879
 7789SOL     OW34825   1.391   1.315   7.223  0.5105  0.0388  0.5055
 7789SOL    HW134826   1.299   1.296   7.241  0.5899 -0.9304 -0.1480
 7789SOL    HW234827   1.389   1.274   7.137 -0.3247  1.8821 -0.3611
 7790SOL     OW34828   3.740   2.001   8.503 -0.1116  0.4720  0.1826
 7790SOL    HW134829   3.717   1.976   8.414 -2.7721 -0.5649  1.1741
 7790SOL    HW234830   3.677   2.072   8.519  0.4544  0.7168  1.3414
 7791SOL     OW34831   4.035   2.192  10.478  0.6464  0.1164  0.5852
 7791SOL    HW134832   4.125   2.182  10.507  1.0069 -1.1708 -0.9939
 7791SOL    HW234833   4.027   2.288  10.476 -0.5098  0.0805  3.1129
 7792SOL     OW34834   1.172   3.913   4.356  0.6167  0.3344  0.1019
 7792SOL    HW134835   1.133   3.986   4.404  0.6547 -0.2894  1.0824
 7792SOL    HW234836   1.106   3.844   4.363 -1.1882  2.1718  0.9839
 7793SOL     OW34837   3.304   3.064   8.407 -0.1194  0.0603  0.0661
 7793SOL    HW134838   3.350   3.003   8.349  0.9403  0.7152  0.2166
 7793SOL    HW234839   3.224   3.017   8.430 -0.9070  0.8897 -0.9479
 7794SOL     OW34840   2.309   1.744   4.188 -0.2738  0.3279 -0.2353
 7794SOL    HW134841   2.326   1.746   4.282  1.9408  0.3730 -0.6419
 7794SOL    HW234842   2.388   1.784   4.151 -0.1651  1.5090  1.2433
 7795SOL     OW34843   2.234   3.720   2.415  0.0263  0.3100  0.1971
 7795SOL    HW134844   2.181   3.644   2.388  0.1056  0.6019 -0.8040
 7795SOL    HW234845   2.221   3.730   2.509  2.4418 -0.7936  0.6399
 7796SOL     OW34846   1.899   3.720   6.102  0.0232 -0.1153  0.1575
 7796SOL    HW134847   1.806   3.697   6.100 -0.2568  0.8218  3.8062
 7796SOL    HW234848   1.930   3.681   6.020 -0.7097 -0.9872  0.2907
 7797SOL     OW34849   0.984   4.252   0.285  0.2514  0.1136  0.3482
 7797SOL    HW134850   0.948   4.341   0.284  0.4009  0.1737  0.4306
 7797SOL    HW234851   0.911   4.202   0.322 -1.0201  0.9003 -1.0721
 7798SOL     OW34852   1.756   3.024   3.841 -0.8348 -1.0853  0.7714
 7798SOL    HW134853   1.804   3.104   3.863 -1.9738  0.3282 -1.9069
 7798SOL    HW234854   1.693   3.058   3.777  0.3724  0.4775  0.4048
 7799SOL     OW34855   4.498   0.125   3.198 -0.4832  0.1647 -0.3987
 7799SOL    HW134856   4.442   0.048   3.185 -0.2092 -0.3214  1.4424
 7799SOL    HW234857   4.575   0.069   3.192 -1.1510 -0.9415  1.2968
 7800SOL     OW34858   4.010   1.318   5.083 -0.2368  0.4206  0.0339
 7800SOL    HW134859   3.922   1.347   5.063 -0.5481 -0.8766 -0.4605
 7800SOL    HW234860   4.053   1.390   5.130  0.6444  1.5480 -2.4883
 7801SOL     OW34861   2.955   0.026   4.237 -0.3019 -0.2460  0.6316
 7801SOL    HW134862   2.865   0.058   4.246 -0.8979 -1.4639 -1.0873
 7801SOL    HW234863   2.940   4.662   4.279 -1.4421 -0.3181  0.0842
 7802SOL     OW34864   3.955   0.889   5.369 -0.4640  0.2117 -0.2175
 7802SOL    HW134865   3.871   0.859   5.334 -0.2718 -0.7914  0.1748
 7802SOL    HW234866   3.904   0.925   5.442 -1.7733  1.6053 -1.8348
 7803SOL     OW34867   0.857   1.262   9.192  0.1985  0.1136  0.5053
 7803SOL    HW134868   0.844   1.341   9.139  2.0324  0.0817  0.0063
 7803SOL    HW234869   0.915   1.299   9.260  1.4878  0.0313 -0.5550
 7804SOL     OW34870   1.649   3.460   0.791  0.1306 -0.1566 -0.2471
 7804SOL    HW134871   1.659   3.476   0.884  2.1204  1.2644 -0.7116
 7804SOL    HW234872   1.587   3.388   0.801  0.4124 -0.6128 -1.6930
 7805SOL     OW34873   2.940   2.643   3.372  0.5044  0.0248  0.6269
 7805SOL    HW134874   2.892   2.587   3.433 -0.0857 -0.3402 -0.1593
 7805SOL    HW234875   3.025   2.646   3.415  0.3432  0.7253  0.8981
 7806SOL     OW34876   1.990   3.373   9.171 -0.4591  0.2408 -0.4370
 7806SOL    HW134877   2.084   3.385   9.180 -0.4917 -0.5824  0.9797
 7806SOL    HW234878   1.959   3.429   9.243 -0.1957  3.0198 -2.4761
 7807SOL     OW34879   4.065   0.845   0.583  0.6943  0.1686 -0.4770
 7807SOL    HW134880   4.045   0.807   0.497  1.3516  0.3639 -0.7143
 7807SOL    HW234881   3.997   0.912   0.595 -2.3406 -2.0374 -5.2169
 7808SOL     OW34882   3.524   0.713  11.299  0.2190 -0.1065  0.0725
 7808SOL    HW134883   3.516   0.797  11.343 -1.6340 -0.2486 -0.0121
 7808SOL    HW234884   3.618   0.713  11.278  0.6944  1.0758  2.2417
 7809SOL     OW34885   1.286   3.699  12.595  0.0215  0.0024  0.1408
 7809SOL    HW134886   1.349   3.725  12.529 -0.3470  1.2876  0.2957
 7809SOL    HW234887   1.321   3.611  12.608 -0.7898 -0.1240  1.5800
 7810SOL     OW34888   0.995   0.324   4.079 -0.0961  0.7993 -0.1202
 7810SOL    HW134889   1.064   0.388   4.062  1.6087 -0.9916  0.1272
 7810SOL    HW234890   0.975   0.352   4.168 -0.8615  0.9291 -0.3294
 7811SOL     OW34891   1.761   1.482   5.865  0.0204 -0.3363 -0.6011
 7811SOL    HW134892   1.681   1.472   5.813 -0.8168  1.6020  0.3040
 7811SOL    HW234893   1.737   1.552   5.925 -0.6614  0.4596 -1.7897
 7812SOL     OW34894   3.842   2.900   5.393  0.1975 -0.9604 -0.3843
 7812SOL    HW134895   3.811   2.918   5.482  0.9419  0.1633 -0.3474
 7812SOL    HW234896   3.902   2.827   5.404  1.9194  0.5304  0.0416
 7813SOL     OW34897   0.340   2.449   4.058  0.4467  0.2520  0.8919
 7813SOL    HW134898   0.265   2.391   4.072  2.3606 -2.0995  1.2594
 7813SOL    HW234899   0.300   2.518   4.004 -0.8044 -0.6352  0.6774
 7814SOL     OW34900   0.296   1.819   9.685  0.3517 -0.1553 -0.0930
 7814SOL    HW134901   0.327   1.853   9.769 -1.7720  3.3041 -0.7169
 7814SOL    HW234902   0.286   1.896   9.629 -0.0563 -0.2662 -0.1665
 7815SOL     OW34903   0.640   0.212   4.307  0.2902  0.7279 -0.3266
 7815SOL    HW134904   0.664   0.176   4.222  0.3693 -0.8016  0.3351
 7815SOL    HW234905   0.591   0.139   4.345  0.5514 -0.0728 -1.5419
 7816SOL     OW34906   4.536   2.448   2.836  0.0578  0.7845 -0.1868
 7816SOL    HW134907   4.618   2.449   2.786  0.9000  0.2021  1.1933
 7816SOL    HW234908   4.485   2.470   2.758 -0.4052 -1.7742 -0.6049
 7817SOL     OW34909   4.379   4.218  13.421  0.2082 -0.8115  0.3955
 7817SOL    HW134910   4.379   4.222  13.517 -1.7385  1.1636  0.3149
 7817SOL    HW234911   4.289   4.248  13.408 -0.8789 -5.0226 -1.4362
 7818SOL     OW34912   0.328   1.425   3.581  0.0682  0.0846 -0.1439
 7818SOL    HW134913   0.279   1.387   3.509 -1.8341  1.3779  0.4773
 7818SOL    HW234914   0.261   1.431   3.649 -1.2990 -2.0646 -1.3097
 7819SOL     OW34915   0.287   0.157  16.148  0.4311  0.4705 -0.1860
 7819SOL    HW134916   0.203   0.203  16.145 -0.3265 -0.7974  1.6068
 7819SOL    HW234917   0.271   0.079  16.201  0.1527  2.0432  2.0502
 7820SOL     OW34918   2.903   0.139  14.258  0.0372 -0.1311 -0.2273
 7820SOL    HW134919   2.927   0.077  14.190 -1.2063 -1.0204  0.1428
 7820SOL    HW234920   2.807   0.138  14.260  0.0510  0.3518  1.1089
 7821SOL     OW34921   3.685   4.079   3.436  0.4151  0.0373  0.3521
 7821SOL    HW134922   3.666   4.003   3.380  3.3859  1.7676 -3.0017
 7821SOL    HW234923   3.600   4.122   3.451  0.7984 -0.1458  2.9859
 7822SOL     OW34924   3.989   3.548   3.556 -0.0717  0.6782  0.2876
 7822SOL    HW134925   4.045   3.506   3.621 -1.5561  0.8545  1.6767
 7822SOL    HW234926   3.926   3.476   3.562  1.3785 -0.6964 -0.8388
 7823SOL     OW34927   2.819   2.337   2.156  0.0586  0.3845 -0.1638
 7823SOL    HW134928   2.767   2.324   2.236 -0.3692 -0.6711 -0.6178
 7823SOL    HW234929   2.819   2.243   2.136 -0.5852  0.4516 -0.4961
 7824SOL     OW34930   4.272   4.526   6.419  0.5786  0.4965  0.6949
 7824SOL    HW134931   4.302   4.578   6.493 -1.2342  1.1132  0.9847
 7824SOL    HW234932   4.339   4.457   6.416 -0.9155 -0.8944 -0.5997
 7825SOL     OW34933   1.830   4.512   8.548  0.2123  0.2465 -0.1031
 7825SOL    HW134934   1.889   4.578   8.585 -0.6320  1.7217 -1.3665
 7825SOL    HW234935   1.857   4.510   8.456  1.1399 -2.3061  0.2222
 7826SOL     OW34936   2.297   2.495   8.616 -0.0033  0.3025 -0.6195
 7826SOL    HW134937   2.297   2.450   8.532 -1.5116  0.3164 -0.6298
 7826SOL    HW234938   2.392   2.507   8.625 -0.1310  1.7212 -1.0457
 7827SOL     OW34939   1.897   1.303   7.562 -0.0626 -0.1581  0.4447
 7827SOL    HW134940   1.826   1.333   7.619  0.4286  0.1253  0.9157
 7827SOL    HW234941   1.855   1.233   7.513  2.2928  0.3298 -2.2813
 7828SOL     OW34942   2.877   3.937   8.020 -0.1114 -0.2188 -0.1625
 7828SOL    HW134943   2.821   4.011   7.997  0.1900  0.6394  1.8609
 7828SOL    HW234944   2.841   3.931   8.108 -0.9080  0.7673 -0.4211
 7829SOL     OW34945   1.297   1.736   5.308 -0.0011 -0.4726 -0.3650
 7829SOL    HW134946   1.265   1.762   5.221  0.4837  0.8263 -0.1549
 7829SOL    HW234947   1.379   1.784   5.317 -1.6309  2.4458 -0.9767
 7830SOL     OW34948   3.422   3.621   9.243  0.2227 -0.0990  0.1076
 7830SOL    HW134949   3.501   3.672   9.226  0.0392  1.1139  2.9131
 7830SOL    HW234950   3.454   3.568   9.316  1.1129 -0.8175 -0.8123
 7831SOL     OW34951   3.176   2.973   5.883  0.4182 -0.4097  0.0107
 7831SOL    HW134952   3.264   2.986   5.918 -0.0124  1.9487  0.1951
 7831SOL    HW234953   3.191   2.970   5.789 -0.1021  0.3941 -0.1008
 7832SOL     OW34954   4.456   2.480   9.176  0.2097 -0.4172  0.4228
 7832SOL    HW134955   4.529   2.463   9.236  0.7784  1.7226  0.3507
 7832SOL    HW234956   4.412   2.396   9.167  0.3245 -0.2446 -1.7039
 7833SOL     OW34957   0.178   2.023   5.978 -0.2367  0.3024 -0.2440
 7833SOL    HW134958   0.139   1.997   5.895  1.2575  0.0748 -0.8745
 7833SOL    HW234959   0.239   2.093   5.954  0.1964 -0.4792 -1.4041
 7834SOL     OW34960   2.950   0.526   1.875 -0.3609  0.1635 -0.0350
 7834SOL    HW134961   2.927   0.618   1.883 -0.1808  0.1023  1.2901
 7834SOL    HW234962   3.046   0.524   1.876 -0.3331  2.0607  0.3590
 7835SOL     OW34963   0.444   4.492   7.202 -0.2782 -0.4519  0.1024
 7835SOL    HW134964   0.429   4.446   7.119  2.9410 -1.1489 -0.1023
 7835SOL    HW234965   0.539   4.505   7.196 -0.1306 -0.6028  2.0451
 7836SOL     OW34966   2.651   0.993   6.526 -0.4467 -0.0620 -0.2114
 7836SOL    HW134967   2.646   1.036   6.611  0.1278 -0.8167  0.2092
 7836SOL    HW234968   2.744   1.001   6.501 -0.4035 -2.8301 -0.8527
 7837SOL     OW34969   2.367   3.266   7.801 -0.2894  0.3569  1.2517
 7837SOL    HW134970   2.272   3.277   7.812 -0.8656 -1.2597 -2.2757
 7837SOL    HW234971   2.371   3.191   7.860 -0.5228  0.5357  1.4983
 7838SOL     OW34972   1.677   0.039   4.670  0.1701  0.5039 -0.0147
 7838SOL    HW134973   1.740   0.023   4.600 -2.3240  1.1593 -2.4021
 7838SOL    HW234974   1.597   0.005   4.631 -0.2614  1.8211 -0.2952
 7839SOL     OW34975   0.566   4.146  12.968  0.2242 -0.0400  0.0232
 7839SOL    HW134976   0.563   4.086  12.894 -1.8165 -1.1223  1.0038
 7839SOL    HW234977   0.573   4.082  13.039  1.9803  2.0432  1.7460
 7840SOL     OW34978   2.844   0.398   0.631  0.1299  0.8503 -0.5432
 7840SOL    HW134979   2.916   0.340   0.602  0.2098  0.2930  0.7676
 7840SOL    HW234980   2.786   0.343   0.683  0.7950 -1.0589 -1.7735
 7841SOL     OW34981   3.137   0.425   9.474  0.0987 -0.0149 -0.1961
 7841SOL    HW134982   3.191   0.481   9.529  1.5085 -2.2326  0.6751
 7841SOL    HW234983   3.067   0.487   9.453  0.5678  0.8185  0.7329
 7842SOL     OW34984   0.162   1.685  12.275 -0.1723  0.2651 -0.0645
 7842SOL    HW134985   0.220   1.621  12.234 -1.0961  0.1376 -1.1553
 7842SOL    HW234986   0.189   1.772  12.244 -0.5190  0.6646  0.7443
 7843SOL     OW34987   2.483   0.019   9.254  0.4342  0.2648 -0.0727
 7843SOL    HW134988   2.389   0.003   9.253  0.8671 -2.3239 -0.6708
 7843SOL    HW234989   2.499   4.720   9.346 -1.1064  0.0493  0.1472
 7844SOL     OW34990   3.029   2.850   9.859  0.4489 -0.0724 -0.1558
 7844SOL    HW134991   3.039   2.758   9.882  2.0361  0.1473  0.0002
 7844SOL    HW234992   3.094   2.897   9.911 -0.9869  2.8227 -0.9589
 7845SOL     OW34993   3.947   2.396   7.273  0.6551  0.0939 -0.2086
 7845SOL    HW134994   4.034   2.401   7.313  0.4878 -1.0309  0.2925
 7845SOL    HW234995   3.887   2.428   7.340  0.0490  0.9059 -1.1410
 7846SOL     OW34996   0.671   3.846   1.083  0.0757  0.2319  0.1875
 7846SOL    HW134997   0.620   3.803   1.014  0.4844 -2.0652  1.3152
 7846SOL    HW234998   0.621   3.927   1.096  1.7661  1.1248  1.2175
 7847SOL     OW34999   3.541   3.321   2.567 -0.0440 -0.0923 -0.1050
 7847SOL    HW135000   3.616   3.327   2.507 -0.5934 -0.4910 -0.8241
 7847SOL    HW235001   3.468   3.314   2.506 -0.4106  1.1630  0.1983
 7848SOL     OW35002   0.808   0.962   5.448  0.6084 -0.1238  0.7492
 7848SOL    HW135003   0.736   1.016   5.416  1.6085  0.1267 -1.0612
 7848SOL    HW235004   0.781   0.882   5.404 -0.7644  1.7282 -1.7251
 7849SOL     OW35005   0.451   2.857  17.659 -0.4662 -0.2322  0.3449
 7849SOL    HW135006   0.399   2.931   0.006  1.9107  1.2791  0.6713
 7849SOL    HW235007   0.446   2.810   0.056 -3.4351  1.2567  1.0349
 7850SOL     OW35008   4.700   3.378   2.073 -0.0432 -0.0510 -0.3329
 7850SOL    HW135009   4.612   3.343   2.079  0.3872 -1.6599 -3.3413
 7850SOL    HW235010   0.024   3.296   2.052 -0.3812 -0.7723  1.8551
 7851SOL     OW35011   2.580   2.702   3.519  0.0221  0.4312 -0.9190
 7851SOL    HW135012   2.616   2.781   3.478 -0.1826 -0.6748 -3.2067
 7851SOL    HW235013   2.545   2.735   3.602 -0.9924 -1.6382 -0.5135
 7852SOL     OW35014   4.648   3.113  15.881 -0.6837  0.9246  0.7060
 7852SOL    HW135015   4.700   3.157  15.948 -2.2046  1.9898  1.1698
 7852SOL    HW235016   4.672   3.166  15.805  1.2044 -1.0367 -0.0600
 7853SOL     OW35017   1.304   1.115   8.189  0.3470  0.4324 -0.1261
 7853SOL    HW135018   1.345   1.134   8.273  0.2288 -1.4580  0.3634
 7853SOL    HW235019   1.221   1.152   8.220 -0.1951 -0.2434 -0.7436
 7854SOL     OW35020   1.129   4.271   4.704  0.2143  0.0075 -0.3853
 7854SOL    HW135021   1.154   4.347   4.652 -0.3502  0.3027 -0.2164
 7854SOL    HW235022   1.173   4.300   4.784 -0.2777  0.8091 -0.4063
 7855SOL     OW35023   0.904   3.877   4.573  0.1193  0.2624 -0.0306
 7855SOL    HW135024   0.964   3.952   4.572  0.6502 -0.1686 -0.5522
 7855SOL    HW235025   0.841   3.912   4.510 -2.0969 -1.4068  1.2802
 7856SOL     OW35026   2.139   0.533   1.662  0.3318 -0.1855 -0.2339
 7856SOL    HW135027   2.228   0.507   1.685  0.4250  0.3097 -0.0271
 7856SOL    HW235028   2.100   0.460   1.614 -0.6737  0.3546 -0.2591
 7857SOL     OW35029   3.267   2.403   8.742 -0.1276  0.0964  0.7327
 7857SOL    HW135030   3.312   2.320   8.728 -1.9769 -0.6239 -0.9855
 7857SOL    HW235031   3.249   2.426   8.651 -0.5742 -2.4012  0.1750
 7858SOL     OW35032   1.980   1.521   7.317 -0.3400 -0.0338 -0.5763
 7858SOL    HW135033   1.962   1.440   7.270 -1.3530  0.2499 -0.6596
 7858SOL    HW235034   1.904   1.569   7.287 -0.6591 -1.2557 -1.6969
 7859SOL     OW35035   0.609   0.330   8.355 -0.3383  0.3404  0.7591
 7859SOL    HW135036   0.574   0.277   8.427 -0.9812  1.9361  1.6072
 7859SOL    HW235037   0.666   0.392   8.401  2.2278 -2.0242  0.7639
 7860SOL     OW35038   1.263   2.038   6.379 -0.2322 -0.1339 -0.0922
 7860SOL    HW135039   1.212   2.097   6.434 -0.3627 -1.2722  1.0028
 7860SOL    HW235040   1.348   2.083   6.385 -0.8443  1.1441 -1.0608
 7861SOL     OW35041   2.071   0.546  15.432  0.2920 -0.1614 -0.1593
 7861SOL    HW135042   2.141   0.506  15.381  0.4008 -0.6067  0.3415
 7861SOL    HW235043   2.028   0.604  15.370  1.0542  0.4881 -0.0734
 7862SOL     OW35044   3.039   3.172   7.966 -0.4805  0.2473 -0.6800
 7862SOL    HW135045   3.081   3.102   8.016 -0.2692 -1.5340 -3.3236
 7862SOL    HW235046   3.083   3.163   7.882  2.1538  0.2613  0.7114
 7863SOL     OW35047   3.558   2.796   4.250 -0.1316 -0.1868 -0.2834
 7863SOL    HW135048   3.533   2.704   4.240  0.3928 -0.6599  2.8048
 7863SOL    HW235049   3.530   2.811   4.340 -0.6979  1.7916 -0.7852
 7864SOL     OW35050   3.603   3.922   5.017  0.1999  0.4246 -0.1683
 7864SOL    HW135051   3.628   3.833   5.041 -1.0104  0.8074  2.4869
 7864SOL    HW235052   3.656   3.971   5.080 -0.8120 -0.2180  1.1986
 7865SOL     OW35053   4.555   2.360   2.560 -0.5289 -0.2023 -0.1619
 7865SOL    HW135054   4.501   2.307   2.501 -1.1737  0.5179 -0.2131
 7865SOL    HW235055   4.620   2.384   2.494  1.2179 -0.7490  1.3413
 7866SOL     OW35056   4.202   3.854   0.348  0.0111  0.0007  0.0361
 7866SOL    HW135057   4.245   3.927   0.393 -2.5035 -0.3202  2.9352
 7866SOL    HW235058   4.201   3.795   0.423  3.0885 -0.3425 -0.1681
 7867SOL     OW35059   4.244   4.270   0.558 -0.2251 -0.0078  0.2596
 7867SOL    HW135060   4.186   4.345   0.545 -0.7330 -0.5295 -0.5438
 7867SOL    HW235061   4.193   4.212   0.501  2.5013 -1.7606 -0.3976
 7868SOL     OW35062   0.878   2.398  13.196  0.4639  0.5154 -0.3316
 7868SOL    HW135063   0.913   2.362  13.115 -1.2017 -0.2799 -0.6915
 7868SOL    HW235064   0.835   2.327  13.243  1.5297 -0.1223 -0.3227
 7869SOL     OW35065   0.520   1.672   8.631 -0.3876 -0.0624 -0.1993
 7869SOL    HW135066   0.469   1.592   8.643 -0.3052 -0.4220 -2.2105
 7869SOL    HW235067   0.488   1.730   8.701 -0.2214 -0.4538  0.1966
 7870SOL     OW35068   0.719   3.582   2.297 -1.0463  0.4208 -0.2266
 7870SOL    HW135069   0.705   3.659   2.241  0.7277  1.4424  0.7438
 7870SOL    HW235070   0.763   3.523   2.236 -2.6702 -0.5154 -0.4927
 7871SOL     OW35071   0.797   2.550  16.787  0.8181  0.1036 -0.0964
 7871SOL    HW135072   0.798   2.461  16.823  0.8192 -0.0579 -0.4966
 7871SOL    HW235073   0.702   2.558  16.772  1.0891 -0.6669 -2.1279
 7872SOL     OW35074   3.011   2.967  12.891 -0.1635 -0.1081 -0.5431
 7872SOL    HW135075   2.925   2.971  12.932  0.1424  2.3910 -0.1641
 7872SOL    HW235076   3.035   3.059  12.885  1.2073 -0.4719 -0.8002
 7873SOL     OW35077   4.680   0.202   7.466 -0.4124 -0.3505  0.2522
 7873SOL    HW135078   0.044   0.244   7.454 -0.1365 -1.6524 -2.5218
 7873SOL    HW235079   4.707   0.128   7.520 -1.1719 -1.2903 -0.6427
 7874SOL     OW35080   4.032   2.014  13.112 -0.5464  0.2446  0.3008
 7874SOL    HW135081   4.072   1.943  13.061 -1.5999 -0.9932  1.2165
 7874SOL    HW235082   4.097   2.083  13.097 -0.9893  0.7806  0.8380
 7875SOL     OW35083   0.252   3.886   5.120  0.4114  0.3181 -0.7199
 7875SOL    HW135084   0.164   3.849   5.110  0.3780 -0.2573  1.7362
 7875SOL    HW235085   0.252   3.952   5.050  0.2212  0.5959 -0.4552
 7876SOL     OW35086   1.623   2.106   2.529 -0.0852 -0.4985 -0.2111
 7876SOL    HW135087   1.588   2.194   2.518  1.1789  0.1077  0.5522
 7876SOL    HW235088   1.704   2.125   2.577 -1.4042  0.4558  1.6660
 7877SOL     OW35089   3.920   3.440   0.871 -0.1934 -0.1117  0.5223
 7877SOL    HW135090   3.839   3.427   0.920 -0.1630  2.0652  1.1677
 7877SOL    HW235091   3.981   3.395   0.930  0.9465  2.0413  1.0065
 7878SOL     OW35092   1.549   4.283   7.203  0.4433  0.2191  0.5044
 7878SOL    HW135093   1.580   4.195   7.183 -1.5256 -0.1258 -0.9647
 7878SOL    HW235094   1.462   4.284   7.164 -0.4121 -0.3038  2.4441
 7879SOL     OW35095   2.431   0.935   7.304 -0.0885 -0.2095 -0.5337
 7879SOL    HW135096   2.487   0.867   7.266  0.4640 -0.6284  1.0151
 7879SOL    HW235097   2.486   1.013   7.301  0.0542 -0.2411  1.1867
 7880SOL     OW35098   3.792   2.162   3.750 -0.2948 -0.3036  0.1040
 7880SOL    HW135099   3.732   2.229   3.784 -0.5461 -0.0103 -0.8931
 7880SOL    HW235100   3.816   2.197   3.664  0.7620 -2.2973 -0.4035
 7881SOL     OW35101   1.433   2.745  11.373  0.3027  0.0830  0.4484
 7881SOL    HW135102   1.410   2.827  11.416 -0.9253 -1.0704  1.9467
 7881SOL    HW235103   1.404   2.685  11.441 -1.3346  0.5197  0.1371
 7882SOL     OW35104   0.586   4.450   3.840  0.4147  0.3223 -0.3788
 7882SOL    HW135105   0.558   4.439   3.749 -0.6061  0.6754 -0.0999
 7882SOL    HW235106   0.674   4.488   3.841  0.8439 -0.6267 -0.9962
 7883SOL     OW35107   0.831   2.766  11.264  0.1710 -0.1513  0.5020
 7883SOL    HW135108   0.915   2.730  11.235 -0.1228 -0.9585  0.6308
 7883SOL    HW235109   0.799   2.804  11.182  1.4577  0.4707  0.2801
 7884SOL     OW35110   1.399   4.014   5.711 -0.3453 -0.3897  0.0356
 7884SOL    HW135111   1.345   4.085   5.747 -0.0484 -0.2840  0.2704
 7884SOL    HW235112   1.462   4.056   5.652 -1.1655  1.7398  0.6636
 7885SOL     OW35113   1.207   1.761   3.110  0.6209 -0.3029  0.1720
 7885SOL    HW135114   1.272   1.713   3.162 -1.0787  0.7712  3.2965
 7885SOL    HW235115   1.125   1.752   3.159 -1.0931 -0.0470 -2.6493
 7886SOL     OW35116   1.817   2.883   1.041 -0.0833  0.2214 -0.1423
 7886SOL    HW135117   1.749   2.903   1.106 -0.0756 -0.2039 -0.0040
 7886SOL    HW235118   1.784   2.936   0.968 -1.6208 -1.1766 -0.4684
 7887SOL     OW35119   3.262   0.245  16.120 -0.1967 -0.3646 -0.1443
 7887SOL    HW135120   3.181   0.296  16.126  1.3827  1.8332  2.4543
 7887SOL    HW235121   3.240   0.163  16.164  0.4377 -0.4561  0.0122
 7888SOL     OW35122   1.210   0.136   8.077  0.0262  0.1204 -0.4489
 7888SOL    HW135123   1.289   0.084   8.064  1.3725  2.2923 -0.9658
 7888SOL    HW235124   1.201   0.128   8.172  2.7248  0.9688 -0.1385
 7889SOL     OW35125   1.046   1.713   9.466 -0.3107 -0.0144  0.3231
 7889SOL    HW135126   0.967   1.767   9.477 -1.2028 -0.7945 -2.2451
 7889SOL    HW235127   1.101   1.726   9.543  0.9098  3.7334 -1.1503
 7890SOL     OW35128   0.303   0.148   2.972  0.8132  0.1305  0.2033
 7890SOL    HW135129   0.398   0.151   2.977  0.7055 -0.3151  2.5070
 7890SOL    HW235130   0.296   0.197   2.890 -1.8699 -0.2143  0.2113
 7891SOL     OW35131   4.229   2.121   0.988 -0.2324  0.5387 -0.1813
 7891SOL    HW135132   4.317   2.085   0.971 -0.6277  1.0689 -3.3416
 7891SOL    HW235133   4.248   2.187   1.054  2.5845 -1.0178  0.5650
 7892SOL     OW35134   2.975   0.595   9.342 -0.0800  0.2332 -0.1031
 7892SOL    HW135135   3.028   0.672   9.323  1.1015 -0.6995 -0.5909
 7892SOL    HW235136   2.893   0.637   9.314 -0.9238 -1.4008 -0.0701
 7893SOL     OW35137   1.040   0.976   8.353 -0.3010  0.0910  0.3425
 7893SOL    HW135138   1.084   1.030   8.418  1.3202 -1.3169  0.4010
 7893SOL    HW235139   1.007   1.041   8.290 -0.9393 -0.0125  0.5706
 7894SOL     OW35140   2.948   3.552   6.987  0.3916  0.0222  0.2316
 7894SOL    HW135141   2.891   3.594   6.923  1.5380  0.9793 -0.1639
 7894SOL    HW235142   2.888   3.555   7.061 -0.8341 -0.5367 -0.7358
 7895SOL     OW35143   4.669   0.612   5.964  0.5372  0.0951  0.3967
 7895SOL    HW135144   4.655   0.518   5.970  1.0695 -0.0572 -0.5613
 7895SOL    HW235145   0.012   0.618   6.035  2.6075 -0.0325 -1.4202
 7896SOL     OW35146   1.788   3.345   4.331 -0.1945  0.0199 -0.0574
 7896SOL    HW135147   1.727   3.301   4.272 -0.5402  0.3096  0.0834
 7896SOL    HW235148   1.855   3.389   4.278 -0.2187 -0.3120 -0.3699
 7897SOL     OW35149   0.603   2.139   9.371 -0.8167 -0.0135 -0.1104
 7897SOL    HW135150   0.595   2.119   9.278  0.8002  3.3686 -0.9643
 7897SOL    HW235151   0.697   2.126   9.380 -1.3009 -2.6157  1.3335
 7898SOL     OW35152   1.504   1.460   4.795 -0.2895 -0.4375 -0.3271
 7898SOL    HW135153   1.463   1.401   4.859  0.3327 -0.3907  0.1227
 7898SOL    HW235154   1.497   1.410   4.714 -1.6958 -1.1494  0.2238
 7899SOL     OW35155   1.286   0.939   3.502  0.1232 -0.1464  0.0660
 7899SOL    HW135156   1.248   1.009   3.450 -1.6598 -0.2881  1.1563
 7899SOL    HW235157   1.287   0.861   3.446 -0.5124  1.3737 -2.0234
 7900SOL     OW35158   4.531   0.245  16.034 -0.0584  0.2213  0.3079
 7900SOL    HW135159   4.437   0.242  16.018  0.1638  0.4335 -1.0508
 7900SOL    HW235160   4.550   0.151  16.043  0.7736  0.2431 -1.2194
 7901SOL     OW35161   0.964   1.685   9.144  0.8419 -0.0395  0.2468
 7901SOL    HW135162   0.998   1.657   9.229  0.9327 -1.3152 -0.2181
 7901SOL    HW235163   0.949   1.604   9.095  3.0205 -1.1180  1.3461
 7902SOL     OW35164   3.145   3.251   9.230  0.4418 -0.0828 -0.6337
 7902SOL    HW135165   3.173   3.273   9.319 -0.7472 -0.5354 -0.1421
 7902SOL    HW235166   3.056   3.285   9.221 -0.1775 -1.8415 -1.1799
 7903SOL     OW35167   2.384   0.576   2.592 -0.0295 -0.0491  0.1615
 7903SOL    HW135168   2.319   0.580   2.662  1.0823  2.2858  1.0430
 7903SOL    HW235169   2.442   0.515   2.637  1.9444  1.7658  0.0430
 7904SOL     OW35170   2.527   1.189  16.242  0.0973  0.0365 -0.3754
 7904SOL    HW135171   2.490   1.118  16.294  0.5890  1.1627  1.5155
 7904SOL    HW235172   2.518   1.165  16.150 -2.6413 -0.3139  0.0009
 7905SOL     OW35173   3.028   0.379   8.883 -0.0492  0.0956  0.2056
 7905SOL    HW135174   2.946   0.363   8.930  1.4375 -1.9474  2.0553
 7905SOL    HW235175   3.050   0.290   8.858  1.5442  0.4671  0.2900
 7906SOL     OW35176   3.538   4.587   5.920 -0.4912  0.4307  0.6310
 7906SOL    HW135177   3.618   4.575   5.970  0.1579 -2.4189 -1.1087
 7906SOL    HW235178   3.590   4.631   5.852 -2.2244  0.9366 -0.3718
 7907SOL     OW35179   1.744   2.701   2.464 -0.4034 -0.4089 -0.2119
 7907SOL    HW135180   1.712   2.639   2.399  0.5456  0.8261 -1.8317
 7907SOL    HW235181   1.837   2.699   2.442 -0.6195 -2.7899 -0.8643
 7908SOL     OW35182   1.122   3.990  14.077 -0.3461 -0.1382 -0.2504
 7908SOL    HW135183   1.166   3.915  14.035  0.9209  0.5898 -0.2177
 7908SOL    HW235184   1.188   4.059  14.081  0.0251 -0.5586  0.8149
 7909SOL     OW35185   0.920   2.865   2.090  0.4019  0.1422 -0.3142
 7909SOL    HW135186   0.899   2.790   2.035 -2.9155  0.7286  0.0920
 7909SOL    HW235187   0.853   2.923   2.053 -0.8986 -0.8113  0.5221
 7910SOL     OW35188   1.573   4.164   5.534  0.4568 -0.1112  0.2426
 7910SOL    HW135189   1.667   4.169   5.549  0.2903  1.1406  0.8162
 7910SOL    HW235190   1.572   4.180   5.440  1.0569 -1.8114 -0.0624
 7911SOL     OW35191   2.981   4.361   8.098 -0.2131  0.2482 -0.5717
 7911SOL    HW135192   3.042   4.341   8.028  2.7139 -0.8092  2.2883
 7911SOL    HW235193   3.013   4.299   8.164  2.0546  0.6489 -1.2996
 7912SOL     OW35194   3.229   0.388   2.144  0.3637 -0.0547 -0.7152
 7912SOL    HW135195   3.155   0.416   2.197  0.5768  0.6151 -0.7788
 7912SOL    HW235196   3.260   0.471   2.107  1.7416  0.1519  0.8684
 7913SOL     OW35197   3.386   1.896   2.072 -0.0391 -0.2882 -0.1612
 7913SOL    HW135198   3.371   1.842   1.994  1.5365 -1.6024  0.4567
 7913SOL    HW235199   3.408   1.979   2.029 -1.4388  0.7369  1.1001
 7914SOL     OW35200   4.444   3.479   5.226  0.1469  0.1413  0.1140
 7914SOL    HW135201   4.391   3.556   5.247  0.2517  0.1547  0.3210
 7914SOL    HW235202   4.533   3.513   5.220  0.6731 -1.0010  1.5495
 7915SOL     OW35203   3.966   3.209   8.361  0.0777 -0.3878  0.1166
 7915SOL    HW135204   3.874   3.235   8.349 -0.6540 -1.5061  3.2797
 7915SOL    HW235205   4.020   3.270   8.310 -1.9841  1.1381 -0.2612
 7916SOL     OW35206   3.241   2.297   6.402  0.3966  0.2308  0.5178
 7916SOL    HW135207   3.326   2.291   6.360  0.3805 -1.3132  0.7160
 7916SOL    HW235208   3.224   2.204   6.411  1.5702 -0.2409 -2.1960
 7917SOL     OW35209   2.079   0.375   1.467 -0.4181 -0.1759 -0.9480
 7917SOL    HW135210   2.058   0.290   1.430  1.4989 -1.8617  1.8042
 7917SOL    HW235211   2.137   0.414   1.402 -1.8218  1.9934 -0.8993
 7918SOL     OW35212   4.664   3.941   0.155  0.3696 -0.3437  0.5806
 7918SOL    HW135213   4.575   3.906   0.160  1.2332 -2.6475 -0.3986
 7918SOL    HW235214   4.682   3.939   0.249 -1.7031 -1.5805  0.9326
 7919SOL     OW35215   3.554   2.521   8.591  0.3087  0.2707 -0.0190
 7919SOL    HW135216   3.503   2.601   8.577 -0.0654  0.1677  0.7912
 7919SOL    HW235217   3.645   2.543   8.613  0.3659  1.0823 -1.0782
 7920SOL     OW35218   3.300   1.463   3.705 -1.0075  0.6120  0.0584
 7920SOL    HW135219   3.380   1.427   3.742 -2.1508 -0.5275  1.4181
 7920SOL    HW235220   3.323   1.555   3.716 -3.7103  1.4977 -1.6159
 7921SOL     OW35221   1.621   4.587   7.232  0.0731  0.4462 -0.2291
 7921SOL    HW135222   1.617   4.491   7.229 -1.4052  0.4875  0.8191
 7921SOL    HW235223   1.557   4.615   7.167 -2.0202  0.2439  1.7868
 7922SOL     OW35224   0.450   4.554   4.832  0.6536  0.1495 -0.1132
 7922SOL    HW135225   0.487   4.579   4.917  1.5528 -1.4714 -0.0117
 7922SOL    HW235226   0.414   4.471   4.865  1.1434  0.1301  0.3716
 7923SOL     OW35227   3.160   3.389   3.346  0.4020 -0.2796  0.3263
 7923SOL    HW135228   3.213   3.376   3.267  0.0108  0.4059 -0.0422
 7923SOL    HW235229   3.153   3.300   3.381 -0.8858 -1.0716 -1.9058
 7924SOL     OW35230   4.651   1.469   7.454 -0.0790  0.1606 -0.1322
 7924SOL    HW135231   4.691   1.397   7.405  1.5087  0.3344  0.9245
 7924SOL    HW235232   0.007   1.526   7.450  0.7650 -0.8762  1.3249
 7925SOL     OW35233   1.710   1.082   3.801  0.1462 -0.6258  0.2639
 7925SOL    HW135234   1.654   1.110   3.729 -1.3570 -0.6011  1.4278
 7925SOL    HW235235   1.700   0.988   3.789 -0.8031 -0.2408 -1.8964
 7926SOL     OW35236   3.977   2.895   2.502  0.2084  0.1634 -0.0560
 7926SOL    HW135237   3.931   2.812   2.491 -0.6185  1.1508 -3.8065
 7926SOL    HW235238   4.069   2.867   2.499 -0.3501 -1.3499 -2.4521
 7927SOL     OW35239   4.235   3.462   0.514 -0.1865 -0.0423 -0.0990
 7927SOL    HW135240   4.265   3.393   0.573  1.3415 -0.2743 -1.1544
 7927SOL    HW235241   4.187   3.407   0.453  0.4153 -1.1031  0.3959
 7928SOL     OW35242   3.878   1.890   1.030  0.1480 -0.2226  0.3437
 7928SOL    HW135243   3.827   1.970   1.047  1.8870  1.1555 -0.8638
 7928SOL    HW235244   3.807   1.834   1.000 -1.3592  1.8040  0.0780
 7929SOL     OW35245   0.995   0.492   4.563  0.3397  0.2342  0.1507
 7929SOL    HW135246   1.056   0.438   4.615 -0.0550 -0.2907  0.0676
 7929SOL    HW235247   0.935   0.515   4.634 -2.0682  2.5908 -2.6639
 7930SOL     OW35248   0.614   0.432   5.883 -0.1285  0.6037 -0.2269
 7930SOL    HW135249   0.656   0.408   5.801  1.4752  1.1886  0.4276
 7930SOL    HW235250   0.562   0.505   5.848 -0.2904  0.2602 -0.7016
 7931SOL     OW35251   3.123   3.444   6.414 -0.1791  0.3645  0.2513
 7931SOL    HW135252   3.035   3.424   6.380  0.2499 -0.7973 -0.1725
 7931SOL    HW235253   3.113   3.539   6.421 -0.8793  0.3393 -0.4155
 7932SOL     OW35254   3.263   0.916   1.186  0.0684  0.7905 -0.5579
 7932SOL    HW135255   3.212   0.836   1.171  0.6328  0.5217 -1.0978
 7932SOL    HW235256   3.234   0.944   1.272 -1.3553 -1.8444 -0.1731
 7933SOL     OW35257   3.324   0.494  12.102 -0.1386  0.0385 -0.0098
 7933SOL    HW135258   3.338   0.399  12.102 -2.8708 -0.3540  0.9644
 7933SOL    HW235259   3.230   0.501  12.086 -0.4824 -1.1851  1.4729
 7934SOL     OW35260   4.653   3.864   0.425 -0.3279 -0.6248 -0.3908
 7934SOL    HW135261   4.710   3.827   0.492 -0.0069 -0.1984 -0.4289
 7934SOL    HW235262   4.567   3.829   0.448 -0.8983  1.1306  0.1702
 7935SOL     OW35263   3.276   4.526   4.795  0.1427 -0.2671  0.3430
 7935SOL    HW135264   3.265   4.596   4.730 -3.1554 -0.4707  0.6514
 7935SOL    HW235265   3.193   4.512   4.841  1.1958 -0.6453  2.1141
 7936SOL     OW35266   2.357   4.370   3.466 -0.4718  0.0305  0.3965
 7936SOL    HW135267   2.271   4.352   3.428  0.4020 -0.4096 -1.3818
 7936SOL    HW235268   2.407   4.288   3.469  1.4519  1.1708 -0.4421
 7937SOL     OW35269   2.511   1.609  11.986 -0.5000 -0.0317  0.2873
 7937SOL    HW135270   2.583   1.663  11.952 -0.7298  0.8825  1.2292
 7937SOL    HW235271   2.537   1.615  12.078 -2.5773  2.7805  0.7003
 7938SOL     OW35272   2.809   0.968  10.591  0.1928 -0.3928  0.1669
 7938SOL    HW135273   2.720   0.974  10.625 -0.0055  0.7471 -0.5404
 7938SOL    HW235274   2.854   1.037  10.640  0.5861 -0.8234  0.4120
 7939SOL     OW35275   1.002   0.427   7.316 -0.4558 -0.4504  0.4152
 7939SOL    HW135276   0.919   0.468   7.339 -0.5825 -1.0322  1.0007
 7939SOL    HW235277   1.057   0.498   7.349  2.5128 -1.9860 -1.2176
 7940SOL     OW35278   1.282   3.095   3.348 -0.2635 -1.0886 -0.0310
 7940SOL    HW135279   1.352   3.030   3.359  2.5517  1.3491 -3.3442
 7940SOL    HW235280   1.337   3.171   3.369 -1.1792 -1.1280  2.5838
 7941SOL     OW35281   0.490   0.176   1.031 -0.1848  0.4004 -0.3885
 7941SOL    HW135282   0.428   0.112   1.066  0.8257 -1.9930 -2.9638
 7941SOL    HW235283   0.565   0.117   1.029 -1.0455 -0.6911 -0.3236
 7942SOL     OW35284   3.526   1.952   9.364  0.2249  0.0902 -0.7047
 7942SOL    HW135285   3.432   1.952   9.350  0.0826  0.8947  0.2617
 7942SOL    HW235286   3.521   1.877   9.424  0.5227  1.7918  1.4321
 7943SOL     OW35287   1.207   2.008  10.628 -0.3740 -0.0623  0.3333
 7943SOL    HW135288   1.213   2.103  10.640 -0.3221  0.1550 -1.4846
 7943SOL    HW235289   1.119   1.979  10.651 -0.4381 -0.5449 -0.5174
 7944SOL     OW35290   0.951   0.267   7.781  0.3180 -0.4170 -0.3267
 7944SOL    HW135291   0.926   0.317   7.859 -0.0036 -0.4889 -0.3846
 7944SOL    HW235292   0.883   0.202   7.769 -0.4546  0.2727  0.3266
 7945SOL     OW35293   2.984   1.137  10.725 -0.1990  0.5405 -0.3976
 7945SOL    HW135294   3.050   1.175  10.784 -0.8965 -0.8305  1.2796
 7945SOL    HW235295   3.043   1.103  10.657 -0.9306 -1.0354 -0.2526
 7946SOL     OW35296   2.680   0.856   4.774  0.3145  0.0272 -0.3928
 7946SOL    HW135297   2.672   0.949   4.795 -1.6803 -0.1227 -0.4879
 7946SOL    HW235298   2.633   0.845   4.691 -2.0245  1.9696  0.6646
 7947SOL     OW35299   2.974   3.730   4.220 -0.2146 -0.2730 -0.8297
 7947SOL    HW135300   3.068   3.729   4.201 -0.4332  0.1891 -1.9541
 7947SOL    HW235301   2.961   3.636   4.220 -3.0925  0.1296  0.6074
 7948SOL     OW35302   1.072   0.855   2.208  0.3132 -0.1792 -0.0849
 7948SOL    HW135303   1.131   0.906   2.264 -0.0638  0.2417 -0.0722
 7948SOL    HW235304   1.052   0.918   2.139  0.8608 -0.2761 -0.3323
 7949SOL     OW35305   1.091   3.760   5.838 -0.4839 -0.1147 -0.4146
 7949SOL    HW135306   1.178   3.748   5.800 -0.8672 -1.9893 -0.7321
 7949SOL    HW235307   1.076   3.846   5.800 -0.7981 -0.8531 -1.9616
 7950SOL     OW35308   2.656   1.346   5.427  0.2364  0.1871  0.2521
 7950SOL    HW135309   2.748   1.361   5.406  0.5590 -1.6597  0.3446
 7950SOL    HW235310   2.628   1.434   5.454 -1.5446 -0.2207 -0.2115
 7951SOL     OW35311   0.751   4.172   0.397  0.0682 -0.0409  0.0764
 7951SOL    HW135312   0.787   4.184   0.485  0.6819  0.5573 -0.2608
 7951SOL    HW235313   0.661   4.148   0.416 -0.4775  2.8983  1.2998
 7952SOL     OW35314   0.658   3.216   6.115  0.1049  0.4264  0.5050
 7952SOL    HW135315   0.741   3.255   6.144 -0.4847  1.1833  1.1910
 7952SOL    HW235316   0.698   3.169   6.042 -2.6812 -1.5585  0.2726
 7953SOL     OW35317   1.460   2.247   3.665  0.1941  0.1146 -0.2249
 7953SOL    HW135318   1.433   2.166   3.709  0.5280  0.4754  0.6407
 7953SOL    HW235319   1.539   2.276   3.710  0.5519 -1.4926  0.2031
 7954SOL     OW35320   0.778   3.322  16.822  0.0384  0.3417 -0.3519
 7954SOL    HW135321   0.801   3.345  16.912  0.6820 -1.2878 -0.1099
 7954SOL    HW235322   0.865   3.316  16.782  0.7077 -2.7434  1.6042
 7955SOL     OW35323   1.026   3.108   3.414  0.0473 -0.0203  0.0659
 7955SOL    HW135324   1.106   3.109   3.362  0.4548  1.0220  0.7113
 7955SOL    HW235325   0.966   3.056   3.360  0.0167 -0.9233  0.9534
 7956SOL     OW35326   2.288   4.557   1.995  0.4234  0.7358  0.3443
 7956SOL    HW135327   2.292   4.618   2.069 -0.5909  0.6745  0.4432
 7956SOL    HW235328   2.194   4.547   1.978  0.6128 -1.0662  0.3809
 7957SOL     OW35329   1.462   3.915   5.253  0.1565 -0.2278 -0.0448
 7957SOL    HW135330   1.496   3.860   5.324 -0.8373 -2.1074 -1.0618
 7957SOL    HW235331   1.397   3.967   5.300 -0.4762  0.0708 -1.2593
 7958SOL     OW35332   2.883   3.363   3.267  0.0659  0.1325  0.5524
 7958SOL    HW135333   2.911   3.437   3.213  0.1429  1.4376  2.3658
 7958SOL    HW235334   2.965   3.360   3.316  0.9511  1.6131 -0.8719
 7959SOL     OW35335   1.667   2.844   1.553  0.1815  0.6693 -0.7543
 7959SOL    HW135336   1.642   2.779   1.488  0.2940  0.8673 -0.9951
 7959SOL    HW235337   1.595   2.824   1.613  0.1780  2.9390  0.0129
 7960SOL     OW35338   0.292   1.434   5.013 -0.0507 -0.0685  0.3110
 7960SOL    HW135339   0.214   1.405   5.062  0.0142  1.8672  1.5363
 7960SOL    HW235340   0.300   1.354   4.961  0.1557 -0.2435  0.6091
 7961SOL     OW35341   1.398   0.711   0.039 -0.0020  0.5081 -0.0001
 7961SOL    HW135342   1.405   0.744   0.129  2.1625 -0.3665  0.1573
 7961SOL    HW235343   1.485   0.734   0.005 -0.1808  2.1526  0.6351
 7962SOL     OW35344   3.623   1.567   5.667 -0.0782 -0.3576  0.2019
 7962SOL    HW135345   3.529   1.557   5.652  0.3456 -1.5706 -1.7398
 7962SOL    HW235346   3.664   1.629   5.607  0.6767 -1.2746 -0.2428
 7963SOL     OW35347   3.293   0.675   1.487 -0.3861 -0.3553 -0.3531
 7963SOL    HW135348   3.327   0.762   1.468  0.8143 -0.8649 -0.5672
 7963SOL    HW235349   3.376   0.644   1.523 -1.0072 -1.7297 -0.0932
 7964SOL     OW35350   2.162   3.872   1.988  0.4736 -0.1648 -0.0516
 7964SOL    HW135351   2.131   3.922   1.912  0.0858 -2.7006 -1.5682
 7964SOL    HW235352   2.162   3.934   2.061 -2.1735 -1.2993  0.8788
 7965SOL     OW35353   1.586   0.100   6.143 -0.1861 -0.2545  0.0756
 7965SOL    HW135354   1.583   0.196   6.147  0.8752 -0.1976 -0.5313
 7965SOL    HW235355   1.651   0.103   6.073  1.4475  1.2633  1.6600
 7966SOL     OW35356   1.760   3.029  17.600 -0.4639  0.9424 -0.0994
 7966SOL    HW135357   1.840   2.998  17.644 -0.6311 -0.2034 -0.5968
 7966SOL    HW235358   1.701   3.055  17.671 -1.8816  1.1030 -1.3557
 7967SOL     OW35359   3.135   0.485  13.229 -0.4521 -0.0555  0.0619
 7967SOL    HW135360   3.062   0.441  13.275 -1.2737  0.3728 -0.8299
 7967SOL    HW235361   3.094   0.495  13.143  0.1800 -1.6291 -0.4217
 7968SOL     OW35362   1.870   2.119   0.325 -0.6853  0.1593 -0.5459
 7968SOL    HW135363   1.849   2.086   0.238 -0.6834 -0.4265 -0.3258
 7968SOL    HW235364   1.789   2.160   0.354  0.4214  1.4532  0.7580
 7969SOL     OW35365   0.192   3.024  11.288  0.1403  0.1028  0.2664
 7969SOL    HW135366   0.194   3.117  11.311 -0.1183  0.5460 -1.4375
 7969SOL    HW235367   0.247   2.973  11.347  2.8162  2.1813 -0.4441
 7970SOL     OW35368   0.178   0.370   7.371 -0.2076  0.0656  0.0305
 7970SOL    HW135369   0.272   0.375   7.391  0.0530 -0.3180 -1.1241
 7970SOL    HW235370   0.148   0.453   7.410  0.3302  0.7094 -0.9188
 7971SOL     OW35371   4.590   1.129   8.490 -0.1150  0.4533  0.4204
 7971SOL    HW135372   4.590   1.217   8.529  1.0669  1.2696 -1.4475
 7971SOL    HW235373   4.611   1.157   8.401 -0.8921  1.2964  0.5027
 7972SOL     OW35374   0.370   1.212   8.509 -0.2288 -0.0554  0.1769
 7972SOL    HW135375   0.310   1.199   8.435  1.6831 -0.7858 -1.2444
 7972SOL    HW235376   0.357   1.137   8.567 -2.3956 -0.9721 -1.4826
 7973SOL     OW35377   0.309   0.414   3.147  1.1427  0.2020  0.1772
 7973SOL    HW135378   0.228   0.398   3.194 -0.8836  2.4569 -2.5192
 7973SOL    HW235379   0.365   0.344   3.180 -1.3512 -1.4616  0.9133
 7974SOL     OW35380   3.496   1.691   7.623  0.1886  0.3884 -0.3044
 7974SOL    HW135381   3.582   1.719   7.654 -0.0659  0.1298  0.6582
 7974SOL    HW235382   3.450   1.775   7.622  0.0722  0.3868  5.1469
 7975SOL     OW35383   3.802   0.169  11.687  0.7540  0.1078 -0.3032
 7975SOL    HW135384   3.741   0.115  11.637  0.8914 -1.1190  0.8397
 7975SOL    HW235385   3.856   0.210  11.620 -3.7272  2.0802 -2.7061
 7976SOL     OW35386   4.244   1.603   4.656 -0.3345  0.1038 -0.3011
 7976SOL    HW135387   4.228   1.565   4.742 -1.9787 -0.8435 -1.0397
 7976SOL    HW235388   4.277   1.523   4.615 -0.2791  0.1516 -0.3509
 7977SOL     OW35389   4.402   3.784  13.907 -0.3655 -0.7610 -0.3455
 7977SOL    HW135390   4.405   3.757  13.999  1.1079  0.5936 -0.0059
 7977SOL    HW235391   4.491   3.762  13.880  0.4313  0.9192  0.9471
 7978SOL     OW35392   0.003   3.357   1.683  0.2964  0.0299  0.2391
 7978SOL    HW135393   0.058   3.285   1.712  0.7905  0.7458  1.0579
 7978SOL    HW235394   4.678   3.383   1.763  0.0741 -0.9676  0.4301
 7979SOL     OW35395   2.682   3.456   5.701  0.5591 -0.1456 -0.0858
 7979SOL    HW135396   2.731   3.385   5.741  1.0422 -0.2558 -0.8719
 7979SOL    HW235397   2.659   3.507   5.778 -2.6898  0.0027 -1.1452
 7980SOL     OW35398   0.595   1.216   2.872  0.2361  0.1287 -0.0010
 7980SOL    HW135399   0.535   1.213   2.798 -0.9204 -0.0887  0.9356
 7980SOL    HW235400   0.553   1.263   2.945  1.9644 -0.0008  1.0832
 7981SOL     OW35401   3.233   3.585   4.670 -0.4138  0.5708 -0.1695
 7981SOL    HW135402   3.220   3.502   4.624  0.7633 -0.0104  0.5458
 7981SOL    HW235403   3.141   3.598   4.690  0.2003  2.3416  1.4424
 7982SOL     OW35404   2.413   2.389   5.880 -0.4217 -0.2176  0.4642
 7982SOL    HW135405   2.435   2.360   5.791 -0.1484  1.0996  0.0895
 7982SOL    HW235406   2.472   2.341   5.937  3.2592  1.2388 -2.0739
 7983SOL     OW35407   4.425   0.870   2.934  0.0609 -0.7154  0.0826
 7983SOL    HW135408   4.485   0.906   3.000  1.2323 -1.1340 -0.7402
 7983SOL    HW235409   4.356   0.936   2.931  1.7830  1.0787  0.1493
 7984SOL     OW35410   3.683   1.106   7.973  0.1583  0.3499  0.0470
 7984SOL    HW135411   3.750   1.083   8.038 -1.0372  1.7635  1.7562
 7984SOL    HW235412   3.605   1.098   8.027  0.3499  1.3389  0.4622
 7985SOL     OW35413   1.014   3.647   6.608 -0.1291  0.1426 -0.0147
 7985SOL    HW135414   1.085   3.676   6.551  1.3713 -0.3837  1.6199
 7985SOL    HW235415   0.940   3.701   6.578  1.9092  2.2636 -1.2120
 7986SOL     OW35416   4.263   1.988   9.387 -0.1556  0.6130  0.4988
 7986SOL    HW135417   4.196   2.008   9.321 -0.9281  0.6906  1.3104
 7986SOL    HW235418   4.255   1.893   9.377  0.1132  0.8554 -2.0013
 7987SOL     OW35419   1.085   1.626   7.642 -0.4651  0.1926 -0.7713
 7987SOL    HW135420   1.122   1.578   7.716 -1.3199  0.4358 -0.1896
 7987SOL    HW235421   1.020   1.689   7.674 -2.0234 -1.6685 -0.2586
 7988SOL     OW35422   3.209   3.614  13.536 -0.0664  0.5895 -0.0625
 7988SOL    HW135423   3.193   3.705  13.508 -1.2335 -0.6738 -3.5607
 7988SOL    HW235424   3.303   3.617  13.549 -0.1054  0.4983  0.2385
 7989SOL     OW35425   1.912   2.711   4.534  0.0352 -0.0130  0.5818
 7989SOL    HW135426   1.971   2.703   4.459 -0.1677 -0.2051  0.4471
 7989SOL    HW235427   1.974   2.698   4.607 -0.4647 -1.5531  0.7188
 7990SOL     OW35428   3.965   1.793   8.496 -0.4650  0.1120 -0.2678
 7990SOL    HW135429   3.943   1.886   8.502  0.3047  0.0292  3.8553
 7990SOL    HW235430   3.892   1.765   8.441 -0.0844 -1.8544  0.2444
 7991SOL     OW35431   3.452   0.152  17.147 -0.7476  0.1696  0.0983
 7991SOL    HW135432   3.456   0.192  17.234  0.1639 -2.5863  1.3370
 7991SOL    HW235433   3.474   0.065  17.181  1.3920  0.8585  0.5093
 7992SOL     OW35434   0.521   3.787   2.200 -0.1540 -0.3689  0.1333
 7992SOL    HW135435   0.474   3.867   2.221 -1.9148 -0.7940 -2.1875
 7992SOL    HW235436   0.457   3.717   2.216 -0.6735 -0.3394 -1.7025
 7993SOL     OW35437   1.730   3.425  12.655  0.2437 -0.6297 -0.5144
 7993SOL    HW135438   1.821   3.403  12.675  0.5202  0.9975  0.0055
 7993SOL    HW235439   1.694   3.338  12.667  0.6507 -0.5902  1.0243
 7994SOL     OW35440   3.736   1.884  11.799  0.0705  0.5839 -0.1902
 7994SOL    HW135441   3.661   1.846  11.753  1.0755 -0.4648 -0.9599
 7994SOL    HW235442   3.709   1.890  11.891 -0.3811 -2.5653 -0.1158
 7995SOL     OW35443   2.941   2.435   2.795  0.0693  0.0007  0.5895
 7995SOL    HW135444   2.913   2.516   2.838 -0.8790 -0.3301  0.5835
 7995SOL    HW235445   3.011   2.404   2.853 -0.2826 -1.4129  0.2519
 7996SOL     OW35446   2.324   2.513   8.035 -0.0868  0.5306  0.0021
 7996SOL    HW135447   2.266   2.574   8.080 -0.4036 -1.8240  2.7580
 7996SOL    HW235448   2.325   2.432   8.087  0.4035  1.5965  1.6345
 7997SOL     OW35449   0.571   1.434  10.603 -0.0876 -0.1213  0.7749
 7997SOL    HW135450   0.586   1.341  10.585 -1.1322 -0.3461  1.0684
 7997SOL    HW235451   0.528   1.432  10.688 -1.3141  0.9933  0.1809
 7998SOL     OW35452   2.616   0.898   5.370  0.0446 -0.0880 -0.5104
 7998SOL    HW135453   2.669   0.868   5.443 -1.8692 -2.2670 -0.0350
 7998SOL    HW235454   2.531   0.879   5.410  0.8087 -0.4312  0.9475
 7999SOL     OW35455   3.907   0.308  14.937  0.2227  0.0978  0.5208
 7999SOL    HW135456   3.838   0.374  14.947 -0.3927 -0.9047  2.6748
 7999SOL    HW235457   3.979   0.368  14.918  0.8961 -0.7545  0.3833
 8000SOL     OW35458   0.410   0.738  11.545  0.0899 -0.0542 -0.5335
 8000SOL    HW135459   0.438   0.652  11.575  2.6344  1.1067  0.3694
 8000SOL    HW235460   0.421   0.792  11.624 -0.8822 -0.4724 -0.1086
 8001SOL     OW35461   2.212   4.248   6.088  0.6599  0.2666  0.0995
 8001SOL    HW135462   2.169   4.330   6.111 -0.2827 -0.4658  0.9347
 8001SOL    HW235463   2.232   4.274   5.998  1.2440 -1.1097 -0.1630
 8002SOL     OW35464   1.419   3.820   0.508 -0.4908 -0.0285  0.3482
 8002SOL    HW135465   1.499   3.819   0.455 -2.2080 -1.9359 -2.2230
 8002SOL    HW235466   1.417   3.733   0.547 -1.8008 -1.2846 -2.4434
 8003SOL     OW35467   2.224   1.907   9.390  0.2679  0.4323 -0.1625
 8003SOL    HW135468   2.254   1.977   9.332 -3.1882  2.8588  0.9802
 8003SOL    HW235469   2.297   1.845   9.388 -0.4125 -0.3542 -1.0191
 8004SOL     OW35470   3.612   0.095  11.514 -0.3941  0.5118 -0.0292
 8004SOL    HW135471   3.567   0.149  11.450 -0.9026 -1.3036 -1.1978
 8004SOL    HW235472   3.618   0.015  11.462  2.3549 -0.4991  1.8066
 8005SOL     OW35473   4.135   4.272   0.049  0.0141  0.3245 -0.6002
 8005SOL    HW135474   4.109   4.316  17.654 -1.9623 -2.3417 -1.3966
 8005SOL    HW235475   4.157   4.345   0.108  0.5621  0.6194 -1.1684
 8006SOL     OW35476   0.610   0.814   6.550  1.0807 -0.2850  0.2380
 8006SOL    HW135477   0.617   0.776   6.463  0.5938  0.9379 -0.3276
 8006SOL    HW235478   0.703   0.821   6.573  0.5816  0.0703  2.1280
 8007SOL     OW35479   2.555   1.160  10.626 -0.2536 -0.1484  0.1494
 8007SOL    HW135480   2.490   1.216  10.585  0.0594 -0.1620 -0.3731
 8007SOL    HW235481   2.504   1.095  10.675 -1.8127  0.5298 -0.5878
 8008SOL     OW35482   4.523   1.209   0.351 -0.6471 -0.2976 -0.0261
 8008SOL    HW135483   4.537   1.270   0.424  0.5229 -0.8630  0.2285
 8008SOL    HW235484   4.547   1.261   0.274  2.4065 -0.2471  0.9303
 8009SOL     OW35485   4.355   3.987  13.644  0.3241 -0.0222  0.6608
 8009SOL    HW135486   4.299   4.065  13.645  0.0295 -0.2007 -1.5906
 8009SOL    HW235487   4.399   3.993  13.728  0.9064  2.5139  0.1557
 8010SOL     OW35488   2.467   1.453   4.186  0.4489 -0.3276 -0.5994
 8010SOL    HW135489   2.467   1.434   4.093  0.7820 -3.2514 -0.0205
 8010SOL    HW235490   2.373   1.469   4.200  0.2041 -0.5963 -1.9871
 8011SOL     OW35491   4.514   4.052   4.609  0.4781  0.2766  0.4258
 8011SOL    HW135492   4.572   4.073   4.682 -0.4693  1.9484  0.6907
 8011SOL    HW235493   4.440   4.030   4.666 -1.1109 -0.1312 -1.7806
 8012SOL     OW35494   3.429   3.937   2.091 -0.5801 -1.2983 -0.2722
 8012SOL    HW135495   3.477   3.956   2.171  0.7366  1.2827 -1.6737
 8012SOL    HW235496   3.489   3.875   2.049 -0.4982 -2.2555  1.2803
 8013SOL     OW35497   3.055   3.238  12.966  0.3331  0.0276 -0.0390
 8013SOL    HW135498   3.026   3.297  12.897  1.5234 -0.0252 -0.5772
 8013SOL    HW235499   2.988   3.255  13.032  2.3364 -1.2967  2.3543
 8014SOL     OW35500   3.828   1.510  16.519  0.2434  0.1469  0.2606
 8014SOL    HW135501   3.857   1.508  16.428  0.5616  1.8021  0.3214
 8014SOL    HW235502   3.857   1.422  16.542  2.1237  0.0755 -2.4160
 8015SOL     OW35503   3.735   0.709   8.770 -0.5540  0.2004 -0.2451
 8015SOL    HW135504   3.659   0.766   8.782 -0.2378  0.4943  0.3577
 8015SOL    HW235505   3.735   0.655   8.849 -0.3176 -0.4687 -0.7072
 8016SOL     OW35506   3.501   4.312   4.912  0.1637  0.3428 -0.2289
 8016SOL    HW135507   3.452   4.237   4.946 -0.4549  1.0666  0.4658
 8016SOL    HW235508   3.477   4.306   4.819  0.6873 -1.2830 -0.2660
 8017SOL     OW35509   3.680   2.782  10.062 -0.9813  0.0762 -0.5933
 8017SOL    HW135510   3.688   2.757   9.970 -0.0080 -0.8200 -0.2691
 8017SOL    HW235511   3.762   2.754  10.104 -1.1899 -1.2036 -1.0181
 8018SOL     OW35512   0.990   0.547  14.145 -0.3534  0.1047  0.0408
 8018SOL    HW135513   1.008   0.503  14.062  0.3372  2.7046 -1.1680
 8018SOL    HW235514   0.898   0.567  14.126 -0.8048 -1.0351  1.0174
 8019SOL     OW35515   1.987   4.583   8.256 -0.3397 -0.1277  0.1729
 8019SOL    HW135516   2.080   4.608   8.260 -0.7427  1.1935  1.4598
 8019SOL    HW235517   1.974   4.527   8.179  1.0947 -0.9960  0.5560
 8020SOL     OW35518   4.655   1.205   6.761  0.3382  0.1312  0.6913
 8020SOL    HW135519   4.668   1.134   6.698  0.0817  0.6391  0.0814
 8020SOL    HW235520   4.579   1.241   6.716  0.4682 -0.6440 -0.1445
 8021SOL     OW35521   0.514   0.586  13.457 -0.0458 -0.2150 -0.1857
 8021SOL    HW135522   0.489   0.678  13.451 -2.2878 -0.5851  3.7012
 8021SOL    HW235523   0.519   0.590  13.552  0.6331  0.5178 -0.2536
 8022SOL     OW35524   2.478   0.694   5.680  0.1529  0.3292  0.6526
 8022SOL    HW135525   2.394   0.709   5.635  0.9696  0.6709 -0.7715
 8022SOL    HW235526   2.505   0.609   5.645 -0.6144 -0.4266  1.9107
 8023SOL     OW35527   4.302   2.728   1.652 -0.3541 -0.4558 -0.1891
 8023SOL    HW135528   4.222   2.777   1.634  0.3919  0.7196 -0.2939
 8023SOL    HW235529   4.316   2.739   1.747  1.6984  0.0538 -0.5381
 8024SOL     OW35530   1.045   3.459   2.938 -0.3527  0.4359 -0.5484
 8024SOL    HW135531   1.047   3.551   2.914 -0.4507  0.2392 -1.3083
 8024SOL    HW235532   1.037   3.460   3.033 -2.1281  1.0895 -0.7035
 8025SOL     OW35533   3.102   2.377   3.664 -0.3849  0.1080  0.2114
 8025SOL    HW135534   3.023   2.431   3.653  1.9835  3.1018 -2.2020
 8025SOL    HW235535   3.113   2.364   3.570  2.1911 -1.3859  0.7227
 8026SOL     OW35536   1.651   0.699  17.650 -0.3943 -0.2739 -0.3290
 8026SOL    HW135537   1.714   0.689   0.034  0.0195  0.6461 -0.5742
 8026SOL    HW235538   1.606   0.615  17.662 -3.2850  1.4168  0.8497
 8027SOL     OW35539   4.305   3.996  15.581 -0.4834  0.0427  0.2594
 8027SOL    HW135540   4.224   4.007  15.631 -0.5059 -0.8714  0.4359
 8027SOL    HW235541   4.350   4.077  15.601 -0.5536  0.0529  0.3723
 8028SOL     OW35542   3.270   0.114  14.228  0.3770  0.1687 -0.3505
 8028SOL    HW135543   3.261   0.092  14.135  1.0473  1.3913 -0.7077
 8028SOL    HW235544   3.327   0.040  14.248  2.5714  2.3127  1.3439
 8029SOL     OW35545   3.568   3.548  10.177  0.1384  0.1827  0.3108
 8029SOL    HW135546   3.549   3.538  10.084 -3.9259  0.6692  1.0694
 8029SOL    HW235547   3.530   3.463  10.200  0.0649 -0.3697 -1.8077
 8030SOL     OW35548   0.509   2.708   3.126 -0.6003  0.2854 -0.7744
 8030SOL    HW135549   0.439   2.692   3.062 -0.7377 -1.9449 -0.0837
 8030SOL    HW235550   0.499   2.803   3.118  2.9955  0.7631  0.7198
 8031SOL     OW35551   2.369   2.500   7.759  0.0584  0.0885 -0.6439
 8031SOL    HW135552   2.454   2.458   7.775  0.2967  0.6631 -0.3888
 8031SOL    HW235553   2.335   2.493   7.849 -1.4108  0.1212 -1.2087
 8032SOL     OW35554   2.170   1.820   6.953  0.0789  0.0346  0.1181
 8032SOL    HW135555   2.151   1.909   6.924 -3.9440  0.0464  2.7200
 8032SOL    HW235556   2.152   1.833   7.047 -0.0478  2.4925 -0.2389
 8033SOL     OW35557   0.011   0.297   2.480  0.6462  0.5214  0.7560
 8033SOL    HW135558   4.695   0.216   2.445 -0.8398  0.9023  1.4278
 8033SOL    HW235559   0.015   0.347   2.398  1.5699 -0.4075  0.2310
 8034SOL     OW35560   1.678   0.550  16.734 -0.0775  0.0077  0.2602
 8034SOL    HW135561   1.701   0.642  16.750 -0.9231  0.3738 -0.5870
 8034SOL    HW235562   1.631   0.556  16.651 -1.5305  2.2879  1.2420
 8035SOL     OW35563   3.425   4.025   6.935  0.2612  0.2925 -0.5106
 8035SOL    HW135564   3.385   3.942   6.913 -1.1095  0.1351  2.5267
 8035SOL    HW235565   3.495   3.971   6.971 -0.9882 -0.3878  0.9277
 8036SOL     OW35566   1.577   3.120  17.380 -0.5438 -0.1517 -0.0754
 8036SOL    HW135567   1.642   3.102  17.449 -1.2617 -0.9816  0.3844
 8036SOL    HW235568   1.590   3.039  17.330  1.1585  0.7118 -1.0329
 8037SOL     OW35569   1.320   3.207   1.594  0.0433  0.0008 -0.0870
 8037SOL    HW135570   1.268   3.190   1.672  0.7829  3.0694  1.0832
 8037SOL    HW235571   1.246   3.191   1.535 -0.9483  1.1344  0.8372
 8038SOL     OW35572   1.115   2.167   8.320  0.1276  0.0967 -0.1297
 8038SOL    HW135573   1.170   2.246   8.318  2.1160 -1.2958  0.0419
 8038SOL    HW235574   1.120   2.143   8.228  1.7299 -0.2064  0.0403
 8039SOL     OW35575   1.151   1.475   7.875 -0.0297 -0.0844  0.2249
 8039SOL    HW135576   1.154   1.502   7.967  0.6291  0.4667  0.0452
 8039SOL    HW235577   1.208   1.399   7.873  0.0191  0.0142 -1.5984
 8040SOL     OW35578   3.283   3.111  13.035 -0.2604 -0.4905  0.0894
 8040SOL    HW135579   3.256   3.059  13.111  0.9707  0.2920  1.0734
 8040SOL    HW235580   3.204   3.164  13.024  0.0417 -0.8493 -3.5803
 8041SOL     OW35581   1.721   1.756   4.510  0.0161 -0.0065  0.0801
 8041SOL    HW135582   1.638   1.740   4.555 -0.4655  0.8396 -0.4957
 8041SOL    HW235583   1.688   1.772   4.421 -1.3241  1.9602  0.9458
 8042SOL     OW35584   0.969   0.393   5.925  0.5472 -0.8807  0.4861
 8042SOL    HW135585   1.061   0.390   5.949  0.4038 -1.1747  0.9990
 8042SOL    HW235586   0.917   0.363   6.000 -0.3715 -1.7484 -0.4859
 8043SOL     OW35587   1.334   1.277   3.758 -0.3502  0.1952 -0.1820
 8043SOL    HW135588   1.385   1.306   3.681  1.3752 -0.3860  0.7404
 8043SOL    HW235589   1.373   1.329   3.828 -0.0195  0.0806 -0.2813
 8044SOL     OW35590   1.458   4.072   4.734  0.3763 -0.3626 -0.3600
 8044SOL    HW135591   1.378   4.064   4.682  0.6855 -1.9082 -0.6139
 8044SOL    HW235592   1.460   3.989   4.783  1.6883 -1.0362 -1.5401
 8045SOL     OW35593   0.936   1.800  11.781  0.2694 -0.1379  0.3026
 8045SOL    HW135594   0.976   1.800  11.868 -1.2165  2.2796  0.9788
 8045SOL    HW235595   0.857   1.850  11.800  0.4991  0.2196  0.3059
 8046SOL     OW35596   2.171   1.065  14.428 -0.6899  0.2232 -0.0017
 8046SOL    HW135597   2.122   1.047  14.509  1.4269  0.7021  1.3953
 8046SOL    HW235598   2.118   1.138  14.398 -0.7263  0.9475  1.8013
 8047SOL     OW35599   1.299   2.008   9.491  0.3435 -0.1505 -0.6021
 8047SOL    HW135600   1.373   1.976   9.543 -1.1785 -2.2763  0.2649
 8047SOL    HW235601   1.316   2.102   9.481 -1.0716  0.3691  1.6041
 8048SOL     OW35602   1.768   1.279   3.431  0.2682  0.0650 -0.0541
 8048SOL    HW135603   1.802   1.369   3.426 -0.2952  0.1470 -2.2789
 8048SOL    HW235604   1.769   1.267   3.526  0.3096  0.7101  0.0248
 8049SOL     OW35605   3.974   0.012   5.132  0.3381  0.6401 -0.1677
 8049SOL    HW135606   4.049   4.693   5.175  1.1602  1.4522 -0.8461
 8049SOL    HW235607   4.030   0.061   5.073  0.2198 -0.0879 -0.8835
 8050SOL     OW35608   0.969   4.540   9.875 -0.6355 -0.3198 -0.2295
 8050SOL    HW135609   0.990   4.614   9.819  0.9433 -1.2011 -0.7922
 8050SOL    HW235610   1.022   4.465   9.846  1.0971  1.2375 -1.0669
 8051SOL     OW35611   0.588   3.616   1.478  0.1024 -0.5822 -0.5765
 8051SOL    HW135612   0.511   3.672   1.492  1.0961  0.3946  1.1187
 8051SOL    HW235613   0.658   3.678   1.459  0.1250 -0.3305  0.2806
 8052SOL     OW35614   3.168   0.941   8.631 -0.0819  0.4947 -0.0588
 8052SOL    HW135615   3.116   0.871   8.671  0.2827  2.1357  3.3031
 8052SOL    HW235616   3.128   0.956   8.545 -1.3855  0.2658  0.4999
 8053SOL     OW35617   1.042   0.491   5.283  0.0392  0.0138 -0.2272
 8053SOL    HW135618   1.036   0.568   5.228  0.0755  0.7509  0.8046
 8053SOL    HW235619   0.987   0.428   5.236 -1.6276  1.3564 -0.0575
 8054SOL     OW35620   2.050   1.746  16.445 -0.2150  0.4021  0.4299
 8054SOL    HW135621   2.019   1.667  16.402  1.4484 -1.3873  2.5615
 8054SOL    HW235622   2.109   1.770  16.374  0.2384  0.8106  0.9452
 8055SOL     OW35623   0.877   3.304   7.741  0.3141  0.2906  0.2167
 8055SOL    HW135624   0.786   3.310   7.712  0.1978 -1.0065  0.3182
 8055SOL    HW235625   0.858   3.274   7.830 -0.1693 -0.1090 -0.0174
 8056SOL     OW35626   4.042   3.129   8.626 -0.3778 -0.7861 -0.4104
 8056SOL    HW135627   4.023   3.162   8.538 -2.0316 -0.2780  0.1369
 8056SOL    HW235628   3.975   3.176   8.675  0.2970 -1.0913  0.8117
 8057SOL     OW35629   1.961   0.752   3.984 -0.5756 -0.8247  0.9335
 8057SOL    HW135630   1.899   0.702   3.930 -0.5367 -0.7835  0.8512
 8057SOL    HW235631   1.919   0.832   4.016 -0.7015 -0.2117 -0.7819
 8058SOL     OW35632   0.927   1.977   3.292 -0.6632  0.5103  0.4796
 8058SOL    HW135633   0.892   2.029   3.219  1.4949 -0.8683 -1.5169
 8058SOL    HW235634   1.015   2.014   3.295  0.2836 -1.6493 -0.8650
 8059SOL     OW35635   2.211   1.838  16.684  0.1112 -0.4228 -0.5330
 8059SOL    HW135636   2.187   1.805  16.770  1.4905  2.0408  0.7959
 8059SOL    HW235637   2.133   1.820  16.631 -0.6090  2.3503 -0.4337
 8060SOL     OW35638   2.991   1.096   4.124 -0.1077  0.6549  0.4422
 8060SOL    HW135639   3.084   1.078   4.106 -0.9748 -2.6013 -0.8393
 8060SOL    HW235640   2.960   1.006   4.129  2.2773 -0.2301 -0.5206
 8061SOL     OW35641   0.102   1.804   4.789 -0.0867 -0.0636 -0.2006
 8061SOL    HW135642   0.057   1.757   4.859  0.8682 -1.4458 -0.5103
 8061SOL    HW235643   0.189   1.764   4.791  0.6669  1.5140 -0.7507
 8062SOL     OW35644   4.441   0.772   0.636 -0.1264  0.5687  0.2483
 8062SOL    HW135645   4.389   0.719   0.577 -0.5341  1.7101 -0.4269
 8062SOL    HW235646   4.482   0.834   0.576 -0.1573  0.9167  0.5868
 8063SOL     OW35647   3.989   2.708   2.962  0.3824  0.5296  0.2167
 8063SOL    HW135648   4.053   2.712   2.892  0.1796  2.1066  0.1281
 8063SOL    HW235649   4.039   2.674   3.037  0.7912 -0.6975 -0.6111
 8064SOL     OW35650   4.589   0.578  16.367 -0.5696  0.3609  0.4015
 8064SOL    HW135651   4.656   0.577  16.299 -2.6553  0.6161 -1.6555
 8064SOL    HW235652   4.554   0.489  16.363 -2.1642  1.0729 -1.8451
 8065SOL     OW35653   1.147   2.867  15.079 -0.7651 -0.1824 -0.3677
 8065SOL    HW135654   1.191   2.789  15.045  0.4852  0.6491 -0.6544
 8065SOL    HW235655   1.158   2.859  15.174  0.8513 -0.6769 -0.5980
 8066SOL     OW35656   3.017   2.952   2.239 -0.5601  0.8111 -0.0765
 8066SOL    HW135657   2.981   2.872   2.201 -1.0905  1.4191 -0.8771
 8066SOL    HW235658   2.986   2.943   2.329  1.8244 -3.5585  0.2593
 8067SOL     OW35659   2.646   1.281  13.129 -0.8086 -0.5392 -0.1688
 8067SOL    HW135660   2.609   1.193  13.136  1.6336 -1.6217 -0.6690
 8067SOL    HW235661   2.741   1.269  13.135 -0.9359  0.0211  2.6347
 8068SOL     OW35662   0.578   3.471   1.117  0.0294 -0.1654 -0.1687
 8068SOL    HW135663   0.608   3.437   1.032  0.0579  0.7836 -0.5288
 8068SOL    HW235664   0.653   3.509   1.162 -0.7289  1.9621 -0.7360
 8069SOL     OW35665   0.029   0.490  10.763 -0.6392 -0.4982 -0.2111
 8069SOL    HW135666   4.697   0.413  10.746 -1.1176 -0.4705  1.1741
 8069SOL    HW235667   0.085   0.484  10.686  2.3439 -0.1066  1.8905
 8070SOL     OW35668   1.859   3.401   2.357  0.3779 -0.5238  0.4406
 8070SOL    HW135669   1.852   3.403   2.262  1.4730  2.0032  0.4047
 8070SOL    HW235670   1.764   3.398   2.367  0.1047 -0.8489 -2.2696
 8071SOL     OW35671   2.739   0.949   6.073 -0.1654  0.4783 -0.2249
 8071SOL    HW135672   2.800   0.969   6.145 -0.5688 -0.6815  0.4348
 8071SOL    HW235673   2.798   0.937   5.999  1.0309  0.5149  0.7050
 8072SOL     OW35674   1.310   4.446   6.814  0.2523  0.2900  0.3164
 8072SOL    HW135675   1.342   4.405   6.733 -0.1340 -0.3345  0.4753
 8072SOL    HW235676   1.225   4.403   6.827 -0.2750  1.3835  0.4341
 8073SOL     OW35677   3.239   3.243   0.860 -0.0833 -0.3154 -0.3921
 8073SOL    HW135678   3.218   3.161   0.817  0.7192  0.6548 -2.6442
 8073SOL    HW235679   3.198   3.304   0.798  1.4415 -0.6293 -1.6927
 8074SOL     OW35680   2.739   1.426   0.205  0.3908  0.0509  0.0112
 8074SOL    HW135681   2.660   1.395   0.248  0.4776  1.5628  1.2444
 8074SOL    HW235682   2.764   1.344   0.162 -0.8168  0.2824 -1.1372
 8075SOL     OW35683   4.477   0.426   4.503  0.4688  0.3266  0.4972
 8075SOL    HW135684   4.519   0.507   4.532 -1.0279  1.2774  0.0567
 8075SOL    HW235685   4.541   0.396   4.439  0.0420  1.5101 -0.5009
 8076SOL     OW35686   1.773   3.527   8.758 -0.2349 -0.1202  0.5856
 8076SOL    HW135687   1.728   3.555   8.838 -1.3360  0.7601 -0.3409
 8076SOL    HW235688   1.863   3.530   8.790 -0.6712  2.3866  1.5944
 8077SOL     OW35689   3.491   1.376   9.111  0.1884  0.0394 -0.0788
 8077SOL    HW135690   3.429   1.432   9.158 -1.8635 -2.5318  0.2853
 8077SOL    HW235691   3.483   1.428   9.031 -0.8150  0.4825  0.2989
 8078SOL     OW35692   1.974   0.455   5.330  0.5552 -0.3022  0.4081
 8078SOL    HW135693   1.939   0.393   5.394 -0.7685 -0.3504 -0.3511
 8078SOL    HW235694   1.937   0.416   5.251 -0.0234  1.3798 -0.1627
 8079SOL     OW35695   4.128   2.925  14.917  0.0730  0.0102  0.3263
 8079SOL    HW135696   4.135   2.845  14.867  2.1744 -1.5119  3.0280
 8079SOL    HW235697   4.218   2.958  14.923 -0.1953  1.1255 -1.9853
 8080SOL     OW35698   3.306   2.990   9.202  0.2161  0.5848  0.2362
 8080SOL    HW135699   3.214   2.966   9.210  1.2639 -2.5942  2.8818
 8080SOL    HW235700   3.289   3.080   9.173 -0.3347  0.0536 -1.0847
 8081SOL     OW35701   2.757   0.290   5.244 -0.0405 -0.0867  0.1006
 8081SOL    HW135702   2.831   0.334   5.285 -0.4030  0.3216  0.3092
 8081SOL    HW235703   2.781   0.307   5.153  0.0413  0.6670  0.2631
 8082SOL     OW35704   2.254   1.996   2.271  0.0572 -0.2810 -0.0810
 8082SOL    HW135705   2.292   1.968   2.188  1.5984 -0.8127  0.8217
 8082SOL    HW235706   2.165   1.962   2.260 -0.9146  2.3902 -0.5314
 8083SOL     OW35707   1.234   3.772   7.626 -0.2789  0.0784 -0.5221
 8083SOL    HW135708   1.323   3.737   7.621  0.0734  1.1726 -1.8098
 8083SOL    HW235709   1.177   3.694   7.628  1.2104 -0.9904  0.0536
 8084SOL     OW35710   4.609   0.692   6.460 -0.1121 -0.1575  0.1367
 8084SOL    HW135711   4.623   0.674   6.553 -1.2333  0.1999  0.3672
 8084SOL    HW235712   4.663   0.771   6.452 -2.6697  1.4126 -1.4625
 8085SOL     OW35713   0.971   2.074   4.414  0.0028  0.5289 -0.2820
 8085SOL    HW135714   0.911   2.142   4.443  1.2845  1.7370 -0.4301
 8085SOL    HW235715   1.044   2.092   4.473  0.3178  0.3800 -0.6228
 8086SOL     OW35716   4.387   2.472   6.154  0.5252 -0.2231 -0.0382
 8086SOL    HW135717   4.460   2.415   6.132  1.7208  2.1267 -2.1630
 8086SOL    HW235718   4.318   2.407   6.169  1.1329 -0.4884  1.5749
 8087SOL     OW35719   3.387   3.659  10.792 -0.4881 -0.1016 -0.0181
 8087SOL    HW135720   3.412   3.655  10.884 -3.0484  0.4045  0.7173
 8087SOL    HW235721   3.373   3.567  10.768 -3.6207  0.3222  0.1350
 8088SOL     OW35722   1.703   1.737   1.662 -0.1327 -0.3763 -0.1646
 8088SOL    HW135723   1.725   1.677   1.591  0.3082 -0.6589  0.2147
 8088SOL    HW235724   1.656   1.678   1.721 -1.7081 -0.4890 -1.5310
 8089SOL     OW35725   1.277   1.737   9.318  0.8957  0.2676  0.2306
 8089SOL    HW135726   1.310   1.812   9.368  1.4908 -0.7869  1.4207
 8089SOL    HW235727   1.200   1.699   9.362  1.0693  0.5770  0.8087
 8090SOL     OW35728   1.835   2.180   2.965  0.3571 -0.8558  0.0624
 8090SOL    HW135729   1.920   2.154   3.000  1.2817  1.7432 -0.2266
 8090SOL    HW235730   1.774   2.189   3.038 -1.1577 -1.9758 -1.0625
 8091SOL     OW35731   4.305   1.900   1.836 -0.0944  0.5700 -0.2699
 8091SOL    HW135732   4.347   1.946   1.909 -1.0505  1.1258 -0.0697
 8091SOL    HW235733   4.322   1.962   1.765  0.0185  1.2956  0.3878
 8092SOL     OW35734   3.030   4.581  11.323 -0.6449 -0.3158  0.1757
 8092SOL    HW135735   3.017   4.524  11.398  0.0909 -3.5122 -2.1249
 8092SOL    HW235736   3.121   4.608  11.333 -0.2945 -0.8825 -1.4207
 8093SOL     OW35737   4.138   2.921   1.600 -0.1712 -0.1608  0.4606
 8093SOL    HW135738   4.200   2.947   1.532 -1.1236 -1.8230 -1.0560
 8093SOL    HW235739   4.057   2.964   1.571 -0.6351 -0.8392  0.7577
 8094SOL     OW35740   3.920   0.863  15.896 -0.5607  0.1789  0.1120
 8094SOL    HW135741   3.921   0.941  15.952  0.6888 -0.9750  1.6921
 8094SOL    HW235742   3.831   0.832  15.914 -0.6812 -0.0631 -0.9087
 8095SOL     OW35743   4.523   0.283   1.205  0.2884 -0.1581 -0.2704
 8095SOL    HW135744   4.555   0.295   1.116 -0.6870 -0.0378 -0.5982
 8095SOL    HW235745   4.482   0.369   1.213 -0.2885 -0.3806 -0.9431
 8096SOL     OW35746   1.993   4.382   2.195 -0.0042 -0.4472  0.4523
 8096SOL    HW135747   1.961   4.367   2.106 -0.3366  0.0399  0.4892
 8096SOL    HW235748   2.077   4.337   2.197  0.3049  0.1437  0.8772
 8097SOL     OW35749   0.852   3.241   3.648  0.1503  0.2715 -0.3239
 8097SOL    HW135750   0.901   3.228   3.567  1.9604  3.2920  0.2801
 8097SOL    HW235751   0.899   3.319   3.678 -1.8355 -0.3352  4.4525
 8098SOL     OW35752   2.757   1.818   7.800  0.0955  0.1140  0.2373
 8098SOL    HW135753   2.663   1.813   7.779 -0.0848  0.5053  0.9643
 8098SOL    HW235754   2.788   1.752   7.738  0.0781  3.0842 -2.9566
 8099SOL     OW35755   3.211   2.604   9.718 -0.4187  0.8622  0.3262
 8099SOL    HW135756   3.144   2.567   9.776  0.0039 -0.4906 -0.0276
 8099SOL    HW235757   3.164   2.670   9.667 -1.2046 -0.5546 -0.7967
 8100SOL     OW35758   2.038   3.522   8.839 -0.1434 -0.1980  0.4984
 8100SOL    HW135759   2.105   3.460   8.868 -0.4926 -0.4815  0.6948
 8100SOL    HW235760   2.087   3.597   8.807 -1.0780 -0.0704 -0.6189
 8101SOL     OW35761   4.532   4.682   6.316 -0.0474 -0.0709  0.0123
 8101SOL    HW135762   4.582   0.022   6.262  0.3129 -0.4588 -0.0932
 8101SOL    HW235763   4.553   4.703   6.407 -0.3907  1.3746 -0.2496
 8102SOL     OW35764   0.630   3.812  12.285  0.0891  0.1845  0.2618
 8102SOL    HW135765   0.541   3.845  12.278  1.0984  2.6612 -0.8825
 8102SOL    HW235766   0.667   3.865  12.356  1.3434 -1.8783  1.1282
 8103SOL     OW35767   4.443   3.876   6.793  0.2579 -0.0248  1.1110
 8103SOL    HW135768   4.504   3.938   6.755 -0.3441 -0.3115 -0.3581
 8103SOL    HW235769   4.474   3.800   6.743 -1.4198  0.8770 -1.2974
 8104SOL     OW35770   4.250   3.453   2.496 -0.5084  0.1985 -0.8162
 8104SOL    HW135771   4.218   3.363   2.504  1.4595 -0.6015 -1.7857
 8104SOL    HW235772   4.184   3.484   2.434 -2.4513  0.2099  1.2681
 8105SOL     OW35773   4.055   1.564   5.222 -0.3055 -0.3369 -0.7532
 8105SOL    HW135774   4.118   1.579   5.292 -2.0040 -0.7282  0.8553
 8105SOL    HW235775   3.985   1.528   5.277  0.2557 -1.7582 -0.9822
 8106SOL     OW35776   3.115   2.950  16.477  0.6993 -0.2936 -0.3287
 8106SOL    HW135777   3.139   2.858  16.460 -0.3490 -0.3151 -1.7352
 8106SOL    HW235778   3.022   2.946  16.500  0.9912 -1.1469  0.7119
 8107SOL     OW35779   2.132   2.916   1.441  0.0788 -0.4127  0.0813
 8107SOL    HW135780   2.070   2.939   1.372  1.2448  4.1149  0.5237
 8107SOL    HW235781   2.106   2.974   1.513 -0.0760 -0.7055  0.2587
 8108SOL     OW35782   1.523   3.810   4.536 -0.4296  0.2376  0.0071
 8108SOL    HW135783   1.565   3.842   4.616 -0.1609  0.2846 -0.1500
 8108SOL    HW235784   1.557   3.721   4.530  0.4764  0.6383 -0.8038
 8109SOL     OW35785   2.371   4.370   4.158 -0.0382  0.7253  0.7186
 8109SOL    HW135786   2.417   4.404   4.234 -1.1382  1.3645  1.1064
 8109SOL    HW235787   2.370   4.277   4.179 -1.0249  0.2342 -1.4893
 8110SOL     OW35788   3.346   2.047   4.797 -0.1667 -0.1686 -0.0812
 8110SOL    HW135789   3.335   1.952   4.795  2.4683 -0.4505 -1.6809
 8110SOL    HW235790   3.435   2.045   4.761 -0.5453  1.3267 -1.1223
 8111SOL     OW35791   2.781   3.555   1.032  0.1540  0.1919  0.2869
 8111SOL    HW135792   2.854   3.606   1.068  0.1132  0.1638  0.4067
 8111SOL    HW235793   2.823   3.496   0.970  0.2094 -0.5201  1.0045
 8112SOL     OW35794   3.997   0.822  11.428  0.4370 -0.2812  0.0003
 8112SOL    HW135795   4.075   0.767  11.439 -0.3138 -1.1301  1.0751
 8112SOL    HW235796   4.037   0.906  11.406  1.3042 -0.2605  1.6458
 8113SOL     OW35797   3.317   0.145   1.036 -0.1922 -0.6346  0.1801
 8113SOL    HW135798   3.352   0.087   1.104  1.3101  1.1285  0.9202
 8113SOL    HW235799   3.319   0.087   0.960 -2.6406  0.0443 -0.3845
 8114SOL     OW35800   3.292   3.451   8.030 -0.0868 -0.0755  0.0235
 8114SOL    HW135801   3.246   3.405   8.100 -1.4628  1.9664  0.4637
 8114SOL    HW235802   3.223   3.478   7.971 -0.1859 -1.5929 -0.5593
 8115SOL     OW35803   1.070   1.640   8.853  0.3259 -0.0851 -0.3920
 8115SOL    HW135804   1.124   1.670   8.926 -2.4632  1.8114  0.8563
 8115SOL    HW235805   1.008   1.712   8.856  0.3281  0.0078 -2.4070
 8116SOL     OW35806   0.299   3.635   4.917  0.1806 -0.6325  0.8966
 8116SOL    HW135807   0.211   3.643   4.879  0.0039 -0.6662  1.2906
 8116SOL    HW235808   0.328   3.727   4.917 -0.4527 -0.4292  0.0065
 8117SOL     OW35809   0.350   1.636   4.821  0.3053  0.0946 -0.2007
 8117SOL    HW135810   0.386   1.587   4.746 -1.5069  0.3296 -1.2261
 8117SOL    HW235811   0.331   1.572   4.889  1.6587  0.5991  0.6558
 8118SOL     OW35812   0.753   3.646  15.728 -0.0866  0.0792  0.4620
 8118SOL    HW135813   0.692   3.701  15.678 -0.2185 -1.5228 -1.1405
 8118SOL    HW235814   0.707   3.647  15.812 -1.4667  3.6131 -0.3459
 8119SOL     OW35815   1.402   1.875   0.175 -0.0589 -0.5750 -0.1640
 8119SOL    HW135816   1.322   1.908   0.134  0.7118  1.2445 -0.1700
 8119SOL    HW235817   1.438   1.804   0.121 -1.0954  0.3839 -2.0948
 8120SOL     OW35818   4.469   2.279   4.314 -0.0936  0.6052  0.2688
 8120SOL    HW135819   4.406   2.286   4.385 -0.9570 -0.0334 -0.4366
 8120SOL    HW235820   4.522   2.204   4.342 -1.1713  0.0199  0.7270
 8121SOL     OW35821   1.603   0.212   0.638  0.1703  0.6230  0.1714
 8121SOL    HW135822   1.649   0.294   0.618  0.0088  0.7419  0.2855
 8121SOL    HW235823   1.595   0.184   0.547 -2.9248 -0.4085  0.7621
 8122SOL     OW35824   3.571   0.462  14.184 -0.1846  0.1894 -0.0856
 8122SOL    HW135825   3.481   0.492  14.196 -0.2773 -0.2543  0.3367
 8122SOL    HW235826   3.565   0.405  14.108  1.3280 -0.2995  0.1513
 8123SOL     OW35827   4.690   3.080   7.753 -0.1494 -0.0615  0.2372
 8123SOL    HW135828   4.637   3.073   7.831 -0.4063 -2.4221 -0.1429
 8123SOL    HW235829   4.629   3.125   7.695  0.8213 -1.1438 -1.6292
 8124SOL     OW35830   2.502   3.004   4.971 -0.1839  0.0253 -0.7034
 8124SOL    HW135831   2.483   2.913   4.947  0.3828  0.0326 -1.1778
 8124SOL    HW235832   2.541   2.999   5.058  1.4332  2.0681 -1.3075
 8125SOL     OW35833   3.347   2.287  15.007  0.3161  0.0351  0.3421
 8125SOL    HW135834   3.294   2.344  15.063  0.5545 -1.2957  1.9194
 8125SOL    HW235835   3.284   2.227  14.967  0.8646 -0.3562  0.0628
 8126SOL     OW35836   3.841   4.404   2.297 -0.0842  0.0301 -0.5694
 8126SOL    HW135837   3.866   4.321   2.257 -0.2400 -1.1377  1.7895
 8126SOL    HW235838   3.770   4.439   2.243 -1.3898 -0.6193  0.7375
 8127SOL     OW35839   0.018   1.207  10.653  0.1934 -0.2497  0.8242
 8127SOL    HW135840   4.662   1.262  10.669 -0.0313 -0.2933 -0.0760
 8127SOL    HW235841   4.713   1.129  10.701 -0.0408 -0.9190 -0.3954
 8128SOL     OW35842   3.328   3.341   8.360  0.2315 -0.0572 -0.5751
 8128SOL    HW135843   3.246   3.356   8.313 -1.3950 -0.4389  2.1409
 8128SOL    HW235844   3.316   3.246   8.357  0.1488 -0.0573 -0.2552
 8129SOL     OW35845   2.602   1.273   9.014  0.3613  0.1454 -0.5564
 8129SOL    HW135846   2.538   1.273   9.085  1.8456  1.0446  0.8009
 8129SOL    HW235847   2.635   1.184   9.025  1.5108  0.5607 -0.6411
 8130SOL     OW35848   3.761   4.408   2.561  0.1407  0.1960 -0.3477
 8130SOL    HW135849   3.669   4.429   2.545 -0.0260 -1.0136 -0.9694
 8130SOL    HW235850   3.805   4.399   2.476  0.8911  0.3467  0.0303
 8131SOL     OW35851   1.459   0.862  16.993  0.4609 -0.4111 -0.2194
 8131SOL    HW135852   1.471   0.781  17.043  1.4127 -1.3098 -1.9121
 8131SOL    HW235853   1.476   0.924  17.065 -0.1872  0.4739 -0.8332
 8132SOL     OW35854   3.524   4.387   6.244  0.6585 -0.2046  0.2404
 8132SOL    HW135855   3.521   4.368   6.337 -1.2217 -0.4901  0.1170
 8132SOL    HW235856   3.553   4.478   6.238  3.9371 -1.1306  2.1501
 8133SOL     OW35857   1.327   2.792   6.520 -0.8505  0.0863  0.3366
 8133SOL    HW135858   1.244   2.754   6.490 -1.1006  2.3088 -1.7914
 8133SOL    HW235859   1.385   2.764   6.450  1.4659  1.7206  1.6161
 8134SOL     OW35860   0.784   2.338   0.883 -0.2277 -0.2600  0.9168
 8134SOL    HW135861   0.852   2.406   0.885 -1.2584  0.7874  0.1700
 8134SOL    HW235862   0.755   2.347   0.793  1.5462  0.6978  0.4325
 8135SOL     OW35863   2.055   3.832   4.152 -0.4586 -0.4992 -0.2454
 8135SOL    HW135864   1.999   3.908   4.140 -0.8650 -0.1511  3.7125
 8135SOL    HW235865   1.991   3.790   4.209  1.8622 -3.0483  0.4861
 8136SOL     OW35866   0.895   0.182   6.779  0.0999  0.2691 -0.0155
 8136SOL    HW135867   0.976   0.179   6.830 -1.2387  0.5914  2.1148
 8136SOL    HW235868   0.853   0.103   6.813 -0.4472  0.2105 -0.8288
 8137SOL     OW35869   0.680   4.531   2.591  0.3512 -0.5834 -0.0261
 8137SOL    HW135870   0.697   4.437   2.592  0.1621 -0.6029  1.9795
 8137SOL    HW235871   0.622   4.538   2.515 -0.0509 -2.7074  0.0707
 8138SOL     OW35872   2.081   0.885   8.575 -0.1320  0.6957 -0.0185
 8138SOL    HW135873   2.029   0.811   8.607 -0.8765  0.8183 -0.9526
 8138SOL    HW235874   2.022   0.951   8.538 -1.3287 -0.0999  0.4553
 8139SOL     OW35875   2.921   2.176   5.204 -0.5568 -0.1331  0.0947
 8139SOL    HW135876   3.014   2.182   5.226 -0.0876 -2.1756 -1.3639
 8139SOL    HW235877   2.894   2.113   5.272  0.4474  0.5483  1.1238
 8140SOL     OW35878   3.789   3.828  12.048  0.7030 -0.1276 -0.3883
 8140SOL    HW135879   3.877   3.794  12.066  0.6255 -0.4608 -0.6450
 8140SOL    HW235880   3.814   3.920  12.060 -1.4470  0.3941  0.0417
 8141SOL     OW35881   3.006   2.365   4.753  0.3869 -0.3622 -0.4431
 8141SOL    HW135882   3.037   2.298   4.813  3.1325  0.3548 -1.0794
 8141SOL    HW235883   3.063   2.347   4.678  0.7226 -0.9754 -0.0379
 8142SOL     OW35884   2.986   1.013   2.937  0.0992 -0.5289  0.1436
 8142SOL    HW135885   2.978   0.939   2.997  0.2748 -1.6477 -1.2285
 8142SOL    HW235886   3.078   1.037   2.952 -0.3872  0.8144  0.9941
 8143SOL     OW35887   4.308   4.126   3.401  0.1943  0.2698 -0.3999
 8143SOL    HW135888   4.214   4.140   3.406  0.2336  0.3393  0.1756
 8143SOL    HW235889   4.305   4.053   3.463 -1.6688  0.9578  0.3093
 8144SOL     OW35890   0.593   0.356   0.828 -0.1819  0.1856 -0.0709
 8144SOL    HW135891   0.534   0.311   0.889 -0.0116 -0.1408 -0.1429
 8144SOL    HW235892   0.632   0.282   0.781 -1.5695 -0.7606  0.2707
 8145SOL     OW35893   3.579   0.660  10.725 -0.1149  0.3905 -0.8002
 8145SOL    HW135894   3.662   0.619  10.702 -0.7195 -0.1677 -2.0157
 8145SOL    HW235895   3.506   0.607  10.693 -1.1064  1.3816 -0.1727
 8146SOL     OW35896   3.858   0.572   5.552  0.2798  0.2069  0.5388
 8146SOL    HW135897   3.763   0.578   5.568 -0.6146 -0.6486 -4.2340
 8146SOL    HW235898   3.865   0.477   5.538  0.8696  0.4100 -0.5440
 8147SOL     OW35899   2.081   2.222   1.783 -0.1974  0.4343  0.2457
 8147SOL    HW135900   2.153   2.161   1.798  0.6484  1.2731 -0.3356
 8147SOL    HW235901   2.132   2.302   1.800 -0.8357  0.5594  1.5396
 8148SOL     OW35902   0.706   1.414   8.128  0.2272 -0.2190  0.3959
 8148SOL    HW135903   0.666   1.387   8.210  0.3166  1.1039  0.8693
 8148SOL    HW235904   0.653   1.368   8.063  0.3377  0.5983 -0.2776
 8149SOL     OW35905   4.133   2.414   5.860 -0.7146 -0.1162  0.1607
 8149SOL    HW135906   4.100   2.345   5.803 -2.1522  1.2502 -0.6451
 8149SOL    HW235907   4.097   2.493   5.820  0.2418 -0.2477 -0.9280
 8150SOL     OW35908   3.789   2.481   8.339 -0.0446  0.5224  0.2330
 8150SOL    HW135909   3.730   2.542   8.296 -0.2087  0.4511  0.3546
 8150SOL    HW235910   3.776   2.397   8.294 -0.3907 -0.2407  1.7378
 8151SOL     OW35911   4.127   0.391   1.883  0.3566  0.5755 -0.0348
 8151SOL    HW135912   4.068   0.466   1.888 -0.5417 -0.1204 -0.1603
 8151SOL    HW235913   4.133   0.376   1.789  0.4365 -0.0034  0.0585
 8152SOL     OW35914   0.701   3.080  11.560  0.3255  0.6574  0.8718
 8152SOL    HW135915   0.618   3.078  11.606  0.5017 -0.0763  1.1533
 8152SOL    HW235916   0.688   3.151  11.497 -0.8658 -0.3238  0.0156
 8153SOL     OW35917   4.546   2.128   7.947  0.1934  0.1199 -0.1585
 8153SOL    HW135918   4.466   2.150   7.899 -0.2117 -2.3957 -0.6463
 8153SOL    HW235919   4.541   2.033   7.939  2.3292  0.0075 -0.0601
 8154SOL     OW35920   3.855   2.848   1.708  0.5660 -0.5304  0.0580
 8154SOL    HW135921   3.827   2.778   1.767 -0.3443  0.6869  1.0776
 8154SOL    HW235922   3.901   2.794   1.643  0.6167  1.4095 -1.4982
 8155SOL     OW35923   3.698   0.799   1.951  0.0084  0.0447  0.4876
 8155SOL    HW135924   3.678   0.711   1.985 -2.1987 -0.4120 -1.9177
 8155SOL    HW235925   3.794   0.795   1.948 -0.0951 -1.5851 -0.8601
 8156SOL     OW35926   0.637   3.771   8.660 -0.2455  0.2768  0.2558
 8156SOL    HW135927   0.646   3.816   8.744  1.4899  0.1815  0.1371
 8156SOL    HW235928   0.654   3.680   8.685 -2.1612 -0.6924 -1.9468
 8157SOL     OW35929   4.386   3.632   6.600 -0.1638 -0.0999 -1.4321
 8157SOL    HW135930   4.305   3.648   6.649  1.4083  0.5057  0.9771
 8157SOL    HW235931   4.379   3.682   6.519 -1.1453 -0.7974 -1.7808
 8158SOL     OW35932   0.553   2.088   9.110  0.7709  0.1433 -0.3278
 8158SOL    HW135933   0.490   2.017   9.092  0.2842  0.2341  1.0585
 8158SOL    HW235934   0.557   2.131   9.025 -1.5274  1.8597  0.4548
 8159SOL     OW35935   1.367   0.508   4.769  0.2959  0.5892  0.2596
 8159SOL    HW135936   1.344   0.597   4.742  2.9829  1.4460  0.7941
 8159SOL    HW235937   1.458   0.528   4.791  0.6856  1.1444 -1.8084
 8160SOL     OW35938   0.766   4.197   6.662  0.4244  0.0825 -0.0878
 8160SOL    HW135939   0.728   4.227   6.745 -1.7898 -2.4324 -0.1893
 8160SOL    HW235940   0.735   4.106   6.663  2.5263 -0.5984  1.5874
 8161SOL     OW35941   4.165   2.982  13.326 -0.1266  0.3885 -0.3307
 8161SOL    HW135942   4.259   2.997  13.330 -0.1519  0.3816  0.3735
 8161SOL    HW235943   4.140   2.999  13.417  0.6254  2.7321 -0.5697
 8162SOL     OW35944   3.755   1.919   7.039  0.1231 -0.3720 -0.1165
 8162SOL    HW135945   3.812   1.908   7.115 -0.6475 -0.8910  0.3851
 8162SOL    HW235946   3.666   1.886   7.056  0.5990 -1.6621 -0.1428
 8163SOL     OW35947   0.546   4.568  11.959  0.4836 -0.0668 -0.1248
 8163SOL    HW135948   0.563   4.659  11.935  1.9514 -0.0014  1.1594
 8163SOL    HW235949   0.590   4.566  12.043 -0.8826  2.5940  0.6551
 8164SOL     OW35950   0.209   0.626   8.991  0.1904  0.0059 -0.1049
 8164SOL    HW135951   0.202   0.687   8.918  1.7226 -2.4515 -2.3056
 8164SOL    HW235952   0.296   0.641   9.027 -0.6737  2.7756  0.8451
 8165SOL     OW35953   0.954   0.066   2.578 -0.1623  0.3405  0.1781
 8165SOL    HW135954   1.015   0.066   2.504  1.6050 -0.5971  1.6167
 8165SOL    HW235955   0.884   0.104   2.526  0.2982 -0.6386 -1.1763
 8166SOL     OW35956   4.205   1.313   9.340  0.3667  0.9324  0.5942
 8166SOL    HW135957   4.122   1.265   9.348 -0.3914  2.2062  0.2459
 8166SOL    HW235958   4.208   1.376   9.412  1.9830  2.6902 -1.0369
 8167SOL     OW35959   1.987   1.297   4.116 -0.5750 -0.1481 -0.2057
 8167SOL    HW135960   2.035   1.364   4.165  1.2216 -2.1537  0.7734
 8167SOL    HW235961   1.909   1.352   4.107  0.4177  1.7330  3.0369
 8168SOL     OW35962   3.616   0.726   3.177  0.0077 -0.1944  0.1298
 8168SOL    HW135963   3.660   0.780   3.242  2.0883 -1.9401  0.1422
 8168SOL    HW235964   3.589   0.792   3.113 -1.7802 -1.9503 -0.9449
 8169SOL     OW35965   2.633   1.886   5.049  0.3629 -0.5488 -0.0007
 8169SOL    HW135966   2.585   1.928   5.121  1.8840  0.4392  0.4388
 8169SOL    HW235967   2.563   1.835   5.007 -0.9368 -0.3468  1.8906
 8170SOL     OW35968   2.043   0.282  12.617 -0.2629 -0.3861  0.1606
 8170SOL    HW135969   1.973   0.220  12.635 -1.7739  1.2283 -0.1957
 8170SOL    HW235970   2.076   0.323  12.698 -1.3717  1.2252 -0.2057
 8171SOL     OW35971   0.868   0.668   6.056 -0.2485 -0.0047 -0.1645
 8171SOL    HW135972   0.914   0.630   5.982  1.3543 -0.6319  1.1480
 8171SOL    HW235973   0.838   0.588   6.100  2.0985 -0.7190  0.1247
 8172SOL     OW35974   2.224   0.954   2.845  0.1428 -0.0736 -0.4110
 8172SOL    HW135975   2.319   0.943   2.854  0.2897 -0.5151 -2.5936
 8172SOL    HW235976   2.207   0.984   2.756 -0.0509  1.0609 -0.0003
 8173SOL     OW35977   2.027   2.231   9.210 -0.0551 -0.5400  0.3314
 8173SOL    HW135978   2.105   2.177   9.222 -0.0125 -0.1834  1.7241
 8173SOL    HW235979   2.003   2.237   9.302 -1.1475 -0.7963  0.0612
 8174SOL     OW35980   1.687   3.967   6.696 -0.0048  0.3450 -0.2749
 8174SOL    HW135981   1.625   3.958   6.622 -0.2439  1.5491 -0.2121
 8174SOL    HW235982   1.631   4.007   6.763 -0.1964  0.0514 -0.2570
 8175SOL     OW35983   1.776   1.430   2.335  0.0123  0.0252  0.4406
 8175SOL    HW135984   1.716   1.371   2.381 -1.4774  0.8551 -0.4471
 8175SOL    HW235985   1.786   1.503   2.396  0.9278 -1.0545  1.5797
 8176SOL     OW35986   3.193   1.199  13.277 -0.0497  0.1189 -0.1938
 8176SOL    HW135987   3.147   1.282  13.290  0.1528 -0.0061  1.3741
 8176SOL    HW235988   3.182   1.189  13.182  0.5324 -0.9167 -0.1559
 8177SOL     OW35989   1.317   2.404   7.642  0.4523 -0.3072 -0.2628
 8177SOL    HW135990   1.224   2.388   7.628  0.8074 -1.1988 -1.4812
 8177SOL    HW235991   1.351   2.341   7.579  0.9711  0.0316 -0.3242
 8178SOL     OW35992   4.413   1.762   3.847 -0.0043  0.1517  0.2564
 8178SOL    HW135993   4.380   1.784   3.760  1.0488  1.7781  0.2778
 8178SOL    HW235994   4.501   1.748   3.814 -0.6014 -0.8713 -0.9154
 8179SOL     OW35995   3.388   2.404   5.442 -0.3348  0.0076 -0.3124
 8179SOL    HW135996   3.335   2.351   5.502  0.9769  0.8923  1.6632
 8179SOL    HW235997   3.371   2.494   5.471 -2.6180 -0.2010 -1.0518
 8180SOL     OW35998   2.053   3.138   5.028 -0.1693 -0.4918  0.2898
 8180SOL    HW135999   1.993   3.074   4.989 -1.5332  2.2247 -2.0045
 8180SOL    HW236000   2.050   3.110   5.120 -1.4214 -1.1735  0.0491
 8181SOL     OW36001   2.749   4.325   8.671  0.2525 -0.3799 -0.2080
 8181SOL    HW136002   2.712   4.275   8.744  0.3133 -0.3784 -0.1766
 8181SOL    HW236003   2.709   4.408   8.697  2.1546  1.5178 -3.3137
 8182SOL     OW36004   1.678   3.718  12.696  0.4305  0.0985  0.0443
 8182SOL    HW136005   1.720   3.636  12.671  1.4700  0.4857  0.5215
 8182SOL    HW236006   1.650   3.687  12.782 -0.0065 -1.1238 -0.5395
 8183SOL     OW36007   4.377   4.288   9.279 -0.0868  0.3107 -0.6233
 8183SOL    HW136008   4.451   4.244   9.321 -0.3151 -1.5093 -2.1182
 8183SOL    HW236009   4.414   4.318   9.196 -2.2259  2.0921 -0.9203
 8184SOL     OW36010   2.164   4.711  11.684  0.3326  0.2399 -0.4931
 8184SOL    HW136011   2.166   4.666  11.599  0.7415  1.5409 -1.1865
 8184SOL    HW236012   2.227   4.653  11.726  1.2782 -1.5411 -4.3116
 8185SOL     OW36013   2.035   4.132   2.665  0.0477  0.9593  0.6241
 8185SOL    HW136014   2.128   4.154   2.657  0.7175 -1.5129  1.3660
 8185SOL    HW236015   1.997   4.192   2.601  1.8693  0.4849 -0.8848
 8186SOL     OW36016   4.198   2.931  15.812 -0.3373 -0.4087  0.3218
 8186SOL    HW136017   4.116   2.976  15.792 -0.1489 -0.3553 -0.3258
 8186SOL    HW236018   4.233   2.912  15.725  0.8995  3.0766  0.0723
 8187SOL     OW36019   1.282   0.413  10.822 -0.6607  0.0219  0.0298
 8187SOL    HW136020   1.314   0.487  10.769 -2.3374  0.0589 -0.9262
 8187SOL    HW236021   1.284   0.348  10.752 -1.0679  1.7762 -1.6082
 8188SOL     OW36022   1.091   3.885   2.101  0.5292 -0.5183  0.8885
 8188SOL    HW136023   1.165   3.839   2.062  0.2652 -0.6329  0.5234
 8188SOL    HW236024   1.020   3.822   2.091 -1.5712  1.7709  1.3798
 8189SOL     OW36025   2.792   3.490   2.438  0.5443 -0.3009 -0.0324
 8189SOL    HW136026   2.818   3.545   2.364  0.7307 -1.4700 -0.8356
 8189SOL    HW236027   2.861   3.489   2.505  0.6693  1.7941 -0.1372
 8190SOL     OW36028   4.057   2.145   3.491 -0.1517  0.1334 -0.5615
 8190SOL    HW136029   3.974   2.185   3.464 -0.1296 -0.6370 -1.7587
 8190SOL    HW236030   4.044   2.147   3.586 -3.0812  1.3439 -0.9681
 8191SOL     OW36031   3.357   4.098   4.948  0.8133  0.0368 -0.1183
 8191SOL    HW136032   3.428   4.034   4.947 -1.1121 -2.0865  0.1249
 8191SOL    HW236033   3.313   4.070   4.868  0.8582 -2.1706  0.6321
 8192SOL     OW36034   3.845   1.468   5.383 -0.6316 -1.0529 -0.1280
 8192SOL    HW136035   3.753   1.444   5.394 -0.8647 -0.5975 -1.0810
 8192SOL    HW236036   3.842   1.557   5.417 -2.2451 -1.5586  1.0524
 8193SOL     OW36037   0.751   1.093  16.132  0.1167 -0.4951 -0.4068
 8193SOL    HW136038   0.738   1.176  16.087  2.2858  0.2108  0.2860
 8193SOL    HW236039   0.842   1.092  16.160  0.7534 -1.1618 -2.4883
 8194SOL     OW36040   2.327   2.162   6.615 -0.2214 -0.4659 -0.4696
 8194SOL    HW136041   2.404   2.178   6.562  1.2092 -1.1621  1.4071
 8194SOL    HW236042   2.369   2.130   6.695  0.6405 -0.0096 -0.7402
 8195SOL     OW36043   1.366   0.284   9.066 -0.3536  0.0658  0.4865
 8195SOL    HW136044   1.377   0.193   9.041  2.0917 -0.2363  2.7208
 8195SOL    HW236045   1.452   0.305   9.101 -0.9291  1.6487  0.9600
 8196SOL     OW36046   0.850   4.315  12.640  0.0160 -0.0535 -0.1464
 8196SOL    HW136047   0.830   4.249  12.706 -0.7418 -0.0108 -0.3297
 8196SOL    HW236048   0.759   4.345  12.630  0.4554  0.8316 -1.5894
 8197SOL     OW36049   0.724   1.075   8.665 -0.0202 -0.2697  0.8161
 8197SOL    HW136050   0.678   1.076   8.581  0.2111  1.8133  0.7118
 8197SOL    HW236051   0.757   0.985   8.668  0.6324 -0.0771 -1.0133
 8198SOL     OW36052   2.808   1.764   9.217 -0.2250  0.4800  0.2341
 8198SOL    HW136053   2.727   1.813   9.203 -0.0515  0.2862 -1.4283
 8198SOL    HW236054   2.782   1.678   9.181  1.8288 -0.3016  0.6367
 8199SOL     OW36055   1.782   0.310  10.184 -0.0640  0.2985 -0.4657
 8199SOL    HW136056   1.823   0.337  10.265 -0.2969 -0.6830 -0.0156
 8199SOL    HW236057   1.694   0.294  10.217 -0.0155 -1.3822 -1.1060
 8200SOL     OW36058   1.234   1.396   3.449 -0.7014 -0.4929 -0.1264
 8200SOL    HW136059   1.328   1.381   3.465 -0.2819  0.1391 -2.0834
 8200SOL    HW236060   1.237   1.407   3.354 -1.6508  3.1336  0.2709
 8201SOL     OW36061   2.688   1.808   4.527  0.7293 -0.1801  0.3255
 8201SOL    HW136062   2.729   1.782   4.609 -1.6893  0.0029  1.6105
 8201SOL    HW236063   2.674   1.727   4.479  1.8548  1.2816 -2.4840
 8202SOL     OW36064   0.872   2.394  15.193  0.0650  0.3155  0.0522
 8202SOL    HW136065   0.824   2.338  15.132  2.5042 -1.2682 -0.4006
 8202SOL    HW236066   0.952   2.399  15.140  0.0473 -0.0727 -0.0123
 8203SOL     OW36067   4.125   1.201   7.148 -0.3689 -0.5098 -0.3072
 8203SOL    HW136068   4.156   1.118   7.185 -1.1303 -1.5642 -2.0000
 8203SOL    HW236069   4.029   1.193   7.144 -0.5171  0.6787  0.7228
 8204SOL     OW36070   2.152   1.351   0.800  0.7208 -0.7714  0.6298
 8204SOL    HW136071   2.069   1.374   0.759 -0.4696 -4.5887  0.8858
 8204SOL    HW236072   2.159   1.419   0.867  1.0622 -0.2673  0.0853
 8205SOL     OW36073   1.522   1.083   3.562  0.3184 -0.2662  0.2022
 8205SOL    HW136074   1.601   1.029   3.553  0.7057  0.2295  0.6336
 8205SOL    HW236075   1.465   1.010   3.536  1.2690 -0.5480 -1.0739
 8206SOL     OW36076   2.933   1.360   5.499 -0.7115  0.4357  0.4820
 8206SOL    HW136077   3.023   1.391   5.488 -1.4283  2.0900 -0.6202
 8206SOL    HW236078   2.944   1.265   5.488  4.4207  1.1757 -0.6310
 8207SOL     OW36079   2.220   2.913   4.654 -0.5535  0.2696 -0.1658
 8207SOL    HW136080   2.234   2.851   4.726 -1.9067  0.6528  0.4173
 8207SOL    HW236081   2.221   2.993   4.707 -1.1759 -0.5689  1.1117
 8208SOL     OW36082   2.305   3.721   6.150  0.5629 -0.5351 -0.0881
 8208SOL    HW136083   2.245   3.796   6.142 -0.7866 -1.6578 -0.4024
 8208SOL    HW236084   2.374   3.764   6.100 -0.6196  0.3265 -0.9815
 8209SOL     OW36085   3.055   3.268   2.061 -0.6886 -0.1030  1.1353
 8209SOL    HW136086   3.090   3.342   2.011  0.3612 -0.3789  1.4631
 8209SOL    HW236087   3.109   3.192   2.038 -1.5066 -0.3762  0.1020
 8210SOL     OW36088   3.357   1.562   5.920  0.0508  0.0723  0.2430
 8210SOL    HW136089   3.261   1.560   5.925  0.0753 -2.1911 -0.2549
 8210SOL    HW236090   3.386   1.653   5.915  0.1244  0.1327  1.9404
 8211SOL     OW36091   1.783   4.282  17.308  0.2156 -0.1699  0.5414
 8211SOL    HW136092   1.875   4.261  17.294  0.2282  0.7456 -0.7177
 8211SOL    HW236093   1.748   4.306  17.222  0.9731  2.1388  0.8675
 8212SOL     OW36094   2.977   3.972  10.948 -0.0190 -0.2470  0.0714
 8212SOL    HW136095   3.032   3.913  10.896 -3.1199 -1.3306 -1.9677
 8212SOL    HW236096   2.945   3.916  11.018  1.2230  0.2862  1.0660
 8213SOL     OW36097   0.846   0.434   7.997  0.3224 -0.0562  0.0460
 8213SOL    HW136098   0.930   0.430   8.043  1.5673  0.4711 -2.1862
 8213SOL    HW236099   0.800   0.512   8.028  1.7614  1.1740 -0.9052
 8214SOL     OW36100   1.776   1.090  13.397 -0.5626 -0.5918  0.0297
 8214SOL    HW136101   1.736   1.006  13.419  0.4439 -1.0758  0.0502
 8214SOL    HW236102   1.805   1.076  13.307 -1.7675  0.5602 -0.5438
 8215SOL     OW36103   2.996   2.048  10.248  0.5191 -0.0260 -0.5889
 8215SOL    HW136104   3.014   1.965  10.293  0.9645  0.9323  0.9841
 8215SOL    HW236105   3.076   2.097  10.264  0.2779  0.7576 -1.7932
 8216SOL     OW36106   4.378   2.120   4.636  0.0169 -1.1918  0.7699
 8216SOL    HW136107   4.343   2.130   4.725 -0.9749  0.8525  0.1608
 8216SOL    HW236108   4.466   2.088   4.652  0.9202  1.3568  0.8997
 8217SOL     OW36109   0.121   4.357   6.311  0.6808 -0.0833  0.3416
 8217SOL    HW136110   0.209   4.339   6.279  1.0493  1.3777  0.5421
 8217SOL    HW236111   0.126   4.437   6.363 -0.2384  1.7738 -2.3735
 8218SOL     OW36112   1.019   1.449   7.042  0.4089  0.0863  0.2405
 8218SOL    HW136113   0.997   1.383   6.977 -2.3180  0.3646  0.8861
 8218SOL    HW236114   1.031   1.391   7.116 -0.3892 -0.3715  0.0061
 8219SOL     OW36115   3.953   1.742   7.966  0.1550 -0.2454  0.0294
 8219SOL    HW136116   4.041   1.723   7.934  0.8742  3.4598 -0.2389
 8219SOL    HW236117   3.956   1.688   8.044 -1.1707 -1.8897 -1.0633
 8220SOL     OW36118   2.700   0.165   7.444  0.3018  0.2554  0.0306
 8220SOL    HW136119   2.765   0.101   7.473  0.0443 -0.3353 -0.6889
 8220SOL    HW236120   2.625   0.106   7.451 -0.1736  0.6979 -1.2624
 8221SOL     OW36121   2.301   4.116   2.627 -0.3140  0.1045  0.3086
 8221SOL    HW136122   2.383   4.103   2.580 -1.4364 -0.8794 -1.3437
 8221SOL    HW236123   2.255   4.072   2.556  0.3930 -2.2895  1.3405
 8222SOL     OW36124   0.015   0.328   6.922 -0.2299 -0.2171  0.0528
 8222SOL    HW136125   4.684   0.268   6.977 -2.0246  3.4237  2.3208
 8222SOL    HW236126   0.064   0.376   6.988 -2.1059  2.2617 -0.3473
 8223SOL     OW36127   0.409   1.125   7.603  0.2122  0.1764  0.1210
 8223SOL    HW136128   0.499   1.153   7.618  0.2620  0.3212 -0.4189
 8223SOL    HW236129   0.376   1.166   7.523  0.2964  1.5226  0.7857
 8224SOL     OW36130   0.491   1.408   3.254  0.1587 -0.3911 -0.1648
 8224SOL    HW136131   0.563   1.408   3.317  0.9492  1.3110 -1.0785
 8224SOL    HW236132   0.504   1.491   3.207 -1.5006  0.9373  1.7257
 8225SOL     OW36133   3.576   0.191   7.061  0.2368 -0.1286 -0.5737
 8225SOL    HW136134   3.490   0.226   7.037  0.8533  0.1174 -2.4504
 8225SOL    HW236135   3.628   0.271   7.047 -0.3455  0.5206  0.9342
 8226SOL     OW36136   0.082   2.272   1.402 -0.8501  0.0907 -0.4405
 8226SOL    HW136137   0.005   2.230   1.364 -0.2701  0.0827 -1.6213
 8226SOL    HW236138   0.071   2.244   1.492  1.5990 -0.9227 -0.4500
 8227SOL     OW36139   1.532   0.067   5.739 -0.0807 -0.4902 -0.0890
 8227SOL    HW136140   1.448   0.066   5.784  0.1626  1.6711  0.3977
 8227SOL    HW236141   1.587   0.002   5.781  0.1942  0.1564  0.5467
 8228SOL     OW36142   2.354   4.642  10.865  0.2147  0.5812 -0.6032
 8228SOL    HW136143   2.317   4.658  10.951  0.4659 -0.3850 -0.3080
 8228SOL    HW236144   2.449   4.645  10.881  0.0627  3.1503 -0.2115
 8229SOL     OW36145   1.551   2.892   2.891  0.1926 -0.5815 -0.0928
 8229SOL    HW136146   1.461   2.922   2.903  0.9563  1.9591 -0.7994
 8229SOL    HW236147   1.559   2.900   2.796 -0.4654  0.0594 -0.0903
 8230SOL     OW36148   2.243   0.378   0.907 -0.0619 -0.7851 -0.0104
 8230SOL    HW136149   2.316   0.340   0.859  0.2816 -1.3647  0.9736
 8230SOL    HW236150   2.234   0.324   0.986  1.4193  0.8531  1.2917
 8231SOL     OW36151   0.265   1.369   9.089 -0.2583  0.3550  0.4518
 8231SOL    HW136152   0.184   1.398   9.048  0.6273 -1.3450 -2.4757
 8231SOL    HW236153   0.243   1.276   9.084 -0.1591  0.2124  2.5050
 8232SOL     OW36154   1.049   3.213  11.988  0.0699 -0.0098  0.7245
 8232SOL    HW136155   1.060   3.200  11.893 -1.4168  1.7650  0.3152
 8232SOL    HW236156   0.968   3.263  11.979 -0.0916 -0.5573 -0.8838
 8233SOL     OW36157   4.196   0.054   9.496 -0.1890  0.2158 -0.0364
 8233SOL    HW136158   4.198   4.680   9.480  0.0891  0.2378 -0.1225
 8233SOL    HW236159   4.106   0.060   9.528 -0.0585 -0.0566  0.3876
 8234SOL     OW36160   0.373   3.884   3.427 -0.1497 -0.2279 -0.2397
 8234SOL    HW136161   0.408   3.970   3.451 -0.4685  0.4179 -2.0737
 8234SOL    HW236162   0.294   3.879   3.482  0.2712  0.8218  0.4485
 8235SOL     OW36163   4.203   2.530   8.331  0.2754 -0.0036  0.2819
 8235SOL    HW136164   4.250   2.613   8.314  1.5279 -0.6001  0.8210
 8235SOL    HW236165   4.221   2.537   8.424  0.7295  4.2383 -0.0971
 8236SOL     OW36166   0.017   4.006   5.588  0.0114 -0.3518  0.2838
 8236SOL    HW136167   4.687   3.967   5.518  0.7094 -0.5302 -0.1283
 8236SOL    HW236168   0.050   4.089   5.552 -0.1517 -0.3267  0.1959
 8237SOL     OW36169   4.142   2.183   2.302 -0.1281  0.2577  0.6186
 8237SOL    HW136170   4.088   2.104   2.293 -1.0061  0.8534  0.7442
 8237SOL    HW236171   4.104   2.248   2.243  0.4215  1.0235  1.1188
 8238SOL     OW36172   0.108   2.268   4.061 -0.0457 -0.3204 -0.1587
 8238SOL    HW136173   0.021   2.304   4.079 -0.3392 -1.0929 -0.0151
 8238SOL    HW236174   0.097   2.247   3.968 -0.6563 -1.1939  0.1089
 8239SOL     OW36175   1.458   1.034   8.827  0.0685 -0.4663 -0.0582
 8239SOL    HW136176   1.380   0.989   8.794  0.1849 -1.5105  1.0651
 8239SOL    HW236177   1.509   1.029   8.746 -0.8678 -1.2565 -0.6032
 8240SOL     OW36178   0.163   1.961   6.832  0.2820 -0.7099 -0.1311
 8240SOL    HW136179   0.222   1.971   6.758 -0.2992 -1.0524 -0.6446
 8240SOL    HW236180   0.193   2.028   6.894  1.4422 -0.6893 -0.7247
 8241SOL     OW36181   1.396   4.238   8.941 -0.0640  0.7414  0.0126
 8241SOL    HW136182   1.303   4.253   8.922  0.0393  0.4455 -0.7098
 8241SOL    HW236183   1.433   4.189   8.868  0.4680 -0.9790  1.4224
 8242SOL     OW36184   2.704   3.947  13.746 -0.3035 -0.0764  0.7909
 8242SOL    HW136185   2.662   4.011  13.688  1.0809 -0.9627 -1.1986
 8242SOL    HW236186   2.629   3.921  13.799 -0.1538 -0.4306  0.8253
 8243SOL     OW36187   0.710   3.063   4.898  0.8492  0.0645  0.7395
 8243SOL    HW136188   0.730   3.025   4.983 -0.1380 -0.3602  0.7731
 8243SOL    HW236189   0.744   3.151   4.913 -1.6764  0.9332  1.3424
 8244SOL     OW36190   4.474   3.727   2.629 -0.8758  0.3344 -0.4940
 8244SOL    HW136191   4.510   3.814   2.616  0.4261  0.1273  1.5624
 8244SOL    HW236192   4.546   3.666   2.610 -0.5493  0.8087 -0.7574
 8245SOL     OW36193   2.098   1.508   6.048  0.4064 -0.0412  0.2924
 8245SOL    HW136194   2.150   1.428   6.053  0.3853 -0.0669  0.0846
 8245SOL    HW236195   2.084   1.510   5.953  1.9432 -0.8525  0.0565
 8246SOL     OW36196   2.936   4.217   6.090  0.0542 -0.5857  0.4111
 8246SOL    HW136197   2.953   4.305   6.056  0.3761  0.0387  2.1548
 8246SOL    HW236198   2.945   4.239   6.183  1.8927 -0.2813  0.1675
 8247SOL     OW36199   4.018   4.040   5.060  0.0930  0.1322 -0.0202
 8247SOL    HW136200   4.002   4.045   4.966  0.9903 -1.3465 -0.2554
 8247SOL    HW236201   4.032   4.131   5.085  0.3432 -0.1032  0.7193
 8248SOL     OW36202   3.665   2.675  10.980  0.4175  0.3742  0.1252
 8248SOL    HW136203   3.642   2.762  10.949  1.1194  0.6611  0.4043
 8248SOL    HW236204   3.612   2.620  10.921 -0.3840  0.9254  0.3409
 8249SOL     OW36205   3.257   0.370   2.960 -0.4713 -0.1118 -0.3667
 8249SOL    HW136206   3.335   0.361   2.905 -0.2175  1.4649 -0.2667
 8249SOL    HW236207   3.285   0.347   3.048  2.5912 -1.1778 -1.6366
 8250SOL     OW36208   1.053   1.237   8.296  0.2788  0.1273  0.6226
 8250SOL    HW136209   1.035   1.258   8.388 -2.1176 -0.9283  0.3846
 8250SOL    HW236210   1.016   1.308   8.243 -1.4198 -0.2477  1.3198
 8251SOL     OW36211   4.000   1.883  11.713  0.0748  0.3900  0.5305
 8251SOL    HW136212   3.962   1.830  11.643 -2.5970  1.7196  0.9787
 8251SOL    HW236213   3.917   1.899  11.756  0.2110  0.2775  0.8345
 8252SOL     OW36214   4.091   3.986   8.127 -0.1635  0.0850 -0.0809
 8252SOL    HW136215   4.100   4.015   8.036 -0.8538 -0.7978 -0.4465
 8252SOL    HW236216   4.012   4.029   8.160 -0.0830  0.5279 -0.4612
 8253SOL     OW36217   0.576   3.898   7.197  0.3873  0.0669 -0.2023
 8253SOL    HW136218   0.641   3.954   7.239  1.6722 -1.1711 -0.5604
 8253SOL    HW236219   0.640   3.837   7.161  1.0474  0.5888  0.0973
 8254SOL     OW36220   2.280   4.089   7.477  0.7397  0.6074 -0.6307
 8254SOL    HW136221   2.333   4.156   7.519  3.3280 -2.0337  0.3054
 8254SOL    HW236222   2.245   4.142   7.405  0.5716 -0.2235 -1.1530
 8255SOL     OW36223   0.801   2.816   5.242 -0.1840 -0.0451 -0.7222
 8255SOL    HW136224   0.834   2.895   5.199  0.1914 -0.8175 -1.8641
 8255SOL    HW236225   0.729   2.856   5.291  0.6063  2.1352 -1.3296
 8256SOL     OW36226   1.759   3.178   6.048  0.1701 -0.0446 -0.1365
 8256SOL    HW136227   1.843   3.134   6.037  0.2815  0.2405 -0.4392
 8256SOL    HW236228   1.721   3.120   6.114 -0.6200  1.3795  0.6759
 8257SOL     OW36229   0.042   3.826   3.033 -0.3183  0.8545 -0.7684
 8257SOL    HW136230   0.037   3.770   3.110  0.5573  1.6424 -0.1457
 8257SOL    HW236231   0.056   3.760   2.965 -0.4819 -0.3988  0.4142
 8258SOL     OW36232   0.966   2.427  10.819  0.5686  0.4370 -0.1093
 8258SOL    HW136233   1.055   2.391  10.814  0.6089  0.7364 -1.4515
 8258SOL    HW236234   0.972   2.517  10.787  1.7140  0.3483 -0.1484
 8259SOL     OW36235   4.680   2.172  12.526 -0.4674  0.4904  0.4673
 8259SOL    HW136236   4.627   2.144  12.601  0.7776 -1.4782  0.6302
 8259SOL    HW236237   0.002   2.253  12.552  1.4899 -0.3142 -0.2107
 8260SOL     OW36238   0.745   2.601   8.473  0.1715 -0.2676  0.2989
 8260SOL    HW136239   0.771   2.536   8.407 -1.4512 -1.1776  0.5470
 8260SOL    HW236240   0.803   2.673   8.449  1.3809 -1.4789 -0.4081
 8261SOL     OW36241   1.645   0.649   2.247 -0.2091 -0.1544 -0.4214
 8261SOL    HW136242   1.628   0.555   2.242 -2.0310  0.1956 -1.0196
 8261SOL    HW236243   1.604   0.673   2.163 -1.5178  1.4863  0.6907
 8262SOL     OW36244   2.113   3.967   7.768 -0.2811  0.2521 -0.0316
 8262SOL    HW136245   2.123   3.879   7.804  2.3983 -0.2649 -2.0785
 8262SOL    HW236246   2.192   4.010   7.800  0.6705  0.1622 -2.2630
 8263SOL     OW36247   4.286   0.311   0.447 -0.0939  0.3657 -0.0806
 8263SOL    HW136248   4.218   0.367   0.409 -1.2717 -0.8375  0.2420
 8263SOL    HW236249   4.233   0.293   0.525  1.5154 -0.6488  0.7724
 8264SOL     OW36250   2.963   1.960   9.069  0.4267  0.0634 -0.5293
 8264SOL    HW136251   3.034   1.952   9.133  0.5796  0.5876 -0.6309
 8264SOL    HW236252   2.900   1.892   9.093  0.3784  0.8123  1.4764
 8265SOL     OW36253   2.805   2.038   3.442  0.0922 -0.2027  0.0098
 8265SOL    HW136254   2.748   2.083   3.504 -0.8211 -0.9218 -0.3098
 8265SOL    HW236255   2.759   1.955   3.428  0.5875 -0.4719 -0.0330
 8266SOL     OW36256   3.280   2.301   3.892 -0.2137  0.5997 -0.0876
 8266SOL    HW136257   3.292   2.211   3.861 -0.2807  0.8580 -0.8467
 8266SOL    HW236258   3.227   2.344   3.825 -3.7587 -2.2510  0.9449
 8267SOL     OW36259   2.273   2.159   2.656  0.7081  0.8662 -0.8656
 8267SOL    HW136260   2.327   2.102   2.601 -1.3986 -2.1762  0.1958
 8267SOL    HW236261   2.211   2.092   2.682  0.1248  1.6062 -0.3653
 8268SOL     OW36262   3.208   2.894   4.900  0.1341 -0.2683 -0.5156
 8268SOL    HW136263   3.297   2.901   4.866  0.2435 -1.4731 -0.4760
 8268SOL    HW236264   3.201   2.800   4.917  0.3959  0.1466  1.8174
 8269SOL     OW36265   2.465   0.515   6.901 -0.5055 -0.1518  0.0629
 8269SOL    HW136266   2.403   0.497   6.830  0.2092  0.9706 -0.8534
 8269SOL    HW236267   2.425   0.583   6.955 -0.3667 -0.3462  0.4147
 8270SOL     OW36268   1.232   4.227  13.496  0.7164 -0.1041 -0.2078
 8270SOL    HW136269   1.228   4.132  13.485 -0.9896 -0.3218  2.2528
 8270SOL    HW236270   1.188   4.255  13.416 -0.6444 -0.7610  0.3209
 8271SOL     OW36271   3.121   2.113   1.225 -0.5240 -0.4634 -0.0307
 8271SOL    HW136272   3.198   2.064   1.197  0.3195  1.4576 -1.0880
 8271SOL    HW236273   3.157   2.158   1.301 -0.0034  0.2663 -0.7143
 8272SOL     OW36274   0.907   1.915   1.804  0.1894  0.4264  0.0180
 8272SOL    HW136275   0.911   1.976   1.731 -0.2612  0.9081  0.3968
 8272SOL    HW236276   0.905   1.972   1.881  2.0944  0.1602  0.2666
 8273SOL     OW36277   0.477   2.722   3.771  0.5721 -0.4775  0.3748
 8273SOL    HW136278   0.435   2.640   3.796 -0.8873  0.2607  0.3247
 8273SOL    HW236279   0.553   2.698   3.717  0.4434 -1.5690  0.6696
 8274SOL     OW36280   1.988   0.505   6.606 -0.0188  0.0486 -0.4558
 8274SOL    HW136281   1.999   0.586   6.655  3.1225 -0.5393 -0.1476
 8274SOL    HW236282   1.901   0.514   6.567  0.0798  0.2599 -0.6246
 8275SOL     OW36283   4.443   1.429   6.633 -0.2318 -0.1273  0.2563
 8275SOL    HW136284   4.395   1.488   6.575  0.2437  1.3339  1.3440
 8275SOL    HW236285   4.451   1.482   6.712  1.7465 -0.0147 -0.0147
 8276SOL     OW36286   3.842   4.168   2.185  0.0006 -0.5916 -0.2029
 8276SOL    HW136287   3.907   4.146   2.118  0.6985  2.4075 -0.4680
 8276SOL    HW236288   3.777   4.099   2.175 -0.8680  0.0802  0.8308
 8277SOL     OW36289   1.596   2.306  15.456  0.0685 -0.7027 -0.3462
 8277SOL    HW136290   1.679   2.259  15.467  0.8294  0.5473 -0.7102
 8277SOL    HW236291   1.569   2.265  15.374 -2.0236 -0.2575  0.1150
 8278SOL     OW36292   0.401   0.731   7.484  0.1810  0.5731  0.2773
 8278SOL    HW136293   0.489   0.748   7.450  0.5138 -2.9157 -0.6464
 8278SOL    HW236294   0.418   0.678   7.563 -1.2580 -0.1448  0.1061
 8279SOL     OW36295   4.346   4.192   8.925  0.0691  0.2580 -0.7740
 8279SOL    HW136296   4.424   4.211   8.976 -0.0096 -1.0012 -0.1740
 8279SOL    HW236297   4.390   4.194   8.840  0.2772 -0.3435 -0.6851
 8280SOL     OW36298   2.026   0.122   5.578  0.2415  0.3339 -0.3615
 8280SOL    HW136299   2.048   0.113   5.670  0.6857  1.7372 -0.3338
 8280SOL    HW236300   2.114   0.134   5.542 -0.3515  3.5793 -0.7306
 8281SOL     OW36301   0.256   3.221   1.781 -0.5569  0.2612  0.0499
 8281SOL    HW136302   0.286   3.303   1.819  2.1746  0.4115 -2.4695
 8281SOL    HW236303   0.315   3.207   1.708  0.7111  1.1153  0.9132
 8282SOL     OW36304   0.786   1.604   3.964  0.0153  0.0898  0.0728
 8282SOL    HW136305   0.789   1.672   4.031 -1.0939  0.5668 -0.3523
 8282SOL    HW236306   0.693   1.606   3.941  0.1525  1.9891 -0.3068
 8283SOL     OW36307   2.847   2.353   8.580 -0.3527 -0.4383  0.4013
 8283SOL    HW136308   2.814   2.271   8.545  2.0839 -1.9488  1.6920
 8283SOL    HW236309   2.941   2.337   8.576 -0.3993 -0.2078 -1.3895
 8284SOL     OW36310   3.973   3.009   3.935  0.2428 -0.5269 -0.3047
 8284SOL    HW136311   3.988   2.986   3.843  1.6767  0.2183 -0.2585
 8284SOL    HW236312   3.906   2.947   3.964 -2.1269  1.6862 -0.9991
 8285SOL     OW36313   0.960   2.638   5.135 -0.3465 -0.5393 -0.4613
 8285SOL    HW136314   0.946   2.650   5.041  1.3650  0.4207 -0.5889
 8285SOL    HW236315   0.901   2.702   5.175 -0.4863 -0.7439 -0.3385
 8286SOL     OW36316   2.722   0.532   2.339  0.8964  0.5924 -0.4266
 8286SOL    HW136317   2.768   0.601   2.387  1.6562  0.0354 -0.3604
 8286SOL    HW236318   2.766   0.450   2.360 -1.4351 -0.1806  1.3736
 8287SOL     OW36319   2.592   0.267   9.173  0.1335  0.0746  0.1746
 8287SOL    HW136320   2.653   0.280   9.246 -1.0531 -1.4130  1.4296
 8287SOL    HW236321   2.544   0.187   9.192  0.6336 -0.3654 -0.3918
 8288SOL     OW36322   1.372   2.324  13.880  0.4411 -0.1558  0.0353
 8288SOL    HW136323   1.320   2.258  13.836 -1.7464  2.7910 -1.7790
 8288SOL    HW236324   1.458   2.282  13.873  0.6173  0.4318 -1.2815
 8289SOL     OW36325   3.319   3.950   1.571 -0.1754 -0.3988 -0.3850
 8289SOL    HW136326   3.314   3.995   1.487  1.2777  1.5201  0.5635
 8289SOL    HW236327   3.302   4.014   1.640 -3.0101 -1.9277  0.3830
 8290SOL     OW36328   0.663   1.833   3.586 -0.2024  0.6925 -0.1577
 8290SOL    HW136329   0.744   1.787   3.609 -0.7699 -0.3350 -0.2423
 8290SOL    HW236330   0.602   1.760   3.594  0.3090  0.3934  0.9867
 8291SOL     OW36331   2.434   1.071   5.629 -0.2711  0.0423 -0.2527
 8291SOL    HW136332   2.460   1.126   5.555  0.5638 -1.0963 -0.8170
 8291SOL    HW236333   2.371   1.125   5.676  0.6731  0.5659  0.4211
 8292SOL     OW36334   0.918   1.018   6.404  0.4224  0.3615  0.3990
 8292SOL    HW136335   1.003   0.991   6.437 -0.3868 -1.3975  1.0340
 8292SOL    HW236336   0.865   0.946   6.438  0.7809 -0.6836 -1.2353
 8293SOL     OW36337   2.720   0.761  13.569 -0.2533  0.0423  0.2071
 8293SOL    HW136338   2.716   0.805  13.654  0.9262 -1.7672  1.2052
 8293SOL    HW236339   2.813   0.776  13.549  0.0816 -1.7150  0.4508
 8294SOL     OW36340   3.850   0.049   7.968  0.2139 -0.4884  0.3255
 8294SOL    HW136341   3.871   0.101   8.046 -1.1428  2.2863 -1.1913
 8294SOL    HW236342   3.882   0.109   7.901 -1.0063  0.0139  0.1922
 8295SOL     OW36343   3.322   1.146  16.921 -0.0866 -0.1177 -0.4228
 8295SOL    HW136344   3.306   1.111  16.834 -0.0597 -2.0917  0.3678
 8295SOL    HW236345   3.308   1.239  16.902 -0.4000 -0.3327 -1.2417
 8296SOL     OW36346   0.309   2.323  10.081  0.3389  0.8379  0.1236
 8296SOL    HW136347   0.340   2.272  10.155  2.1333 -1.1448 -1.9825
 8296SOL    HW236348   0.330   2.407  10.122  0.2351  0.1276  1.5923
 8297SOL     OW36349   4.236   0.728   2.020 -0.0359  0.1263  0.4397
 8297SOL    HW136350   4.248   0.661   2.086  1.7712 -1.2045 -1.2444
 8297SOL    HW236351   4.277   0.805   2.060  0.5204  2.1630 -4.0111
 8298SOL     OW36352   0.022   2.601   8.054 -0.0009  0.2889 -0.5487
 8298SOL    HW136353   4.657   2.634   8.081  0.3395  0.0539  0.7921
 8298SOL    HW236354   0.049   2.555   8.133  0.4358 -0.5951 -1.2054
 8299SOL     OW36355   0.810   1.170   4.621 -0.4724 -0.0643  0.1087
 8299SOL    HW136356   0.874   1.173   4.549 -0.8948 -1.4866 -0.3112
 8299SOL    HW236357   0.789   1.077   4.622 -0.0567 -0.1672 -0.6519
 8300SOL     OW36358   3.112   2.294  15.534  0.4260  0.2467 -0.0375
 8300SOL    HW136359   3.123   2.258  15.622  0.3685  0.1140 -0.0854
 8300SOL    HW236360   3.066   2.224  15.488 -1.9662  0.6977  1.6726
 8301SOL     OW36361   1.974   1.043   4.527 -0.4307 -0.1696 -0.9933
 8301SOL    HW136362   1.961   0.958   4.486 -0.2577 -0.3364 -0.6999
 8301SOL    HW236363   1.930   1.101   4.463  1.9206  2.7479  0.0527
 8302SOL     OW36364   0.957   2.675  10.760  0.1387 -0.2155 -0.0072
 8302SOL    HW136365   1.023   2.698  10.826 -0.0935 -0.3477  0.2729
 8302SOL    HW236366   0.907   2.756  10.768 -1.2901 -1.1742  0.6989
 8303SOL     OW36367   2.846   1.526   6.780  0.4708 -0.1708 -0.1432
 8303SOL    HW136368   2.911   1.544   6.849 -0.6027 -1.2051  1.1257
 8303SOL    HW236369   2.770   1.529   6.837 -0.8398  2.2087 -2.0393
 8304SOL     OW36370   2.719   4.648  17.038 -0.5157  0.1490 -0.1349
 8304SOL    HW136371   2.735   4.681  16.950  1.1164  0.5702  0.3116
 8304SOL    HW236372   2.799   4.600  17.059  0.4529  1.0862 -1.6365
 8305SOL     OW36373   4.239   1.040   9.952 -0.2267 -0.0669 -0.1933
 8305SOL    HW136374   4.150   1.063   9.977 -0.8063 -1.9865 -0.5325
 8305SOL    HW236375   4.247   0.946   9.967  0.8801  0.2356  1.0415
 8306SOL     OW36376   0.611   1.308   8.414  0.0924  0.5382  0.1078
 8306SOL    HW136377   0.522   1.289   8.445  0.3361 -0.8025 -0.0205
 8306SOL    HW236378   0.630   1.224   8.373 -1.4794 -0.6299  1.7675
 8307SOL     OW36379   2.124   3.952  16.831  0.0915 -0.5690  0.6969
 8307SOL    HW136380   2.182   3.980  16.902 -0.5863 -0.4909  1.2194
 8307SOL    HW236381   2.145   3.859  16.831 -0.5318 -0.7118  1.6804
 8308SOL     OW36382   1.019   3.995   7.291  0.2319  0.0828  0.7434
 8308SOL    HW136383   0.969   3.921   7.327 -0.2046 -1.6559 -3.4480
 8308SOL    HW236384   1.074   4.026   7.363 -0.6097  2.6577  0.2786
 8309SOL     OW36385   2.453   1.334   7.174  0.1535 -0.1411 -0.0305
 8309SOL    HW136386   2.493   1.411   7.214 -2.3061  2.5755 -2.7622
 8309SOL    HW236387   2.520   1.272   7.203  0.2244 -0.1754 -0.2648
 8310SOL     OW36388   1.200   2.978  16.408 -0.5679 -0.1875 -0.2577
 8310SOL    HW136389   1.185   3.073  16.406 -1.6022 -0.3679 -1.0211
 8310SOL    HW236390   1.279   2.973  16.354  0.7182 -0.3408  1.6594
 8311SOL     OW36391   2.599   3.400   4.591 -0.5949  0.3902 -0.1040
 8311SOL    HW136392   2.560   3.374   4.508  0.3613 -1.1522 -0.0725
 8311SOL    HW236393   2.610   3.316   4.635  2.1043  0.9999  0.3933
 8312SOL     OW36394   0.742   1.271   6.595  0.1144 -0.3928 -0.1188
 8312SOL    HW136395   0.724   1.342   6.533  2.0864 -0.2975 -0.5542
 8312SOL    HW236396   0.794   1.216   6.537 -1.6318 -3.6090  1.3964
 8313SOL     OW36397   4.384   2.201   6.279  0.2451 -0.2822  0.2534
 8313SOL    HW136398   4.446   2.197   6.206  0.5768 -0.3293  0.5395
 8313SOL    HW236399   4.412   2.130   6.335  1.6220  0.2700  0.2596
 8314SOL     OW36400   3.438   0.792   2.336  0.3064  0.0375  0.3928
 8314SOL    HW136401   3.409   0.830   2.418 -2.1618  2.4099 -1.5748
 8314SOL    HW236402   3.516   0.838   2.304  0.2322 -1.2807 -1.7312
 8315SOL     OW36403   4.625   2.157   7.178 -0.1969  0.4728 -0.5128
 8315SOL    HW136404   4.587   2.200   7.101  0.7101 -3.1975 -3.0042
 8315SOL    HW236405   4.713   2.143   7.144  0.2226 -0.9522  1.2204
 8316SOL     OW36406   4.025   4.053   8.437 -0.1149  0.5430 -0.1323
 8316SOL    HW136407   3.953   4.064   8.375 -0.4285 -0.2130  0.1069
 8316SOL    HW236408   3.968   4.032   8.510  2.6965  0.8317  2.1398
 8317SOL     OW36409   2.308   4.023   0.029  0.0579 -0.6209  0.2820
 8317SOL    HW136410   2.262   4.065  17.642 -1.1937 -1.0147  0.8442
 8317SOL    HW236411   2.375   4.091   0.030 -0.4169 -0.1285 -1.3539
 8318SOL     OW36412   0.276   0.018   7.708  0.0230  0.2194 -0.0208
 8318SOL    HW136413   0.310   4.708   7.792  0.3726  1.1254  0.1748
 8318SOL    HW236414   0.293   0.112   7.719 -1.1795  0.2671  1.5407
 8319SOL     OW36415   0.636   1.892   8.355 -0.4559 -0.3199 -0.6318
 8319SOL    HW136416   0.665   1.814   8.401 -0.1584 -0.4383 -1.0188
 8319SOL    HW236417   0.711   1.951   8.365  0.0852 -1.0990 -0.1123
 8320SOL     OW36418   1.788   0.688   5.359 -0.0581  0.2448 -0.1211
 8320SOL    HW136419   1.746   0.616   5.405  0.5179  0.2015  0.3347
 8320SOL    HW236420   1.848   0.639   5.303 -0.5741 -0.2235 -0.2642
 8321SOL     OW36421   0.658   4.301   4.110  0.0995 -0.0724  0.2482
 8321SOL    HW136422   0.624   4.356   4.039  1.9012 -0.1242 -0.6714
 8321SOL    HW236423   0.646   4.356   4.188  0.7370  0.3701  0.0399
 8322SOL     OW36424   4.614   4.339   7.808  0.0103  0.0950 -0.6457
 8322SOL    HW136425   4.654   4.337   7.721 -0.3234 -0.6061 -0.7892
 8322SOL    HW236426   4.688   4.365   7.863 -0.2058 -2.6583  0.9392
 8323SOL     OW36427   3.507   1.058   0.664 -0.2258 -0.0451 -0.1052
 8323SOL    HW136428   3.439   1.118   0.694  0.6958  1.3039 -0.7186
 8323SOL    HW236429   3.450   0.982   0.670 -2.0824  1.4518  1.2035
 8324SOL     OW36430   1.943   0.200   2.749  0.1022 -0.2095  1.0990
 8324SOL    HW136431   1.911   0.115   2.778  1.8431 -0.5337  2.0809
 8324SOL    HW236432   1.927   0.262   2.820 -1.5034 -0.5041  0.9776
 8325SOL     OW36433   1.490   0.290   4.940  0.1931 -0.1439  0.4754
 8325SOL    HW136434   1.428   0.297   4.868  1.3160 -1.5487 -0.6352
 8325SOL    HW236435   1.462   0.362   4.997  2.0615  2.0897 -1.4284
 8326SOL     OW36436   4.423   0.139   4.702  0.2037  0.0299  0.5168
 8326SOL    HW136437   4.375   0.219   4.684  1.5686  0.3961 -1.4540
 8326SOL    HW236438   4.419   0.096   4.616 -3.9339 -1.0834  1.2496
 8327SOL     OW36439   3.871   1.415   8.446  0.3610 -0.6473  0.3766
 8327SOL    HW136440   3.856   1.497   8.400 -0.5909 -0.9364  0.1773
 8327SOL    HW236441   3.815   1.423   8.524  0.9086 -1.1299  0.8179
 8328SOL     OW36442   0.778   0.701   2.969  0.5920 -0.5365 -0.1823
 8328SOL    HW136443   0.780   0.796   2.983  2.9433 -0.8462  1.6690
 8328SOL    HW236444   0.872   0.682   2.970  0.6017 -0.4674  0.4582
 8329SOL     OW36445   2.528   4.548   5.692  0.5713 -0.1090  0.0809
 8329SOL    HW136446   2.572   4.575   5.612 -1.0290  0.1568 -0.7014
 8329SOL    HW236447   2.515   4.455   5.674 -0.5009 -0.0519  0.5832
 8330SOL     OW36448   1.710   3.509   7.560 -0.3213  0.0919 -0.3783
 8330SOL    HW136449   1.782   3.569   7.540 -1.6247  1.7704  0.0128
 8330SOL    HW236450   1.708   3.462   7.476  0.6608 -2.8945  1.2597
 8331SOL     OW36451   1.495   3.577   2.539 -0.6553 -0.7211 -0.1342
 8331SOL    HW136452   1.512   3.555   2.630  2.7131 -0.5488 -0.7102
 8331SOL    HW236453   1.511   3.493   2.496 -0.3817  0.0253 -1.4936
 8332SOL     OW36454   1.360   4.458   4.650 -0.3845 -0.5060  0.7242
 8332SOL    HW136455   1.431   4.517   4.625 -0.0987 -0.8977  0.6023
 8332SOL    HW236456   1.330   4.430   4.563 -1.8253  0.7856  0.8269
 8333SOL     OW36457   2.842   2.155   9.283 -0.0932  0.1625  0.1982
 8333SOL    HW136458   2.917   2.103   9.312 -0.7025  0.6635  2.6783
 8333SOL    HW236459   2.878   2.172   9.195 -1.4749 -1.8958 -0.7482
 8334SOL     OW36460   0.673   1.979  11.178 -0.3200 -0.4077  0.3576
 8334SOL    HW136461   0.675   1.977  11.273 -0.5098  1.8057  0.4066
 8334SOL    HW236462   0.765   1.975  11.152 -0.7164 -1.5434 -0.8889
 8335SOL     OW36463   4.013   1.835  17.266  0.3130  0.5909 -0.2161
 8335SOL    HW136464   3.954   1.796  17.330 -0.6307  0.5429 -1.1214
 8335SOL    HW236465   4.095   1.788  17.282  1.5709  1.4040 -4.2230
 8336SOL     OW36466   2.386   3.991   8.534  0.2742 -0.5126  0.5420
 8336SOL    HW136467   2.325   4.048   8.488  0.0990 -1.1525 -0.0176
 8336SOL    HW236468   2.365   3.916   8.477  0.3529 -0.6717  0.7210
 8337SOL     OW36469   2.001   3.226  10.625 -0.4286 -0.3887 -0.2111
 8337SOL    HW136470   1.922   3.181  10.654 -2.3485  2.0371 -1.6540
 8337SOL    HW236471   2.044   3.164  10.566 -0.7295 -0.7196 -0.0786
 8338SOL     OW36472   3.781   4.705  15.002 -0.0376  1.0125 -0.0640
 8338SOL    HW136473   3.689   4.701  14.974  1.1526 -1.7757 -3.5783
 8338SOL    HW236474   3.785   4.633  15.066 -1.9509  0.1696 -0.8869
 8339SOL     OW36475   0.482   3.685   5.605  0.1607  0.6801 -0.0029
 8339SOL    HW136476   0.495   3.751   5.538 -3.6335  1.2138 -0.2023
 8339SOL    HW236477   0.562   3.704   5.654  0.2686 -0.9399  0.4554
 8340SOL     OW36478   1.649   0.891   3.178 -0.4411  0.0849  0.8503
 8340SOL    HW136479   1.558   0.919   3.188 -0.1918  1.2067 -0.0925
 8340SOL    HW236480   1.673   0.927   3.093 -3.6181  1.8342  0.7053
 8341SOL     OW36481   0.554   4.434   3.587  0.3297 -0.8224 -0.9702
 8341SOL    HW136482   0.637   4.388   3.571  1.0817  0.4852 -0.8827
 8341SOL    HW236483   0.526   4.440   3.495  3.1124 -0.6289 -1.8296
 8342SOL     OW36484   2.863   2.780   9.625 -0.0238  0.2940  0.4759
 8342SOL    HW136485   2.899   2.786   9.713  1.6695 -1.6696 -0.0569
 8342SOL    HW236486   2.800   2.851   9.615 -0.2794  0.1513  1.0814
 8343SOL     OW36487   4.250   0.160   6.845 -0.4023  0.0020  0.4332
 8343SOL    HW136488   4.177   0.133   6.791 -2.5665  0.6374  3.0083
 8343SOL    HW236489   4.266   0.248   6.811  0.9695 -0.5903 -0.4444
 8344SOL     OW36490   4.235   2.260   6.891 -0.0912 -0.1737  0.1901
 8344SOL    HW136491   4.211   2.339   6.842  0.4693  0.8068  1.5079
 8344SOL    HW236492   4.151   2.239   6.933 -1.7047  2.8773 -1.5389
 8345SOL     OW36493   1.201   1.981   5.444 -0.3523 -0.3524  0.1704
 8345SOL    HW136494   1.295   1.993   5.461 -0.7467  2.1771  0.5423
 8345SOL    HW236495   1.199   1.891   5.410  3.7403 -0.5908  0.5037
 8346SOL     OW36496   0.953   2.052   2.991 -0.1450  0.1436  0.0695
 8346SOL    HW136497   1.022   2.001   2.950 -0.6356 -0.2867 -0.2224
 8346SOL    HW236498   0.981   2.142   2.983  0.3880 -0.0865 -0.6230
 8347SOL     OW36499   0.904   1.220   9.988  0.1068 -0.0235  0.7144
 8347SOL    HW136500   0.944   1.296   9.945  1.5998 -2.7237 -2.6670
 8347SOL    HW236501   0.847   1.185   9.919  0.2072  0.9992  0.1182
 8348SOL     OW36502   0.482   2.324   2.863 -0.5561 -0.2640 -0.2069
 8348SOL    HW136503   0.472   2.261   2.792 -0.3616  0.4033 -0.8255
 8348SOL    HW236504   0.573   2.351   2.854 -0.8689  1.1829  0.8998
 8349SOL     OW36505   1.848   0.396  10.454  0.0107  0.5039  0.2356
 8349SOL    HW136506   1.807   0.371  10.537  1.6418 -1.0126  0.5947
 8349SOL    HW236507   1.936   0.410  10.489  0.5182  1.0186 -1.2742
 8350SOL     OW36508   0.095   0.098  11.420  0.7193 -0.1714  0.2066
 8350SOL    HW136509   0.037   0.148  11.363  0.1595  0.0497  0.9648
 8350SOL    HW236510   0.169   0.075  11.365  0.5524 -1.4794  0.5108
 8351SOL     OW36511   2.296   2.318   8.361 -0.0257  0.1829 -0.7118
 8351SOL    HW136512   2.374   2.321   8.306  0.9381 -0.5825  0.6105
 8351SOL    HW236513   2.223   2.317   8.300 -1.6548  3.7384  1.1837
 8352SOL     OW36514   2.588   0.168   1.288 -0.0550 -0.6245  0.4809
 8352SOL    HW136515   2.615   0.171   1.379 -0.6783  0.1841  0.6347
 8352SOL    HW236516   2.607   0.078   1.263  3.5558  0.6364 -1.3766
 8353SOL     OW36517   2.087   2.410   7.114 -0.2549 -0.0751  0.0788
 8353SOL    HW136518   2.045   2.450   7.190  0.8611 -1.6808  1.5468
 8353SOL    HW236519   2.119   2.332   7.161  0.4343  1.2477  1.7808
 8354SOL     OW36520   4.006   2.665   7.513  0.2349 -0.6138 -0.1970
 8354SOL    HW136521   3.967   2.579   7.494  1.2076 -1.0974 -0.0043
 8354SOL    HW236522   3.958   2.689   7.592 -2.2982 -2.7429 -1.1144
 8355SOL     OW36523   2.789   4.124   3.413  0.1355 -0.0143 -0.1735
 8355SOL    HW136524   2.851   4.051   3.406  1.2317  0.8197  0.9207
 8355SOL    HW236525   2.851   4.189   3.445  0.2816  0.6639 -1.8120
 8356SOL     OW36526   0.286   0.146  17.574  0.0315 -0.2452  0.2688
 8356SOL    HW136527   0.282   0.232  17.616  0.7516 -0.4616  0.7850
 8356SOL    HW236528   0.193   0.128  17.559  0.2570 -0.1424 -1.2880
 8357SOL     OW36529   2.078   0.287   6.493 -0.1846  0.2161 -0.5544
 8357SOL    HW136530   2.023   0.303   6.417 -0.6508 -0.9867 -0.4554
 8357SOL    HW236531   2.048   0.357   6.551 -1.8027 -0.2417 -0.8566
 8358SOL     OW36532   0.651   3.150   2.886 -0.2448 -0.0191  0.3169
 8358SOL    HW136533   0.742   3.165   2.858  0.1477  0.5918  1.9012
 8358SOL    HW236534   0.635   3.235   2.927  0.8332  1.1736 -1.6825
 8359SOL     OW36535   3.411   0.193   3.971 -0.1777  0.9164  0.3869
 8359SOL    HW136536   3.368   0.171   4.053  0.1875 -0.7007  0.1433
 8359SOL    HW236537   3.346   0.255   3.938 -0.7507 -0.0776 -0.3823
 8360SOL     OW36538   2.513   3.870   8.867 -0.1889  0.6762 -0.0383
 8360SOL    HW136539   2.586   3.873   8.804  0.0135  2.7930  0.2731
 8360SOL    HW236540   2.481   3.781   8.856  0.8605  0.4710 -1.3719
 8361SOL     OW36541   1.785   3.449   6.299 -0.4273  0.1917  0.1455
 8361SOL    HW136542   1.695   3.464   6.327  0.3120 -1.3062  3.3394
 8361SOL    HW236543   1.804   3.542   6.302  2.1552 -0.2972 -0.9724
 8362SOL     OW36544   0.638   4.414   1.846  0.6154  0.4477  0.0137
 8362SOL    HW136545   0.573   4.346   1.825  0.9730  0.4221 -1.0251
 8362SOL    HW236546   0.712   4.374   1.799 -2.0893 -1.4018 -2.7093
 8363SOL     OW36547   3.422   0.464   5.517 -0.3255 -0.0490 -0.1894
 8363SOL    HW136548   3.482   0.390   5.534 -0.3391 -0.0780 -0.2665
 8363SOL    HW236549   3.471   0.537   5.553  1.8752 -0.2279 -2.7893
 8364SOL     OW36550   3.067   3.431  10.874  0.0536 -0.4732  0.1033
 8364SOL    HW136551   3.149   3.411  10.918  1.8731  2.0726 -2.1639
 8364SOL    HW236552   3.074   3.368  10.803  1.0284  0.4375 -0.6122
 8365SOL     OW36553   3.292   4.204  11.219  0.0979 -0.0571  0.0277
 8365SOL    HW136554   3.315   4.223  11.309 -3.3324 -0.3152  0.9503
 8365SOL    HW236555   3.366   4.154  11.184 -0.7569 -0.2965 -1.4755
 8366SOL     OW36556   1.674   1.642   3.763  0.0106 -0.0044  0.1276
 8366SOL    HW136557   1.610   1.653   3.693 -0.2367 -1.1710  0.1640
 8366SOL    HW236558   1.727   1.721   3.749  0.0050 -0.0757 -0.2884
 8367SOL     OW36559   2.304   4.702   2.206  0.6121 -0.4299 -0.6883
 8367SOL    HW136560   2.335   4.647   2.278  0.4981  0.0262 -0.2875
 8367SOL    HW236561   2.294   0.065   2.252 -0.6081  0.0317 -1.8121
 8368SOL     OW36562   1.437   1.942   2.827 -0.6454 -0.4158 -0.4777
 8368SOL    HW136563   1.497   1.881   2.783 -0.2770 -0.5601  0.2280
 8368SOL    HW236564   1.488   2.022   2.837 -2.1291  0.4487  0.0355
 8369SOL     OW36565   1.371   1.058   4.676 -0.1200  0.2977  0.4443
 8369SOL    HW136566   1.436   1.128   4.665 -0.8080  0.7895 -0.5094
 8369SOL    HW236567   1.290   1.106   4.694 -0.1095  0.4658  0.0485
 8370SOL     OW36568   0.214   2.195  11.953  0.4606 -0.3395  0.0077
 8370SOL    HW136569   0.160   2.145  11.892 -0.2705 -0.5352  0.8076
 8370SOL    HW236570   0.258   2.261  11.899  0.8888  0.1363  0.9336
 8371SOL     OW36571   0.633   0.676   3.533 -0.2349 -0.5739  0.0937
 8371SOL    HW136572   0.675   0.591   3.543  2.8752  0.8094 -1.2617
 8371SOL    HW236573   0.546   0.644   3.510 -0.4542  0.8458 -1.0838
 8372SOL     OW36574   2.790   2.678   9.352 -0.2304 -0.1547 -0.7325
 8372SOL    HW136575   2.849   2.740   9.309  0.8465  0.7624  2.1030
 8372SOL    HW236576   2.797   2.705   9.443 -1.0033  0.1144 -0.7553
 8373SOL     OW36577   3.941   3.136   5.894 -0.3152  0.1730 -0.4911
 8373SOL    HW136578   3.966   3.202   5.829  0.4412  1.3320  0.9586
 8373SOL    HW236579   4.013   3.075   5.885 -0.6981 -0.1857 -1.1091
 8374SOL     OW36580   2.185   4.068   3.503 -0.2744 -0.5167 -0.3022
 8374SOL    HW136581   2.150   4.081   3.592  1.7988 -0.8595  0.5482
 8374SOL    HW236582   2.273   4.103   3.512 -0.0013 -0.9599 -1.3124
 8375SOL     OW36583   1.967   4.138  10.824 -0.1832 -0.2066 -0.8473
 8375SOL    HW136584   2.000   4.228  10.832  0.7887 -0.6228 -0.0958
 8375SOL    HW236585   1.874   4.157  10.815  0.2183  1.4141 -1.6651
 8376SOL     OW36586   1.757   1.297   8.532  0.8600  0.7080  0.3124
 8376SOL    HW136587   1.745   1.383   8.492  1.2644  1.3834  1.6728
 8376SOL    HW236588   1.748   1.309   8.626 -0.7738  0.6194  0.1701
 8377SOL     OW36589   2.883   1.122   8.693  0.1485 -0.4648 -0.5583
 8377SOL    HW136590   2.892   1.108   8.599 -0.8959 -3.1616 -0.2643
 8377SOL    HW236591   2.799   1.163   8.709  0.8579 -0.3346  2.9215
 8378SOL     OW36592   4.362   1.558  10.387  0.5375  0.2659 -0.6634
 8378SOL    HW136593   4.450   1.578  10.420 -0.5596  2.2844  1.0821
 8378SOL    HW236594   4.380   1.506  10.309  1.3434 -0.8280  0.2592
 8379SOL     OW36595   0.615   3.173  12.546  0.0257  0.9159  0.2394
 8379SOL    HW136596   0.637   3.083  12.570  0.0247  0.7931 -0.2287
 8379SOL    HW236597   0.520   3.171  12.543  0.1238 -0.4483 -1.6851
 8380SOL     OW36598   3.422   0.456  16.625 -0.1698  0.1477  0.1341
 8380SOL    HW136599   3.514   0.480  16.623  0.5384 -2.4353  1.7225
 8380SOL    HW236600   3.440   0.373  16.669 -1.4520 -0.1511  0.1042
 8381SOL     OW36601   0.487   2.037   4.295  0.0849  0.1473 -0.1495
 8381SOL    HW136602   0.529   2.074   4.373 -0.2640 -1.4082  0.7902
 8381SOL    HW236603   0.561   2.054   4.237  1.1633 -1.1601  0.8461
 8382SOL     OW36604   1.083   2.982   2.476 -0.9835 -0.1219 -0.6258
 8382SOL    HW136605   1.053   2.892   2.466 -1.8055  0.0718  0.0982
 8382SOL    HW236606   1.001   3.025   2.451 -0.2422  0.4751 -2.0664
 8383SOL     OW36607   1.790   2.508   7.661 -0.1833  0.0067 -0.0233
 8383SOL    HW136608   1.752   2.420   7.657  1.8051 -0.8985  1.2128
 8383SOL    HW236609   1.786   2.532   7.754  0.6939 -0.5000  0.1458
 8384SOL     OW36610   0.215   0.756   5.122  0.2528  0.0685 -0.6961
 8384SOL    HW136611   0.132   0.790   5.155  0.0112  0.4383 -1.6893
 8384SOL    HW236612   0.191   0.683   5.065 -1.1414 -1.1455  1.4689
 8385SOL     OW36613   1.289   0.148   1.093 -0.1418 -0.3796  0.3129
 8385SOL    HW136614   1.348   0.072   1.090  1.4586  0.8522  0.8182
 8385SOL    HW236615   1.347   0.207   1.046  1.0834 -0.6299  1.5135
 8386SOL     OW36616   1.834   0.620   9.508  0.0741  0.5838  0.3992
 8386SOL    HW136617   1.869   0.682   9.444  0.6283 -0.9821 -0.7936
 8386SOL    HW236618   1.915   0.583   9.542 -0.6374  0.0882  1.5236
 8387SOL     OW36619   3.891   0.226   8.227 -0.4780 -0.2382 -0.5783
 8387SOL    HW136620   3.982   0.228   8.256 -1.1470  0.6587  1.4403
 8387SOL    HW236621   3.853   0.286   8.291  0.3348 -0.4900  0.1435
 8388SOL     OW36622   3.590   0.609  12.013 -0.4401 -0.5955 -0.1867
 8388SOL    HW136623   3.678   0.582  11.984  0.7723  4.3344 -1.1340
 8388SOL    HW236624   3.548   0.526  11.989  1.9670 -1.0261 -3.0231
 8389SOL     OW36625   0.378   4.062   6.821 -0.3366 -0.1980  0.1761
 8389SOL    HW136626   0.325   4.000   6.871 -0.4742  1.8330  2.5666
 8389SOL    HW236627   0.359   4.039   6.730 -0.9080 -1.4059  0.6039
 8390SOL     OW36628   3.321   2.955   2.246  0.1587 -0.3043  0.2940
 8390SOL    HW136629   3.248   2.935   2.305 -0.1456  3.0093  1.0374
 8390SOL    HW236630   3.352   2.866   2.229 -2.9057 -0.7053 -3.3131
 8391SOL     OW36631   3.591   1.617   4.757 -0.6367  0.5605  0.1802
 8391SOL    HW136632   3.680   1.593   4.730  0.2197  2.2056  1.4955
 8391SOL    HW236633   3.562   1.678   4.689  0.7275  1.9850  0.8625
 8392SOL     OW36634   3.497   4.573   2.798 -0.0566 -0.4389 -0.1775
 8392SOL    HW136635   3.592   4.565   2.791 -0.1071 -3.0782  1.8347
 8392SOL    HW236636   3.483   4.645   2.737  1.1395  0.9099  1.1411
 8393SOL     OW36637   2.681   3.097   6.646 -0.4108 -0.5547  0.0303
 8393SOL    HW136638   2.742   3.169   6.630  2.1046 -2.4284  1.2942
 8393SOL    HW236639   2.695   3.058   6.560  0.7941 -2.3778  1.0647
 8394SOL     OW36640   2.567   0.604   7.639  0.6127 -0.0919  0.5412
 8394SOL    HW136641   2.502   0.648   7.693 -1.8520 -1.0915 -1.6312
 8394SOL    HW236642   2.609   0.541   7.698 -1.0738 -3.2192 -1.5942
 8395SOL     OW36643   2.806   1.836   4.816 -0.0044 -0.0973 -0.0337
 8395SOL    HW136644   2.735   1.855   4.877  2.1019  1.9922  1.7651
 8395SOL    HW236645   2.878   1.858   4.875 -0.9261 -0.2790  1.1414
 8396SOL     OW36646   2.832   1.210   7.695 -0.5516  0.0384 -0.8632
 8396SOL    HW136647   2.765   1.153   7.659 -1.2253  0.2357  0.0795
 8396SOL    HW236648   2.914   1.162   7.683 -1.1606 -1.4614  1.0477
 8397SOL     OW36649   1.910   2.970   6.000 -0.3305 -0.3727 -0.3855
 8397SOL    HW136650   1.887   2.885   6.038  2.7680 -1.3986 -0.7929
 8397SOL    HW236651   1.867   2.959   5.916 -0.5752  0.4207 -0.3612
 8398SOL     OW36652   4.483   4.676  14.266  0.2801 -0.9031  0.4896
 8398SOL    HW136653   4.436   0.034  14.242 -0.2743 -0.9999  1.2665
 8398SOL    HW236654   4.452   4.663  14.355 -0.9174 -1.1097  0.0409
 8399SOL     OW36655   2.877   0.690   0.787  0.1454 -0.1515 -0.4301
 8399SOL    HW136656   2.924   0.618   0.829 -1.1192 -0.2897  0.7427
 8399SOL    HW236657   2.816   0.720   0.854  0.7484  0.4458 -0.1592
 8400SOL     OW36658   2.849   1.200   7.285 -0.4247  0.4595  0.6966
 8400SOL    HW136659   2.849   1.131   7.218 -3.4726  1.3499 -0.2063
 8400SOL    HW236660   2.938   1.191   7.321  1.3205  2.8162 -3.0046
 8401SOL     OW36661   3.695   1.377   8.664 -0.4214 -0.1233 -0.1656
 8401SOL    HW136662   3.700   1.323   8.743  1.4329  0.0870 -0.1242
 8401SOL    HW236663   3.602   1.376   8.644 -0.5764 -1.4370  0.5995
 8402SOL     OW36664   4.337   2.823   2.959  0.3609  0.1472 -0.1251
 8402SOL    HW136665   4.355   2.831   3.053 -0.5918 -2.4894  0.2943
 8402SOL    HW236666   4.417   2.860   2.923  0.0983  0.1432 -0.7079
 8403SOL     OW36667   4.145   1.160   6.179  0.2749  0.5180 -0.4054
 8403SOL    HW136668   4.076   1.177   6.114  0.9302 -1.1479 -1.5281
 8403SOL    HW236669   4.179   1.074   6.153 -0.9064  0.4080 -1.6008
 8404SOL     OW36670   1.285   1.353   3.188 -0.3455 -0.0903 -0.0786
 8404SOL    HW136671   1.380   1.343   3.180 -0.2122  0.1239  1.2809
 8404SOL    HW236672   1.255   1.286   3.127  0.3426  0.6342 -1.2191
 8405SOL     OW36673   4.339   1.396   7.376 -0.1769 -0.2137  0.2735
 8405SOL    HW136674   4.405   1.330   7.397  0.9171  1.3436  1.6757
 8405SOL    HW236675   4.260   1.360   7.418  0.4988 -0.3846  1.3919
 8406SOL     OW36676   2.233   0.815   5.617  0.1473  0.4196  0.1324
 8406SOL    HW136677   2.245   0.896   5.667  0.3201 -0.3731  1.3875
 8406SOL    HW236678   2.138   0.811   5.611  0.0955  1.0435  0.5260
 8407SOL     OW36679   1.751   4.460   4.017  0.1976 -0.1251  1.0156
 8407SOL    HW136680   1.718   4.510   3.942 -0.5793 -1.7051  0.2926
 8407SOL    HW236681   1.790   4.385   3.971  1.4054 -1.0637  3.5897
 8408SOL     OW36682   3.259   0.010  11.053  0.1454 -0.1047 -0.1686
 8408SOL    HW136683   3.235   0.052  10.971 -0.0992  0.5440  0.2362
 8408SOL    HW236684   3.355   0.002  11.051  0.0815 -1.7090  3.0105
 8409SOL     OW36685   3.935   2.250  12.787 -0.0937 -0.3396  0.2766
 8409SOL    HW136686   3.984   2.272  12.867  0.8948 -0.7869 -0.2092
 8409SOL    HW236687   3.983   2.180  12.744  2.1792  1.4414 -0.0544
 8410SOL     OW36688   3.015   0.416  16.132 -0.2354 -0.6851  0.1287
 8410SOL    HW136689   3.028   0.495  16.184 -1.8529  0.2913 -0.9719
 8410SOL    HW236690   3.025   0.466  16.050  0.2271 -0.9995 -0.0060
 8411SOL     OW36691   0.987   0.122   6.534 -0.1486 -0.1926  0.6235
 8411SOL    HW136692   0.907   0.106   6.483 -1.2926  2.6632  1.4777
 8411SOL    HW236693   0.948   0.146   6.618 -1.0488 -0.1460  0.1938
 8412SOL     OW36694   1.900   2.061   3.562 -0.0203 -0.1162  0.4234
 8412SOL    HW136695   1.905   2.045   3.468  2.3742 -0.9503  0.6869
 8412SOL    HW236696   1.920   2.154   3.573  2.7093 -0.6754  0.0826
 8413SOL     OW36697   4.573   4.457   7.472  0.0338 -0.3216  0.5516
 8413SOL    HW136698   4.570   4.550   7.491  0.1170  0.6213 -4.0495
 8413SOL    HW236699   4.660   4.441   7.435 -0.0334 -0.5730  0.5005
 8414SOL     OW36700   4.061   1.935  11.407 -0.2163 -0.1196 -0.4921
 8414SOL    HW136701   3.995   2.000  11.381 -1.4592 -0.7977  0.9793
 8414SOL    HW236702   4.003   1.861  11.426 -1.2014  0.6368 -0.5156
 8415SOL     OW36703   0.821   1.399   2.355 -0.1209 -0.3471 -0.5205
 8415SOL    HW136704   0.904   1.352   2.360 -0.6039 -1.0317  1.1083
 8415SOL    HW236705   0.825   1.447   2.272 -0.8896  3.1774  1.4712
 8416SOL     OW36706   4.246   0.553   4.392  0.3646 -0.2885  0.1143
 8416SOL    HW136707   4.340   0.533   4.397 -0.1109 -2.2899  1.2278
 8416SOL    HW236708   4.250   0.632   4.447  1.0840 -0.3353  0.1305
 8417SOL     OW36709   0.207   0.726  16.388 -0.2153 -0.1630  0.2004
 8417SOL    HW136710   0.253   0.656  16.434  1.2487  1.0991  0.6858
 8417SOL    HW236711   0.184   0.680  16.307  0.4725  1.8025 -1.1175
 8418SOL     OW36712   4.470   3.813   1.017 -0.0431 -0.0018  0.3734
 8418SOL    HW136713   4.504   3.759   0.946 -1.9672 -1.2083  0.3686
 8418SOL    HW236714   4.434   3.744   1.073  0.1026 -1.0102 -0.7782
 8419SOL     OW36715   3.572   2.063   4.668 -0.1057 -0.0010 -0.0472
 8419SOL    HW136716   3.654   2.055   4.717  1.3051  1.3012 -2.2089
 8419SOL    HW236717   3.545   2.152   4.693  2.2660 -0.2711  3.4404
 8420SOL     OW36718   0.845   1.216   6.208 -0.0131 -0.1199  0.1081
 8420SOL    HW136719   0.845   1.274   6.284  4.0225 -0.7314  0.5653
 8420SOL    HW236720   0.865   1.135   6.257 -2.8225 -0.8193  0.0812
 8421SOL     OW36721   1.125   1.445  11.636 -0.4126 -0.1707 -0.5316
 8421SOL    HW136722   1.048   1.443  11.579  0.7651 -1.5615 -2.0519
 8421SOL    HW236723   1.162   1.358  11.628  1.1231  0.5064 -0.7844
 8422SOL     OW36724   2.871   3.859   3.178  0.1927 -0.2815  0.4833
 8422SOL    HW136725   2.906   3.862   3.267  1.7089  0.1057 -0.1229
 8422SOL    HW236726   2.933   3.914   3.130 -0.9304  0.7739  0.2343
 8423SOL     OW36727   1.431   4.622   1.987 -0.0091  0.4309 -0.0997
 8423SOL    HW136728   1.525   4.612   1.972  0.0674  0.6562  0.2345
 8423SOL    HW236729   1.407   4.530   1.976 -2.2294  1.1202 -1.2081
 8424SOL     OW36730   1.723   4.194   3.888  0.1112  0.2593 -0.0173
 8424SOL    HW136731   1.712   4.110   3.843 -0.0673  0.0747  0.3681
 8424SOL    HW236732   1.633   4.225   3.895  0.7025  2.1907 -0.9034
 8425SOL     OW36733   4.096   0.525   6.876 -0.2637  0.1236 -0.2919
 8425SOL    HW136734   4.056   0.606   6.846 -2.2601  0.4694  3.3550
 8425SOL    HW236735   4.031   0.456   6.862  0.6458 -0.9062  0.6167
 8426SOL     OW36736   2.589   2.375   5.006  0.1984  0.2298  0.5009
 8426SOL    HW136737   2.673   2.421   4.994 -0.8241  2.2468  1.0238
 8426SOL    HW236738   2.572   2.331   4.923 -1.5777 -0.0591  1.0222
 8427SOL     OW36739   2.994   3.198   8.469 -0.5303  0.2184 -0.2508
 8427SOL    HW136740   2.999   3.113   8.426  1.1309 -1.5166  3.4728
 8427SOL    HW236741   3.030   3.251   8.397 -1.7849  3.0526  1.2180
 8428SOL     OW36742   1.123   1.003   5.142 -0.6073 -0.3112 -0.1167
 8428SOL    HW136743   1.125   1.095   5.168 -0.5094 -0.2252 -0.4226
 8428SOL    HW236744   1.214   0.990   5.117 -0.8452  0.8128 -1.5419
 8429SOL     OW36745   4.308   3.071   4.366  0.5555 -0.1572 -0.0065
 8429SOL    HW136746   4.265   3.156   4.373 -1.0689 -1.0467  0.6736
 8429SOL    HW236747   4.244   3.000   4.378 -1.6701  1.6991 -0.9767
 8430SOL     OW36748   4.489   4.080   1.018 -0.0088 -0.1777  0.3615
 8430SOL    HW136749   4.480   3.986   1.003 -2.7863 -0.0056  0.7687
 8430SOL    HW236750   4.472   4.105   0.927  3.0437  2.0695  0.4080
 8431SOL     OW36751   1.454   2.722   3.981 -0.1904  0.1273 -0.3820
 8431SOL    HW136752   1.461   2.734   4.076  0.2062  0.0740 -0.4078
 8431SOL    HW236753   1.522   2.657   3.967  0.9858  1.3682 -0.3648
 8432SOL     OW36754   2.296   4.107   4.214  0.7922  0.9864  0.4454
 8432SOL    HW136755   2.323   4.028   4.259 -2.1349  0.2809  0.9354
 8432SOL    HW236756   2.210   4.130   4.248  0.7651 -0.6034  1.4402
 8433SOL     OW36757   1.992   2.003   3.318 -0.2204 -0.4203  0.0170
 8433SOL    HW136758   2.081   1.989   3.349 -0.0325 -0.2500 -0.4421
 8433SOL    HW236759   2.008   2.064   3.246 -4.8689  0.4450 -0.2556
 8434SOL     OW36760   4.135   4.043   1.646  0.3417  0.4526  0.0929
 8434SOL    HW136761   4.083   4.124   1.643  0.5561  0.6236  1.3128
 8434SOL    HW236762   4.218   4.071   1.684  1.9142 -1.7121 -1.7566
 8435SOL     OW36763   0.006   0.589   1.773  0.1275 -0.0499 -0.0010
 8435SOL    HW136764   4.653   0.586   1.713 -0.6377  0.0614  0.9351
 8435SOL    HW236765   4.705   0.659   1.835  2.4348  2.8185 -2.4242
 8436SOL     OW36766   3.206   3.379   3.749 -0.6950  0.1570 -0.0962
 8436SOL    HW136767   3.206   3.288   3.780  1.8101  0.1541 -0.0989
 8436SOL    HW236768   3.176   3.422   3.829 -0.4392 -1.4202  0.8510
 8437SOL     OW36769   2.328   3.006   6.139 -0.3181  0.8311  0.0071
 8437SOL    HW136770   2.272   2.960   6.077  0.5516  0.3958 -0.4510
 8437SOL    HW236771   2.405   3.042   6.095 -1.1873  0.6103 -1.7189
 8438SOL     OW36772   3.511   4.356   5.540  0.1710 -0.5340 -0.1352
 8438SOL    HW136773   3.601   4.385   5.551  0.9530 -2.8022 -0.4527
 8438SOL    HW236774   3.503   4.361   5.445  0.9275 -3.3267 -0.3585
 8439SOL     OW36775   2.819   2.837  10.782  0.1744  0.3731  0.3645
 8439SOL    HW136776   2.827   2.775  10.855 -1.5081 -1.9709 -1.4403
 8439SOL    HW236777   2.742   2.889  10.807 -1.6607 -2.6428  0.9555
 8440SOL     OW36778   3.823   2.429   5.894 -0.4588 -0.3192  0.0387
 8440SOL    HW136779   3.881   2.496   5.857 -0.1605  0.8142  2.5640
 8440SOL    HW236780   3.869   2.350   5.866  1.1263  0.7860 -0.4544
 8441SOL     OW36781   4.598   1.895  12.971 -0.2815  0.7279  0.2377
 8441SOL    HW136782   4.583   1.972  13.026  0.4164  0.2869  1.0228
 8441SOL    HW236783   4.568   1.917  12.882 -0.3101  0.5814  0.2123
 8442SOL     OW36784   3.300   3.729   4.234 -0.4715  0.1482  0.2258
 8442SOL    HW136785   3.278   3.822   4.229 -0.3433  0.1216 -0.9874
 8442SOL    HW236786   3.389   3.736   4.201 -0.4341 -0.1209  0.2748
 8443SOL     OW36787   4.454   1.677   0.112  0.0769  0.1477 -0.6679
 8443SOL    HW136788   4.399   1.687   0.189 -0.4411  0.8914 -1.1330
 8443SOL    HW236789   4.393   1.707   0.044 -0.2129 -0.2519 -0.5750
 8444SOL     OW36790   2.846   3.622  16.417 -0.1881  0.5492 -0.0177
 8444SOL    HW136791   2.867   3.561  16.347  1.6036  0.3411  0.7002
 8444SOL    HW236792   2.922   3.602  16.471  0.6161  0.0251 -1.3472
 8445SOL     OW36793   1.800   2.117  15.447 -0.0919 -0.3693  0.1703
 8445SOL    HW136794   1.887   2.098  15.411 -0.0464 -0.7645  0.4998
 8445SOL    HW236795   1.801   2.042  15.506  1.0817 -1.6912 -1.5254
 8446SOL     OW36796   2.198   0.944   8.100  0.6350  0.0113  0.0101
 8446SOL    HW136797   2.141   0.896   8.041  2.2872  0.6626 -2.1286
 8446SOL    HW236798   2.248   0.873   8.141  0.4187  0.1618  0.5438
 8447SOL     OW36799   4.540   3.011   5.994  0.5850 -0.3198 -0.4138
 8447SOL    HW136800   4.543   2.923   6.032 -0.2936  0.6684  1.9303
 8447SOL    HW236801   4.567   2.987   5.905  1.8343 -0.4152 -0.0176
 8448SOL     OW36802   4.474   0.400   8.046 -0.4294 -0.0666 -0.1560
 8448SOL    HW136803   4.493   0.494   8.052 -1.5613  0.0252  1.7368
 8448SOL    HW236804   4.497   0.389   7.953  1.0247  1.1163  0.0655
 8449SOL     OW36805   0.645   1.057   8.354 -0.3643  0.0636 -0.4120
 8449SOL    HW136806   0.688   0.973   8.338 -2.5584 -0.4903 -3.4770
 8449SOL    HW236807   0.561   1.036   8.312  0.4029 -0.7185 -1.5498
 8450SOL     OW36808   1.025   4.075   6.637  0.5773 -0.7271 -0.1281
 8450SOL    HW136809   0.940   4.043   6.668 -0.2614  0.5269 -1.1684
 8450SOL    HW236810   1.040   4.138   6.707  0.4018 -0.1407 -0.6153
 8451SOL     OW36811   3.978   0.223   7.111 -0.4778 -0.4297 -0.2156
 8451SOL    HW136812   3.960   0.247   7.021 -0.7160  0.5095  0.0869
 8451SOL    HW236813   4.027   0.299   7.143  1.7758 -0.4218 -3.7736
 8452SOL     OW36814   0.201   2.608  16.428 -0.3073  0.0473  0.1879
 8452SOL    HW136815   0.145   2.620  16.505  0.3927  1.9701  0.3793
 8452SOL    HW236816   0.138   2.615  16.356 -3.4872 -1.8862  2.7700
 8453SOL     OW36817   1.588   2.040   7.379 -0.3629 -0.2333 -0.4739
 8453SOL    HW136818   1.649   2.012   7.448 -1.3876  0.8594  0.8926
 8453SOL    HW236819   1.550   2.125   7.404 -1.1773 -0.4592 -0.9483
 8454SOL     OW36820   1.777   2.871   2.203 -0.2490  0.4647 -0.1233
 8454SOL    HW136821   1.847   2.812   2.176 -1.6417 -0.3175 -2.0702
 8454SOL    HW236822   1.817   2.894   2.287  2.6863  1.9059 -1.9193
 8455SOL     OW36823   2.622   2.830   7.681  0.5658  0.7785 -0.0525
 8455SOL    HW136824   2.654   2.746   7.714 -1.0686  0.0088 -0.4115
 8455SOL    HW236825   2.661   2.888   7.746  1.5704 -1.1805  1.0893
 8456SOL     OW36826   4.407   3.634   7.328  0.6223 -0.9124 -0.0887
 8456SOL    HW136827   4.441   3.691   7.397  1.1355 -1.0616 -0.2199
 8456SOL    HW236828   4.445   3.668   7.247  1.3367 -0.9709  0.2238
 8457SOL     OW36829   2.537   3.311   6.454 -0.1799  0.1294 -0.4204
 8457SOL    HW136830   2.511   3.265   6.535  0.6100  0.4334  0.0014
 8457SOL    HW236831   2.449   3.340   6.429 -0.7260 -0.9466  0.2587
 8458SOL     OW36832   3.544   4.394   4.464 -0.0383 -0.4603  0.6604
 8458SOL    HW136833   3.599   4.466   4.496  1.1346 -0.5181 -1.2397
 8458SOL    HW236834   3.587   4.376   4.381 -0.8948 -1.0888  0.3481
 8459SOL     OW36835   3.681   3.940   1.529  0.2826 -0.3486 -0.6265
 8459SOL    HW136836   3.669   3.964   1.437  0.2139  2.0043 -0.0249
 8459SOL    HW236837   3.776   3.932   1.539  0.0950  0.1079  1.6756
 8460SOL     OW36838   0.676   0.709   2.254 -0.4035  0.1156 -0.2086
 8460SOL    HW136839   0.584   0.684   2.262 -0.8790  2.1360  0.5422
 8460SOL    HW236840   0.668   0.804   2.255  1.7166  0.2864  0.9048
 8461SOL     OW36841   2.017   4.068   9.348  0.6366 -0.3282 -0.1429
 8461SOL    HW136842   2.016   4.159   9.376  1.2853 -0.7558  1.3002
 8461SOL    HW236843   2.109   4.047   9.330  1.6969  2.4062  1.9655
 8462SOL     OW36844   2.464   3.501   2.214 -0.2871 -0.2567 -0.3292
 8462SOL    HW136845   2.435   3.437   2.279 -0.5656  1.5338  1.3475
 8462SOL    HW236846   2.485   3.443   2.142  1.2103  0.0674 -0.1471
 8463SOL     OW36847   3.460   3.166   3.769 -0.1773 -0.3787  0.2825
 8463SOL    HW136848   3.452   3.092   3.708  0.3325 -0.7699  0.6883
 8463SOL    HW236849   3.522   3.123   3.828  0.7568  3.0260  1.8059
 8464SOL     OW36850   3.365   0.542   0.627  0.2477 -0.2764  0.2311
 8464SOL    HW136851   3.445   0.562   0.675  0.5926 -1.0088 -0.0207
 8464SOL    HW236852   3.384   0.449   0.609 -3.6476 -0.6779 -1.7716
 8465SOL     OW36853   1.410   3.957  14.900  0.1588  0.3411  0.0783
 8465SOL    HW136854   1.352   3.888  14.933  0.0649 -0.2848 -1.4019
 8465SOL    HW236855   1.491   3.952  14.951 -0.4494  1.4765  1.1628
 8466SOL     OW36856   3.237   2.491   2.372  0.0192 -0.5905 -0.2825
 8466SOL    HW136857   3.177   2.430   2.330 -0.9814 -0.4345  0.9201
 8466SOL    HW236858   3.220   2.467   2.463 -1.0192 -3.4028 -1.2177
 8467SOL     OW36859   2.001   3.007   5.534 -0.0930  0.1657 -0.3455
 8467SOL    HW136860   2.062   2.961   5.592 -0.3732 -0.7650 -0.7874
 8467SOL    HW236861   2.061   3.077   5.510 -1.3003  2.2976  2.8243
 8468SOL     OW36862   0.956   0.655   6.833 -0.2877 -0.6367 -0.1834
 8468SOL    HW136863   0.995   0.676   6.918 -2.9077  0.4036  0.7468
 8468SOL    HW236864   0.894   0.586   6.856 -0.5875 -0.0229  0.7984
 8469SOL     OW36865   3.471   3.499   9.509 -0.0202 -0.2639 -0.5753
 8469SOL    HW136866   3.444   3.409   9.489  1.8958 -1.1759  1.0283
 8469SOL    HW236867   3.408   3.521   9.578 -2.0000 -4.2926 -1.0413
 8470SOL     OW36868   0.521   0.028  10.614 -0.2092  0.2801 -0.6177
 8470SOL    HW136869   0.443   0.056  10.662  0.3737  1.1712 -0.2030
 8470SOL    HW236870   0.521   0.100  10.550  0.4940  1.6167  0.9021
 8471SOL     OW36871   4.150   4.632  12.216 -0.3574  0.7704 -0.0407
 8471SOL    HW136872   4.221   4.660  12.274  2.2508  1.0150 -3.3988
 8471SOL    HW236873   4.075   4.614  12.273  0.6309 -1.5378  0.5279
 8472SOL     OW36874   4.102   2.691  14.769 -0.1493  0.8636 -0.5840
 8472SOL    HW136875   4.124   2.635  14.696 -0.1804  1.4936 -1.0763
 8472SOL    HW236876   4.033   2.640  14.811 -2.3258  2.6111 -2.0848
 8473SOL     OW36877   2.731   0.766   7.508 -0.0717  0.2458 -0.1281
 8473SOL    HW136878   2.682   0.689   7.536  1.9508 -0.6816  0.9347
 8473SOL    HW236879   2.819   0.738   7.536 -1.3885 -2.8290  0.9280
 8474SOL     OW36880   4.099   0.489  11.201 -0.4236  0.3161  0.0275
 8474SOL    HW136881   4.143   0.486  11.286  0.0056 -1.8887 -0.2915
 8474SOL    HW236882   4.171   0.532  11.153 -0.5315  1.1993  0.6527
 8475SOL     OW36883   1.724   1.827   7.586 -0.5821 -0.8101 -0.3805
 8475SOL    HW136884   1.784   1.802   7.656 -2.2653 -0.6089  1.1214
 8475SOL    HW236885   1.633   1.812   7.613 -0.3614 -2.9967 -0.8562
 8476SOL     OW36886   2.309   0.970  15.065 -0.2685 -0.2647 -0.2178
 8476SOL    HW136887   2.359   0.893  15.092  0.5516  1.5830  3.5251
 8476SOL    HW236888   2.231   0.956  15.120  1.2978 -1.1024  1.7961
 8477SOL     OW36889   1.019   3.731  14.467  0.1435  0.1718 -0.0262
 8477SOL    HW136890   1.033   3.805  14.409 -1.4827 -0.4961 -1.2685
 8477SOL    HW236891   0.980   3.780  14.540  1.9101  0.8952  0.4250
 8478SOL     OW36892   2.345   3.442   5.349  0.0734 -0.1297 -0.0471
 8478SOL    HW136893   2.321   3.362   5.395  1.4699  0.1384  1.1530
 8478SOL    HW236894   2.412   3.478   5.408 -1.0326 -1.2852  1.8872
 8479SOL     OW36895   1.467   1.625   4.498 -0.2612 -0.1739 -0.4038
 8479SOL    HW136896   1.424   1.606   4.415 -2.5844  1.3923  0.4447
 8479SOL    HW236897   1.425   1.568   4.562 -0.1460  1.3976  1.0725
 8480SOL     OW36898   3.485   4.653   9.168  0.3336 -0.2487  0.0283
 8480SOL    HW136899   3.391   4.664   9.158  0.1817 -1.1844  0.5450
 8480SOL    HW236900   3.515   4.675   9.079 -2.7970 -0.1925 -0.9908
 8481SOL     OW36901   0.336   3.070   8.732 -0.1513 -0.4162  0.3975
 8481SOL    HW136902   0.250   3.057   8.692 -0.4507  2.7335  0.0009
 8481SOL    HW236903   0.350   3.162   8.709  0.5905 -0.6479 -0.0762
 8482SOL     OW36904   2.582   4.638   3.550 -0.2755 -0.2547 -0.0094
 8482SOL    HW136905   2.633   4.579   3.494  2.4625  1.1639  1.0023
 8482SOL    HW236906   2.503   4.662   3.501  0.4458 -0.1136 -1.1122
 8483SOL     OW36907   2.703   1.182   3.680  0.3867  0.1003  1.0836
 8483SOL    HW136908   2.729   1.138   3.599 -0.9287 -0.7340  1.0959
 8483SOL    HW236909   2.618   1.139   3.694 -0.4108  1.6571  1.0581
 8484SOL     OW36910   3.536   4.194  12.271  0.1559 -0.3678 -0.2384
 8484SOL    HW136911   3.470   4.174  12.204  0.8985 -0.4986 -0.9325
 8484SOL    HW236912   3.561   4.281  12.240  0.2575  0.7475  2.9495
 8485SOL     OW36913   4.073   2.092   5.074 -0.1250  0.3522 -0.0369
 8485SOL    HW136914   4.088   2.002   5.102  1.7061  1.1701  1.6364
 8485SOL    HW236915   4.022   2.083   4.993 -0.3072 -0.4206  0.1662
 8486SOL     OW36916   2.896   3.827   3.437 -0.2482 -0.6844 -0.0433
 8486SOL    HW136917   2.808   3.808   3.468  1.0535 -3.7085  1.8776
 8486SOL    HW236918   2.948   3.758   3.480 -0.0956 -0.5808 -0.0615
 8487SOL     OW36919   0.507   1.314  16.574  0.1116 -0.6246 -0.5965
 8487SOL    HW136920   0.568   1.244  16.554 -0.8858 -1.2264 -1.5746
 8487SOL    HW236921   0.541   1.389  16.526  0.8067 -0.7708 -0.3284
 8488SOL     OW36922   1.869   3.997   6.115 -0.5554  0.5674  0.7528
 8488SOL    HW136923   1.935   4.004   6.046 -1.3549 -0.9867 -0.1788
 8488SOL    HW236924   1.875   3.903   6.131  2.5976  0.5790 -0.2791
 8489SOL     OW36925   0.945   4.377   6.563  0.3394 -0.4615  0.2704
 8489SOL    HW136926   0.976   4.438   6.630 -0.8699  1.5673 -1.0035
 8489SOL    HW236927   0.875   4.325   6.601 -1.2322  0.1094 -1.8569
 8490SOL     OW36928   1.620   3.201   5.547  0.7116  0.1009  0.0199
 8490SOL    HW136929   1.552   3.183   5.482 -0.8299  1.4937  1.2539
 8490SOL    HW236930   1.616   3.126   5.607 -0.1705  1.4916  1.6935
 8491SOL     OW36931   3.581   4.696   6.274  0.5344 -0.0683 -0.3381
 8491SOL    HW136932   3.665   4.690   6.319  0.9399 -1.0413 -1.2341
 8491SOL    HW236933   3.616   4.696   6.184  0.7249 -0.6926 -0.2657
 8492SOL     OW36934   3.623   3.731   8.048 -0.1153  0.1729 -0.0043
 8492SOL    HW136935   3.588   3.774   8.127  2.4450  1.2057  0.5783
 8492SOL    HW236936   3.695   3.678   8.081 -0.1539  0.5486  0.6983
 8493SOL     OW36937   0.204   1.227   5.988  0.4907  0.4116 -0.2697
 8493SOL    HW136938   0.248   1.169   6.050  1.5309  0.6841 -0.7482
 8493SOL    HW236939   0.198   1.302   6.046 -0.5895  0.4976 -0.4964
 8494SOL     OW36940   0.399   4.603   3.996 -0.8591  0.1756 -0.2083
 8494SOL    HW136941   0.457   4.549   3.942  0.0925 -1.1832  2.1994
 8494SOL    HW236942   0.386   4.675   3.933  1.8190 -0.3267 -1.3806
 8495SOL     OW36943   0.357   2.041   3.198 -0.3110  0.2662  0.5715
 8495SOL    HW136944   0.353   2.122   3.147  1.2911 -0.0945 -0.1041
 8495SOL    HW236945   0.394   2.074   3.280 -0.5847 -2.0415  1.6053
 8496SOL     OW36946   3.802   0.772   8.510 -0.5049  0.0606  0.0974
 8496SOL    HW136947   3.732   0.835   8.492 -2.2195 -2.0538 -0.5983
 8496SOL    HW236948   3.769   0.763   8.600 -0.2351  2.0601  0.3925
 8497SOL     OW36949   1.372   3.595   7.308 -0.2363 -0.2570 -0.2357
 8497SOL    HW136950   1.379   3.557   7.220 -0.4898  1.2116 -0.8842
 8497SOL    HW236951   1.321   3.671   7.282  0.1221  0.1857  0.3694
 8498SOL     OW36952   0.406   0.216  11.529 -0.4043  0.3483 -0.4475
 8498SOL    HW136953   0.488   0.168  11.546  0.8323  2.4029 -0.5813
 8498SOL    HW236954   0.345   0.182  11.593  0.1876 -0.5615 -0.3595
 8499SOL     OW36955   4.309   1.762   8.099 -0.1152  0.1783  0.4372
 8499SOL    HW136956   4.354   1.839   8.064  1.3387 -1.3637 -1.0507
 8499SOL    HW236957   4.272   1.802   8.178 -0.0532 -1.4629  1.2974
 8500SOL     OW36958   1.207   3.913   8.469  0.7356  0.4806 -0.1380
 8500SOL    HW136959   1.113   3.915   8.447  1.4567  1.3422 -3.1441
 8500SOL    HW236960   1.211   4.000   8.509 -0.4419 -0.2052  1.4849
 8501SOL     OW36961   2.424   2.246  14.080 -0.3849 -0.3266  0.2173
 8501SOL    HW136962   2.418   2.208  14.168 -1.9821  1.3075  0.8000
 8501SOL    HW236963   2.336   2.280  14.066 -0.2801 -0.2268 -0.1876
 8502SOL     OW36964   3.877   4.650   6.927 -0.1480 -0.1624  0.1547
 8502SOL    HW136965   3.784   4.669   6.939  0.1369  0.5300  1.2353
 8502SOL    HW236966   3.878   4.560   6.959  1.0018  0.1986  1.1189
 8503SOL     OW36967   1.902   1.785   5.851  0.1901 -0.3626 -0.4790
 8503SOL    HW136968   1.973   1.722   5.865  0.8806  0.8270  1.2611
 8503SOL    HW236969   1.948   1.857   5.894 -0.3210  0.3777 -1.1702
 8504SOL     OW36970   2.018   2.633  13.203 -0.0581 -0.5014 -0.7902
 8504SOL    HW136971   2.069   2.695  13.150  0.0520 -0.9146 -1.1725
 8504SOL    HW236972   1.957   2.690  13.249  1.2889  0.7920 -0.5878
 8505SOL     OW36973   0.209   4.353   2.314  0.2212  0.0660  0.4161
 8505SOL    HW136974   0.281   4.388   2.367 -0.4708  2.1409 -0.0271
 8505SOL    HW236975   0.187   4.278   2.368 -1.1339  1.3082  1.5719
 8506SOL     OW36976   2.900   0.421   6.828  0.7027 -0.7866 -0.6032
 8506SOL    HW136977   2.837   0.404   6.899  0.5312  1.4655 -0.2204
 8506SOL    HW236978   2.982   0.380   6.856 -0.2447 -3.3507 -1.5430
 8507SOL     OW36979   0.658   0.225   7.805 -0.0152  0.0375  0.5327
 8507SOL    HW136980   0.643   0.243   7.898  2.9114  0.8116  0.8609
 8507SOL    HW236981   0.576   0.187   7.775 -0.3254 -1.0373  2.7523
 8508SOL     OW36982   4.459   1.023   4.446 -0.2158  0.0420 -0.0040
 8508SOL    HW136983   4.386   1.057   4.393 -1.1572 -0.7400  0.7983
 8508SOL    HW236984   4.518   1.095   4.426 -1.7766  1.5191  0.6619
 8509SOL     OW36985   3.695   2.040  16.898 -0.6185 -0.1366 -0.1183
 8509SOL    HW136986   3.695   2.136  16.893 -1.7615  0.0753  3.7405
 8509SOL    HW236987   3.629   2.021  16.964 -0.3435 -2.1961 -0.4305
 8510SOL     OW36988   2.111   3.121   4.362 -0.2677  0.1924 -0.3793
 8510SOL    HW136989   2.158   3.145   4.282  0.1452  2.3002  0.5092
 8510SOL    HW236990   2.126   3.196   4.419  1.3229 -1.0477  0.8171
 8511SOL     OW36991   4.246   1.415   3.425  0.2256  0.0824  0.6868
 8511SOL    HW136992   4.276   1.327   3.399  2.3825  1.3423 -1.0925
 8511SOL    HW236993   4.326   1.466   3.436  2.2514 -2.7269 -1.0045
 8512SOL     OW36994   4.091   2.536   8.982  0.2225  0.1795 -0.0165
 8512SOL    HW136995   4.005   2.544   8.941  0.0470  1.8263  0.6778
 8512SOL    HW236996   4.092   2.443   9.006 -0.1695 -0.1996 -1.5009
 8513SOL     OW36997   3.166   2.240   4.576 -0.2302  0.2343  0.4736
 8513SOL    HW136998   3.152   2.260   4.483 -0.5492 -0.5100  0.3591
 8513SOL    HW236999   3.201   2.151   4.571  0.2699  0.4728 -0.2453
 8514SOL     OW37000   0.637   1.980  11.445 -0.6755  0.0478  0.1019
 8514SOL    HW137001   0.546   2.009  11.455 -0.8001  0.4390 -2.1784
 8514SOL    HW237002   0.645   1.932  11.527 -0.5011  1.7822  1.0966
 8515SOL     OW37003   2.007   1.021   3.574 -0.0218 -0.2215 -0.2770
 8515SOL    HW137004   2.050   0.955   3.519  2.0940  0.2248  0.8704
 8515SOL    HW237005   1.921   0.982   3.594 -0.6866  0.7267 -1.2987
 8516SOL     OW37006   1.938   1.590   3.610 -0.5300 -0.0519 -0.0054
 8516SOL    HW137007   1.945   1.547   3.695  0.9909  0.9319  0.3715
 8516SOL    HW237008   1.927   1.679   3.642 -2.3570  0.3245 -1.6988
 8517SOL     OW37009   3.918   4.586   8.859 -0.1189  0.5144  0.5217
 8517SOL    HW137010   3.954   4.499   8.842 -1.3429 -0.3981  2.5452
 8517SOL    HW237011   3.991   4.645   8.844  0.9463 -1.2659 -1.4200
 8518SOL     OW37012   1.604   3.789   7.085  0.0620 -0.2474  0.2654
 8518SOL    HW137013   1.542   3.730   7.043  1.9177 -2.7600  1.0406
 8518SOL    HW237014   1.556   3.870   7.105 -1.1378 -0.8944 -0.0095
 8519SOL     OW37015   0.837   0.890  11.012  0.2737 -0.9154  0.2525
 8519SOL    HW137016   0.750   0.851  11.004  0.0455  0.0746 -1.9169
 8519SOL    HW237017   0.814   0.958  11.076 -0.8281  1.1443 -2.3428
 8520SOL     OW37018   4.433   0.502   7.446  0.4816  0.2381 -0.5665
 8520SOL    HW137019   4.506   0.490   7.507  0.6661 -1.2600 -1.0865
 8520SOL    HW237020   4.398   0.414   7.443 -1.1012  0.8843 -1.0132
 8521SOL     OW37021   2.059   1.728   6.533  0.1083 -0.2454 -0.2374
 8521SOL    HW137022   2.153   1.733   6.549  0.3617 -1.1084 -1.5096
 8521SOL    HW237023   2.049   1.747   6.440  0.0946  0.0721 -0.1723
 8522SOL     OW37024   0.613   2.169  17.611 -0.0741  0.2493 -0.3874
 8522SOL    HW137025   0.526   2.157  17.573 -0.3226  1.1993 -0.1335
 8522SOL    HW237026   0.665   2.172  17.531 -0.6553 -2.4100 -0.8597
 8523SOL     OW37027   2.134   1.567   5.178  0.1747 -0.3191  0.3759
 8523SOL    HW137028   2.059   1.511   5.196 -0.0627  0.1193  0.7604
 8523SOL    HW237029   2.093   1.652   5.193  0.2648 -0.2480  0.2253
 8524SOL     OW37030   0.606   3.894  16.061 -0.3395 -0.2209 -0.1422
 8524SOL    HW137031   0.514   3.901  16.038 -0.3451  0.5328  0.1085
 8524SOL    HW237032   0.601   3.956  16.133  0.0012 -1.4170  0.9000
 8525SOL     OW37033   3.775   4.568   5.096 -0.2175 -0.0274  0.3101
 8525SOL    HW137034   3.837   4.641   5.101 -1.0592  0.8180 -1.1877
 8525SOL    HW237035   3.748   4.563   5.004 -0.9876 -0.4006  0.5507
 8526SOL     OW37036   2.706   4.689   6.385  0.2575  0.5092 -0.2106
 8526SOL    HW137037   2.621   4.660   6.419 -0.2640  1.1585 -0.9499
 8526SOL    HW237038   2.689   0.059   6.363  1.2941  0.8461  0.3990
 8527SOL     OW37039   1.004   1.761  12.072  0.6167 -0.1563  0.4551
 8527SOL    HW137040   1.036   1.842  12.112 -1.1415  0.0476  1.4366
 8527SOL    HW237041   1.018   1.697  12.141  2.1670  0.4571  0.7179
 8528SOL     OW37042   1.954   0.431  16.787 -0.2180 -0.5252 -0.0430
 8528SOL    HW137043   1.969   0.353  16.734 -0.8294 -0.9279  0.3908
 8528SOL    HW237044   1.883   0.478  16.743 -1.0071  1.2685  3.1265
 8529SOL     OW37045   3.985   4.105   2.880  0.0548  0.5494  0.1826
 8529SOL    HW137046   4.025   4.142   2.802 -0.0813 -2.7118 -1.4274
 8529SOL    HW237047   4.055   4.080   2.941 -0.9211  0.2524  1.1966
 8530SOL     OW37048   0.640   3.409   4.130  0.4401 -0.3160  0.1608
 8530SOL    HW137049   0.698   3.334   4.116  0.5647 -0.2643  0.4039
 8530SOL    HW237050   0.648   3.412   4.225  0.6270  0.2988  0.1270
 8531SOL     OW37051   4.587   3.565   7.112  0.6124  0.2448  0.0810
 8531SOL    HW137052   4.621   3.538   7.026 -1.0596  2.3402 -1.2274
 8531SOL    HW237053   4.670   3.563   7.160  0.8335 -2.1867 -0.3953
 8532SOL     OW37054   0.169   1.901   5.388 -0.1507  0.1442 -0.3699
 8532SOL    HW137055   0.216   1.831   5.342  0.4466  0.9647 -1.0307
 8532SOL    HW237056   0.139   1.853   5.465  1.3436  1.1195  0.8174
 8533SOL     OW37057   4.643   0.982  17.342 -0.1009  0.0607  0.2431
 8533SOL    HW137058   4.651   1.021  17.255  1.0327  1.0276  0.7736
 8533SOL    HW237059   4.592   1.047  17.392 -1.4319 -0.7126 -0.1257
 8534SOL     OW37060   2.888   3.389   8.627 -0.7619 -0.0207  0.8801
 8534SOL    HW137061   2.914   3.301   8.601  1.8113  1.4963 -1.6791
 8534SOL    HW237062   2.795   3.387   8.603 -0.6736  2.1538  0.3390
 8535SOL     OW37063   4.150   1.184   1.702  0.1361 -0.0453  0.4073
 8535SOL    HW137064   4.182   1.094   1.714 -1.5366 -0.9655 -1.9893
 8535SOL    HW237065   4.135   1.198   1.796 -1.4908  2.2992 -0.2077
 8536SOL     OW37066   2.652   3.660  10.954  0.1433 -0.3040  0.1420
 8536SOL    HW137067   2.725   3.670  11.014  1.5015 -1.1212 -1.3515
 8536SOL    HW237068   2.581   3.677  11.015  1.1306  1.0210  0.9317
 8537SOL     OW37069   4.180   3.170   2.530 -0.3494 -0.2066  0.5152
 8537SOL    HW137070   4.094   3.183   2.568  0.5282  1.0989  2.0469
 8537SOL    HW237071   4.232   3.155   2.609  1.3492  0.4890 -0.4725
 8538SOL     OW37072   3.355   0.758   6.613 -0.4841 -0.4353  0.3355
 8538SOL    HW137073   3.385   0.848   6.596 -0.3095 -0.2434  1.6622
 8538SOL    HW237074   3.437   0.718   6.584 -1.2154 -1.2022 -0.6798
 8539SOL     OW37075   0.785   0.414   6.111 -0.3608 -0.4296 -0.3460
 8539SOL    HW137076   0.722   0.441   6.044 -0.1502 -0.0734 -0.3995
 8539SOL    HW237077   0.748   0.336   6.152 -0.0588 -1.9016 -2.8881
 8540SOL     OW37078   4.660   0.705  14.099  0.3834 -0.3408  0.1289
 8540SOL    HW137079   4.672   0.755  14.018  1.1903  1.2702  1.2482
 8540SOL    HW237080   4.566   0.696  14.115  0.4565  1.1908  1.3804
 8541SOL     OW37081   1.044   4.507   8.214  0.4029  0.1148  0.1415
 8541SOL    HW137082   1.097   4.567   8.266  1.8741 -0.4091 -0.7653
 8541SOL    HW237083   1.084   4.512   8.127  0.2694 -1.4555 -0.0091
 8542SOL     OW37084   0.861   1.000   8.055 -0.8475  0.1057 -0.4315
 8542SOL    HW137085   0.834   0.953   8.134 -0.9151  3.1834  1.3646
 8542SOL    HW237086   0.782   1.006   8.002 -1.6118 -0.9843  0.5690
 8543SOL     OW37087   3.680   1.639  14.093  0.0057 -0.0145  0.4603
 8543SOL    HW137088   3.662   1.722  14.137  0.0209 -0.2249  0.8640
 8543SOL    HW237089   3.760   1.617  14.141  0.6504  0.1729 -0.5336
 8544SOL     OW37090   4.320   1.878  17.559 -0.1650  0.4703  0.5870
 8544SOL    HW137091   4.265   1.801  17.545 -0.6303  0.9984 -0.4862
 8544SOL    HW237092   4.258   1.947  17.533 -0.5251  0.2621  0.8937
 8545SOL     OW37093   0.139   4.290   8.366 -0.1167  0.2917  0.4761
 8545SOL    HW137094   0.093   4.262   8.287 -1.1162 -0.1503  1.2006
 8545SOL    HW237095   0.070   4.274   8.432  2.3621 -1.1668  2.7091
 8546SOL     OW37096   0.017   2.560   8.334 -0.3951 -0.0866  0.1975
 8546SOL    HW137097   4.693   2.624   8.389  1.4191  0.1526  1.3912
 8546SOL    HW237098   0.052   2.486   8.385 -0.3341 -0.0824  0.1617
 8547SOL     OW37099   4.703   4.477   2.239  0.0420 -0.2025  0.2999
 8547SOL    HW137100   0.072   4.447   2.254  1.3338  2.9782 -1.0462
 8547SOL    HW237101   4.673   4.468   2.330 -4.1172 -2.8254 -1.3438
 8548SOL     OW37102   1.485   1.399  14.220  0.1669  0.2741 -0.0710
 8548SOL    HW137103   1.518   1.351  14.144 -0.8428  0.7875 -0.8322
 8548SOL    HW237104   1.407   1.441  14.184  0.6176  1.1861  0.0300
 8549SOL     OW37105   3.784   1.633   6.406 -0.5383 -0.1870  0.2654
 8549SOL    HW137106   3.830   1.716   6.394  1.7113 -1.2545  1.4957
 8549SOL    HW237107   3.769   1.618   6.499  2.7142  0.2605  0.8576
 8550SOL     OW37108   2.799   4.503   7.941 -0.0289 -0.3966  0.3446
 8550SOL    HW137109   2.874   4.464   7.986  1.2367  0.5081 -0.9650
 8550SOL    HW237110   2.809   4.596   7.961  0.4350 -0.8472  2.1975
 8551SOL     OW37111   3.357   2.223  10.471 -0.1522  0.2486  0.2760
 8551SOL    HW137112   3.269   2.198  10.444  0.6739 -1.4303 -0.8223
 8551SOL    HW237113   3.386   2.164  10.541  2.7064 -0.7512 -1.7483
 8552SOL     OW37114   1.543   2.283   5.094  0.6452  0.0864 -0.1418
 8552SOL    HW137115   1.550   2.377   5.076  1.4119  0.0696  0.0677
 8552SOL    HW237116   1.471   2.288   5.156 -0.6086  0.6988 -1.6455
 8553SOL     OW37117   1.261   2.262   9.723 -0.1982 -0.6684 -0.2327
 8553SOL    HW137118   1.339   2.251   9.668  0.3100  0.7852  0.1929
 8553SOL    HW237119   1.263   2.358   9.724  2.3855 -0.6746 -1.7279
 8554SOL     OW37120   2.179   1.343   7.087 -0.0999  0.3745  0.8232
 8554SOL    HW137121   2.262   1.354   7.134 -0.2024  1.7214  0.6932
 8554SOL    HW237122   2.151   1.427   7.051  0.3377 -0.8499 -2.3115
 8555SOL     OW37123   4.138   4.348   5.336  0.4111 -0.0762  0.1751
 8555SOL    HW137124   4.096   4.347   5.250  1.6728 -2.7558 -0.4005
 8555SOL    HW237125   4.116   4.269   5.385 -2.4846  0.6138 -0.0278
 8556SOL     OW37126   2.249   1.305   5.134 -0.4076  0.0210  0.4683
 8556SOL    HW137127   2.232   1.349   5.217 -0.3578 -0.4764  0.7347
 8556SOL    HW237128   2.288   1.222   5.158 -0.3490 -0.2940 -0.7131
 8557SOL     OW37129   2.479   4.483   7.398  0.2424 -0.3697 -0.2758
 8557SOL    HW137130   2.490   4.576   7.419 -0.0683 -0.5168  0.5355
 8557SOL    HW237131   2.395   4.481   7.354 -0.9220  0.1827  1.9151
 8558SOL     OW37132   3.219   2.913  11.864 -0.6361  0.0562  0.1696
 8558SOL    HW137133   3.187   3.003  11.857 -0.6662 -0.0532 -0.9982
 8558SOL    HW237134   3.140   2.871  11.830 -1.5237 -0.4557  2.8744
 8559SOL     OW37135   3.264   3.746   8.141  0.0808 -0.1687 -0.1936
 8559SOL    HW137136   3.267   3.675   8.076  0.3506  0.0596 -0.4274
 8559SOL    HW237137   3.302   3.704   8.218 -0.4189 -0.7456 -0.2593
 8560SOL     OW37138   1.468   4.594   7.013  0.5006  0.0100  0.6263
 8560SOL    HW137139   1.417   4.533   6.959 -0.9792 -0.0123  2.0334
 8560SOL    HW237140   1.535   4.627   6.954  0.6329  1.4888  1.6159
 8561SOL     OW37141   0.380   4.428  14.004  0.7325 -0.0948  0.2564
 8561SOL    HW137142   0.288   4.431  14.030  0.7998  2.2392  0.2448
 8561SOL    HW237143   0.408   4.343  14.039 -0.4826 -0.2332  0.8843
 8562SOL     OW37144   3.245   3.954   6.670  0.1307  0.4443  0.2787
 8562SOL    HW137145   3.192   3.966   6.591 -0.6344 -0.4844  0.6409
 8562SOL    HW237146   3.188   3.908   6.732  0.1335  0.5298  0.3454
 8563SOL     OW37147   2.151   2.148   0.533 -0.1433 -0.2209 -0.1405
 8563SOL    HW137148   2.108   2.196   0.462  0.4078 -1.8161 -1.5632
 8563SOL    HW237149   2.239   2.151   0.496 -0.9196  0.9998 -1.9133
 8564SOL     OW37150   3.082   2.536   8.129 -0.5161  0.4810  0.1167
 8564SOL    HW137151   3.158   2.593   8.141  0.9518 -1.4919  0.3009
 8564SOL    HW237152   3.124   2.451   8.139 -1.8860 -0.3338 -1.0769
 8565SOL     OW37153   0.670   3.951   6.617 -0.2632  0.6161  0.5387
 8565SOL    HW137154   0.675   3.864   6.578  2.3229  2.3073 -2.9384
 8565SOL    HW237155   0.614   3.934   6.692 -0.7333  0.3183  0.1190
 8566SOL     OW37156   4.219   3.892  12.270 -0.0685  0.6348  0.1577
 8566SOL    HW137157   4.134   3.926  12.296 -1.1412 -1.9031 -0.0274
 8566SOL    HW237158   4.252   3.951  12.202  0.2306 -0.1116 -0.3540
 8567SOL     OW37159   0.915   3.390   2.220  0.8582  0.2920 -0.2951
 8567SOL    HW137160   0.929   3.477   2.183 -1.9770  0.4840 -0.9217
 8567SOL    HW237161   0.999   3.345   2.213  0.1378 -1.1753  0.4140
 8568SOL     OW37162   4.366   3.596  16.276  0.4289 -0.9183 -0.6758
 8568SOL    HW137163   4.317   3.577  16.356  1.6131 -0.1562  0.2327
 8568SOL    HW237164   4.456   3.589  16.307 -0.4768  1.8821  2.5735
 8569SOL     OW37165   3.928   3.495   8.684  0.4554 -0.4111 -0.1664
 8569SOL    HW137166   3.971   3.555   8.745  0.4238  0.0019 -0.5539
 8569SOL    HW237167   3.946   3.410   8.726 -0.0750 -0.8510 -0.8452
 8570SOL     OW37168   4.558   2.803  12.182 -0.1047 -0.0416 -0.1295
 8570SOL    HW137169   4.648   2.777  12.164  0.0958  0.8460 -0.4152
 8570SOL    HW237170   4.531   2.715  12.208 -2.7411  0.7399 -0.2123
 8571SOL     OW37171   3.925   2.232  11.462  0.3469  0.4033  0.4882
 8571SOL    HW137172   3.996   2.225  11.526  0.3988  1.0628  0.4996
 8571SOL    HW237173   3.869   2.164  11.500 -0.9278  1.1494 -0.0655
 8572SOL     OW37174   1.955   3.304  14.674 -0.0011  0.4628  0.4493
 8572SOL    HW137175   1.879   3.363  14.670 -0.8333 -0.7687 -2.0381
 8572SOL    HW237176   2.016   3.378  14.673 -0.2521  0.6709  0.4643
 8573SOL     OW37177   0.893   4.193   8.274  0.0190  0.3422 -0.0959
 8573SOL    HW137178   0.927   4.115   8.318  0.6807 -0.7444 -2.5441
 8573SOL    HW237179   0.892   4.248   8.353 -1.0467  0.8218 -0.4418
 8574SOL     OW37180   2.388   1.170   8.087  0.4470 -0.4480  0.0038
 8574SOL    HW137181   2.421   1.134   8.004 -1.7981 -0.9507 -0.6615
 8574SOL    HW237182   2.337   1.096   8.118  0.8610 -1.1621 -1.0007
 8575SOL     OW37183   2.424   1.563   9.190  0.3556 -0.2485 -0.3255
 8575SOL    HW137184   2.498   1.597   9.140  1.4045 -1.0639  0.6584
 8575SOL    HW237185   2.442   1.470   9.208  1.6900 -0.0072 -0.4683
 8576SOL     OW37186   4.050   0.093   5.472  0.2035  0.2134  0.0131
 8576SOL    HW137187   4.139   0.129   5.477 -0.2234  1.3356 -0.5334
 8576SOL    HW237188   4.067   0.023   5.408 -1.1813 -1.3303  1.3238
 8577SOL     OW37189   0.732   1.193   9.755  0.3912 -0.8230 -0.4302
 8577SOL    HW137190   0.674   1.266   9.736  0.3710 -1.0431 -1.2146
 8577SOL    HW237191   0.666   1.125   9.768 -2.2802  1.7627 -0.7479
 8578SOL     OW37192   3.946   0.674   2.754  0.2472 -0.8236 -0.1173
 8578SOL    HW137193   3.969   0.585   2.726 -0.6132  0.2533 -4.2344
 8578SOL    HW237194   3.851   0.669   2.739  0.2058  0.0842 -0.1291
 8579SOL     OW37195   2.532   0.506  17.398 -0.1877  0.0817  0.0906
 8579SOL    HW137196   2.502   0.519  17.308  1.2528  0.8755 -0.2726
 8579SOL    HW237197   2.453   0.499  17.450 -0.5852 -2.0445 -0.7972
 8580SOL     OW37198   4.077   1.764   8.767 -0.2447  0.1878 -0.1503
 8580SOL    HW137199   4.095   1.671   8.763 -0.0719  0.1750  0.9971
 8580SOL    HW237200   4.022   1.759   8.689 -1.0173  0.1669  0.3944
 8581SOL     OW37201   4.395   0.953  10.915 -0.1540 -0.0093  0.1221
 8581SOL    HW137202   4.374   1.024  10.854  1.1426  1.0370  0.8998
 8581SOL    HW237203   4.448   0.897  10.859 -2.2562 -0.7878 -1.0521
 8582SOL     OW37204   0.348   2.972   7.509  0.7360  0.2583  0.1896
 8582SOL    HW137205   0.411   2.942   7.443 -0.6555 -1.9840 -0.1109
 8582SOL    HW237206   0.298   3.044   7.470  0.0024 -0.7462 -0.7059
 8583SOL     OW37207   2.840   2.080   5.866  0.1195 -0.0756 -0.3162
 8583SOL    HW137208   2.772   2.101   5.930 -0.8145 -0.4510 -1.1809
 8583SOL    HW237209   2.871   1.998   5.905 -0.1165 -0.1362 -0.2565
 8584SOL     OW37210   4.621   3.204  15.216 -0.0420 -0.3214 -0.0946
 8584SOL    HW137211   4.697   3.206  15.275  0.6785 -1.5517 -0.9856
 8584SOL    HW237212   4.669   3.217  15.134 -1.1698 -0.1117 -0.7218
 8585SOL     OW37213   1.821   4.317   7.808 -0.5151  0.2710  0.2638
 8585SOL    HW137214   1.844   4.233   7.848  0.7786  0.5117  0.0401
 8585SOL    HW237215   1.751   4.285   7.751 -0.2502 -0.9107  0.6064
 8586SOL     OW37216   4.585   2.638   6.332  0.5211 -0.2709  0.1797
 8586SOL    HW137217   4.502   2.595   6.311  0.2709 -0.0759  0.7692
 8586SOL    HW237218   4.574   2.656   6.426 -0.5627 -0.6849  0.1327
 8587SOL     OW37219   0.483   0.770  11.273  0.7361 -0.2162 -0.1669
 8587SOL    HW137220   0.476   0.729  11.359 -1.6209  0.2479 -0.1407
 8587SOL    HW237221   0.418   0.716  11.227  1.2995 -1.3357  0.3456
 8588SOL     OW37222   1.982   1.313   2.175 -0.4483 -0.3064  0.3457
 8588SOL    HW137223   1.986   1.377   2.104  2.0283 -1.3684 -0.4756
 8588SOL    HW237224   1.902   1.339   2.221  0.6486 -0.1267  2.1582
 8589SOL     OW37225   2.613   4.534   8.192  0.3070 -0.2424  0.5430
 8589SOL    HW137226   2.606   4.441   8.173  1.2916  0.3049 -2.4243
 8589SOL    HW237227   2.653   4.574   8.115  0.4411 -1.2494  0.0869
 8590SOL     OW37228   4.673   2.059   8.889 -0.6174  0.5158  0.3500
 8590SOL    HW137229   4.594   2.104   8.859  0.5853  2.2770 -0.1956
 8590SOL    HW237230   4.645   1.972   8.862 -0.8560  0.4175  0.9185
 8591SOL     OW37231   0.227   0.841   6.025 -0.4282  0.4549 -0.3030
 8591SOL    HW137232   0.224   0.763   6.082 -1.8422  0.4550 -0.3857
 8591SOL    HW237233   0.296   0.889   6.071 -1.3566  1.8377 -0.3775
 8592SOL     OW37234   2.362   4.324   7.656  0.1716  0.2593  0.9866
 8592SOL    HW137235   2.440   4.359   7.699 -0.5170  0.1541  2.3000
 8592SOL    HW237236   2.380   4.357   7.568 -1.7153  2.0523  1.2986
 8593SOL     OW37237   0.987   4.345  16.461 -0.0189  0.0728 -0.8600
 8593SOL    HW137238   0.963   4.424  16.510 -1.2534 -1.9417  1.7801
 8593SOL    HW237239   1.082   4.356  16.461  0.0619 -0.5504  0.8119
 8594SOL     OW37240   2.919   0.794   3.111  0.0690  0.6266  0.0143
 8594SOL    HW137241   2.851   0.728   3.101 -1.4272  2.1873 -0.0473
 8594SOL    HW237242   2.995   0.741   3.137 -0.6346 -0.7628 -0.7846
 8595SOL     OW37243   3.675   2.153  13.858 -0.4715  1.1106  0.1048
 8595SOL    HW137244   3.591   2.108  13.870  1.2364 -1.8422  1.1166
 8595SOL    HW237245   3.726   2.096  13.801 -1.3333 -0.6222  1.0281
 8596SOL     OW37246   4.417   4.338   2.015 -0.1294 -0.1444 -0.0302
 8596SOL    HW137247   4.443   4.403   1.949  0.4920  0.7849  1.1198
 8596SOL    HW237248   4.329   4.368   2.039 -0.6660 -2.2058  0.6072
 8597SOL     OW37249   4.487   2.153   4.049 -0.3831 -0.4913 -0.1897
 8597SOL    HW137250   4.442   2.205   4.115  1.5378 -1.1066  1.5913
 8597SOL    HW237251   4.531   2.225   4.004 -0.0818 -0.4755  0.1354
 8598SOL     OW37252   2.277   2.472   6.937 -0.3788 -0.1305  0.6354
 8598SOL    HW137253   2.300   2.380   6.943 -0.3460 -0.2171 -0.8477
 8598SOL    HW237254   2.202   2.463   6.996 -0.2588 -0.8548  0.6710
 8599SOL     OW37255   0.585   3.276   2.031 -0.2861  0.2219  0.0565
 8599SOL    HW137256   0.545   3.303   1.949 -1.9367  1.8851  1.4113
 8599SOL    HW237257   0.667   3.238   1.999  0.7693  2.7904 -0.3531
 8600SOL     OW37258   3.550   1.015  11.376  0.0512  0.1959  0.2319
 8600SOL    HW137259   3.533   1.056  11.461 -1.3764 -0.6995  0.3776
 8600SOL    HW237260   3.509   1.077  11.315  1.1054  1.3253  0.6742
 8601SOL     OW37261   2.200   2.887   5.680 -0.0319 -0.1842  0.2089
 8601SOL    HW137262   2.294   2.868   5.679 -0.1309 -0.5364 -1.6655
 8601SOL    HW237263   2.193   2.947   5.754 -0.1391 -1.2112  1.0428
 8602SOL     OW37264   3.765   0.329   2.667  0.3478  0.2532  0.4919
 8602SOL    HW137265   3.757   0.234   2.672 -1.6509  0.5363  2.3052
 8602SOL    HW237266   3.853   0.322   2.630  0.3003 -0.3332  0.4921
 8603SOL     OW37267   1.851   1.528   6.381  0.3327  0.4709 -0.2896
 8603SOL    HW137268   1.845   1.534   6.286 -1.1514  0.1990 -0.2084
 8603SOL    HW237269   1.945   1.518   6.393  0.1471 -0.3021  0.5599
 8604SOL     OW37270   2.371   3.281   2.410 -0.2688 -0.3161  0.0090
 8604SOL    HW137271   2.341   3.292   2.500 -0.2059 -1.7699  0.2097
 8604SOL    HW237272   2.465   3.292   2.424 -0.0084 -1.8686 -0.5483
 8605SOL     OW37273   3.042   0.399   4.858  0.4056 -0.0009 -0.3962
 8605SOL    HW137274   3.017   0.478   4.812  0.1694 -1.5389 -2.9115
 8605SOL    HW237275   3.138   0.404   4.858  0.2720  2.4585 -4.1319
 8606SOL     OW37276   4.296   2.948   5.056 -0.0359  0.3260  0.0039
 8606SOL    HW137277   4.335   2.982   5.136  0.0327 -0.4327  0.2961
 8606SOL    HW237278   4.206   2.936   5.087  0.1881 -0.7393  0.2488
 8607SOL     OW37279   2.368   2.025   7.190  0.2669 -0.5393 -0.2195
 8607SOL    HW137280   2.363   1.937   7.227 -0.1266 -0.0104  0.9720
 8607SOL    HW237281   2.454   2.054   7.222  0.1290 -0.2271 -0.1254
 8608SOL     OW37282   4.292   3.216   6.388  0.0723  0.0439 -0.0830
 8608SOL    HW137283   4.367   3.198   6.331  1.2971  0.5956  1.3477
 8608SOL    HW237284   4.304   3.308   6.411 -0.4561  0.9821 -3.5951
 8609SOL     OW37285   3.533   4.128   7.359  0.0584 -0.3749  0.7134
 8609SOL    HW137286   3.441   4.102   7.357 -0.0864  0.1698  0.3922
 8609SOL    HW237287   3.516   4.197   7.424  0.7859 -0.2043  0.7242
 8610SOL     OW37288   4.548   4.526   5.010  0.1242  0.3194 -0.0446
 8610SOL    HW137289   4.508   4.492   5.090 -0.6056  0.1063 -0.4988
 8610SOL    HW237290   4.639   4.539   5.038  0.2521 -1.8339  0.4789
 8611SOL     OW37291   4.539   1.031   4.022 -0.2465 -0.0743 -0.1357
 8611SOL    HW137292   4.626   0.994   4.009 -0.2074  0.8165 -2.4266
 8611SOL    HW237293   4.495   0.998   3.944  0.4245 -1.6986  0.1802
 8612SOL     OW37294   4.641   0.969   6.130 -0.2449  0.4188  0.1609
 8612SOL    HW137295   4.580   0.899   6.104  2.9035 -2.5236  0.8151
 8612SOL    HW237296   4.629   1.034   6.061 -1.1936  0.6471  0.5384
 8613SOL     OW37297   2.081   0.456   4.504 -0.1420 -0.9266 -0.3116
 8613SOL    HW137298   2.065   0.363   4.521  0.8940 -1.1528 -0.5346
 8613SOL    HW237299   2.011   0.495   4.555 -0.1712  0.6758 -1.5867
 8614SOL     OW37300   4.468   1.903   7.496  0.8456 -0.1234  0.5293
 8614SOL    HW137301   4.473   1.813   7.528  0.0566 -0.5775 -0.6199
 8614SOL    HW237302   4.561   1.912   7.519  1.2360  2.1205 -1.8991
 8615SOL     OW37303   0.678   0.927   4.313  0.6514 -0.2578 -0.3531
 8615SOL    HW137304   0.606   0.990   4.304 -0.0221 -1.3098 -2.3238
 8615SOL    HW237305   0.728   0.936   4.233  0.5528  2.2031 -0.1487
 8616SOL     OW37306   0.392   0.997  14.803 -0.1729 -0.2421  0.1373
 8616SOL    HW137307   0.484   1.016  14.785 -0.2729 -1.5465 -1.7823
 8616SOL    HW237308   0.397   1.009  14.898  0.7802 -1.5204  0.2523
 8617SOL     OW37309   1.222   3.293  12.757 -0.6620 -0.7403 -0.4895
 8617SOL    HW137310   1.237   3.244  12.676  0.6624 -2.5611  0.8821
 8617SOL    HW237311   1.276   3.369  12.737  0.4727 -1.2036  0.7868
 8618SOL     OW37312   3.478   2.383   6.280  0.0378 -0.5049  1.0347
 8618SOL    HW137313   3.565   2.402   6.315  0.3388 -0.3548  0.1959
 8618SOL    HW237314   3.504   2.363   6.190 -0.6320  0.1514  0.7046
 8619SOL     OW37315   1.325   4.658   5.142  0.2156 -0.0806  0.3154
 8619SOL    HW137316   1.399   4.696   5.190  1.9705 -2.4927 -0.5047
 8619SOL    HW237317   1.339   4.689   5.052  0.5529 -0.4864  0.2284
 8620SOL     OW37318   3.511   0.719  12.483 -0.1751 -0.2903  0.2202
 8620SOL    HW137319   3.512   0.813  12.503 -0.2298 -0.2371 -0.0374
 8620SOL    HW237320   3.500   0.721  12.388  1.3298 -1.2149  0.0303
 8621SOL     OW37321   2.829   2.121  12.746 -0.9489  0.3802 -0.2805
 8621SOL    HW137322   2.831   2.200  12.691  2.5435 -0.0148 -0.7293
 8621SOL    HW237323   2.741   2.130  12.782 -0.6751 -2.2274  0.9840
 8622SOL     OW37324   2.897   4.093   4.055  0.3040 -0.0735 -0.7277
 8622SOL    HW137325   2.811   4.126   4.082  0.1871 -0.4921 -0.5940
 8622SOL    HW237326   2.940   4.077   4.139 -0.4825 -2.6570 -0.8376
 8623SOL     OW37327   3.488   2.232   8.665 -0.4520  0.0047 -0.4399
 8623SOL    HW137328   3.534   2.306   8.626 -1.6555 -0.3216 -2.4788
 8623SOL    HW237329   3.524   2.236   8.753  0.9982 -1.0087 -0.9888
 8624SOL     OW37330   3.711   3.264   6.261  0.1070 -0.3898  0.4549
 8624SOL    HW137331   3.773   3.193   6.281 -0.5338 -0.7309  1.2265
 8624SOL    HW237332   3.637   3.213   6.229 -0.5707  1.1842 -0.4939
 8625SOL     OW37333   0.854   1.383   9.567  0.3816 -0.2801  0.0566
 8625SOL    HW137334   0.900   1.415   9.645  0.6365 -2.1528  0.6536
 8625SOL    HW237335   0.763   1.386   9.597  0.3963 -1.3338  0.1794
 8626SOL     OW37336   1.218   3.968   0.365 -0.4143 -0.9737 -0.3307
 8626SOL    HW137337   1.261   3.929   0.289 -0.8552 -0.7294 -0.7025
 8626SOL    HW237338   1.258   3.905   0.426 -0.8408 -1.0959 -0.1719
 8627SOL     OW37339   3.278   2.247  16.904  0.7033  0.2460 -0.2692
 8627SOL    HW137340   3.346   2.195  16.947  0.2135 -0.3129 -0.1652
 8627SOL    HW237341   3.281   2.208  16.817 -0.2097 -0.4316 -0.0048
 8628SOL     OW37342   2.083   3.174   3.627  0.1289  0.0194 -0.2302
 8628SOL    HW137343   2.113   3.236   3.560  1.0371 -0.4379 -0.2511
 8628SOL    HW237344   2.061   3.095   3.578  0.8230 -1.0592  1.2306
 8629SOL     OW37345   1.395   2.137  13.664 -1.0784  0.2262 -0.0628
 8629SOL    HW137346   1.467   2.155  13.724 -1.5908  0.2110  0.5559
 8629SOL    HW237347   1.432   2.175  13.584  0.7362  1.7882  1.5099
 8630SOL     OW37348   3.385   1.501   3.385 -0.1095 -0.4647  0.2387
 8630SOL    HW137349   3.337   1.583   3.401 -0.5054 -0.9236  1.3521
 8630SOL    HW237350   3.415   1.478   3.473  3.1942 -1.1984 -1.0780
 8631SOL     OW37351   4.042   2.293  14.764  0.4096  0.6604 -0.0921
 8631SOL    HW137352   4.071   2.204  14.786 -2.4854 -0.2226  0.1039
 8631SOL    HW237353   4.033   2.285  14.669 -0.8882  2.9771 -0.1636
 8632SOL     OW37354   4.068   0.511  13.493 -0.2502 -0.2592  0.2678
 8632SOL    HW137355   4.078   0.605  13.507 -0.2825 -0.4315  1.4748
 8632SOL    HW237356   4.010   0.500  13.418  1.2592  1.1093 -1.1050
 8633SOL     OW37357   0.408   2.933   8.033 -0.1335  0.3749 -0.0121
 8633SOL    HW137358   0.316   2.912   8.048 -0.1697 -0.0806 -0.8942
 8633SOL    HW237359   0.450   2.893   8.109 -1.8466  1.4955  1.5038
 8634SOL     OW37360   1.464   2.784   1.904  0.2874  0.1472 -0.2265
 8634SOL    HW137361   1.449   2.878   1.916 -0.3112  0.0758 -0.4295
 8634SOL    HW237362   1.456   2.785   1.808 -1.4618  0.2889 -0.0791
 8635SOL     OW37363   1.201   0.114  17.078 -0.1126 -0.3215 -0.4148
 8635SOL    HW137364   1.251   0.186  17.117  1.5478 -2.1391  0.8119
 8635SOL    HW237365   1.157   0.068  17.150  1.6484 -0.9256  0.2716
 8636SOL     OW37366   4.617   2.669   3.184  0.2043  0.0213  0.3859
 8636SOL    HW137367   4.688   2.703   3.239 -0.8485  2.1261  0.4313
 8636SOL    HW237368   4.648   2.670   3.094  3.0137 -0.5178  1.3374
 8637SOL     OW37369   0.251   3.869  11.646  1.0988  0.0151 -0.6286
 8637SOL    HW137370   0.234   3.892  11.738  0.5660 -0.4552 -0.6108
 8637SOL    HW237371   0.181   3.918  11.601 -1.5705 -2.5658  0.7008
 8638SOL     OW37372   0.345   4.309  17.361 -0.1485  0.0566  0.0456
 8638SOL    HW137373   0.311   4.397  17.347 -0.8806 -0.7025 -3.1180
 8638SOL    HW237374   0.265   4.274  17.400  1.1342 -1.0184  1.7127
 8639SOL     OW37375   3.389   1.967   1.150  0.1737 -0.5029  0.2129
 8639SOL    HW137376   3.469   1.942   1.196  1.8464 -0.3566 -2.5917
 8639SOL    HW237377   3.426   1.992   1.065 -1.0350  0.1701 -0.1129
 8640SOL     OW37378   4.496   3.068  17.248  0.0230  0.0923  0.3065
 8640SOL    HW137379   4.544   3.093  17.169 -1.1264  0.3357 -0.3135
 8640SOL    HW237380   4.552   3.117  17.308 -1.1608 -0.2621  1.6741
 8641SOL     OW37381   1.852   3.372  13.699  0.2392 -0.3966 -0.2278
 8641SOL    HW137382   1.822   3.463  13.705 -0.5784 -0.9040  3.0897
 8641SOL    HW237383   1.836   3.351  13.607  0.0872  1.3876 -0.6087
 8642SOL     OW37384   4.263   1.932   4.005 -0.1375  0.4572 -0.0564
 8642SOL    HW137385   4.325   1.992   4.047  0.4190 -0.5878  0.6315
 8642SOL    HW237386   4.315   1.867   3.957  0.1476  1.4095 -1.0408
 8643SOL     OW37387   1.537   4.245   3.586  0.0676 -0.2083 -0.6218
 8643SOL    HW137388   1.461   4.187   3.587 -0.1098  0.0592  1.9133
 8643SOL    HW237389   1.536   4.274   3.677 -1.9061 -0.5763 -0.5385
 8644SOL     OW37390   2.748   0.261   5.584  0.4832  0.3977  0.1181
 8644SOL    HW137391   2.829   0.292   5.626  0.1182  1.0050  0.3662
 8644SOL    HW237392   2.740   0.334   5.523 -1.5960  0.3654  0.3500
 8645SOL     OW37393   4.478   1.212  10.397  0.1067 -0.7945  0.3606
 8645SOL    HW137394   4.547   1.249  10.343  0.7833 -1.7311  0.5843
 8645SOL    HW237395   4.501   1.246  10.483  0.3654  1.9019 -0.7828
 8646SOL     OW37396   3.020   3.114   0.436  0.2167 -0.3761  0.2254
 8646SOL    HW137397   2.973   3.165   0.370  1.1516 -0.0677 -0.2039
 8646SOL    HW237398   3.100   3.166   0.447 -0.1205 -0.0964  1.3613
 8647SOL     OW37399   3.968   1.983   2.412  0.3216 -0.6664 -0.6819
 8647SOL    HW137400   3.988   2.067   2.453 -2.1730 -0.6776  0.5628
 8647SOL    HW237401   4.019   1.926   2.471  2.2008  1.1311 -0.5507
 8648SOL     OW37402   3.657   2.023  14.470  0.5537  0.5216 -0.1461
 8648SOL    HW137403   3.594   2.023  14.542  2.1142 -1.6762  1.2203
 8648SOL    HW237404   3.614   1.962  14.410 -0.7637  1.3504 -0.0477
 8649SOL     OW37405   2.469   2.788   3.153 -0.6080  0.1594 -0.4430
 8649SOL    HW137406   2.484   2.694   3.139  3.0826  0.7672 -0.5640
 8649SOL    HW237407   2.430   2.809   3.068  0.6581 -1.3602 -1.4012
 8650SOL     OW37408   2.262   0.343   5.097  0.1865  0.1596 -0.6192
 8650SOL    HW137409   2.214   0.266   5.127 -0.1027  1.3650  2.0136
 8650SOL    HW237410   2.230   0.340   5.007  0.0272  0.0222 -0.5586
 8651SOL     OW37411   2.880   4.409   9.027 -0.1655  0.1505  0.4893
 8651SOL    HW137412   2.854   4.473   9.093 -1.2489  1.7541 -1.5128
 8651SOL    HW237413   2.853   4.454   8.948 -1.4967  0.3966  1.0931
 8652SOL     OW37414   2.732   3.890   2.306  0.4644  0.3053  0.2026
 8652SOL    HW137415   2.642   3.862   2.322  1.0962 -0.5574  2.2919
 8652SOL    HW237416   2.718   3.967   2.252 -1.6066 -1.0951 -1.2497
 8653SOL     OW37417   2.213   3.674   1.718  0.3618  0.1941 -0.0281
 8653SOL    HW137418   2.272   3.626   1.660  1.5011  0.7973  0.6285
 8653SOL    HW237419   2.225   3.764   1.687  4.2259 -0.7461 -1.1732
 8654SOL     OW37420   2.825   0.297   4.979 -0.0630  0.0501 -0.3620
 8654SOL    HW137421   2.757   0.294   4.911  0.0722  0.7591 -0.5286
 8654SOL    HW237422   2.891   0.350   4.934 -1.4279  0.7251 -1.5887
 8655SOL     OW37423   1.417   4.501  13.737 -0.0578  0.1610 -0.3312
 8655SOL    HW137424   1.420   4.488  13.832  1.0597 -1.2659 -0.5709
 8655SOL    HW237425   1.323   4.519  13.726 -0.2393  0.8490  2.3391
 8656SOL     OW37426   1.797   2.812  10.456  0.1383  0.1725  0.3865
 8656SOL    HW137427   1.865   2.792  10.393 -0.6237 -0.2129 -0.3118
 8656SOL    HW237428   1.716   2.792  10.408 -0.5470 -1.5162  2.1966
 8657SOL     OW37429   0.262   2.044   8.804  0.4553 -0.0323  0.3110
 8657SOL    HW137430   0.349   2.006   8.815 -0.0026 -0.8776  1.0486
 8657SOL    HW237431   0.204   1.979   8.845  0.7519 -1.0003 -0.8040
 8658SOL     OW37432   2.027   3.774   3.588  0.3260  0.6815 -0.0654
 8658SOL    HW137433   2.038   3.769   3.682  0.5161  0.0063 -0.1252
 8658SOL    HW237434   2.096   3.841   3.579 -1.9479  3.0663  0.1068
 8659SOL     OW37435   1.810   3.566   8.483  0.4615 -0.2633 -0.0621
 8659SOL    HW137436   1.782   3.557   8.574  1.7302  0.1654  0.3795
 8659SOL    HW237437   1.732   3.543   8.432  0.6635 -1.6478  0.2392
 8660SOL     OW37438   4.587   0.944   5.078  0.1107  0.1869 -0.6963
 8660SOL    HW137439   4.598   1.037   5.098  1.9170 -0.0273 -0.7482
 8660SOL    HW237440   4.509   0.941   5.021 -0.0175  0.6303 -0.5441
 8661SOL     OW37441   2.906   4.033   0.512 -0.2269 -0.2716 -0.0762
 8661SOL    HW137442   2.814   4.020   0.492  0.2152 -0.6634 -1.8281
 8661SOL    HW237443   2.934   3.948   0.545  2.1325  1.1547  1.6226
 8662SOL     OW37444   1.190   4.515   5.689  0.3507  0.2557 -0.4690
 8662SOL    HW137445   1.106   4.470   5.695  0.0891  0.9764  1.2085
 8662SOL    HW237446   1.169   4.588   5.630  0.0115  1.4240  1.1066
 8663SOL     OW37447   3.275   0.509   8.934 -0.0858  0.4153 -0.0056
 8663SOL    HW137448   3.197   0.458   8.913 -0.2999  0.2201  1.3095
 8663SOL    HW237449   3.274   0.487   9.027  1.3154  0.8370  0.1135
 8664SOL     OW37450   0.292   2.486  11.092  0.1415 -0.0957 -0.1071
 8664SOL    HW137451   0.323   2.402  11.059  0.1871 -0.5480  1.0987
 8664SOL    HW237452   0.199   2.479  11.069 -0.2544  1.6789  0.9544
 8665SOL     OW37453   3.097   4.590   2.992 -0.0483 -0.0529  0.6743
 8665SOL    HW137454   3.113   4.676   2.954 -0.3807  0.2323  1.1806
 8665SOL    HW237455   3.092   4.622   3.082  1.7672 -0.6903  1.0008
 8666SOL     OW37456   4.581   4.649  14.588  0.4435  0.2718  0.3633
 8666SOL    HW137457   4.539   0.012  14.607  0.5687  0.2650  0.6794
 8666SOL    HW237458   4.669   4.681  14.568 -0.3884  1.8517 -0.7153
 8667SOL     OW37459   3.727   0.043  12.222 -0.0353 -0.1408  0.4136
 8667SOL    HW137460   3.694   4.683  12.184  1.6384 -0.6018 -0.0753
 8667SOL    HW237461   3.740   0.097  12.143 -0.4628  0.8882  1.0512
 8668SOL     OW37462   2.266   3.436   4.859  0.0535  0.1210 -0.0337
 8668SOL    HW137463   2.269   3.409   4.767  0.6158  0.3959 -0.0968
 8668SOL    HW237464   2.173   3.452   4.870  0.5972  3.2108  0.1184
 8669SOL     OW37465   2.739   3.850  14.878  0.4131  0.5123 -0.2333
 8669SOL    HW137466   2.703   3.813  14.958 -0.2388 -1.3513 -1.3711
 8669SOL    HW237467   2.827   3.867  14.909  0.7607  0.2286 -1.0512
 8670SOL     OW37468   2.589   1.650   8.930 -0.2502 -0.3727 -0.1170
 8670SOL    HW137469   2.557   1.669   8.842  0.2742  1.4299  0.0850
 8670SOL    HW237470   2.638   1.571   8.911  0.5454 -0.7185  3.3345
 8671SOL     OW37471   3.605   0.994  11.094 -0.7298 -0.2624 -0.0696
 8671SOL    HW137472   3.602   0.915  11.148  1.1476 -1.6321 -1.9628
 8671SOL    HW237473   3.578   1.057  11.161 -0.0304 -0.6134  0.5391
 8672SOL     OW37474   0.082   0.952   8.262 -0.3048  0.0650  0.1844
 8672SOL    HW137475   0.096   1.046   8.259 -0.5345  0.0422 -2.1894
 8672SOL    HW237476   0.046   0.930   8.176  2.4161  1.4214 -1.2988
 8673SOL     OW37477   3.801   3.193  16.638 -0.2202  0.1260  0.2232
 8673SOL    HW137478   3.839   3.258  16.697  2.0033 -0.7466 -0.2357
 8673SOL    HW237479   3.850   3.206  16.557  0.6832 -1.5240  0.4976
 8674SOL     OW37480   0.280   3.688   8.888 -0.0002 -0.1386  0.0660
 8674SOL    HW137481   0.345   3.635   8.935 -0.0785 -1.2913 -1.1408
 8674SOL    HW237482   0.212   3.626   8.863  0.7941 -0.4837 -1.2341
 8675SOL     OW37483   1.416   4.101   6.823  0.4876 -0.2425  0.1945
 8675SOL    HW137484   1.399   4.007   6.820 -0.3554 -0.1139  0.9865
 8675SOL    HW237485   1.386   4.135   6.739  3.2071 -1.1948 -1.1952
 8676SOL     OW37486   4.386   2.334   3.718  0.1049  0.4096 -0.6351
 8676SOL    HW137487   4.462   2.278   3.701 -0.3939  0.0139 -1.6094
 8676SOL    HW237488   4.310   2.275   3.710  0.3044  0.0785 -0.0811
 8677SOL     OW37489   0.273   0.777   4.304 -0.1626 -0.0848 -0.5362
 8677SOL    HW137490   0.229   0.861   4.314 -0.1051  0.1131 -1.9235
 8677SOL    HW237491   0.337   0.793   4.234 -0.9030  0.2187 -1.1464
 8678SOL     OW37492   2.313   1.864   7.521  0.3342  0.2052 -0.3249
 8678SOL    HW137493   2.345   1.816   7.445  0.4274 -0.1473 -0.0640
 8678SOL    HW237494   2.337   1.949   7.483 -2.3905  1.1527  0.1115
 8679SOL     OW37495   4.089   2.108   2.848 -0.5827 -0.1674  0.7929
 8679SOL    HW137496   4.115   2.076   2.762 -0.2074 -0.4876  1.0260
 8679SOL    HW237497   4.008   2.154   2.829  0.1326  0.6514 -0.2855
 8680SOL     OW37498   3.390   1.282   1.289 -0.2901 -0.0073  0.7186
 8680SOL    HW137499   3.463   1.263   1.230  0.5622  0.7962  1.5154
 8680SOL    HW237500   3.350   1.349   1.233  3.1433  0.1769 -1.4493
 8681SOL     OW37501   2.621   4.133  12.799 -0.2054 -0.1519  0.6443
 8681SOL    HW137502   2.684   4.165  12.734  2.1353  0.2281  3.0978
 8681SOL    HW237503   2.643   4.040  12.797 -0.4206 -0.2036  0.6780
 8682SOL     OW37504   4.462   2.360   5.047  0.0899 -0.4198 -1.0366
 8682SOL    HW137505   4.427   2.437   5.090 -0.3389  0.0003 -2.1397
 8682SOL    HW237506   4.556   2.380   5.046 -0.4048  2.0359  0.7865
 8683SOL     OW37507   0.368   2.749  10.973  0.4930 -0.2737 -0.2571
 8683SOL    HW137508   0.423   2.799  10.913 -0.8938 -3.2925 -4.0774
 8683SOL    HW237509   0.294   2.718  10.920  1.6147 -2.3638 -0.6039
 8684SOL     OW37510   0.134   1.014   7.092 -0.3107  0.4826  0.2906
 8684SOL    HW137511   0.159   1.062   7.013 -1.2244  1.3852  0.5554
 8684SOL    HW237512   0.040   1.027   7.083 -0.1723  1.8150  0.6623
 8685SOL     OW37513   1.708   0.188   0.038  0.4202  0.3640 -0.6070
 8685SOL    HW137514   1.626   0.184  17.675 -0.2717  0.7068  0.5336
 8685SOL    HW237515   1.739   0.099   0.017  0.1055 -0.0646  0.7323
 8686SOL     OW37516   1.946   2.816  10.684 -0.2906 -0.3773 -0.4888
 8686SOL    HW137517   1.933   2.724  10.705  1.5458 -0.7845 -1.2105
 8686SOL    HW237518   1.912   2.821  10.595 -2.2244 -0.4523  0.2555
 8687SOL     OW37519   0.958   3.195   2.871  0.2701  0.5758 -1.1232
 8687SOL    HW137520   0.977   3.287   2.856 -0.8496  1.4966  3.2747
 8687SOL    HW237521   1.022   3.165   2.935 -0.4210 -0.6430 -0.9900
 8688SOL     OW37522   1.769   0.389   7.507 -0.1888 -0.3052 -0.1210
 8688SOL    HW137523   1.809   0.476   7.493 -2.8862  1.1999  1.5365
 8688SOL    HW237524   1.709   0.391   7.433  0.7687  3.0975 -0.8325
 8689SOL     OW37525   3.200   3.357   4.912 -0.0161 -0.0384 -0.0315
 8689SOL    HW137526   3.262   3.296   4.873 -0.3844 -0.7956  0.5723
 8689SOL    HW237527   3.262   3.430   4.924 -0.9614  0.7094  0.2938
 8690SOL     OW37528   2.210   0.036   3.785 -0.3527 -0.7816  0.0686
 8690SOL    HW137529   2.205   0.087   3.705  0.6834  0.4178  0.7689
 8690SOL    HW237530   2.248   4.675   3.751  1.0062 -0.7424  1.4380
 8691SOL     OW37531   4.014   3.628   4.667 -0.7720  0.2775  0.2323
 8691SOL    HW137532   4.034   3.708   4.619 -0.9994  0.1162 -0.1311
 8691SOL    HW237533   4.055   3.656   4.749 -2.4518  3.0044  0.1618
 8692SOL     OW37534   3.886   0.476  11.044 -0.4260 -0.0653 -0.4302
 8692SOL    HW137535   3.890   0.570  11.027  1.1667  0.0148  0.4247
 8692SOL    HW237536   3.968   0.466  11.093 -0.9107 -0.3140  0.3313
 8693SOL     OW37537   4.689   1.659   5.003  0.6626  0.6198 -0.0203
 8693SOL    HW137538   4.640   1.711   5.067 -1.3811 -0.4043 -0.7581
 8693SOL    HW237539   4.712   1.585   5.060  0.2767  0.8283  0.4123
 8694SOL     OW37540   1.274   2.589  10.248  0.2014  0.3867  0.1133
 8694SOL    HW137541   1.344   2.538  10.288 -0.4783  0.0281  0.8492
 8694SOL    HW237542   1.300   2.677  10.276  0.8807  0.7875 -1.8222
 8695SOL     OW37543   4.220   1.996   6.592 -0.1568  0.5663  0.1802
 8695SOL    HW137544   4.170   2.061   6.542 -0.0655  0.1332 -0.4608
 8695SOL    HW237545   4.206   2.016   6.685 -0.9695  1.1646 -0.0693
 8696SOL     OW37546   0.444   1.966  16.203 -0.3573 -0.0519 -0.1850
 8696SOL    HW137547   0.527   1.968  16.155  0.1339  0.5866  0.6751
 8696SOL    HW237548   0.375   1.974  16.138 -1.3871  1.0660  1.0482
 8697SOL     OW37549   2.444   0.200   0.775  0.5772 -0.4302  0.1450
 8697SOL    HW137550   2.405   0.142   0.840 -0.4066 -0.0621 -0.1148
 8697SOL    HW237551   2.533   0.173   0.796  0.6722 -1.4026 -1.5353
 8698SOL     OW37552   4.361   0.643   3.749 -0.4922  0.1422  0.3017
 8698SOL    HW137553   4.266   0.646   3.752 -0.4529  0.5561  1.2207
 8698SOL    HW237554   4.375   0.591   3.669 -1.0371  0.1905  0.1777
 8699SOL     OW37555   0.311   0.371   1.827  0.2607 -0.3422 -0.4767
 8699SOL    HW137556   0.341   0.284   1.852 -0.9299 -0.5895  0.0786
 8699SOL    HW237557   0.231   0.370   1.880  2.1737 -0.8294  2.4084
 8700SOL     OW37558   3.845   3.010   0.445  1.2719 -0.2800  0.0554
 8700SOL    HW137559   3.864   3.068   0.518 -1.1931 -1.8441  1.9728
 8700SOL    HW237560   3.813   2.931   0.489  0.5847 -1.0331 -1.7734
 8701SOL     OW37561   2.229   0.555  13.081 -0.3002 -0.7964  0.0174
 8701SOL    HW137562   2.215   0.622  13.147 -1.3175  0.2991 -1.3227
 8701SOL    HW237563   2.276   0.491  13.134  0.1717 -0.9503 -0.5826
 8702SOL     OW37564   0.838   4.347   7.406  0.3754  0.0895 -0.8287
 8702SOL    HW137565   0.808   4.403   7.478  0.6375  0.9166 -1.3663
 8702SOL    HW237566   0.932   4.366   7.415 -0.7013  3.9287  2.0888
 8703SOL     OW37567   4.319   4.284   7.218  0.0269  0.2611  0.7969
 8703SOL    HW137568   4.341   4.375   7.238 -0.3525  0.9927 -2.2398
 8703SOL    HW237569   4.400   4.236   7.198 -0.9007 -1.9992  2.4585
 8704SOL     OW37570   3.632   1.858  13.250 -0.4831 -0.5383 -0.2344
 8704SOL    HW137571   3.579   1.852  13.329 -0.3648  0.5884 -0.0777
 8704SOL    HW237572   3.563   1.846  13.185 -0.4640  0.2368 -0.3947
 8705SOL     OW37573   3.670   2.628   2.579 -0.3306 -0.0141 -0.1595
 8705SOL    HW137574   3.663   2.713   2.535  1.7639  0.4800  0.4872
 8705SOL    HW237575   3.748   2.585   2.544  1.0472  2.2985  0.1500
 8706SOL     OW37576   1.635   3.477   4.915 -0.3317  0.0332  0.3481
 8706SOL    HW137577   1.589   3.415   4.972 -1.4160 -0.9699 -1.6195
 8706SOL    HW237578   1.674   3.404   4.868 -1.6765 -0.2006 -0.4117
 8707SOL     OW37579   2.052   2.304   8.962 -0.5424  0.2293 -0.2418
 8707SOL    HW137580   1.970   2.256   8.953 -0.0681 -1.3736  4.2331
 8707SOL    HW237581   2.068   2.288   9.055 -0.0887  0.0101 -0.3570
 8708SOL     OW37582   2.448   2.951   4.500  0.5617 -0.5295 -0.4808
 8708SOL    HW137583   2.504   2.899   4.557  2.5423 -0.8258 -2.6848
 8708SOL    HW237584   2.359   2.938   4.533  0.6833 -0.4730 -0.1377
 8709SOL     OW37585   2.135   0.056   7.873  0.7520  0.3445 -0.0237
 8709SOL    HW137586   2.075   4.703   7.875  2.6812 -1.1366  2.4176
 8709SOL    HW237587   2.192   0.046   7.797  0.4979  0.3312 -0.2125
 8710SOL     OW37588   0.654   1.520  14.570 -0.2221  0.8387  0.7032
 8710SOL    HW137589   0.686   1.557  14.488  0.2673 -0.8606  0.1191
 8710SOL    HW237590   0.585   1.459  14.543 -1.5800  2.9798 -0.6660
 8711SOL     OW37591   3.084   1.519   6.176 -0.2994 -0.1307 -0.3740
 8711SOL    HW137592   3.032   1.524   6.095 -0.0066 -3.5160 -0.7876
 8711SOL    HW237593   3.096   1.613   6.187  0.6730 -0.2729 -0.2629
 8712SOL     OW37594   2.143   4.089  14.603  0.2747 -0.3633 -0.4592
 8712SOL    HW137595   2.060   4.074  14.648  1.2943  0.4087  1.7175
 8712SOL    HW237596   2.192   4.138  14.670 -1.0255 -1.5234  1.3386
 8713SOL     OW37597   0.732   2.375   5.661 -0.4296 -0.4173 -0.1034
 8713SOL    HW137598   0.656   2.420   5.624  0.5352  0.4164 -1.0792
 8713SOL    HW237599   0.711   2.284   5.643  1.4358 -0.1564 -3.6432
 8714SOL     OW37600   4.537   0.661   8.078  0.5383 -0.2713  0.3069
 8714SOL    HW137601   4.567   0.729   8.018 -0.7622  2.1113  2.3738
 8714SOL    HW237602   4.545   0.710   8.159 -0.2360  0.9743 -0.3737
 8715SOL     OW37603   3.426   3.513   1.659 -0.0777 -0.7222  0.4197
 8715SOL    HW137604   3.462   3.597   1.689 -0.1191 -0.2759 -0.7796
 8715SOL    HW237605   3.501   3.458   1.637  1.0871  1.2044 -0.4310
 8716SOL     OW37606   3.582   1.883   1.294  0.0149  0.5886 -0.4321
 8716SOL    HW137607   3.667   1.891   1.337  0.1847  0.3614 -0.7252
 8716SOL    HW237608   3.567   1.790   1.312  0.1215  1.3341  3.6781
 8717SOL     OW37609   4.063   1.805   5.083 -0.4038 -0.3716 -0.3846
 8717SOL    HW137610   4.064   1.725   5.136 -3.9054 -0.0758  0.1191
 8717SOL    HW237611   3.975   1.794   5.048  0.1776 -1.7627 -1.3845
 8718SOL     OW37612   4.679   3.270   6.429  0.0399 -0.0368 -0.2709
 8718SOL    HW137613   4.654   3.203   6.493  1.1427 -1.7014 -1.5864
 8718SOL    HW237614   4.632   3.240   6.352 -1.0427  0.6363  0.1393
 8719SOL     OW37615   0.025   4.641   5.334  0.4465  0.2895  0.0198
 8719SOL    HW137616   0.018   4.622   5.427 -1.5592  2.1291  0.2642
 8719SOL    HW237617   0.018   0.015   5.343 -0.3707  0.4501 -2.1707
 8720SOL     OW37618   4.130   2.347   6.136  0.7715 -0.6641 -0.1408
 8720SOL    HW137619   4.114   2.359   6.043  2.0828  1.1100 -0.1340
 8720SOL    HW237620   4.087   2.262   6.149 -1.7049  0.5805 -0.2140
 8721SOL     OW37621   1.683   3.545  13.896  0.0182 -0.5804 -0.8493
 8721SOL    HW137622   1.731   3.571  13.974  0.8202 -0.2115 -1.4712
 8721SOL    HW237623   1.736   3.592  13.831  1.9175 -1.7555 -0.1538
 8722SOL     OW37624   2.981   4.299   5.618 -0.2064 -0.0244 -0.5305
 8722SOL    HW137625   2.991   4.385   5.659  0.5596  0.5128 -1.8433
 8722SOL    HW237626   3.038   4.242   5.670  0.3164 -0.3996 -1.5028
 8723SOL     OW37627   0.377   0.866   0.822 -0.1092 -0.2214  0.2051
 8723SOL    HW137628   0.357   0.861   0.728 -0.8132  0.1411  0.3411
 8723SOL    HW237629   0.370   0.773   0.844 -1.1001 -0.4394 -0.9796
 8724SOL     OW37630   1.933   2.370  13.139 -0.2820 -0.2739  0.2419
 8724SOL    HW137631   1.914   2.464  13.137 -1.4330 -0.5195 -0.3655
 8724SOL    HW237632   2.028   2.371  13.148 -0.3281 -3.4317  1.1358
 8725SOL     OW37633   2.682   2.803   8.505 -0.1516  0.0533 -0.1295
 8725SOL    HW137634   2.691   2.882   8.451 -1.6836 -0.1750 -0.7072
 8725SOL    HW237635   2.605   2.838   8.550 -0.5770 -0.8430 -0.1657
 8726SOL     OW37636   1.926   2.067   7.046  0.0404 -0.0760  0.1552
 8726SOL    HW137637   1.877   2.121   7.108 -0.2889 -0.9267  0.6347
 8726SOL    HW237638   1.997   2.068   7.111  1.1135  0.4936 -1.0140
 8727SOL     OW37639   1.133   3.983  13.170  0.1906 -0.3550  0.0120
 8727SOL    HW137640   1.224   3.971  13.198 -0.1268 -0.8623  0.8686
 8727SOL    HW237641   1.096   4.059  13.214 -1.9272 -1.4968  0.2287
 8728SOL     OW37642   3.580   4.393  14.464 -0.0342 -0.2531  0.6128
 8728SOL    HW137643   3.535   4.470  14.498  0.0088 -0.4168  1.0308
 8728SOL    HW237644   3.518   4.326  14.492  1.0310 -0.3362  2.7881
 8729SOL     OW37645   3.566   1.995   5.337  0.3457  0.5783  0.2460
 8729SOL    HW137646   3.525   1.999   5.250  2.6723  1.3075 -0.8027
 8729SOL    HW237647   3.659   1.998   5.315  0.3963  0.2228  0.4027
 8730SOL     OW37648   2.731   0.167   0.759  0.5510 -0.3983 -0.4167
 8730SOL    HW137649   2.797   0.114   0.802  0.9248  0.2041 -0.2537
 8730SOL    HW237650   2.682   0.101   0.709 -1.4837  0.6737  0.1409
 8731SOL     OW37651   4.490   2.457   1.285  0.4407 -0.0361  0.3300
 8731SOL    HW137652   4.469   2.378   1.334 -0.7602 -0.1582 -0.3921
 8731SOL    HW237653   4.509   2.511   1.361  1.9194  0.3871 -0.3269
 8732SOL     OW37654   1.940   2.427   1.993 -0.0152  0.1126  0.1197
 8732SOL    HW137655   2.023   2.408   2.038  0.2817  0.3787 -0.3243
 8732SOL    HW237656   1.936   2.351   1.935  1.9474 -0.3250  0.5323
 8733SOL     OW37657   3.454   1.529   9.984 -0.0865  1.1179 -0.2129
 8733SOL    HW137658   3.371   1.484   9.967 -0.5371  1.2042  1.8275
 8733SOL    HW237659   3.450   1.539  10.079  0.8865  2.1428 -0.2852
 8734SOL     OW37660   1.867   0.148   8.113  0.2857 -0.1659  0.0450
 8734SOL    HW137661   1.924   0.209   8.159 -0.6706  0.1946  0.7550
 8734SOL    HW237662   1.811   0.122   8.187  0.1784 -1.3978 -0.4741
 8735SOL     OW37663   0.739   0.151  16.517  0.0585 -0.1699  0.3822
 8735SOL    HW137664   0.829   0.176  16.536  0.0285 -1.3517  2.0639
 8735SOL    HW237665   0.718   0.245  16.511  0.0239 -0.1648  0.5686
 8736SOL     OW37666   1.309   0.375   4.116  0.0778 -0.2695  0.1912
 8736SOL    HW137667   1.273   0.458   4.149  3.6350  0.4466  2.1913
 8736SOL    HW237668   1.391   0.396   4.072 -0.0145  3.7075  1.8913
 8737SOL     OW37669   2.350   1.759   4.463  0.0789  0.0873  0.4688
 8737SOL    HW137670   2.296   1.777   4.541 -0.7788  1.3293 -0.4138
 8737SOL    HW237671   2.399   1.691   4.510  3.2802  0.5882 -2.2181
 8738SOL     OW37672   1.514   4.281   4.394 -0.6629  0.1050  0.3206
 8738SOL    HW137673   1.585   4.334   4.360 -1.1209  1.6670  1.7850
 8738SOL    HW237674   1.570   4.206   4.413 -0.5203  0.0174 -0.4555
 8739SOL     OW37675   3.158   3.460   1.932 -0.0017 -0.1044  0.0119
 8739SOL    HW137676   3.138   3.546   1.895 -1.3626 -0.5105 -0.2037
 8739SOL    HW237677   3.242   3.479   1.974 -0.0044 -0.6696  0.2747
 8740SOL     OW37678   0.640   0.834   1.384  0.1497  0.1459 -0.3873
 8740SOL    HW137679   0.595   0.790   1.456  1.3282  0.5355  0.5977
 8740SOL    HW237680   0.678   0.754   1.348  0.9539  0.5235 -0.3794
 8741SOL     OW37681   0.838   3.730   8.465 -0.4518  0.0662 -0.3508
 8741SOL    HW137682   0.789   3.704   8.387  2.4809 -0.1556 -2.1513
 8741SOL    HW237683   0.766   3.755   8.523  1.5464  2.4765  1.1171
 8742SOL     OW37684   0.121   4.220   5.213 -0.1463 -1.0605 -0.3779
 8742SOL    HW137685   0.106   4.198   5.121 -0.5325 -0.8614 -0.3616
 8742SOL    HW237686   0.195   4.160   5.225  0.6487 -0.1685 -0.8097
 8743SOL     OW37687   3.905   3.262   2.636 -0.0750 -0.5046  1.0594
 8743SOL    HW137688   3.852   3.299   2.566  0.2127 -2.3255 -0.1160
 8743SOL    HW237689   3.922   3.333   2.698  1.7392 -0.2821  0.2984
 8744SOL     OW37690   4.584   0.936  10.673 -0.5118 -0.5351 -0.1448
 8744SOL    HW137691   4.575   0.841  10.669  1.0033 -0.7556  1.8790
 8744SOL    HW237692   4.654   0.944  10.609  0.0568  3.7451  1.0204
 8745SOL     OW37693   0.630   4.583   0.932 -0.8156  0.1462  0.2557
 8745SOL    HW137694   0.564   4.541   0.987 -0.3635 -1.1454 -0.1876
 8745SOL    HW237695   0.704   4.601   0.990  0.7187  1.3777 -2.0765
 8746SOL     OW37696   3.050   2.466   1.951 -0.1835 -0.3301  0.0011
 8746SOL    HW137697   3.021   2.391   1.899  0.3222 -0.5367  0.0170
 8746SOL    HW237698   2.969   2.517   1.953 -1.7617 -2.9437  1.6313
 8747SOL     OW37699   2.523   0.992   4.232 -0.0102  0.0828  0.3201
 8747SOL    HW137700   2.430   0.994   4.257  0.3435 -1.8259  1.7572
 8747SOL    HW237701   2.548   1.078   4.268 -0.1209  0.6546 -0.9785
 8748SOL     OW37702   2.495   0.580   2.208 -0.2836  0.6902 -0.0029
 8748SOL    HW137703   2.578   0.551   2.244 -0.2931  3.2141  2.0931
 8748SOL    HW237704   2.520   0.586   2.116 -0.2561 -2.8845 -0.2274
 8749SOL     OW37705   2.952   2.932   6.430 -0.2635  0.0205 -0.1566
 8749SOL    HW137706   2.974   2.963   6.518 -2.2799  2.0252 -0.3610
 8749SOL    HW237707   2.902   2.853   6.452  1.0062 -0.2521  1.7866
 8750SOL     OW37708   4.629   4.490   2.540 -0.4506 -0.3823 -0.1500
 8750SOL    HW137709   4.544   4.534   2.536 -1.0530 -1.7577 -2.8929
 8750SOL    HW237710   4.656   4.509   2.630  0.6087  1.1467 -0.7948
 8751SOL     OW37711   2.673   2.107   3.689 -0.5503 -0.6597 -0.1710
 8751SOL    HW137712   2.647   2.196   3.711  0.3557 -0.0449 -1.5646
 8751SOL    HW237713   2.767   2.118   3.701 -1.2053  1.3575  3.0889
 8752SOL     OW37714   0.817   3.913  14.263  0.7588 -0.2670  0.0301
 8752SOL    HW137715   0.772   3.965  14.196  3.1070  1.1899 -0.4228
 8752SOL    HW237716   0.841   3.840  14.206  0.3180  1.0514 -1.8300
 8753SOL     OW37717   3.760   3.065  12.841  0.1339 -0.5136 -0.1152
 8753SOL    HW137718   3.679   3.068  12.892 -0.5248  1.2997 -1.2944
 8753SOL    HW237719   3.809   3.132  12.888 -1.3802  0.8397 -0.4797
 8754SOL     OW37720   1.657   0.904   9.274 -0.1355 -0.4030  0.3668
 8754SOL    HW137721   1.579   0.849   9.280 -2.5746  3.0474  0.6062
 8754SOL    HW237722   1.646   0.953   9.193  1.1525 -0.8787 -0.0885
 8755SOL     OW37723   4.585   2.829   7.088  0.2812  0.2031 -0.2213
 8755SOL    HW137724   4.563   2.750   7.138  3.4500 -0.1336  0.6490
 8755SOL    HW237725   4.650   2.870   7.145  0.1681  2.7206 -1.9283
 8756SOL     OW37726   0.922   0.720   0.670  0.3790 -0.0961  0.7502
 8756SOL    HW137727   0.960   0.633   0.681 -1.4155 -0.9960 -0.0433
 8756SOL    HW237728   0.919   0.741   0.763 -1.2568 -2.1475  1.1619
 8757SOL     OW37729   2.947   0.915   9.634 -0.1567  0.4132 -0.6955
 8757SOL    HW137730   2.878   0.943   9.574 -1.7962 -0.3050  0.8598
 8757SOL    HW237731   2.903   0.844   9.680  1.4193  0.3879  0.7410
 8758SOL     OW37732   0.702   3.111  11.233 -0.2916 -0.0403  0.3033
 8758SOL    HW137733   0.755   3.174  11.185 -1.3785  0.7358  0.1239
 8758SOL    HW237734   0.637   3.173  11.265  0.8519  0.5751  1.4426
 8759SOL     OW37735   3.681   3.091   5.891  0.0744  0.3902  0.5181
 8759SOL    HW137736   3.776   3.087   5.904 -0.1969 -0.3933  2.2053
 8759SOL    HW237737   3.664   3.184   5.873  0.3195  0.5351  1.0359
 8760SOL     OW37738   1.319   2.498   8.939  0.4769  0.3570  0.3717
 8760SOL    HW137739   1.231   2.518   8.969 -0.4420 -0.6091 -1.6762
 8760SOL    HW237740   1.357   2.451   9.014  0.1668 -0.1019  0.2445
 8761SOL     OW37741   3.310   2.516   4.680  0.3217 -0.0964 -0.2470
 8761SOL    HW137742   3.258   2.498   4.602  0.2639 -1.6769  0.1571
 8761SOL    HW237743   3.351   2.431   4.696  0.3823  0.6667  3.8477
 8762SOL     OW37744   0.634   0.610   4.937 -0.1358  0.2759  0.4091
 8762SOL    HW137745   0.581   0.686   4.916 -0.3840  0.4262  1.6065
 8762SOL    HW237746   0.696   0.618   4.864 -0.3541  0.9526  0.2952
 8763SOL     OW37747   2.185   0.331   9.085 -0.0779 -0.4211  0.0592
 8763SOL    HW137748   2.273   0.325   9.047  0.4153 -0.4978  1.2248
 8763SOL    HW237749   2.168   0.238   9.099 -0.5445  0.0439  2.5798
 8764SOL     OW37750   4.099   0.284   3.561  1.0254 -0.1539  0.3682
 8764SOL    HW137751   4.027   0.317   3.614  0.6571  0.0432 -0.2586
 8764SOL    HW237752   4.076   0.191   3.561 -1.1312  0.3699 -0.1234
 8765SOL     OW37753   3.307   2.152   9.119 -0.2330 -0.0965 -0.4543
 8765SOL    HW137754   3.299   2.073   9.173  2.8742 -0.0303  0.1238
 8765SOL    HW237755   3.401   2.169   9.127 -0.4958  0.8125  0.7544
 8766SOL     OW37756   3.565   2.843   7.894  0.0808  0.1343 -0.5546
 8766SOL    HW137757   3.540   2.785   7.823 -0.1581 -0.3897 -0.0431
 8766SOL    HW237758   3.594   2.924   7.853 -2.0278 -0.1499 -2.5899
 8767SOL     OW37759   0.404   3.377   3.978  0.3862 -0.0418 -0.3475
 8767SOL    HW137760   0.484   3.371   4.030  0.5295 -0.9551 -0.6840
 8767SOL    HW237761   0.339   3.373   4.049  0.3846  0.6440 -0.3143
 8768SOL     OW37762   0.013   4.167   6.844 -0.4668 -0.1066  0.4290
 8768SOL    HW137763   4.681   4.161   6.923  0.5451  0.5434  1.1660
 8768SOL    HW237764   4.678   4.154   6.767  2.5123 -1.6618 -1.4877
 8769SOL     OW37765   3.118   1.664   4.558 -0.5492  0.2632 -0.0255
 8769SOL    HW137766   3.197   1.648   4.507 -1.3565  1.2050 -1.5585
 8769SOL    HW237767   3.119   1.578   4.601 -1.5914  1.0374  1.5839
 8770SOL     OW37768   1.749   2.632   6.503  0.5311  0.0989 -0.0167
 8770SOL    HW137769   1.825   2.581   6.530  0.7436  0.9558  1.0071
 8770SOL    HW237770   1.690   2.558   6.492 -0.5958  0.4802  3.3230
 8771SOL     OW37771   1.860   0.947   6.178 -0.5510 -0.4424  0.9933
 8771SOL    HW137772   1.784   0.901   6.143 -0.1048 -2.6127  2.9162
 8771SOL    HW237773   1.918   0.960   6.103  1.6654  0.6835  2.8915
 8772SOL     OW37774   2.905   2.607  13.919  0.0277 -0.7459  0.5606
 8772SOL    HW137775   2.856   2.666  13.976  2.1806  2.0595 -0.4730
 8772SOL    HW237776   2.865   2.640  13.839  2.1395 -1.1386 -0.6547
 8773SOL     OW37777   3.774   4.392   7.576 -0.3444 -0.1659 -0.2868
 8773SOL    HW137778   3.776   4.445   7.497 -3.4138  0.4348  0.0550
 8773SOL    HW237779   3.694   4.347   7.551 -0.6888 -0.4086  1.2521
 8774SOL     OW37780   3.129   4.702   4.612 -0.2542  0.1484 -0.1055
 8774SOL    HW137781   3.053   4.716   4.669 -0.0844 -0.3268  0.2381
 8774SOL    HW237782   3.090   4.659   4.536  1.2625 -0.3562 -0.5859
 8775SOL     OW37783   4.382   3.468   6.339  0.0621  0.5261  0.2668
 8775SOL    HW137784   4.476   3.487   6.329  0.7778 -2.4950  1.2816
 8775SOL    HW237785   4.348   3.558   6.343 -0.8117  0.1014  2.6844
 8776SOL     OW37786   4.638   1.934   4.157 -0.2890  0.0523 -0.2340
 8776SOL    HW137787   4.565   1.987   4.124 -0.9449  0.0606  1.1931
 8776SOL    HW237788   4.667   1.987   4.232 -0.1848 -2.0890  1.2260
 8777SOL     OW37789   0.781   0.355   5.630 -0.7461 -0.0979  0.3063
 8777SOL    HW137790   0.782   0.318   5.541  1.5126  1.3360 -0.2869
 8777SOL    HW237791   0.877   0.358   5.638 -0.8191  0.0445  1.0756
 8778SOL     OW37792   3.157   3.579   2.403 -0.0278 -0.6061 -0.0493
 8778SOL    HW137793   3.095   3.634   2.355  0.4189 -0.6939 -0.7180
 8778SOL    HW237794   3.098   3.538   2.467  0.6976  0.1240  1.0947
 8779SOL     OW37795   3.348   1.786   8.881 -0.3745 -0.5629  0.5762
 8779SOL    HW137796   3.355   1.789   8.976  1.6008  1.5271  0.3487
 8779SOL    HW237797   3.258   1.816   8.868 -0.2761 -0.3101  0.4804
 8780SOL     OW37798   2.255   1.111   1.996  0.3508  0.3289 -0.0106
 8780SOL    HW137799   2.295   1.025   2.009  0.4412  0.4367  0.4334
 8780SOL    HW237800   2.298   1.143   1.917  3.7297  0.5593  1.9584
 8781SOL     OW37801   4.410   3.817   0.158  0.0756  0.0928 -0.2393
 8781SOL    HW137802   4.342   3.819   0.225 -0.5818  2.8803 -0.9429
 8781SOL    HW237803   4.371   3.760   0.092  1.6092 -1.1339 -0.0718
 8782SOL     OW37804   3.596   0.817   4.129 -0.2663  0.0046  0.5637
 8782SOL    HW137805   3.561   0.772   4.206 -0.8761  0.7319  0.7082
 8782SOL    HW237806   3.656   0.877   4.173  3.0330 -1.3193 -2.1298
 8783SOL     OW37807   3.398   0.098   6.736  0.0065  0.0013  0.2043
 8783SOL    HW137808   3.357   0.184   6.746 -0.9379 -0.6750  2.2142
 8783SOL    HW237809   3.417   0.086   6.643 -0.4125 -0.8191  0.2249
 8784SOL     OW37810   3.407   3.251   4.474  0.4857 -0.2457  0.3374
 8784SOL    HW137811   3.386   3.159   4.457  1.3845 -0.8212  2.3249
 8784SOL    HW237812   3.324   3.296   4.462  0.6520  0.3458  1.3787
 8785SOL     OW37813   1.917   0.316   7.029  0.2323  0.2760  0.3674
 8785SOL    HW137814   2.004   0.277   7.025  0.6413  1.3959 -1.6515
 8785SOL    HW237815   1.943   0.400   6.993  1.4765 -0.2913 -0.0504
 8786SOL     OW37816   1.462   2.357  11.989  0.6401  0.0303 -0.2218
 8786SOL    HW137817   1.517   2.385  12.062 -0.2287  0.7197  0.1733
 8786SOL    HW237818   1.414   2.287  12.034  0.4106  0.4344  0.1577
 8787SOL     OW37819   2.682   3.727   3.588  0.2352 -0.1617  0.4631
 8787SOL    HW137820   2.727   3.695   3.667  2.7507 -0.4184 -1.0633
 8787SOL    HW237821   2.683   3.650   3.530  0.8866  0.7448 -0.7341
 8788SOL     OW37822   1.260   3.012   9.991  0.0135 -0.2480 -0.2096
 8788SOL    HW137823   1.280   2.921   9.965 -1.4193 -0.5605 -0.1919
 8788SOL    HW237824   1.185   3.034   9.936  1.1588  0.1353 -1.6295
 8789SOL     OW37825   1.962   2.600   9.045  0.5943  0.1363 -0.8703
 8789SOL    HW137826   1.964   2.529   9.109 -1.0635 -0.6128 -1.6243
 8789SOL    HW237827   2.029   2.584   8.978  0.7599  0.4955 -0.7899
 8790SOL     OW37828   4.656   1.905   3.190  0.2647 -0.8712  0.6988
 8790SOL    HW137829   4.581   1.861   3.150  0.0055  1.4104 -1.3323
 8790SOL    HW237830   4.682   1.974   3.129  2.0669 -2.2649 -0.1137
 8791SOL     OW37831   0.955   3.838  16.852 -0.1630  0.2100 -0.5228
 8791SOL    HW137832   1.038   3.866  16.812  0.0385  3.9459  2.5035
 8791SOL    HW237833   0.956   3.745  16.833  3.2534 -0.3613  2.4168
 8792SOL     OW37834   1.685   0.070   8.812  0.4056  0.5702  0.4541
 8792SOL    HW137835   1.746   4.719   8.829 -0.8597  0.0356  2.5696
 8792SOL    HW237836   1.690   0.097   8.720 -0.5001 -0.1329  0.2035
 8793SOL     OW37837   1.408   1.591  15.947 -0.5759 -0.1677 -0.6681
 8793SOL    HW137838   1.407   1.578  16.042 -2.2208 -0.2511 -0.6862
 8793SOL    HW237839   1.453   1.512  15.919 -0.1452 -0.0097 -0.4278
 8794SOL     OW37840   1.502   3.702  14.046  0.0677  0.2743  0.1992
 8794SOL    HW137841   1.552   3.633  14.002  2.0179  2.0468 -0.3266
 8794SOL    HW237842   1.483   3.665  14.132  1.6721  0.6224  0.6967
 8795SOL     OW37843   0.172   1.567   2.058  0.6641  0.2137 -0.9018
 8795SOL    HW137844   0.098   1.551   2.117  0.8070  0.7188 -0.5907
 8795SOL    HW237845   0.189   1.477   2.031  0.6079 -0.9617  3.0978
 8796SOL     OW37846   3.672   4.570   3.509 -0.0668  0.0359  0.0705
 8796SOL    HW137847   3.750   4.537   3.465  0.0010 -1.7207  1.5232
 8796SOL    HW237848   3.611   4.526   3.450 -1.1118  2.0980 -0.4111
 8797SOL     OW37849   0.185   0.595   4.882 -0.8056  0.1646  0.5595
 8797SOL    HW137850   0.232   0.524   4.838 -1.4371 -0.2752  0.5946
 8797SOL    HW237851   0.094   0.566   4.883 -0.2814 -1.4701  1.0677
 8798SOL     OW37852   3.671   0.262  15.160  0.8547 -0.0223 -0.3860
 8798SOL    HW137853   3.584   0.226  15.176  0.0555  1.2536 -1.8179
 8798SOL    HW237854   3.654   0.356  15.151 -1.0955 -0.1089  2.1516
 8799SOL     OW37855   1.788   2.544   5.138 -0.0425 -0.7849 -0.4036
 8799SOL    HW137856   1.713   2.560   5.081 -0.4833 -2.9367 -0.4163
 8799SOL    HW237857   1.834   2.480   5.083  1.3023 -0.9290  0.8907
 8800SOL     OW37858   2.082   0.821   3.427 -0.2243 -0.1136  0.2903
 8800SOL    HW137859   2.111   0.803   3.338 -0.4276  3.6883 -0.5665
 8800SOL    HW237860   1.994   0.784   3.423  0.7768 -2.4120  0.1173
 8801SOL     OW37861   0.768   2.629   5.826 -0.0416 -0.0955 -0.0583
 8801SOL    HW137862   0.747   2.542   5.793  1.2552 -0.5932  0.4445
 8801SOL    HW237863   0.743   2.624   5.918 -1.1100 -1.0843 -0.3982
 8802SOL     OW37864   3.256   4.264   3.755 -0.2672  0.0328  0.3019
 8802SOL    HW137865   3.240   4.208   3.831 -0.1361  1.9966  1.7676
 8802SOL    HW237866   3.328   4.322   3.780 -0.9405  1.6873 -1.6109
 8803SOL     OW37867   3.776   1.648   7.444  0.0570 -1.0007 -0.1651
 8803SOL    HW137868   3.814   1.639   7.531 -2.2480 -1.4288  0.7963
 8803SOL    HW237869   3.753   1.556   7.428  1.8217 -1.8935  2.4096
 8804SOL     OW37870   1.407   2.018   9.134  0.4740  0.0803 -0.3482
 8804SOL    HW137871   1.428   2.076   9.061  3.3397 -0.6702 -0.1258
 8804SOL    HW237872   1.485   2.028   9.189 -0.1399 -1.3621  0.7783
 8805SOL     OW37873   0.944   3.480   9.031 -0.6166 -1.2285 -0.1924
 8805SOL    HW137874   0.978   3.407   8.979 -0.5816 -1.0251 -0.4572
 8805SOL    HW237875   0.977   3.559   8.988  1.9578 -1.0770  2.0674
 8806SOL     OW37876   0.139   2.437   7.614  0.0933 -0.1704 -0.4583
 8806SOL    HW137877   0.066   2.383   7.642  0.4411 -0.9617 -1.0721
 8806SOL    HW237878   0.096   2.472   7.536 -2.3376 -0.0589  0.9398
 8807SOL     OW37879   3.739   4.007  13.333  0.5523 -0.4785  0.1833
 8807SOL    HW137880   3.709   3.926  13.293 -0.7063  1.0253 -1.8792
 8807SOL    HW237881   3.825   4.018  13.292  0.5141  0.6532  0.3999
 8808SOL     OW37882   0.534   4.126   8.501  0.4885  0.1714 -0.3869
 8808SOL    HW137883   0.480   4.048   8.492  1.0489 -0.4134  1.3465
 8808SOL    HW237884   0.626   4.102   8.492  0.2980 -0.6132 -0.2433
 8809SOL     OW37885   2.071   4.129   0.292 -0.0543 -0.5222  0.1464
 8809SOL    HW137886   2.163   4.130   0.267 -0.1306 -0.3614 -0.1353
 8809SOL    HW237887   2.065   4.209   0.345 -1.9102 -0.1492 -0.6036
 8810SOL     OW37888   0.308   3.335   8.680 -0.5677 -0.0692  0.3265
 8810SOL    HW137889   0.231   3.328   8.623 -1.6828  0.7520  1.7281
 8810SOL    HW237890   0.283   3.395   8.750  1.6384  0.9555  0.2115
 8811SOL     OW37891   2.754   0.110   8.411 -0.3522  0.3292 -0.0062
 8811SOL    HW137892   2.849   0.119   8.415 -0.5487  2.2901  0.6166
 8811SOL    HW237893   2.739   0.019   8.386  2.2775  0.7042 -2.9852
 8812SOL     OW37894   3.736   4.074  14.476  0.6379 -0.2101 -0.9241
 8812SOL    HW137895   3.676   4.137  14.436  0.4454  2.0003  2.8895
 8812SOL    HW237896   3.792   4.131  14.528 -0.3116 -1.3131  1.3439
 8813SOL     OW37897   2.901   3.195   3.503 -0.1264  0.1497  0.0821
 8813SOL    HW137898   2.833   3.245   3.457 -0.6046 -1.3489 -0.8206
 8813SOL    HW237899   2.874   3.105   3.484  1.5016 -0.4389  0.5396
 8814SOL     OW37900   2.867   2.913  16.554  0.3112 -0.5299  0.1912
 8814SOL    HW137901   2.784   2.944  16.518 -0.3506 -1.9644  0.5003
 8814SOL    HW237902   2.863   2.818  16.555  0.2693 -0.5304 -0.0125
 8815SOL     OW37903   4.072   1.994   9.201 -0.0467 -0.1915  0.0637
 8815SOL    HW137904   4.002   2.052   9.170  0.1186  0.5091  1.0104
 8815SOL    HW237905   4.029   1.909   9.207  1.5459 -1.2140 -3.0889
 8816SOL     OW37906   1.235   1.963   6.664 -0.3572  0.4188  0.1694
 8816SOL    HW137907   1.272   1.996   6.582 -2.0815  1.6877 -0.0976
 8816SOL    HW237908   1.316   1.966   6.715 -0.9323  1.7695  0.9978
 8817SOL     OW37909   0.870   1.620  17.249 -0.1064  0.3018  0.3902
 8817SOL    HW137910   0.949   1.566  17.248  0.0291  0.5330 -0.7632
 8817SOL    HW237911   0.872   1.647  17.158 -0.6328 -0.8293  0.0400
 8818SOL     OW37912   1.149   1.825   3.913  0.1226  0.5093  0.6757
 8818SOL    HW137913   1.170   1.837   3.821 -0.9698 -1.0884  0.2129
 8818SOL    HW237914   1.158   1.915   3.943 -1.5802 -0.0142  2.7773
 8819SOL     OW37915   2.538   2.958   4.252 -0.2413  0.3927  0.4866
 8819SOL    HW137916   2.493   2.874   4.241 -2.2850  1.3929  1.1865
 8819SOL    HW237917   2.545   2.954   4.347  1.4526 -0.5325  0.3241
 8820SOL     OW37918   0.001   3.856   3.490  0.2052 -0.1173 -0.2059
 8820SOL    HW137919   4.685   3.779   3.533  0.4174 -0.9089 -1.4356
 8820SOL    HW237920   4.714   3.837   3.397  2.0950 -1.5629 -0.0703
 8821SOL     OW37921   0.860   0.662   4.257 -0.0965 -0.1785 -1.3881
 8821SOL    HW137922   0.861   0.576   4.299 -1.6098 -1.1212 -3.3021
 8821SOL    HW237923   0.771   0.691   4.275 -0.3223 -1.6482 -0.1062
 8822SOL     OW37924   0.535   1.946   7.934 -0.2954  0.5727 -0.5150
 8822SOL    HW137925   0.555   1.861   7.975 -1.1722  0.5879 -0.0384
 8822SOL    HW237926   0.491   1.996   8.002 -0.8904 -0.8352  0.1497
 8823SOL     OW37927   1.049   2.127   0.248 -0.3183  0.0110 -0.3474
 8823SOL    HW137928   1.071   2.049   0.197  3.6483  1.7656 -1.3261
 8823SOL    HW237929   0.955   2.114   0.236  0.0305 -1.9081 -1.0960
 8824SOL     OW37930   0.297   3.240  15.748 -0.0809 -0.2045  0.2000
 8824SOL    HW137931   0.308   3.236  15.843 -0.0715  0.4368  0.2227
 8824SOL    HW237932   0.207   3.272  15.742 -0.8627 -2.6697 -1.1645
 8825SOL     OW37933   4.028   2.887   9.632 -0.8537 -0.2610  0.0342
 8825SOL    HW137934   4.078   2.958   9.591  0.8655 -3.7226 -3.8634
 8825SOL    HW237935   3.996   2.934   9.709 -0.9922  0.1536 -0.2794
 8826SOL     OW37936   0.461   3.334  15.508 -0.0269 -0.3077 -0.4480
 8826SOL    HW137937   0.523   3.261  15.505  1.1683  0.7747 -2.1003
 8826SOL    HW237938   0.390   3.296  15.559 -0.5413  0.1815 -0.8004
 8827SOL     OW37939   4.614   2.894   5.738 -0.3642 -0.0055 -0.4130
 8827SOL    HW137940   4.687   2.870   5.795  2.1798  2.7238 -2.5057
 8827SOL    HW237941   4.578   2.806   5.729 -1.3605  0.2604  0.9350
 8828SOL     OW37942   0.449   1.753   7.466  0.0170 -0.9303  0.2494
 8828SOL    HW137943   0.403   1.685   7.416  1.0590 -0.7697 -0.9539
 8828SOL    HW237944   0.375   1.807   7.492  0.0882 -0.5914 -0.2478
 8829SOL     OW37945   0.160   0.303   5.950  0.6753 -0.4384  0.1200
 8829SOL    HW137946   0.243   0.273   5.912  0.9397  1.7409 -1.0276
 8829SOL    HW237947   0.171   0.300   6.046 -3.7762  0.0488  0.6322
 8830SOL     OW37948   0.353   3.757  11.393  0.1098 -0.1430  0.3928
 8830SOL    HW137949   0.309   3.814  11.331 -2.1474 -2.5632 -0.2079
 8830SOL    HW237950   0.355   3.810  11.473  2.1377  3.5263 -2.1211
 8831SOL     OW37951   0.705   2.047   9.942  0.0645  0.8953  0.1134
 8831SOL    HW137952   0.677   2.129   9.983 -3.6828  0.5121 -1.6959
 8831SOL    HW237953   0.670   2.057   9.854  1.1394  2.5674 -0.1203
 8832SOL     OW37954   1.138   3.198  11.739  0.0541  0.2213 -0.1704
 8832SOL    HW137955   1.090   3.120  11.711  1.0095 -0.4704  0.1360
 8832SOL    HW237956   1.081   3.265  11.701  0.0910  1.1280  1.3922
 8833SOL     OW37957   2.588   4.002  15.682 -0.5720  0.2726  0.0586
 8833SOL    HW137958   2.673   3.965  15.704  0.3194  1.5169 -1.3056
 8833SOL    HW237959   2.553   4.048  15.758  1.2526  2.6446 -0.5286
 8834SOL     OW37960   0.574   0.345   4.958 -0.3696 -0.5740  0.2415
 8834SOL    HW137961   0.589   0.438   4.946 -0.4678 -0.3971  1.4799
 8834SOL    HW237962   0.479   0.356   4.955 -0.3533 -0.7656 -0.9226
 8835SOL     OW37963   1.794   2.765  11.891 -0.4003  0.1842  0.2400
 8835SOL    HW137964   1.729   2.802  11.950 -0.4359 -0.0609  0.3537
 8835SOL    HW237965   1.799   2.673  11.914  2.6003  0.3908  0.4114
 8836SOL     OW37966   0.557   4.527   4.211  0.0208  0.2481  0.3451
 8836SOL    HW137967   0.509   4.586   4.269 -2.8327 -2.8111  1.1184
 8836SOL    HW237968   0.500   4.537   4.134  2.6131  0.8390 -1.4696
 8837SOL     OW37969   2.770   4.360   6.455  0.8222  0.3220 -0.2958
 8837SOL    HW137970   2.762   4.266   6.474 -0.6010  1.2432  3.7336
 8837SOL    HW237971   2.705   4.369   6.386  0.7147 -2.1393 -0.5251
 8838SOL     OW37972   0.892   4.200  12.903  0.5300 -0.3689  0.2395
 8838SOL    HW137973   0.933   4.113  12.900  1.2185 -0.0498  0.3212
 8838SOL    HW237974   0.848   4.196  12.988 -0.1751 -0.5314 -0.1363
 8839SOL     OW37975   1.036   3.640   9.248  0.1066  0.1094  0.9481
 8839SOL    HW137976   1.006   3.601   9.166  0.5179 -1.1136  1.3857
 8839SOL    HW237977   1.117   3.592   9.265  2.1635  2.8859 -0.8685
 8840SOL     OW37978   2.785   3.508  14.561  0.6611 -0.3387  0.1411
 8840SOL    HW137979   2.808   3.589  14.607  0.6846  0.5106 -1.3677
 8840SOL    HW237980   2.794   3.533  14.469 -0.4233  1.3471  0.5034
 8841SOL     OW37981   2.650   1.748   9.823  0.3075  0.0628 -0.1376
 8841SOL    HW137982   2.633   1.689   9.896 -1.7341  2.4305  1.2871
 8841SOL    HW237983   2.634   1.830   9.870  2.0431 -0.6466  1.6901
 8842SOL     OW37984   1.427   4.000  10.109 -0.4516  0.2754  0.1068
 8842SOL    HW137985   1.365   3.963  10.172  2.2723 -0.5460  2.3213
 8842SOL    HW237986   1.474   4.061  10.167 -1.8426 -0.6624  2.2222
 8843SOL     OW37987   0.677   3.329   5.533 -0.3530  0.1150 -0.1088
 8843SOL    HW137988   0.712   3.240   5.540  0.4789  0.4620  0.1372
 8843SOL    HW237989   0.684   3.346   5.439 -1.7616  1.7504  0.0931
 8844SOL     OW37990   0.701   1.757  16.548  0.1285  0.2493  0.1029
 8844SOL    HW137991   0.648   1.678  16.557  1.7457 -0.7450  0.7539
 8844SOL    HW237992   0.631   1.817  16.520 -0.7391  0.6683  3.1585
 8845SOL     OW37993   0.291   4.566   2.076 -0.2992 -0.1650  0.1413
 8845SOL    HW137994   0.263   4.479   2.104  3.3639 -2.1674 -2.4393
 8845SOL    HW237995   0.276   4.617   2.156  0.8637 -0.2661  0.4241
 8846SOL     OW37996   0.627   1.597   7.853  0.4105 -0.2194 -0.2133
 8846SOL    HW137997   0.648   1.519   7.905 -0.1296 -0.8448 -0.9258
 8846SOL    HW237998   0.593   1.654   7.921 -1.7471 -1.5240 -0.2279
 8847SOL     OW37999   3.064   3.574  16.596 -0.7476  0.0406 -0.0580
 8847SOL    HW138000   3.037   3.495  16.643  2.6905 -1.6353 -0.9666
 8847SOL    HW238001   3.158   3.563  16.591 -0.7453  0.1161 -0.1650
 8848SOL     OW38002   2.000   3.688   8.369 -0.2813 -0.9138 -0.2950
 8848SOL    HW138003   1.928   3.651   8.421  1.1464 -2.5447  0.5450
 8848SOL    HW238004   1.962   3.742   8.300 -0.5974  0.0085  0.5968
 8849SOL     OW38005   2.944   1.640   3.653  0.1558 -0.6984 -0.3344
 8849SOL    HW138006   2.877   1.575   3.632 -0.2966 -0.4415  0.3145
 8849SOL    HW238007   2.981   1.612   3.737  1.5895  1.2653 -0.3061
 8850SOL     OW38008   2.011   4.108   4.372  0.3287 -0.1892 -0.4895
 8850SOL    HW138009   2.036   4.071   4.457 -0.4081  1.8765  0.6243
 8850SOL    HW238010   1.948   4.177   4.390  1.9928  1.2862 -0.2795
 8851SOL     OW38011   3.875   1.526   2.840  0.1411  0.2347 -0.0945
 8851SOL    HW138012   3.889   1.467   2.914 -0.5319  1.7182  1.2174
 8851SOL    HW238013   3.845   1.460   2.777 -0.0141  0.2579 -0.0453
 8852SOL     OW38014   2.668   2.101   1.770  0.1207 -0.7969  0.9123
 8852SOL    HW138015   2.681   2.011   1.739 -2.0794 -1.0174  0.6309
 8852SOL    HW238016   2.641   2.145   1.689  0.0217 -1.6932  0.4572
 8853SOL     OW38017   1.434   3.584   0.635  0.0665 -0.4435  0.2757
 8853SOL    HW138018   1.481   3.559   0.714 -2.2663  2.6103  2.6623
 8853SOL    HW238019   1.372   3.512   0.625  1.9938 -2.2047  0.8689
 8854SOL     OW38020   1.107   0.415   8.145  0.6006 -0.1211 -0.3860
 8854SOL    HW138021   1.138   0.339   8.098 -0.4570 -0.1362 -1.0580
 8854SOL    HW238022   1.168   0.483   8.118 -0.4378  1.0688  0.2135
 8855SOL     OW38023   4.542   3.710   4.651 -0.1527 -0.2737 -0.1604
 8855SOL    HW138024   4.482   3.772   4.694  0.5133 -0.6728  1.3354
 8855SOL    HW238025   4.481   3.656   4.600 -0.9548 -0.8097  1.3695
 8856SOL     OW38026   4.300   2.138  10.553 -0.3500  0.3708 -0.5883
 8856SOL    HW138027   4.349   2.217  10.573  0.2402  0.6480 -3.0940
 8856SOL    HW238028   4.332   2.127  10.463  1.0942  3.5377 -0.4411
 8857SOL     OW38029   1.489   3.969   6.486 -0.2406  0.2113  0.4323
 8857SOL    HW138030   1.513   4.006   6.401  2.4947 -0.1635  1.0339
 8857SOL    HW238031   1.397   3.944   6.478 -0.2000 -0.5149  2.2179
 8858SOL     OW38032   1.022   0.753   5.206 -0.1958 -0.1508 -0.4009
 8858SOL    HW138033   1.056   0.842   5.208 -0.3975 -0.0986  0.7778
 8858SOL    HW238034   0.929   0.756   5.227  0.4360 -0.6975  2.5475
 8859SOL     OW38035   3.515   1.671   8.164 -0.1958  0.1605 -0.3851
 8859SOL    HW138036   3.515   1.667   8.260  1.1104  2.1029 -0.2951
 8859SOL    HW238037   3.538   1.581   8.139 -0.8065  0.1192 -0.7800
 8860SOL     OW38038   3.130   3.499  14.865 -0.3443  0.0484  0.2947
 8860SOL    HW138039   3.169   3.435  14.925  0.6761  0.0605 -0.3556
 8860SOL    HW238040   3.192   3.573  14.868  1.8357 -1.7571  0.2219
 8861SOL     OW38041   1.822   4.126   2.208 -0.1698 -0.3229 -0.2746
 8861SOL    HW138042   1.809   4.042   2.164 -3.8270 -0.4034  1.0042
 8861SOL    HW238043   1.842   4.171   2.126 -1.7050  0.1901 -0.3691
 8862SOL     OW38044   4.081   0.277  10.215  0.3395 -0.7532 -0.4135
 8862SOL    HW138045   4.146   0.264  10.146  0.7621 -1.8893  0.1990
 8862SOL    HW238046   4.073   0.373  10.214  0.4431 -0.7632 -1.8023
 8863SOL     OW38047   4.362   2.433  11.883  0.2734  0.1712 -0.1090
 8863SOL    HW138048   4.415   2.513  11.884 -0.1753  0.4614  0.6445
 8863SOL    HW238049   4.362   2.422  11.978 -0.6755 -1.1108 -0.2574
 8864SOL     OW38050   2.113   0.383  17.446  0.1541  0.4671 -0.5339
 8864SOL    HW138051   2.148   0.382  17.357  2.4992 -2.6310  0.4418
 8864SOL    HW238052   2.053   0.309  17.448  0.9079 -0.0914  2.2127
 8865SOL     OW38053   2.435   2.233   4.395 -0.0221 -0.2960 -0.6286
 8865SOL    HW138054   2.503   2.282   4.441 -1.7217  0.9298  0.5720
 8865SOL    HW238055   2.455   2.139   4.395 -1.9427 -0.6941  1.6055
 8866SOL     OW38056   2.681   2.954   2.092  0.2520 -0.0659  0.3810
 8866SOL    HW138057   2.749   2.887   2.093 -1.9629 -2.2948  2.1576
 8866SOL    HW238058   2.644   2.927   2.176  1.3406  0.4917  1.0334
 8867SOL     OW38059   3.696   0.296  10.990 -0.5201  0.1130  0.2903
 8867SOL    HW138060   3.746   0.373  11.017  1.1724 -0.7580 -0.2976
 8867SOL    HW238061   3.768   0.233  10.997 -0.3820  0.1278 -0.8769
 8868SOL     OW38062   2.420   4.700   4.304 -0.1692  0.3480  0.3878
 8868SOL    HW138063   2.505   0.016   4.325 -0.5027  0.5186  1.4316
 8868SOL    HW238064   2.416   4.718   4.210  1.6146 -1.0840  0.0433
 8869SOL     OW38065   0.760   0.182   5.388 -0.0971  0.4385  0.5768
 8869SOL    HW138066   0.852   0.172   5.361 -0.3689  0.8717 -0.4952
 8869SOL    HW238067   0.753   0.117   5.458  1.2293 -2.3400 -1.8624
 8870SOL     OW38068   2.348   1.263   8.863  0.2684  0.2650  0.3406
 8870SOL    HW138069   2.327   1.173   8.839  0.3412  0.3310  0.0240
 8870SOL    HW238070   2.442   1.262   8.882  0.0637  1.1582  1.4070
 8871SOL     OW38071   2.559   3.061   3.187 -0.1080  0.3967  0.0023
 8871SOL    HW138072   2.468   3.086   3.174 -0.1933 -0.0889 -0.3473
 8871SOL    HW238073   2.560   2.966   3.176  0.3587  0.6535 -2.1688
 8872SOL     OW38074   1.425   3.665   7.893  0.1487  0.1902  0.3068
 8872SOL    HW138075   1.416   3.755   7.923  1.4674  0.8488 -1.2469
 8872SOL    HW238076   1.497   3.664   7.830  0.1858  3.8189  0.2924
 8873SOL     OW38077   1.820   0.503   4.321 -0.1453  0.3715 -0.1123
 8873SOL    HW138078   1.887   0.546   4.268  2.8281 -1.2330  2.3559
 8873SOL    HW238079   1.782   0.582   4.360 -1.4513 -0.0995 -0.4429
 8874SOL     OW38080   0.008   2.148  15.459 -0.7976  0.4935  0.1352
 8874SOL    HW138081   4.634   2.155  15.460 -0.6459  3.2291 -3.1106
 8874SOL    HW238082   0.021   2.072  15.403 -0.1711  0.0681  0.8540
 8875SOL     OW38083   0.061   4.165   5.850  0.5281  0.5368 -0.0225
 8875SOL    HW138084   0.096   4.116   5.924 -1.3746 -0.7373  0.0349
 8875SOL    HW238085   0.087   4.119   5.769  0.8624 -0.2849  0.5508
 8876SOL     OW38086   1.467   3.475   8.099  0.0551 -0.2311  0.2273
 8876SOL    HW138087   1.477   3.559   8.054 -0.4121  0.1144  0.7568
 8876SOL    HW238088   1.371   3.477   8.097  0.0243  0.5870  2.1799
 8877SOL     OW38089   1.021   3.524   2.513  0.4946  0.4640  0.3216
 8877SOL    HW138090   1.062   3.459   2.570 -0.6577  0.0894  0.7319
 8877SOL    HW238091   1.066   3.508   2.430  2.0682  0.7185  1.1346
 8878SOL     OW38092   0.565   1.400   5.105  0.2785 -0.0787  0.4677
 8878SOL    HW138093   0.579   1.360   5.019  1.2279  0.1878  0.4999
 8878SOL    HW238094   0.486   1.448   5.082  0.1362 -0.7427 -0.4289
 8879SOL     OW38095   2.655   3.522  16.195 -0.3485 -0.1800  0.0561
 8879SOL    HW138096   2.743   3.496  16.221 -0.4904 -2.0122 -1.2950
 8879SOL    HW238097   2.614   3.442  16.228 -0.7710  0.4446  1.0343
 8880SOL     OW38098   1.193   3.677   3.253  0.4335  0.5571  0.5785
 8880SOL    HW138099   1.222   3.703   3.166  0.9478  0.2713  0.6623
 8880SOL    HW238100   1.099   3.660   3.252  0.5703 -0.1191 -0.0487
 8881SOL     OW38101   0.628   3.702   3.466 -0.3830  0.1889  0.1868
 8881SOL    HW138102   0.586   3.787   3.448  0.7085  0.7701  0.3971
 8881SOL    HW238103   0.647   3.667   3.379 -1.9289  2.3557 -1.0347
 8882SOL     OW38104   1.390   4.308   0.599 -0.0660 -0.0036 -0.8547
 8882SOL    HW138105   1.395   4.214   0.617  1.6791 -0.0956 -1.7949
 8882SOL    HW238106   1.306   4.318   0.555 -1.2365  0.4018  1.4942
 8883SOL     OW38107   2.182   2.350   2.103 -0.4015  0.4635 -0.4396
 8883SOL    HW138108   2.271   2.333   2.071 -0.0451 -2.1980  1.9813
 8883SOL    HW238109   2.173   2.323   2.194 -1.9324  1.9156 -0.1543
 8884SOL     OW38110   3.927   4.247   8.032 -0.8417 -0.3018 -0.0025
 8884SOL    HW138111   3.937   4.342   8.043  1.5937 -0.2881 -2.4419
 8884SOL    HW238112   4.015   4.229   8.001 -1.1352 -3.8642  1.2819
 8885SOL     OW38113   0.994   1.562  13.653 -0.2405  0.3636 -0.2588
 8885SOL    HW138114   0.915   1.526  13.614 -0.7727  0.5711  0.6154
 8885SOL    HW238115   0.997   1.652  13.620 -0.5800  1.1778  1.9229
 8886SOL     OW38116   3.848   0.601   7.122  0.2950 -0.5959  0.3364
 8886SOL    HW138117   3.925   0.621   7.175 -0.2487  2.4524 -0.0443
 8886SOL    HW238118   3.816   0.688   7.098 -0.1020 -1.5808 -2.7582
 8887SOL     OW38119   2.537   2.390   6.506 -0.0092 -0.1073 -0.5506
 8887SOL    HW138120   2.630   2.400   6.527  0.4331 -4.2297 -0.5314
 8887SOL    HW238121   2.509   2.458   6.568 -0.3910 -1.2005  0.4678
 8888SOL     OW38122   3.519   0.898   9.446 -0.2917 -0.4182  0.5421
 8888SOL    HW138123   3.454   0.847   9.493  0.8766 -2.0072  0.4239
 8888SOL    HW238124   3.586   0.832   9.427 -2.2389 -2.4379  0.7308
 8889SOL     OW38125   0.811   2.107   5.562 -0.6949  0.4161  0.0627
 8889SOL    HW138126   0.763   2.035   5.520  0.6320  0.3252 -1.2909
 8889SOL    HW238127   0.887   2.061   5.596 -2.3029 -1.8036  0.6174
 8890SOL     OW38128   3.254   3.196   4.101  0.7676 -0.3046 -0.4771
 8890SOL    HW138129   3.230   3.281   4.137 -0.8642 -0.9798  0.0123
 8890SOL    HW238130   3.331   3.178   4.156  1.3838  1.1263 -0.8613
 8891SOL     OW38131   1.046   2.806   7.662  0.0138 -0.1758 -0.2263
 8891SOL    HW138132   1.036   2.900   7.682  1.2643  0.6009 -3.2020
 8891SOL    HW238133   1.109   2.775   7.727  0.1943 -0.4709 -0.5434
 8892SOL     OW38134   3.182   1.385   5.405 -0.0302 -0.1167  0.5949
 8892SOL    HW138135   3.243   1.322   5.368 -1.7673 -1.0284 -0.7247
 8892SOL    HW238136   3.190   1.355   5.496 -0.4304  0.5468  0.8592
 8893SOL     OW38137   1.716   3.920  16.890  0.3559  0.5279 -0.9185
 8893SOL    HW138138   1.714   3.954  16.979  1.0294  1.2368 -1.1638
 8893SOL    HW238139   1.622   3.914  16.873  0.0089 -2.1014  1.9401
 8894SOL     OW38140   2.528   1.550   9.649  0.0226  0.0812 -0.0350
 8894SOL    HW138141   2.621   1.547   9.669  0.4101  0.1714 -1.7779
 8894SOL    HW238142   2.503   1.618   9.712  0.3716  0.6924 -0.5625
 8895SOL     OW38143   0.499   4.042  11.589  0.0783 -0.3416  0.1238
 8895SOL    HW138144   0.520   3.962  11.637 -0.4724 -1.3490 -1.3189
 8895SOL    HW238145   0.500   4.100  11.665  2.1884 -0.2755  0.0322
 8896SOL     OW38146   1.349   3.069  17.564 -0.5912 -0.6276 -0.4849
 8896SOL    HW138147   1.408   3.102  17.496 -0.3832 -1.0666 -0.5141
 8896SOL    HW238148   1.270   3.051  17.514 -1.5866 -0.1754  0.9211
 8897SOL     OW38149   2.887   2.844   8.179  0.3427  0.3292  0.0897
 8897SOL    HW138150   2.819   2.777   8.179 -0.7394  1.4174  0.5992
 8897SOL    HW238151   2.937   2.819   8.101 -1.4226  1.0339 -1.2835
 8898SOL     OW38152   1.870   0.341   9.325  0.4899  0.0136  0.1201
 8898SOL    HW138153   1.939   0.407   9.322 -1.2180  1.6962 -1.6759
 8898SOL    HW238154   1.857   0.322   9.418  3.2177 -0.6115  0.3907
 8899SOL     OW38155   2.611   1.585   6.920  0.0887  0.3294 -0.4578
 8899SOL    HW138156   2.544   1.517   6.927  0.8056 -0.2504  0.7682
 8899SOL    HW238157   2.558   1.661   6.896 -1.1559  1.1292  4.6616
 8900SOL     OW38158   1.028   0.597   2.940  0.3259 -0.3026 -0.6505
 8900SOL    HW138159   1.119   0.572   2.959 -0.9417 -2.3204  2.6794
 8900SOL    HW238160   1.041   0.634   2.853  0.7658  1.5540  0.2049
 8901SOL     OW38161   1.616   2.095  15.033 -0.1630  0.2086 -0.3186
 8901SOL    HW138162   1.710   2.113  15.030 -0.3625  1.4641  0.6870
 8901SOL    HW238163   1.612   2.007  14.996 -0.6678 -0.7097  1.9171
 8902SOL     OW38164   4.249   0.161  16.359  0.4337  0.1005 -0.0677
 8902SOL    HW138165   4.264   0.085  16.302  0.2781 -0.6568  0.8923
 8902SOL    HW238166   4.156   0.177  16.370  0.2495  0.0263 -1.5487
 8903SOL     OW38167   2.015   1.526  16.294  0.0834 -0.3560  0.5376
 8903SOL    HW138168   2.089   1.509  16.235 -0.2932  2.4491 -0.7810
 8903SOL    HW238169   1.939   1.486  16.251  0.3664  0.6526 -0.9060
 8904SOL     OW38170   3.814   1.359   0.564  0.1493 -0.0614 -0.4208
 8904SOL    HW138171   3.719   1.352   0.576  0.0527  1.6126 -0.1673
 8904SOL    HW238172   3.820   1.448   0.599  2.0604  0.2334 -1.5285
 8905SOL     OW38173   3.870   1.430   9.581 -0.4807 -0.1224  0.6127
 8905SOL    HW138174   3.874   1.334   9.586  0.0603 -0.0379  1.8267
 8905SOL    HW238175   3.779   1.445   9.557 -0.2376 -0.4768 -0.5514
 8906SOL     OW38176   2.070   4.093   2.933  0.6778  0.7213 -0.5897
 8906SOL    HW138177   2.105   4.004   2.932  0.7386  0.6979  4.0679
 8906SOL    HW238178   2.045   4.113   2.843 -1.8668  0.3553  0.0607
 8907SOL     OW38179   0.414   2.416   8.648  0.5530  0.0167 -0.2660
 8907SOL    HW138180   0.417   2.510   8.667  0.9914 -0.2566  1.0164
 8907SOL    HW238181   0.322   2.401   8.667  0.3214  0.1831 -1.2160
 8908SOL     OW38182   3.996   0.790   0.313  0.0771 -0.0029 -0.0270
 8908SOL    HW138183   4.080   0.784   0.267  0.5047 -1.5698  0.9282
 8908SOL    HW238184   3.950   0.863   0.272  1.2789  0.6958 -0.1137
 8909SOL     OW38185   3.149   1.110   9.684 -0.4758 -0.0421 -0.2367
 8909SOL    HW138186   3.061   1.079   9.664 -0.1655 -0.8564 -0.3519
 8909SOL    HW238187   3.125   1.192   9.726  3.3318  1.3226 -0.6858
 8910SOL     OW38188   3.083   2.209   6.016  0.3637  0.0805  0.6323
 8910SOL    HW138189   3.117   2.287   5.973 -0.5224  0.5823  0.8487
 8910SOL    HW238190   3.008   2.180   5.965 -1.9526  3.4107  2.1664
 8911SOL     OW38191   2.270   0.453   1.266 -0.5958 -0.0424  0.0187
 8911SOL    HW138192   2.314   0.533   1.236 -1.8786  1.3201  1.7968
 8911SOL    HW238193   2.320   0.384   1.222  0.5727  0.8841 -0.1196
 8912SOL     OW38194   1.922   3.649   2.121  0.2261 -0.1094  0.5985
 8912SOL    HW138195   1.848   3.594   2.148 -0.1932  0.1190 -0.0673
 8912SOL    HW238196   1.968   3.651   2.204 -0.1528  0.8728  0.7828
 8913SOL     OW38197   1.513   4.457   2.769 -0.0416  0.9016 -0.2169
 8913SOL    HW138198   1.605   4.438   2.752  0.1070  0.3022  1.2420
 8913SOL    HW238199   1.470   4.434   2.687  0.7163  0.2089 -0.4275
 8914SOL     OW38200   1.292   4.090  10.916  0.3751 -0.4443  0.2464
 8914SOL    HW138201   1.209   4.104  10.962  0.4622  2.0317 -0.3602
 8914SOL    HW238202   1.299   3.997  10.936  1.4943 -0.5187 -0.4979
 8915SOL     OW38203   2.548   4.719   7.641 -0.1112 -0.0325  0.0233
 8915SOL    HW138204   2.534   4.630   7.674  0.4202 -0.2868 -0.4439
 8915SOL    HW238205   2.459   0.035   7.638  0.6413  1.8379  0.6525
 8916SOL     OW38206   4.690   2.714   9.228  0.1151  0.0617 -0.8804
 8916SOL    HW138207   0.034   2.653   9.194  0.3442 -0.6995  0.9590
 8916SOL    HW238208   4.675   2.679   9.316  0.6213  1.8637 -0.0670
 8917SOL     OW38209   4.677   0.284   2.798  0.2836 -0.4618 -0.3323
 8917SOL    HW138210   4.686   0.345   2.724 -2.2689  1.0600  0.6559
 8917SOL    HW238211   4.700   0.336   2.875 -1.7498 -0.0154 -0.0454
 8918SOL     OW38212   0.976   3.401   8.321 -0.6023 -0.2772  0.8014
 8918SOL    HW138213   0.908   3.384   8.386  1.2309 -1.8329  2.3154
 8918SOL    HW238214   1.031   3.322   8.324  2.1205  1.6041  1.1608
 8919SOL     OW38215   1.686   4.112   1.729  0.5042 -0.2663 -0.4532
 8919SOL    HW138216   1.756   4.117   1.794 -1.0392 -0.3485  1.2254
 8919SOL    HW238217   1.717   4.176   1.664  2.3467 -1.7509 -1.0434
 8920SOL     OW38218   4.501   4.534  12.252 -0.3735 -0.6739  0.3758
 8920SOL    HW138219   4.580   4.524  12.304 -0.2314 -3.2727 -0.2936
 8920SOL    HW238220   4.432   4.559  12.313  0.1926  0.8160  0.4140
 8921SOL     OW38221   0.282   1.251   3.150 -0.3411 -0.0161  0.5972
 8921SOL    HW138222   0.267   1.314   3.080 -2.3921 -1.3300 -0.1700
 8921SOL    HW238223   0.360   1.288   3.191 -0.0384  0.9332 -0.8292
 8922SOL     OW38224   0.929   4.373   9.039 -0.1828  0.3433  0.3552
 8922SOL    HW138225   0.865   4.428   9.085  1.8388  1.8545  1.4154
 8922SOL    HW238226   0.924   4.290   9.086 -1.5079  0.2942  0.1292
 8923SOL     OW38227   1.039   2.366  13.747  0.1762  0.6911  0.0921
 8923SOL    HW138228   1.057   2.309  13.672 -0.4795  1.5339 -0.7003
 8923SOL    HW238229   1.089   2.441  13.716 -0.0109  1.0140  0.5674
 8924SOL     OW38230   0.738   0.027   3.728 -0.1384 -0.3398 -0.2396
 8924SOL    HW138231   0.783   4.671   3.762  1.1747 -1.0195 -3.5663
 8924SOL    HW238232   0.800   0.098   3.743 -0.5298 -0.1629  0.5607
 8925SOL     OW38233   3.721   1.252   9.192  0.1444  0.8336  0.6126
 8925SOL    HW138234   3.756   1.270   9.105 -0.5674 -1.3789 -0.1249
 8925SOL    HW238235   3.638   1.299   9.179 -0.0252 -0.1319 -1.7697
 8926SOL     OW38236   3.456   0.090  15.885 -0.0932  0.4350 -0.3029
 8926SOL    HW138237   3.503   0.050  15.959 -0.2962  1.8847  0.6100
 8926SOL    HW238238   3.428   0.009  15.843 -0.9704  1.0820 -0.9524
 8927SOL     OW38239   3.380   2.381   8.370  0.1985 -0.3656 -0.0431
 8927SOL    HW138240   3.356   2.459   8.419  1.5293 -1.6592  2.6654
 8927SOL    HW238241   3.473   2.398   8.353 -0.0070  0.0371 -0.7560
 8928SOL     OW38242   1.425   2.721   1.628  0.6484  0.4428  0.2803
 8928SOL    HW138243   1.385   2.720   1.541 -1.7431 -0.3714  1.3958
 8928SOL    HW238244   1.455   2.633   1.649  0.8663 -0.2397 -2.9134
 8929SOL     OW38245   0.753   3.535   5.980  0.6674  0.2193 -0.2932
 8929SOL    HW138246   0.692   3.462   5.972  0.8877  0.2165 -1.9668
 8929SOL    HW238247   0.773   3.545   5.887  0.8683  0.9029 -0.1733
 8930SOL     OW38248   3.781   0.485   3.617  0.0283 -0.3661 -0.0639
 8930SOL    HW138249   3.799   0.431   3.540  2.8950  0.2694  0.1697
 8930SOL    HW238250   3.830   0.433   3.680  1.2818  0.4390 -0.3867
 8931SOL     OW38251   4.141   3.283   4.376  0.1016  0.2477  0.7137
 8931SOL    HW138252   4.064   3.321   4.334  1.7112  2.7231  0.0084
 8931SOL    HW238253   4.114   3.268   4.466  2.5607  2.9441  1.8960
 8932SOL     OW38254   3.480   1.148   8.167  0.3323 -0.6406  0.2491
 8932SOL    HW138255   3.462   1.199   8.245 -0.3922  0.4233 -0.6133
 8932SOL    HW238256   3.444   1.066   8.201 -0.5104 -1.0801 -1.6500
 8933SOL     OW38257   0.182   2.748   7.346  1.0493  0.3294 -0.4019
 8933SOL    HW138258   0.112   2.813   7.356 -0.9587 -1.9861  0.6484
 8933SOL    HW238259   0.203   2.778   7.257  2.7523  2.5832  0.7690
 8934SOL     OW38260   1.173   1.025   2.472  0.3613  0.0927 -0.2334
 8934SOL    HW138261   1.116   0.958   2.510 -0.2257  0.0570 -1.1706
 8934SOL    HW238262   1.135   1.100   2.517  0.1888  0.1182 -0.4176
 8935SOL     OW38263   0.244   3.571  14.581  0.0912  0.4117  0.3721
 8935SOL    HW138264   0.211   3.482  14.574  3.1230 -0.7511  0.8660
 8935SOL    HW238265   0.175   3.606  14.638  0.1001  1.5051 -0.2986
 8936SOL     OW38266   0.424   2.527   5.093  0.1760  0.0641 -0.1644
 8936SOL    HW138267   0.447   2.464   5.161 -2.2252 -1.8779 -1.1319
 8936SOL    HW238268   0.403   2.607   5.141  0.9738  0.7167 -0.9184
 8937SOL     OW38269   4.707   0.733   2.014  0.0854  0.5545  0.5633
 8937SOL    HW138270   4.640   0.682   2.058  0.6619  0.5142  1.3857
 8937SOL    HW238271   4.681   0.818   2.050 -0.7476 -0.3292  2.0535
 8938SOL     OW38272   1.127   3.135   8.650 -0.1735 -0.0033  0.5266
 8938SOL    HW138273   1.201   3.092   8.693  0.1593  0.3825  0.3336
 8938SOL    HW238274   1.161   3.224   8.648 -0.1716 -0.0293 -0.5594
 8939SOL     OW38275   0.895   1.991  16.943  0.2560  0.0337  0.0022
 8939SOL    HW138276   0.975   2.038  16.969  0.5034 -0.2061 -0.3401
 8939SOL    HW238277   0.879   2.033  16.858 -0.9131  0.1213  0.2665
 8940SOL     OW38278   2.282   3.212  12.726  0.3146 -0.3522 -0.6235
 8940SOL    HW138279   2.288   3.284  12.664 -1.8484  2.8110  2.8550
 8940SOL    HW238280   2.354   3.160  12.690  1.2403  1.7477 -1.8062
 8941SOL     OW38281   2.621   3.335   5.444 -0.3805 -0.4749 -0.1091
 8941SOL    HW138282   2.645   3.322   5.352  3.5912 -0.8612  0.9967
 8941SOL    HW238283   2.712   3.346   5.471 -0.4060  2.1021 -1.0927
 8942SOL     OW38284   3.657   0.359  11.814  0.5181  0.0210 -0.3414
 8942SOL    HW138285   3.700   0.280  11.783 -0.1613  0.2105 -1.7933
 8942SOL    HW238286   3.679   0.422  11.746  2.2317  0.4665  0.6381
 8943SOL     OW38287   4.500   2.999   2.454  0.0160 -0.0260  0.5730
 8943SOL    HW138288   4.560   2.986   2.380 -0.5695  1.7478 -0.2373
 8943SOL    HW238289   4.432   3.048   2.407  0.2700 -0.7643 -0.5789
 8944SOL     OW38290   0.535   2.549   9.353  0.1843 -0.0303 -0.6059
 8944SOL    HW138291   0.588   2.572   9.277  1.2279 -0.4709 -0.0125
 8944SOL    HW238292   0.562   2.615   9.416 -2.2670  1.0306 -0.7053
 8945SOL     OW38293   0.553   3.464   2.476  0.2856  0.4886 -0.3750
 8945SOL    HW138294   0.573   3.510   2.395  0.2808  0.7444 -0.2309
 8945SOL    HW238295   0.614   3.391   2.461 -2.6609 -1.5031 -2.7667
 8946SOL     OW38296   0.222   1.944  12.127 -0.3903 -0.3908  0.6417
 8946SOL    HW138297   0.263   2.010  12.183 -1.4098  0.3314  0.5359
 8946SOL    HW238298   0.166   1.991  12.064  1.0564 -0.1201 -0.4299
 8947SOL     OW38299   0.982   3.337  11.561  0.2046 -0.0919  0.1851
 8947SOL    HW138300   1.020   3.414  11.519  0.3744 -0.8668 -1.0945
 8947SOL    HW238301   0.992   3.277  11.486 -1.1395  0.4085 -0.4050
 8948SOL     OW38302   1.234   0.831   4.228  0.4985 -0.3141  0.3242
 8948SOL    HW138303   1.161   0.892   4.212  1.1928  0.2739 -0.6200
 8948SOL    HW238304   1.309   0.889   4.231  0.5888 -0.3975 -0.2465
 8949SOL     OW38305   2.424   0.200   8.951 -0.1125 -0.1838 -0.2893
 8949SOL    HW138306   2.442   0.108   8.931 -0.0833 -0.1691 -0.3303
 8949SOL    HW238307   2.484   0.211   9.024  1.4309 -0.4482 -1.5185
 8950SOL     OW38308   4.003   1.983   9.585 -0.5864  0.1729 -0.3747
 8950SOL    HW138309   3.912   2.004   9.566 -1.2650 -2.3577  0.0301
 8950SOL    HW238310   4.035   1.953   9.500  0.3990  0.1241  0.0144
 8951SOL     OW38311   1.433   1.649  12.866  0.0374 -0.2004 -0.0922
 8951SOL    HW138312   1.375   1.632  12.940 -0.8478  0.0401 -0.7255
 8951SOL    HW238313   1.493   1.577  12.884 -0.2814 -0.6725 -0.9138
 8952SOL     OW38314   0.160   1.107   9.065  0.3517  0.6592 -0.0923
 8952SOL    HW138315   0.209   1.028   9.040 -1.9616 -0.3613 -1.4751
 8952SOL    HW238316   0.076   1.084   9.025 -0.7882  0.6742  2.2763
 8953SOL     OW38317   4.131   4.523   8.274  0.0581 -0.4940 -0.2244
 8953SOL    HW138318   4.087   4.466   8.337  0.7173  2.9210  3.3537
 8953SOL    HW238319   4.061   4.528   8.209 -0.3917  0.6049  0.3483
 8954SOL     OW38320   0.383   4.316  13.125 -0.3744  0.1893  0.2791
 8954SOL    HW138321   0.418   4.229  13.106  0.0459  0.2649  0.7105
 8954SOL    HW238322   0.298   4.290  13.162  0.1380  0.4530  1.6399
 8955SOL     OW38323   1.390   1.830   7.336 -0.0021 -0.5034 -0.4256
 8955SOL    HW138324   1.470   1.814   7.287 -0.5787 -1.4228 -1.0688
 8955SOL    HW238325   1.409   1.889   7.409  0.5935 -2.4192  0.9566
 8956SOL     OW38326   0.690   1.911  12.291  0.1836  0.5048  0.9246
 8956SOL    HW138327   0.633   1.847  12.250  2.5041 -1.0681  0.1599
 8956SOL    HW238328   0.667   1.975  12.224 -0.0155 -1.5000 -0.9002
 8957SOL     OW38329   3.656   4.080   8.445 -0.3385  0.4754  0.1909
 8957SOL    HW138330   3.618   4.006   8.397 -0.6422  1.9193 -1.7832
 8957SOL    HW238331   3.626   4.157   8.396 -1.8579  2.0896  3.6571
 8958SOL     OW38332   0.873   0.405   4.332  0.2870 -0.6989  0.3543
 8958SOL    HW138333   0.811   0.334   4.350 -2.3153  1.5124  0.1130
 8958SOL    HW238334   0.909   0.429   4.417 -0.7489 -0.7642  0.8074
 8959SOL     OW38335   3.482   1.759   0.279 -0.7218  0.3415 -0.3013
 8959SOL    HW138336   3.431   1.697   0.227 -2.0196  1.5487 -0.4699
 8959SOL    HW238337   3.521   1.818   0.213  2.6642 -1.1678  0.3554
 8960SOL     OW38338   4.547   2.104  17.148  0.0738  0.1816  0.1680
 8960SOL    HW138339   4.496   2.100  17.067 -0.8250  0.7868  0.7156
 8960SOL    HW238340   4.635   2.095  17.110 -0.2976 -0.1518 -0.6205
 8961SOL     OW38341   2.324   2.811   5.279  0.3930 -0.0532  0.0117
 8961SOL    HW138342   2.301   2.894   5.321  2.3606  0.3861  0.2351
 8961SOL    HW238343   2.419   2.815   5.284  0.5072 -0.8330 -1.5410
 8962SOL     OW38344   4.270   1.550  10.623 -0.2506 -0.2097  0.4904
 8962SOL    HW138345   4.176   1.560  10.606  0.5784  3.3683 -1.9286
 8962SOL    HW238346   4.292   1.505  10.541 -0.0209 -2.6452  1.9027
 8963SOL     OW38347   0.083   3.853   2.231 -0.1123  0.1585  0.9119
 8963SOL    HW138348   0.076   3.757   2.238 -0.3604  0.0128 -1.0443
 8963SOL    HW238349   0.016   3.870   2.297  2.1206 -0.5165  3.3481
 8964SOL     OW38350   0.926   0.979   7.431  0.2089 -0.1038 -0.1502
 8964SOL    HW138351   0.912   0.956   7.340 -0.7936 -0.1926  0.0288
 8964SOL    HW238352   0.905   0.895   7.471  0.2817  0.3004  0.7462
 8965SOL     OW38353   0.927   0.448   8.697 -0.4498 -0.6109 -0.4697
 8965SOL    HW138354   0.970   0.533   8.703 -2.7168  0.5737 -0.8075
 8965SOL    HW238355   0.994   0.386   8.667  1.5224  1.1559  0.3011
 8966SOL     OW38356   2.161   2.799   1.872  0.0327  0.0552 -0.2616
 8966SOL    HW138357   2.157   2.853   1.793 -0.5512  0.1245 -0.1855
 8966SOL    HW238358   2.181   2.717   1.826 -1.0450  0.6082 -1.7317
 8967SOL     OW38359   3.201   4.388   1.489  0.2099  0.0948  0.0575
 8967SOL    HW138360   3.159   4.431   1.415  1.2945 -1.4880 -1.4746
 8967SOL    HW238361   3.272   4.450   1.504  0.4364  0.5673 -3.0612
 8968SOL     OW38362   0.785   3.007   1.695 -0.2343 -0.5228 -0.2208
 8968SOL    HW138363   0.725   3.052   1.635  0.7115 -2.2984 -2.4968
 8968SOL    HW238364   0.799   2.928   1.642  4.4561  0.3942 -0.3411
 8969SOL     OW38365   3.313   4.379   3.161  0.1077 -0.0857  0.2628
 8969SOL    HW138366   3.304   4.377   3.065 -1.2121 -2.3860  0.4357
 8969SOL    HW238367   3.404   4.408   3.158  0.9283 -2.7573  0.1315
 8970SOL     OW38368   1.063   4.045   3.754  0.1044 -0.3668 -0.1056
 8970SOL    HW138369   1.032   4.080   3.837 -1.1150  0.1572 -0.7723
 8970SOL    HW238370   0.981   4.041   3.704  0.7201  1.0502 -1.2063
 8971SOL     OW38371   0.416   4.589   8.814 -0.1788  0.2654  0.2744
 8971SOL    HW138372   0.457   4.661   8.766 -0.3409 -0.4102 -0.8860
 8971SOL    HW238373   0.501   4.558   8.846  0.1626  1.4039  0.4526
 8972SOL     OW38374   0.489   1.632  15.289 -0.1222  0.4793  0.0939
 8972SOL    HW138375   0.474   1.565  15.222  3.4797  0.9529 -1.1937
 8972SOL    HW238376   0.581   1.622  15.314 -0.4837  0.1693  1.2879
 8973SOL     OW38377   1.117   0.378   9.011 -0.3837 -0.2543  0.1920
 8973SOL    HW138378   1.134   0.467   8.981 -0.6458 -0.4066 -0.4069
 8973SOL    HW238379   1.206   0.349   9.030 -0.7284 -0.9050  0.8186
 8974SOL     OW38380   4.288   1.899  13.729 -0.4399  1.0000 -0.3405
 8974SOL    HW138381   4.218   1.953  13.765 -0.8531 -0.3048  0.7912
 8974SOL    HW238382   4.242   1.844  13.664  1.5976  1.8567 -2.4916
 8975SOL     OW38383   2.933   0.203   2.882  0.2561  0.4295 -0.2210
 8975SOL    HW138384   2.884   0.278   2.847 -1.7431 -1.0869 -0.6479
 8975SOL    HW238385   3.019   0.220   2.842  1.0330 -2.6565  0.1153
 8976SOL     OW38386   2.844   2.731  13.655  0.1780  0.1375 -0.4284
 8976SOL    HW138387   2.931   2.753  13.622  0.8838 -1.2384  0.5779
 8976SOL    HW238388   2.804   2.815  13.629 -1.0396 -0.3096  0.0297
 8977SOL     OW38389   4.034   0.385  14.484  0.7631  0.3440 -0.0117
 8977SOL    HW138390   3.949   0.401  14.524 -0.1033  1.4652 -2.2894
 8977SOL    HW238391   4.044   0.304  14.534 -4.1051 -1.4753 -2.0011
 8978SOL     OW38392   3.309   0.191  11.888 -0.0522 -0.6676  0.2419
 8978SOL    HW138393   3.225   0.235  11.894 -0.8709 -2.0730 -0.7871
 8978SOL    HW238394   3.341   0.202  11.978  1.4420  0.6865 -0.4442
 8979SOL     OW38395   1.599   1.685   8.229  0.2954 -0.6242 -0.1893
 8979SOL    HW138396   1.644   1.764   8.257 -1.5180  1.0173 -1.9176
 8979SOL    HW238397   1.509   1.691   8.263  0.3108 -0.7485 -0.1288
 8980SOL     OW38398   0.967   4.392   8.440 -0.6971  0.0140  0.0939
 8980SOL    HW138399   1.013   4.429   8.365 -1.8529  0.1858 -0.5244
 8980SOL    HW238400   0.913   4.466   8.466  0.8195  0.8546  0.7969
 8981SOL     OW38401   2.624   3.126  16.103 -0.3378 -0.1697 -0.1034
 8981SOL    HW138402   2.547   3.084  16.063 -0.2212  0.6948 -1.2315
 8981SOL    HW238403   2.640   3.192  16.035 -1.8076 -0.4835 -0.7528
 8982SOL     OW38404   4.379   3.003   1.400  0.1571 -0.1567 -0.1349
 8982SOL    HW138405   4.387   2.988   1.306 -0.3660  0.3517 -0.2617
 8982SOL    HW238406   4.467   2.976   1.425  0.1168 -0.2807 -0.1280
 8983SOL     OW38407   2.201   1.990   6.414  0.1510  0.2299  0.9692
 8983SOL    HW138408   2.109   1.993   6.441  0.0178  0.3806  0.5009
 8983SOL    HW238409   2.233   2.057   6.475  1.4512 -1.7165  2.4206
 8984SOL     OW38410   0.349   1.865   9.089 -0.1826  0.5458 -0.3329
 8984SOL    HW138411   0.271   1.833   9.044 -0.4621  1.7684 -0.7146
 8984SOL    HW238412   0.321   1.866   9.181  0.7681  0.0267 -0.0414
 8985SOL     OW38413   3.101   1.296   8.654 -0.6885  0.5722 -0.2308
 8985SOL    HW138414   3.042   1.369   8.635  0.5803  1.6971  0.1616
 8985SOL    HW238415   3.044   1.219   8.659  0.1827 -0.1141 -0.7199
 8986SOL     OW38416   1.693   1.775   3.342  0.0965 -0.7907 -0.1819
 8986SOL    HW138417   1.735   1.800   3.259  1.5187  1.3000  1.1749
 8986SOL    HW238418   1.727   1.685   3.349 -0.4495 -1.0234 -0.5437
 8987SOL     OW38419   4.020   4.698   2.001 -0.5000  0.0244 -0.1541
 8987SOL    HW138420   4.086   0.045   2.008 -0.6140  0.3457 -2.1077
 8987SOL    HW238421   4.069   4.622   2.032 -0.0134 -0.3954 -1.9313
 8988SOL     OW38422   2.031   1.642   2.279  0.3020 -0.2043  0.3568
 8988SOL    HW138423   2.121   1.611   2.269 -0.5264 -2.3658 -0.2769
 8988SOL    HW238424   2.032   1.727   2.235 -1.6608 -0.7423 -0.7280
 8989SOL     OW38425   2.029   2.272   4.108  0.3102 -0.3724 -0.2748
 8989SOL    HW138426   1.939   2.253   4.080  0.3987  0.1339 -0.8917
 8989SOL    HW238427   2.057   2.181   4.116  1.8849  0.0607 -0.8797
 8990SOL     OW38428   2.959   3.132   0.952 -0.1646 -0.4034  0.0648
 8990SOL    HW138429   2.870   3.098   0.964 -0.2159 -0.2567  0.0957
 8990SOL    HW238430   2.994   3.135   1.041  0.5220 -0.4831 -0.1987
 8991SOL     OW38431   2.911   3.435   3.665  0.3301  0.0351  0.1771
 8991SOL    HW138432   2.941   3.357   3.619 -0.4913 -0.5352  0.6168
 8991SOL    HW238433   2.835   3.395   3.707  0.6894 -0.4934  0.3269
 8992SOL     OW38434   3.428   2.571   3.094 -0.6263 -0.5591  0.1632
 8992SOL    HW138435   3.342   2.581   3.053 -0.5840  2.1320  0.7219
 8992SOL    HW238436   3.422   2.478   3.118  0.9724 -0.7982 -0.3571
 8993SOL     OW38437   0.854   4.582  11.464 -0.3254 -0.4311  0.2346
 8993SOL    HW138438   0.896   4.603  11.381 -0.6692  0.6256  0.3191
 8993SOL    HW238439   0.803   4.662  11.479  0.7076  0.2125  0.3092
 8994SOL     OW38440   1.633   4.128  10.301  0.1895  0.4399 -0.2959
 8994SOL    HW138441   1.667   4.038  10.297  0.6029  0.5419  0.9568
 8994SOL    HW238442   1.698   4.183  10.258  3.4609 -4.0382 -1.1056
 8995SOL     OW38443   2.394   3.001   7.907  0.6631 -0.0305 -0.1782
 8995SOL    HW138444   2.313   2.948   7.910  1.3740 -0.9433  2.9427
 8995SOL    HW238445   2.469   2.950   7.937  1.2417  0.5184 -0.6945
 8996SOL     OW38446   4.011   2.593  17.540 -0.2064  0.9019 -0.0165
 8996SOL    HW138447   3.956   2.547  17.477 -1.6455  1.8850  0.5351
 8996SOL    HW238448   3.941   2.654  17.564  1.2850  2.4423  0.4155
 8997SOL     OW38449   3.340   3.431   7.690 -0.6904 -0.1628 -0.1361
 8997SOL    HW138450   3.259   3.467   7.725 -0.7525 -0.7846  0.3752
 8997SOL    HW238451   3.404   3.455   7.758  0.4480  0.1679 -1.3225
 8998SOL     OW38452   0.209   4.315   9.734 -0.1023  0.1172 -0.5847
 8998SOL    HW138453   0.238   4.308   9.643  0.6557 -1.2709 -0.2471
 8998SOL    HW238454   0.259   4.393   9.757 -0.9105  0.2353  0.7917
 8999SOL     OW38455   3.167   0.152   9.086  0.5100  0.7121 -0.0104
 8999SOL    HW138456   3.182   0.242   9.116  0.1457  0.8860 -0.3527
 8999SOL    HW238457   3.253   0.148   9.043  0.6990 -0.8650  0.5207
 9000SOL     OW38458   0.759   4.082   0.103  0.4327  0.6351 -0.5577
 9000SOL    HW138459   0.842   4.037   0.119 -0.3317  0.2860  2.4608
 9000SOL    HW238460   0.750   4.129   0.186  3.1693 -1.8023  1.1430
 9001SOL     OW38461   2.978   4.027  10.096 -0.3279  0.1846  0.1703
 9001SOL    HW138462   2.970   3.985  10.182 -1.4607  0.5343  0.2345
 9001SOL    HW238463   3.034   4.103  10.114  0.1737 -0.1526  0.0178
 9002SOL     OW38464   2.373   3.235   7.527 -0.1869 -0.1819  0.1998
 9002SOL    HW138465   2.370   3.143   7.555  2.0727 -0.3099 -0.0394
 9002SOL    HW238466   2.354   3.265   7.616 -4.9524  0.3077 -0.9589
 9003SOL     OW38467   0.551   0.319   8.623  0.1340  0.4910 -0.0952
 9003SOL    HW138468   0.515   0.406   8.638  1.0398  0.8842 -0.2016
 9003SOL    HW238469   0.606   0.311   8.701  0.8198  2.6670 -0.3735
 9004SOL     OW38470   2.666   3.175   0.740  0.3397  0.1802  0.5723
 9004SOL    HW138471   2.712   3.105   0.695 -2.2260 -0.1820 -1.4451
 9004SOL    HW238472   2.707   3.176   0.827  1.4680 -0.2183  0.0324
 9005SOL     OW38473   4.601   4.501  10.696 -0.7812 -0.1105 -0.2430
 9005SOL    HW138474   4.543   4.543  10.759 -0.5098 -0.2214  0.0833
 9005SOL    HW238475   4.576   4.411  10.716 -3.3469  0.9996  1.4760
 9006SOL     OW38476   3.229   2.794  12.417  0.0173 -0.2595  0.3505
 9006SOL    HW138477   3.249   2.827  12.329 -0.0211 -0.5687  0.2239
 9006SOL    HW238478   3.302   2.734  12.429  0.1913 -0.4570 -1.7396
 9007SOL     OW38479   1.623   3.507   1.073  0.2591  0.3054 -0.5403
 9007SOL    HW138480   1.545   3.557   1.047 -0.1817 -1.2239 -2.1296
 9007SOL    HW238481   1.637   3.548   1.159  0.5028  1.0103 -0.9133
 9008SOL     OW38482   3.111   3.025   4.691  0.0022  0.1346 -0.1740
 9008SOL    HW138483   3.147   2.975   4.764  0.8419  0.1830 -0.5464
 9008SOL    HW238484   3.183   3.016   4.628  1.2016 -1.2386  1.3850
 9009SOL     OW38485   0.353   3.635   7.495  0.5625 -0.3959 -0.3387
 9009SOL    HW138486   0.294   3.564   7.520  0.1992 -0.2358 -0.7232
 9009SOL    HW238487   0.351   3.628   7.399  3.4408 -1.6516 -0.3048
 9010SOL     OW38488   0.610   3.278   7.679 -0.3455  0.3927  0.0365
 9010SOL    HW138489   0.595   3.373   7.677 -1.8700  0.1593  0.6775
 9010SOL    HW238490   0.532   3.259   7.731 -0.6468  0.8481 -0.2490
 9011SOL     OW38491   1.651   1.339   5.129 -0.4079 -0.8360  0.1248
 9011SOL    HW138492   1.696   1.257   5.107 -0.4890 -0.4532 -1.5067
 9011SOL    HW238493   1.587   1.346   5.058  0.9731 -2.4486 -1.2771
 9012SOL     OW38494   2.814   1.774   8.342 -0.1323 -0.4855 -1.2183
 9012SOL    HW138495   2.860   1.853   8.368  0.7508 -0.8635 -1.6101
 9012SOL    HW238496   2.724   1.804   8.329 -0.4788 -0.4408  1.4024
 9013SOL     OW38497   1.889   2.710   4.889 -0.4378  0.5316 -0.0278
 9013SOL    HW138498   1.952   2.697   4.818  2.4258 -0.0146  2.6322
 9013SOL    HW238499   1.929   2.683   4.972 -0.3281  0.9386  0.0518
 9014SOL     OW38500   2.588   2.082   3.004 -0.0463  0.2342 -0.6880
 9014SOL    HW138501   2.588   2.012   2.939  1.0870  0.1700 -0.6237
 9014SOL    HW238502   2.583   2.034   3.087  1.3379  2.3878  0.6507
 9015SOL     OW38503   3.607   1.799   4.277  0.5332  0.2445  0.2282
 9015SOL    HW138504   3.662   1.877   4.269  2.2315 -0.9281  0.4436
 9015SOL    HW238505   3.549   1.812   4.202  0.5939 -0.4037  0.0700
 9016SOL     OW38506   2.707   1.051   3.435 -0.0238  0.4268 -0.3710
 9016SOL    HW138507   2.687   0.965   3.399 -1.9491 -0.1229  1.9408
 9016SOL    HW238508   2.672   1.110   3.369  0.4353  1.0890 -0.0173
 9017SOL     OW38509   1.397   0.502  13.441 -0.4405  0.0069 -0.1113
 9017SOL    HW138510   1.319   0.472  13.395 -0.2836 -1.4829  0.5894
 9017SOL    HW238511   1.438   0.416  13.455 -0.9895 -0.4852 -1.6288
 9018SOL     OW38512   4.045   0.700  17.675 -0.0018  0.4981  0.1137
 9018SOL    HW138513   3.977   0.673   0.050 -0.1216 -1.5110 -0.9057
 9018SOL    HW238514   4.121   0.676   0.041 -0.1008  2.5404  1.1756
 9019SOL     OW38515   3.326   0.824  11.063  0.4597 -0.1687 -0.1421
 9019SOL    HW138516   3.314   0.917  11.079  0.8522  0.1553 -1.7547
 9019SOL    HW238517   3.351   0.820  10.970  0.7828  0.4001 -0.0798
 9020SOL     OW38518   3.900   3.850   0.929 -0.1400  0.2646  0.5415
 9020SOL    HW138519   3.839   3.912   0.970 -0.6556 -0.6270  1.1325
 9020SOL    HW238520   3.946   3.816   1.006 -0.2409 -1.9329 -0.3739
 9021SOL     OW38521   3.377   1.815  13.075 -0.2286 -0.9787 -0.2149
 9021SOL    HW138522   3.400   1.904  13.050 -1.4122 -0.6777 -0.2335
 9021SOL    HW238523   3.362   1.815  13.170 -0.5710  0.6867 -0.2704
 9022SOL     OW38524   4.021   2.585  17.131 -0.5264 -0.4586 -0.0144
 9022SOL    HW138525   4.003   2.509  17.186 -0.2255  0.1088  0.8542
 9022SOL    HW238526   4.102   2.619  17.167  0.1258  0.0765 -1.9460
 9023SOL     OW38527   1.772   3.299   1.149 -0.3283 -0.3609  0.3654
 9023SOL    HW138528   1.752   3.229   1.086  1.2126 -1.5439  1.1886
 9023SOL    HW238529   1.722   3.371   1.111  1.3434  0.3649 -0.4198
 9024SOL     OW38530   1.319   3.594   5.540 -0.2634 -0.1495 -0.5972
 9024SOL    HW138531   1.283   3.654   5.605 -0.2039  1.4974 -2.0839
 9024SOL    HW238532   1.374   3.526   5.580  1.4471  2.2290  1.1764
 9025SOL     OW38533   1.256   1.673   9.033  0.5420 -0.0400  0.5370
 9025SOL    HW138534   1.335   1.627   9.003 -0.4713 -1.7789  0.5453
 9025SOL    HW238535   1.285   1.730   9.104 -1.1559  0.6236  0.6907
 9026SOL     OW38536   2.063   4.057   1.788 -0.4429 -0.0685 -0.2980
 9026SOL    HW138537   2.046   3.987   1.724  0.3213  0.1908 -0.7799
 9026SOL    HW238538   2.120   4.110   1.733  0.1448 -1.5137 -1.1005
 9027SOL     OW38539   3.865   4.139   3.648 -0.4207 -0.4006  0.1272
 9027SOL    HW138540   3.816   4.103   3.574  0.3874 -0.1829 -0.5191
 9027SOL    HW238541   3.880   4.055   3.690  0.2082  0.0316  0.7678
 9028SOL     OW38542   0.991   1.923   1.355 -0.2431  0.4136 -0.4781
 9028SOL    HW138543   0.953   1.935   1.269 -1.3729 -1.6455 -0.2757
 9028SOL    HW238544   0.910   1.913   1.404  0.6554  0.2277  0.9734
 9029SOL     OW38545   3.282   3.481  15.102  0.2230  0.6008 -0.0861
 9029SOL    HW138546   3.340   3.554  15.121  0.3264  0.0722  1.6619
 9029SOL    HW238547   3.256   3.443  15.186 -0.1272 -1.0546 -0.9433
 9030SOL     OW38548   1.621   4.364   3.352  0.6598  0.5027 -0.2678
 9030SOL    HW138549   1.637   4.456   3.369 -0.3239  0.9120 -1.5049
 9030SOL    HW238550   1.608   4.332   3.441 -1.1193 -0.2945 -0.8060
 9031SOL     OW38551   0.793   2.143  12.732  0.4292 -0.1390 -0.6463
 9031SOL    HW138552   0.779   2.078  12.801 -0.5547  0.8906  0.1292
 9031SOL    HW238553   0.888   2.146  12.731  0.4821 -1.3155  0.3505
 9032SOL     OW38554   2.877   1.463   1.036 -0.3291  0.5255  0.0819
 9032SOL    HW138555   2.782   1.469   1.025 -0.0251 -0.2749 -2.8558
 9032SOL    HW238556   2.908   1.525   0.970 -0.9684  0.1285 -0.5886
 9033SOL     OW38557   2.949   2.065   1.682 -0.5056 -0.2586  0.0168
 9033SOL    HW138558   2.947   2.016   1.600 -0.6575 -0.5002  0.1630
 9033SOL    HW238559   2.877   2.017   1.723 -0.5783 -0.7614 -0.7048
 9034SOL     OW38560   0.644   1.783   5.214 -0.2400  0.4840  0.0876
 9034SOL    HW138561   0.688   1.779   5.129 -1.0551 -0.5227 -0.2785
 9034SOL    HW238562   0.694   1.843   5.270  0.7078 -0.2884  0.0627
 9035SOL     OW38563   4.072   1.169   4.653  0.2374 -0.2494  0.4446
 9035SOL    HW138564   4.048   1.078   4.674 -1.0840 -0.3790 -1.6119
 9035SOL    HW238565   4.015   1.201   4.583 -0.6291 -0.3780  1.0853
 9036SOL     OW38566   1.106   0.877   3.005  0.3108  0.3528 -0.0241
 9036SOL    HW138567   1.072   0.839   2.924 -0.0724 -0.1578  0.3742
 9036SOL    HW238568   1.202   0.872   3.002  0.3091  1.4840 -2.1505
 9037SOL     OW38569   3.308   2.629   5.588  0.6901  0.0261 -0.2785
 9037SOL    HW138570   3.332   2.654   5.678 -1.8420 -1.3002  0.7508
 9037SOL    HW238571   3.215   2.623   5.608  0.7154  0.5935  0.0200
 9038SOL     OW38572   1.800   3.257   3.314  0.0981 -0.2867  0.3165
 9038SOL    HW138573   1.771   3.228   3.401  0.4235  1.0058  0.8562
 9038SOL    HW238574   1.740   3.206   3.258  1.6677 -0.8003 -0.8812
 9039SOL     OW38575   2.222   0.362   7.039 -0.3279  0.4670  0.0798
 9039SOL    HW138576   2.218   0.278   7.084  1.7849  1.9584  3.0471
 9039SOL    HW238577   2.193   0.424   7.105  0.3570  1.7234 -0.7910
 9040SOL     OW38578   3.543   0.579  14.721 -0.0750  0.2651  0.3996
 9040SOL    HW138579   3.481   0.544  14.657  0.1918  0.6865 -0.0905
 9040SOL    HW238580   3.535   0.505  14.782 -1.1751  0.3127  0.3130
 9041SOL     OW38581   0.981   2.783   6.532  0.0637  0.2916 -0.0604
 9041SOL    HW138582   1.005   2.828   6.451  2.4467  1.7995  1.4768
 9041SOL    HW238583   0.888   2.802   6.539 -0.0324 -1.0041  2.1132
 9042SOL     OW38584   0.860   2.664   1.886  0.2534  0.3903 -0.7477
 9042SOL    HW138585   0.922   2.593   1.905  0.0605  0.1832 -0.8864
 9042SOL    HW238586   0.890   2.675   1.796 -0.9773 -1.0888 -1.3528
 9043SOL     OW38587   2.047   2.168   3.110  0.1247  0.4082 -0.0252
 9043SOL    HW138588   2.124   2.215   3.077 -0.1601  1.1915  0.4198
 9043SOL    HW238589   2.003   2.229   3.170 -1.6013 -1.9375  1.0607
 9044SOL     OW38590   3.929   1.320   4.427 -0.5420 -0.5392  0.0260
 9044SOL    HW138591   3.845   1.343   4.386  0.0475 -1.0740 -1.5099
 9044SOL    HW238592   3.990   1.385   4.391 -3.7402  2.5645  0.2397
 9045SOL     OW38593   0.909   1.936  16.494 -0.5229  0.1291  0.3051
 9045SOL    HW138594   0.846   1.871  16.526  0.8541 -1.2072  0.3141
 9045SOL    HW238595   0.957   1.877  16.435  0.8425  1.7293 -0.1756
 9046SOL     OW38596   3.520   0.567  10.983 -0.1926 -0.1784 -0.6874
 9046SOL    HW138597   3.533   0.498  10.918  1.1140 -1.3166  0.7842
 9046SOL    HW238598   3.588   0.628  10.955  0.3310 -0.5463 -0.2228
 9047SOL     OW38599   0.693   2.317   7.250  0.0142 -0.1335  0.6890
 9047SOL    HW138600   0.605   2.289   7.275 -1.2239  2.0005 -1.2703
 9047SOL    HW238601   0.702   2.399   7.299  0.1532 -0.6083  1.4586
 9048SOL     OW38602   1.040   2.228   1.016 -0.4332  0.0145 -0.0557
 9048SOL    HW138603   1.111   2.234   0.952  0.0280 -1.9348  0.2839
 9048SOL    HW238604   1.024   2.322   1.026 -3.3773 -0.4767 -0.3442
 9049SOL     OW38605   4.529   2.162  13.126 -0.1439 -0.2333  0.3730
 9049SOL    HW138606   4.614   2.122  13.143  0.7688  1.6601  0.3045
 9049SOL    HW238607   4.464   2.099  13.155  0.2444 -1.8036 -2.1712
 9050SOL     OW38608   2.401   2.962   6.422 -0.6965  0.7001  0.3832
 9050SOL    HW138609   2.373   3.000   6.339 -0.2655  0.9303  0.3442
 9050SOL    HW238610   2.493   2.978   6.404 -0.0389 -2.6452  0.8019
 9051SOL     OW38611   3.454   0.051   8.896 -0.3823  0.1254  0.6284
 9051SOL    HW138612   3.464   0.127   8.953 -0.2950  1.2040 -0.8237
 9051SOL    HW238613   3.534   0.001   8.914  0.9267  0.9563 -2.7992
 9052SOL     OW38614   0.203   1.106   5.305  0.1742 -0.0365 -0.1671
 9052SOL    HW138615   0.274   1.081   5.245  0.3204 -1.5687  0.6524
 9052SOL    HW238616   0.235   1.060   5.383 -1.2425  1.3832  1.2454
 9053SOL     OW38617   2.323   3.787   7.237 -0.5603  0.2296  0.0361
 9053SOL    HW138618   2.368   3.812   7.318  1.8406  0.7598 -1.4531
 9053SOL    HW238619   2.394   3.776   7.174 -1.4521  1.1626 -1.1270
 9054SOL     OW38620   1.730   0.522   5.000  0.6196  0.0517  0.4486
 9054SOL    HW138621   1.690   0.506   5.086 -2.2734 -0.1453 -0.9437
 9054SOL    HW238622   1.818   0.492   5.022  1.2389  1.6839  0.1925
 9055SOL     OW38623   4.548   4.297   0.126 -0.0100 -0.1792  0.1358
 9055SOL    HW138624   4.560   4.302   0.221 -0.8942 -0.5611  0.2720
 9055SOL    HW238625   4.485   4.228   0.108  0.3191 -0.8275  1.4446
 9056SOL     OW38626   2.726   1.370  10.559  0.0212 -0.1017 -0.2634
 9056SOL    HW138627   2.649   1.425  10.571  0.2915  0.0925  0.5811
 9056SOL    HW238628   2.692   1.290  10.601 -0.4968  0.0146 -0.4654
 9057SOL     OW38629   3.859   4.439  14.456 -0.6672  0.4446 -0.2528
 9057SOL    HW138630   3.863   4.354  14.499  2.2914  0.6891 -0.0403
 9057SOL    HW238631   3.765   4.459  14.457 -0.7114  0.3739 -3.1868
 9058SOL     OW38632   2.505   4.238   5.700 -0.2062 -0.0809  0.7419
 9058SOL    HW138633   2.582   4.234   5.643 -1.4343 -1.0895 -0.8699
 9058SOL    HW238634   2.444   4.198   5.638 -0.5268 -0.3863  1.2622
 9059SOL     OW38635   3.250   3.139   3.375  0.0032 -0.5553  0.2188
 9059SOL    HW138636   3.340   3.114   3.395  0.3233 -0.4663 -1.0955
 9059SOL    HW238637   3.242   3.109   3.284  0.9794  0.7795 -0.3165
 9060SOL     OW38638   3.239   2.908  11.097  0.8044  0.0583  0.1880
 9060SOL    HW138639   3.316   2.851  11.091  2.3318  1.9727  1.8682
 9060SOL    HW238640   3.284   2.990  11.079  2.4466 -0.7398  0.6658
 9061SOL     OW38641   4.652   3.646  13.489 -0.6513  0.3254  0.7403
 9061SOL    HW138642   4.557   3.634  13.479 -0.5256  1.6944 -2.2408
 9061SOL    HW238643   4.666   3.724  13.435  3.0678 -0.2589  0.8770
 9062SOL     OW38644   3.582   0.566   5.904  0.2983  0.2483 -0.2951
 9062SOL    HW138645   3.494   0.541   5.930  0.2166  0.4030 -0.4200
 9062SOL    HW238646   3.625   0.582   5.988  1.3649  0.8597 -0.9443
 9063SOL     OW38647   0.748   1.806   2.336  0.0348 -0.2239 -0.1784
 9063SOL    HW138648   0.714   1.855   2.261 -1.8982 -0.3074  0.6417
 9063SOL    HW238649   0.755   1.724   2.288  0.9102 -1.1589  1.5370
 9064SOL     OW38650   3.399   3.627   6.513 -0.3104 -0.4005  0.1798
 9064SOL    HW138651   3.395   3.624   6.608  1.8081 -1.2994  0.2353
 9064SOL    HW238652   3.310   3.652   6.490 -0.5596 -2.3972 -1.0417
 9065SOL     OW38653   1.340   4.003   9.819 -0.0853 -0.2132  0.1309
 9065SOL    HW138654   1.381   3.998   9.905  0.2287  2.0824  0.1051
 9065SOL    HW238655   1.408   3.966   9.762  2.1074 -2.6758  4.3442
 9066SOL     OW38656   2.697   2.506   4.137 -0.5114 -0.5593  0.2069
 9066SOL    HW138657   2.773   2.552   4.101 -1.0132 -1.1307 -1.5310
 9066SOL    HW238658   2.671   2.436   4.078  0.6527 -1.9668  1.3582
 9067SOL     OW38659   1.613   0.726   5.916 -0.3433  0.1250  0.3024
 9067SOL    HW138660   1.569   0.642   5.909  1.6177 -0.9509  0.7897
 9067SOL    HW238661   1.558   0.770   5.850  0.3592 -2.4653 -2.0149
 9068SOL     OW38662   1.780   1.252  12.827  0.5365  0.4753  0.6605
 9068SOL    HW138663   1.817   1.297  12.903 -0.7524 -0.3728  1.7943
 9068SOL    HW238664   1.702   1.305  12.810  1.0110  2.2621  3.9429
 9069SOL     OW38665   0.412   0.000   5.509  0.1814  0.2190  0.1535
 9069SOL    HW138666   0.326   0.040   5.492  1.0035  0.8261 -2.5815
 9069SOL    HW238667   0.463   0.079   5.529 -0.9662  1.0634 -0.2156
 9070SOL     OW38668   2.837   2.332  13.889  0.0893 -0.3038 -0.1585
 9070SOL    HW138669   2.890   2.290  13.821  0.6823  0.2683 -0.0455
 9070SOL    HW238670   2.881   2.415  13.902 -0.0417 -0.0081 -1.6573
 9071SOL     OW38671   4.356   2.265  15.644  0.1229 -0.1887  0.0397
 9071SOL    HW138672   4.414   2.271  15.569 -1.2824  4.0529 -0.6994
 9071SOL    HW238673   4.318   2.180  15.623 -0.1916 -0.1210  0.3357
 9072SOL     OW38674   2.704   0.209   1.540 -0.3545 -0.0112 -0.1292
 9072SOL    HW138675   2.768   0.279   1.552  0.1728 -0.4114 -0.5457
 9072SOL    HW238676   2.652   0.227   1.617 -0.7847 -1.5506 -0.0539
 9073SOL     OW38677   3.538   4.638  11.033  0.2086 -0.4414 -0.3043
 9073SOL    HW138678   3.520   4.546  11.057  0.2454  0.1182  1.9152
 9073SOL    HW238679   3.530   4.654  10.939  0.2214 -3.3317 -0.8005
 9074SOL     OW38680   3.299   0.556  10.611  0.0839 -0.0080 -0.6919
 9074SOL    HW138681   3.309   0.466  10.577 -0.6461  0.1233 -1.2352
 9074SOL    HW238682   3.231   0.536  10.675  0.2691  4.0026  0.7392
 9075SOL     OW38683   2.678   2.409   5.990 -0.0379 -0.0608 -0.1385
 9075SOL    HW138684   2.689   2.321   6.026 -1.5113 -0.3945 -0.5128
 9075SOL    HW238685   2.748   2.462   6.028 -1.1561  0.7686  0.7873
 9076SOL     OW38686   3.753   4.512  12.014  0.0170 -0.4679  0.5234
 9076SOL    HW138687   3.814   4.441  12.034  1.7276  1.2280  1.2850
 9076SOL    HW238688   3.787   4.549  11.933  2.2123 -0.2560  1.5480
 9077SOL     OW38689   3.791   3.131   3.488 -0.5218 -0.2094  0.3444
 9077SOL    HW138690   3.782   3.204   3.549  1.9041  2.4491 -2.4336
 9077SOL    HW238691   3.702   3.097   3.479 -0.0608 -1.0533 -1.1113
 9078SOL     OW38692   1.065   0.125   5.289 -0.0976  0.4712  0.0966
 9078SOL    HW138693   1.002   0.078   5.235  0.9347 -0.8617  0.0568
 9078SOL    HW238694   1.143   0.137   5.234 -0.0200  0.4299  0.1973
 9079SOL     OW38695   1.773   0.375   4.752 -0.8965 -0.6407  0.0950
 9079SOL    HW138696   1.695   0.347   4.704 -0.7721 -1.2613  0.2677
 9079SOL    HW238697   1.736   0.420   4.828  0.9118 -0.1389  0.6721
 9080SOL     OW38698   2.364   2.083   5.618  0.0946 -0.1158  0.4498
 9080SOL    HW138699   2.388   2.095   5.710  0.0500  0.3323  0.3997
 9080SOL    HW238700   2.269   2.072   5.625  0.0615 -0.9042 -1.1820
 9081SOL     OW38701   4.026   1.695  16.688  0.1302 -0.2628 -1.1246
 9081SOL    HW138702   3.956   1.679  16.624  0.1106 -0.0681 -1.1517
 9081SOL    HW238703   3.984   1.752  16.753  2.7110  2.3339 -1.7570
 9082SOL     OW38704   1.456   3.520  17.587  0.0046  0.3023 -0.2293
 9082SOL    HW138705   1.379   3.512  17.643  0.5239  1.1316  0.5957
 9082SOL    HW238706   1.496   3.433  17.599  0.4551  0.6028  0.4480
 9083SOL     OW38707   4.054   0.767   3.490  0.1186  0.3029 -0.3257
 9083SOL    HW138708   3.992   0.706   3.448  0.1468  0.9225 -1.2764
 9083SOL    HW238709   4.088   0.717   3.564 -1.6538 -3.7433 -2.2065
 9084SOL     OW38710   2.916   2.044   0.974 -0.4034 -0.2580  0.2486
 9084SOL    HW138711   2.924   1.961   1.022  1.1563 -1.1999 -1.6654
 9084SOL    HW238712   2.978   2.101   1.021 -0.0376 -1.3533  1.1092
 9085SOL     OW38713   1.813   4.717   2.869 -0.1112 -0.0785 -0.1687
 9085SOL    HW138714   1.850   4.630   2.883  0.9772  0.3172 -0.5636
 9085SOL    HW238715   1.822   0.021   2.961  1.0916 -0.1310 -0.2817
 9086SOL     OW38716   3.564   1.788   9.113 -0.0208  0.3190  0.0022
 9086SOL    HW138717   3.551   1.852   9.183 -0.9531  0.0069  0.1137
 9086SOL    HW238718   3.595   1.709   9.158  0.5685  1.2601  1.2491
 9087SOL     OW38719   2.213   2.412   9.806 -0.1742  0.0256  0.4528
 9087SOL    HW138720   2.234   2.322   9.830  1.3801  0.8526  2.1812
 9087SOL    HW238721   2.219   2.445   9.895 -2.0173 -0.2816  0.6817
 9088SOL     OW38722   1.952   2.996   1.270  0.0396  0.1448 -0.7733
 9088SOL    HW138723   1.884   3.043   1.318 -0.3732 -1.4671  0.2064
 9088SOL    HW238724   1.910   2.961   1.191  1.0522  0.5197 -1.4622
 9089SOL     OW38725   3.742   4.615   4.065 -0.0067 -0.2276  0.1621
 9089SOL    HW138726   3.660   4.586   4.025  0.3241 -1.6284  0.4878
 9089SOL    HW238727   3.716   4.683   4.126  1.3519 -0.3048  0.8363
 9090SOL     OW38728   0.270   1.597  16.900 -0.7241  0.1014 -0.2314
 9090SOL    HW138729   0.360   1.595  16.870 -0.6786  0.4276 -0.1170
 9090SOL    HW238730   0.279   1.547  16.981  2.0599 -0.3610 -0.8395
 9091SOL     OW38731   2.373   4.698   0.931  0.3624 -0.3177  0.5081
 9091SOL    HW138732   2.444   4.635   0.946  0.2555 -0.3053  1.0691
 9091SOL    HW238733   2.307   4.647   0.885  1.5369 -1.0113 -0.4236
 9092SOL     OW38734   0.505   0.412   9.580  0.0838  0.2355 -0.9816
 9092SOL    HW138735   0.418   0.446   9.560 -0.7649 -1.5986 -0.3602
 9092SOL    HW238736   0.557   0.483   9.543 -2.3191  3.4455  1.8017
 9093SOL     OW38737   1.113   2.994  12.125 -0.6408  0.2525 -0.5286
 9093SOL    HW138738   1.086   3.068  12.072 -2.1345  1.2287  1.5886
 9093SOL    HW238739   1.077   2.921  12.075 -1.3746  0.3197 -0.0918
 9094SOL     OW38740   1.177   3.455   7.706 -0.1170  0.4248 -0.2854
 9094SOL    HW138741   1.168   3.428   7.797  1.6714 -1.6358 -0.7111
 9094SOL    HW238742   1.273   3.456   7.699  0.0507 -0.4688  1.8966
 9095SOL     OW38743   2.163   3.601   0.621 -0.3219 -0.7699  0.1526
 9095SOL    HW138744   2.123   3.534   0.567  0.0208 -0.1592 -0.8594
 9095SOL    HW238745   2.252   3.566   0.625 -0.2125 -0.5187 -0.0605
 9096SOL     OW38746   3.493   3.035   0.671  0.1028 -0.6316 -0.1485
 9096SOL    HW138747   3.511   3.042   0.577 -0.6499  0.1805 -0.2311
 9096SOL    HW238748   3.545   3.109   0.702  3.5832 -2.3892 -1.7701
 9097SOL     OW38749   2.652   0.226   4.286  0.5201  0.3260 -0.4654
 9097SOL    HW138750   2.704   0.230   4.205 -0.9498  2.8271 -1.2764
 9097SOL    HW238751   2.599   0.303   4.267 -0.0998 -0.1168 -0.5227
 9098SOL     OW38752   0.937   0.021   4.152 -0.4926  0.2997  0.0148
 9098SOL    HW138753   1.012   0.069   4.187  0.2921  0.2054 -1.5290
 9098SOL    HW238754   0.987   4.677   4.104 -0.2391 -0.9596  1.9849
 9099SOL     OW38755   3.881   2.038   8.812 -0.0570  0.3104 -0.0364
 9099SOL    HW138756   3.914   1.964   8.864  2.6708  0.7039 -1.2222
 9099SOL    HW238757   3.786   2.025   8.822 -0.0577  0.6996  0.4459
 9100SOL     OW38758   1.255   0.267   5.463  0.1553  0.1384  0.2755
 9100SOL    HW138759   1.201   0.251   5.385  2.4781  0.7280 -1.4659
 9100SOL    HW238760   1.197   0.316   5.521 -1.2844  0.2395 -1.2181
 9101SOL     OW38761   0.071   3.202  10.466  0.4022 -0.3366 -0.1115
 9101SOL    HW138762   0.159   3.172  10.442 -0.0396  0.1446 -2.2527
 9101SOL    HW238763   0.066   3.283  10.417 -1.0440 -0.2291  0.2115
 9102SOL     OW38764   2.664   3.365  12.736 -0.5047  0.8500 -0.1390
 9102SOL    HW138765   2.655   3.371  12.641  2.6080 -1.6389 -0.5699
 9102SOL    HW238766   2.647   3.271  12.743 -0.3208  0.7976 -0.4171
 9103SOL     OW38767   2.469   2.271  13.081  0.6083 -0.0670 -0.0981
 9103SOL    HW138768   2.540   2.335  13.078  0.8438 -0.3866 -1.3372
 9103SOL    HW238769   2.509   2.194  13.042  0.0375  0.0701 -0.9620
 9104SOL     OW38770   2.204   1.906   3.625  0.3830  0.1522  0.6640
 9104SOL    HW138771   2.232   1.962   3.698 -0.7177  0.2258  1.0304
 9104SOL    HW238772   2.116   1.877   3.650 -0.4575  2.0111 -0.1464
 9105SOL     OW38773   4.541   0.791   2.458 -0.3700  0.2499 -0.2090
 9105SOL    HW138774   4.561   0.791   2.552  1.4734  1.0962 -0.6065
 9105SOL    HW238775   4.522   0.885   2.449  1.3544  0.7896  1.6156
 9106SOL     OW38776   4.176   3.735   8.242  0.8933  0.0830  0.2217
 9106SOL    HW138777   4.167   3.818   8.196  1.8335 -1.0058 -1.9186
 9106SOL    HW238778   4.154   3.684   8.164  0.7186 -0.4223  0.5977
 9107SOL     OW38779   2.695   2.486   9.182 -0.1031 -0.4721 -0.8412
 9107SOL    HW138780   2.723   2.543   9.254 -3.0303 -0.9807  0.6812
 9107SOL    HW238781   2.775   2.444   9.150 -0.1065 -1.4616  0.4832
 9108SOL     OW38782   3.224   2.237   5.269  0.1419 -0.0530  0.6089
 9108SOL    HW138783   3.265   2.296   5.331 -0.1001  0.8192 -0.0602
 9108SOL    HW238784   3.242   2.151   5.307  1.6402  1.0520  2.3771
 9109SOL     OW38785   0.237   2.723   8.679 -1.0165  0.1869 -0.3304
 9109SOL    HW138786   0.324   2.760   8.664 -1.2430  1.2821  1.0224
 9109SOL    HW238787   0.242   2.666   8.755 -1.7096 -0.8845 -1.0942
 9110SOL     OW38788   3.219   4.432   8.788  0.0175 -0.5226 -0.5270
 9110SOL    HW138789   3.269   4.351   8.774  1.6328  0.1835  1.0468
 9110SOL    HW238790   3.137   4.397   8.755  0.3000 -2.0202  0.3671
 9111SOL     OW38791   0.447   1.418   7.464 -0.2540 -0.2755 -0.2902
 9111SOL    HW138792   0.478   1.439   7.376 -1.0545  0.5693 -0.3748
 9111SOL    HW238793   0.528   1.430   7.513 -0.5661 -1.1945  0.4588
 9112SOL     OW38794   1.587   1.619   5.253 -0.5376  0.0051 -0.0397
 9112SOL    HW138795   1.599   1.524   5.250 -3.8482 -0.4333  1.2580
 9112SOL    HW238796   1.577   1.628   5.159 -1.0609 -0.5102 -0.0274
 9113SOL     OW38797   4.476   0.673   7.237 -1.0803  0.4259 -0.1569
 9113SOL    HW138798   4.481   0.615   7.313  0.2781  0.6350 -0.0894
 9113SOL    HW238799   4.478   0.602   7.174 -0.1671  0.3067  0.0151
 9114SOL     OW38800   1.482   3.801   9.000  0.0570 -0.2528 -0.5582
 9114SOL    HW138801   1.394   3.837   8.986 -0.9401 -1.9088  1.5401
 9114SOL    HW238802   1.518   3.860   9.067 -1.9535 -0.4837  0.7187
 9115SOL     OW38803   3.493   4.400  17.071 -0.2266 -0.3027  0.0409
 9115SOL    HW138804   3.510   4.463  17.001 -1.0388  0.5457  0.6054
 9115SOL    HW238805   3.410   4.363  17.040 -1.1981  2.6971 -0.9508
 9116SOL     OW38806   2.845   4.437   1.311  0.3447  0.0109 -0.7105
 9116SOL    HW138807   2.776   4.371   1.322  0.6331 -0.0235  0.8458
 9116SOL    HW238808   2.897   4.416   1.389 -0.3071  1.1218  0.0240
 9117SOL     OW38809   1.707   4.450   9.110  0.5645  0.1624 -0.4410
 9117SOL    HW138810   1.720   4.511   9.182 -0.5172  0.1025 -0.1909
 9117SOL    HW238811   1.738   4.504   9.037  2.4415  0.4240  0.5471
 9118SOL     OW38812   1.920   4.616  11.806 -0.7542 -0.2840  0.1194
 9118SOL    HW138813   1.992   4.612  11.743 -0.3716 -0.5185  0.5718
 9118SOL    HW238814   1.944   4.541  11.861  4.2686  0.7957 -0.6176
 9119SOL     OW38815   1.945   1.355   4.987  0.2137 -0.1857  0.3054
 9119SOL    HW138816   1.887   1.343   4.912  0.5004  0.7810 -0.0742
 9119SOL    HW238817   2.023   1.324   4.941 -1.1354 -1.6730 -0.9698
 9120SOL     OW38818   4.134   4.017   3.966  0.7535 -0.0443 -0.5830
 9120SOL    HW138819   4.048   4.039   3.929  1.3484  0.2284 -1.8113
 9120SOL    HW238820   4.147   3.929   3.929  0.3639  0.0382 -0.9167
 9121SOL     OW38821   1.706   1.373   5.425 -0.0751  0.2320 -0.0304
 9121SOL    HW138822   1.705   1.328   5.340  1.1610 -0.3274  0.2436
 9121SOL    HW238823   1.633   1.336   5.476 -0.2396 -1.7726 -1.7018
 9122SOL     OW38824   2.011   2.914   9.477  0.2260 -0.1780 -0.5547
 9122SOL    HW138825   1.963   2.856   9.419 -2.2258  2.9641 -1.6674
 9122SOL    HW238826   1.992   2.878   9.563 -1.2469  0.3424 -0.6681
 9123SOL     OW38827   0.970   4.434  14.928 -0.0905 -0.5029  0.7468
 9123SOL    HW138828   1.061   4.401  14.928  0.1113  0.0651  1.5842
 9123SOL    HW238829   0.955   4.461  15.018  3.0140  2.1739  0.4740
 9124SOL     OW38830   1.261   0.233   5.130  0.0731  0.3752  0.1670
 9124SOL    HW138831   1.347   0.201   5.155  0.0725  1.2893  1.3752
 9124SOL    HW238832   1.289   0.325   5.126  1.9029 -0.0820  2.2854
 9125SOL     OW38833   0.726   4.479   7.187 -0.1271  0.5440 -0.3851
 9125SOL    HW138834   0.728   4.401   7.131  0.1263  0.0835  0.2640
 9125SOL    HW238835   0.786   4.446   7.254 -1.0910 -1.1247 -0.3230
 9126SOL     OW38836   2.883   0.150   3.712  0.2005 -0.1873 -0.8974
 9126SOL    HW138837   2.888   0.058   3.685  0.9440  0.3160 -2.4758
 9126SOL    HW238838   2.959   0.155   3.770  1.6160  0.5390 -2.8120
 9127SOL     OW38839   0.200   0.152  10.602  0.3991 -0.2310  0.4396
 9127SOL    HW138840   0.215   0.101  10.682  1.6534 -1.5123 -0.5928
 9127SOL    HW238841   0.119   0.117  10.565  0.3816  1.1525 -0.8373
 9128SOL     OW38842   4.290   2.510  17.462  0.2198  0.5961 -0.2525
 9128SOL    HW138843   4.384   2.490  17.457  0.1385 -0.1329  1.0498
 9128SOL    HW238844   4.263   2.419  17.475 -1.6678  0.7858 -3.0040
 9129SOL     OW38845   0.555   0.845  11.011  0.0661  0.2486  0.1658
 9129SOL    HW138846   0.534   0.807  11.097  1.7665 -1.0233  0.0239
 9129SOL    HW238847   0.482   0.905  11.001  1.4415  1.4934 -2.2382
 9130SOL     OW38848   4.122   4.685   9.144 -1.0246 -0.1073 -0.3498
 9130SOL    HW138849   4.213   4.707   9.164 -1.0060 -1.9734  1.6733
 9130SOL    HW238850   4.086   4.656   9.228  1.6881 -1.3134  0.4264
 9131SOL     OW38851   3.591   1.163   4.081  0.3235 -0.1768  0.2498
 9131SOL    HW138852   3.646   1.240   4.092 -1.5676  0.7982  2.8421
 9131SOL    HW238853   3.646   1.098   4.126  0.6859  0.7780  1.1690
 9132SOL     OW38854   4.097   1.686   2.781  0.2375 -0.0514 -0.2505
 9132SOL    HW138855   4.033   1.617   2.763  1.0545 -0.2174 -2.5745
 9132SOL    HW238856   4.088   1.695   2.876 -1.8299 -1.0177 -0.3624
 9133SOL     OW38857   1.759   0.149   1.659  0.6014  0.4941  0.1187
 9133SOL    HW138858   1.850   0.179   1.654  0.9276 -0.4584  0.3974
 9133SOL    HW238859   1.759   0.082   1.591  2.8882  0.8050 -0.2096
 9134SOL     OW38860   0.533   3.412   6.779  0.1336  0.0742 -0.1692
 9134SOL    HW138861   0.484   3.399   6.698 -0.6140  0.3551  0.2374
 9134SOL    HW238862   0.559   3.320   6.791  1.2524  0.5128  0.7601
 9135SOL     OW38863   2.955   1.977   2.509  0.2705 -0.3821 -0.1624
 9135SOL    HW138864   3.003   2.027   2.443 -2.4129  0.6046 -1.3435
 9135SOL    HW238865   2.977   1.893   2.468  2.0627  0.4906 -0.9800
 9136SOL     OW38866   3.772   1.940  10.127  0.0833  0.8736  0.0340
 9136SOL    HW138867   3.713   1.882  10.078  1.1873 -0.7171  0.5680
 9136SOL    HW238868   3.770   2.014  10.067 -0.9521  0.3229 -0.6304
 9137SOL     OW38869   2.640   4.155   2.690  0.9663  0.3121  0.1621
 9137SOL    HW138870   2.712   4.196   2.643  0.0319  2.1073  0.3196
 9137SOL    HW238871   2.576   4.125   2.625  0.2654  0.8542  0.6041
 9138SOL     OW38872   2.867   2.060   7.760 -0.5119 -0.2670  0.3753
 9138SOL    HW138873   2.829   1.974   7.779 -1.1922  0.2440  1.3421
 9138SOL    HW238874   2.890   2.095   7.846 -0.4790 -3.2165  1.5595
 9139SOL     OW38875   2.870   2.999   0.638 -0.1016 -0.3881 -0.0820
 9139SOL    HW138876   2.938   2.971   0.699 -2.2401  0.8874  2.8512
 9139SOL    HW238877   2.914   3.055   0.574 -1.2040  1.6288  0.9142
 9140SOL     OW38878   2.621   0.228   2.153 -0.3724 -0.5525  0.0026
 9140SOL    HW138879   2.690   0.291   2.132 -0.0001 -1.2600 -0.9165
 9140SOL    HW238880   2.589   0.188   2.072 -0.9384  0.4812 -0.2813
 9141SOL     OW38881   1.300   2.282   5.228  0.6797 -0.1841  0.4528
 9141SOL    HW138882   1.295   2.270   5.322 -1.2285  0.4364  0.4401
 9141SOL    HW238883   1.269   2.373   5.228  1.0751 -0.0477  0.3509
 9142SOL     OW38884   2.614   1.474   5.050 -0.2445  0.2073  0.2993
 9142SOL    HW138885   2.658   1.413   5.110  0.3499 -1.8254 -2.2178
 9142SOL    HW238886   2.688   1.524   5.017 -0.6746  0.7784  0.2166
 9143SOL     OW38887   1.623   1.694   4.194  0.1058  0.3400 -0.2223
 9143SOL    HW138888   1.657   1.783   4.199  1.9569 -0.2605 -2.1663
 9143SOL    HW238889   1.535   1.696   4.156 -0.2579 -0.9855  0.5095
 9144SOL     OW38890   1.291   0.627   3.356  0.2612 -0.3949  0.0463
 9144SOL    HW138891   1.329   0.609   3.270 -0.6843 -0.9296 -0.2556
 9144SOL    HW238892   1.201   0.613   3.327 -0.2938 -0.1379  1.6190
 9145SOL     OW38893   2.249   4.288   3.144 -0.3579 -0.3785 -0.0462
 9145SOL    HW138894   2.183   4.245   3.090  1.6358 -0.6366 -2.2795
 9145SOL    HW238895   2.206   4.279   3.229 -1.1759 -2.3577 -0.6595
 9146SOL     OW38896   2.368   1.943  15.893 -0.2533  0.6148 -0.4730
 9146SOL    HW138897   2.306   1.960  15.821 -1.2138 -1.0529 -0.0506
 9146SOL    HW238898   2.345   2.012  15.955 -1.0206 -0.7138  0.7241
 9147SOL     OW38899   1.583   2.860   8.819  0.6318  0.1508 -0.5596
 9147SOL    HW138900   1.622   2.939   8.855 -0.7612 -0.2560  1.8425
 9147SOL    HW238901   1.633   2.789   8.859 -0.6994  1.0858  2.7304
 9148SOL     OW38902   0.108   4.589   3.438  0.7608  0.2044  0.0527
 9148SOL    HW138903   0.062   4.651   3.495 -0.1368 -0.0260 -0.4271
 9148SOL    HW238904   0.117   4.513   3.495 -0.9300  0.4725  0.6801
 9149SOL     OW38905   1.774   1.242   9.265 -0.6724 -0.1003  0.4038
 9149SOL    HW138906   1.715   1.171   9.238  0.7306 -1.2847  0.4644
 9149SOL    HW238907   1.857   1.195   9.260 -0.9501 -0.7452  1.7662
 9150SOL     OW38908   2.816   4.500   7.393  0.0664  0.3276 -0.1803
 9150SOL    HW138909   2.824   4.542   7.478  0.9249 -1.3686  0.5733
 9150SOL    HW238910   2.764   4.425   7.423  0.7606 -1.3359 -3.0988
 9151SOL     OW38911   4.239   1.960   4.420  0.3439 -0.3609  0.1188
 9151SOL    HW138912   4.299   2.016   4.468 -1.3588  2.1071 -0.5949
 9151SOL    HW238913   4.295   1.883   4.421  1.1413  0.2036 -1.2135
 9152SOL     OW38914   0.836   4.543   4.310  0.3148 -0.1049  0.4621
 9152SOL    HW138915   0.886   4.617   4.275 -0.6338 -0.3272 -1.3543
 9152SOL    HW238916   0.753   4.549   4.262 -0.9929  0.6473  2.8340
 9153SOL     OW38917   0.135   0.870  12.969  0.9138  0.3003 -0.2272
 9153SOL    HW138918   0.143   0.966  12.978  1.4102  0.1922  0.5648
 9153SOL    HW238919   0.052   0.877  12.922  0.6628 -2.0663 -0.1154
 9154SOL     OW38920   3.845   1.569   4.613 -0.2961 -0.1284  0.3352
 9154SOL    HW138921   3.923   1.525   4.579 -0.3786 -0.6965  0.8768
 9154SOL    HW238922   3.797   1.573   4.530 -1.0828  0.0940  0.7963
 9155SOL     OW38923   0.756   4.483   8.233 -0.1970  0.3114 -0.4058
 9155SOL    HW138924   0.747   4.501   8.327 -0.2740  0.2872 -0.4079
 9155SOL    HW238925   0.849   4.491   8.213  0.2451 -0.7007  1.2172
 9156SOL     OW38926   4.605   0.265  11.658 -0.3886  0.5506  0.3037
 9156SOL    HW138927   4.546   0.258  11.582  1.7084  2.0260 -1.4698
 9156SOL    HW238928   4.582   0.192  11.716  0.7372  0.9005  1.1966
 9157SOL     OW38929   3.762   4.548   4.820  0.6832 -0.1981 -0.4797
 9157SOL    HW138930   3.723   4.578   4.738 -1.7930  1.0547  1.1591
 9157SOL    HW238931   3.831   4.489   4.788 -0.7828 -1.3396 -1.5472
 9158SOL     OW38932   1.080   3.360   7.433 -0.7063  0.0076 -0.2731
 9158SOL    HW138933   1.083   3.380   7.526  1.3668  0.3376 -0.4173
 9158SOL    HW238934   1.174   3.355   7.415 -0.5267 -1.7094  1.2548
 9159SOL     OW38935   0.306   4.134   7.233  0.0988  0.7774  0.0954
 9159SOL    HW138936   0.381   4.166   7.283 -0.1606 -1.7792  2.1310
 9159SOL    HW238937   0.235   4.181   7.276 -2.3679 -0.8189 -2.2017
 9160SOL     OW38938   4.160   3.725   3.883  0.0932 -0.1247  0.1298
 9160SOL    HW138939   4.104   3.720   3.960 -2.1716 -1.1946 -1.5951
 9160SOL    HW238940   4.152   3.639   3.842 -0.4054  0.4308 -0.9442
 9161SOL     OW38941   0.712   4.086   1.933  0.2337  0.1301  0.2229
 9161SOL    HW138942   0.645   4.097   2.000 -0.2309  0.6386 -0.3222
 9161SOL    HW238943   0.662   4.111   1.855 -0.2445  0.3475  0.5981
 9162SOL     OW38944   1.010   2.012  14.931  0.4115 -0.1908 -0.1637
 9162SOL    HW138945   0.993   2.040  15.021 -0.2290  1.8006 -0.8907
 9162SOL    HW238946   1.030   2.102  14.904 -2.2471  0.9132  1.5000
 9163SOL     OW38947   2.070   0.266   8.804  0.4616  0.3706 -0.4025
 9163SOL    HW138948   2.097   0.188   8.851  0.1503 -0.2904 -1.3131
 9163SOL    HW238949   2.153   0.304   8.776  1.4981 -0.9237  0.9612
 9164SOL     OW38950   4.152   2.787   9.028  0.0133  0.0048 -0.2075
 9164SOL    HW138951   4.107   2.703   9.016 -0.9517  0.1462  2.4997
 9164SOL    HW238952   4.239   2.767   9.062 -0.5061  0.2497  1.2716
 9165SOL     OW38953   0.435   3.467   3.741  0.3693  0.3925  0.0732
 9165SOL    HW138954   0.525   3.499   3.742  0.7240 -0.6378  1.5344
 9165SOL    HW238955   0.432   3.436   3.832 -3.1690 -0.1454 -0.2352
 9166SOL     OW38956   3.063   2.274   4.328  0.2298  0.5036  0.4976
 9166SOL    HW138957   3.008   2.300   4.254  0.5653  1.7288  0.6812
 9166SOL    HW238958   3.015   2.197   4.357  0.7228  0.1560  0.3906
 9167SOL     OW38959   3.253   2.037   6.454  0.6076  0.1591  0.1566
 9167SOL    HW138960   3.167   2.011   6.422 -0.0028 -0.8358  2.5744
 9167SOL    HW238961   3.296   1.952   6.447  1.3815  0.9197 -4.1710
 9168SOL     OW38962   2.613   1.927   1.979  0.3444 -0.1325  0.0386
 9168SOL    HW138963   2.517   1.930   1.975  0.1891 -1.7973  2.7759
 9168SOL    HW238964   2.647   1.964   1.897 -0.5119  1.5406  0.4478
 9169SOL     OW38965   1.204   3.640   2.790 -0.6488 -0.2447  0.1155
 9169SOL    HW138966   1.187   3.668   2.700  2.2057 -2.4750 -1.1120
 9169SOL    HW238967   1.234   3.551   2.768  0.3096  0.0375  0.3267
 9170SOL     OW38968   1.518   1.725   2.450 -0.0894  0.2049 -0.7178
 9170SOL    HW138969   1.507   1.697   2.359  2.9522  0.9932 -1.3182
 9170SOL    HW238970   1.609   1.702   2.468 -0.6038 -0.9390  0.3783
 9171SOL     OW38971   4.131   4.116   1.019  0.7081 -0.0784 -0.4079
 9171SOL    HW138972   4.039   4.143   1.023  0.6612 -0.3504  0.3681
 9171SOL    HW238973   4.137   4.101   1.113 -1.1425  0.4526 -0.2126
 9172SOL     OW38974   3.110   3.045   8.701  0.3409  0.1130 -0.2686
 9172SOL    HW138975   3.086   3.092   8.622  0.1088 -1.6617 -1.2407
 9172SOL    HW238976   3.028   3.041   8.749  1.1941 -0.2065  1.1752
 9173SOL     OW38977   3.431   4.162   3.491 -0.4330 -0.3699 -0.0943
 9173SOL    HW138978   3.366   4.103   3.451 -0.3007 -1.9306  2.0124
 9173SOL    HW238979   3.375   4.239   3.479 -0.9688 -0.4643  1.8256
 9174SOL     OW38980   2.869   0.783   7.955 -0.4623 -0.0324 -0.2492
 9174SOL    HW138981   2.962   0.763   7.956  0.1172  2.7386  0.6801
 9174SOL    HW238982   2.858   0.812   7.864 -1.0383 -0.8507 -0.4383
 9175SOL     OW38983   3.841   2.516   4.164  0.0800  0.3467  0.3259
 9175SOL    HW138984   3.833   2.467   4.246 -0.8421  1.9735  1.2272
 9175SOL    HW238985   3.820   2.447   4.102  1.1967 -2.3184  2.9408
 9176SOL     OW38986   2.852   0.645  11.536 -0.4875  0.6838  0.4568
 9176SOL    HW138987   2.776   0.669  11.590  1.7957  2.5983  2.7837
 9176SOL    HW238988   2.904   0.725  11.536  1.5474 -0.6624 -1.9193
 9177SOL     OW38989   1.851   4.270   4.873  0.3942  0.3080  0.2214
 9177SOL    HW138990   1.774   4.323   4.893  0.4473  0.4340  0.0949
 9177SOL    HW238991   1.814   4.227   4.796 -0.5291 -0.1357  0.9018
 9178SOL     OW38992   0.843   3.699   4.190  0.9948  0.4073 -0.1676
 9178SOL    HW138993   0.813   3.748   4.267 -0.6279  0.0824 -0.6061
 9178SOL    HW238994   0.766   3.710   4.135 -0.7986 -3.2187  1.5847
 9179SOL     OW38995   1.667   1.269   6.100  0.3888  0.1850  0.1761
 9179SOL    HW138996   1.691   1.282   6.192  0.4723  1.5605 -0.0477
 9179SOL    HW238997   1.753   1.248   6.063 -0.6502 -0.2441 -2.0158
 9180SOL     OW38998   4.380   2.736   9.144  0.3505  0.1896  0.0614
 9180SOL    HW138999   4.428   2.654   9.155  3.4133  1.7048 -2.0641
 9180SOL    HW239000   4.349   2.754   9.233 -0.6498  0.2718 -0.2993
 9181SOL     OW39001   2.581   0.562   8.359 -0.0287 -0.2794 -0.1653
 9181SOL    HW139002   2.653   0.505   8.388 -0.1973 -1.9323 -2.9372
 9181SOL    HW239003   2.621   0.648   8.372 -2.6790  0.3652  3.6586
 9182SOL     OW39004   3.094   4.364   5.348  0.0456  0.1809  0.3876
 9182SOL    HW139005   3.115   4.455   5.327  0.0749 -0.2539 -1.4763
 9182SOL    HW239006   3.060   4.359   5.437  1.1996  1.3693  0.9084
 9183SOL     OW39007   0.689   3.280  13.966 -0.4223  0.3868  0.2499
 9183SOL    HW139008   0.606   3.289  14.012 -1.3228  0.3780 -1.3802
 9183SOL    HW239009   0.751   3.255  14.035 -0.6854 -1.5958 -0.2337
 9184SOL     OW39010   2.976   0.443   5.278 -0.3997 -0.4044 -0.1297
 9184SOL    HW139011   2.980   0.539   5.288  1.9117 -0.6449  1.0981
 9184SOL    HW239012   3.058   0.420   5.320 -1.3864 -0.5188  1.7347
 9185SOL     OW39013   1.496   2.206   3.986  0.0353 -0.3057  0.6819
 9185SOL    HW139014   1.500   2.128   3.931  1.0013  0.4215 -0.2600
 9185SOL    HW239015   1.420   2.192   4.044  0.0561 -1.8562  0.3262
 9186SOL     OW39016   0.937   2.129   7.345  0.5565 -0.0143 -0.6304
 9186SOL    HW139017   1.010   2.098   7.292  0.4190  1.0941 -1.4699
 9186SOL    HW239018   0.871   2.148   7.279  0.1108  1.3040  0.2049
 9187SOL     OW39019   0.174   2.110  11.680 -0.0671  0.4733 -0.1845
 9187SOL    HW139020   0.151   2.159  11.601 -1.8310 -2.2318 -1.3800
 9187SOL    HW239021   0.263   2.079  11.665  0.0482  0.8213 -0.2140
 9188SOL     OW39022   2.907   4.323   4.927 -0.1011  0.1812  0.0059
 9188SOL    HW139023   2.929   4.415   4.913 -0.7638  0.1541 -1.2651
 9188SOL    HW239024   2.988   4.285   4.894 -0.4884 -2.1470  1.6667
 9189SOL     OW39025   3.188   0.989   6.046 -0.0127 -0.8850 -0.4191
 9189SOL    HW139026   3.216   1.079   6.064 -1.1863 -0.3087 -1.4445
 9189SOL    HW239027   3.099   1.010   6.074  0.3198  0.7969 -0.6481
 9190SOL     OW39028   2.744   0.070  16.286  0.1119  0.3189  0.0392
 9190SOL    HW139029   2.722   4.702  16.256 -3.0497  0.8428  0.8394
 9190SOL    HW239030   2.677   0.083  16.353 -0.1441 -1.4828  0.1310
 9191SOL     OW39031   2.278   2.995   8.877  0.0764 -0.1390  0.2431
 9191SOL    HW139032   2.284   2.904   8.848 -0.0906  0.0352 -0.3418
 9191SOL    HW239033   2.204   3.000   8.938 -0.4365 -1.7330 -0.2508
 9192SOL     OW39034   3.543   2.413   7.504  0.0355 -0.0712  0.1309
 9192SOL    HW139035   3.451   2.387   7.500  0.6505 -2.0093 -1.3907
 9192SOL    HW239036   3.558   2.453   7.418  0.9003  0.2414  0.4296
 9193SOL     OW39037   1.348   1.506   5.860  0.5047 -0.2107 -0.4676
 9193SOL    HW139038   1.349   1.479   5.952 -0.2185 -2.4983 -1.1363
 9193SOL    HW239039   1.333   1.600   5.853 -0.0407 -0.4034 -1.8504
 9194SOL     OW39040   4.583   0.548   8.758  0.0863  0.0421  0.3387
 9194SOL    HW139041   4.596   0.641   8.742 -0.5608  0.0249 -0.3168
 9194SOL    HW239042   4.494   0.555   8.792 -0.6148 -1.3915 -1.1525
 9195SOL     OW39043   2.899   4.525   9.873 -0.4505  0.1827  0.4691
 9195SOL    HW139044   2.947   4.442   9.880 -0.6603 -0.2437 -3.1782
 9195SOL    HW239045   2.959   4.581   9.825 -1.2867 -0.8194 -1.7271
 9196SOL     OW39046   4.353   0.826   3.436  0.3285 -0.0538  0.3337
 9196SOL    HW139047   4.301   0.859   3.509  1.9228  1.6822  0.6815
 9196SOL    HW239048   4.305   0.747   3.410  0.2402  0.8892 -2.3735
 9197SOL     OW39049   1.417   0.056  12.748 -0.1979  0.1853 -0.5971
 9197SOL    HW139050   1.476   0.132  12.754  1.6823 -1.2147 -1.4475
 9197SOL    HW239051   1.372   0.048  12.832 -0.0459 -1.4924 -0.6862
 9198SOL     OW39052   4.346   1.984   7.253  0.3419 -0.0017 -0.0315
 9198SOL    HW139053   4.399   2.050   7.208  1.6554 -0.1378  1.2936
 9198SOL    HW239054   4.385   1.983   7.341  0.7934 -0.0667 -0.2283
 9199SOL     OW39055   2.590   0.565   9.154  0.0848  0.3898 -0.6429
 9199SOL    HW139056   2.610   0.477   9.183 -0.8845  0.5871  0.6224
 9199SOL    HW239057   2.523   0.551   9.087  1.7367  0.7354 -2.3894
 9200SOL     OW39058   3.989   0.967   4.362  0.5638  0.1913 -0.2287
 9200SOL    HW139059   4.027   0.950   4.448  0.2866  1.4370  0.1290
 9200SOL    HW239060   4.047   1.031   4.322  1.6021  0.8120  2.3004
 9201SOL     OW39061   0.686   0.019  14.359 -0.0691 -0.0363 -0.1535
 9201SOL    HW139062   0.654   4.667  14.413  1.7332 -2.4479 -2.3702
 9201SOL    HW239063   0.626   0.014  14.284 -2.1105  1.8862  1.3401
 9202SOL     OW39064   4.242   2.518   4.729 -0.0865 -0.2165  0.0893
 9202SOL    HW139065   4.317   2.477   4.686  0.4351  0.0634  0.7291
 9202SOL    HW239066   4.279   2.592   4.777  0.0415 -1.8204  2.4212
 9203SOL     OW39067   2.728   3.854   4.216 -0.1545  0.3187 -0.0314
 9203SOL    HW139068   2.809   3.809   4.193  0.0926  0.6896  0.1340
 9203SOL    HW239069   2.753   3.924   4.276  1.6918 -1.4218  1.2042
 9204SOL     OW39070   1.801   2.470   0.894 -0.2878 -0.0047  0.1316
 9204SOL    HW139071   1.829   2.552   0.933  0.4017 -0.1598 -0.0259
 9204SOL    HW239072   1.770   2.427   0.974 -0.1749 -3.3222 -1.6012
 9205SOL     OW39073   1.463   3.672   1.636  0.2443  0.3125  0.5433
 9205SOL    HW139074   1.436   3.699   1.548 -1.6816  1.4221  1.4883
 9205SOL    HW239075   1.541   3.722   1.662  0.5086 -0.2532  0.8321
 9206SOL     OW39076   1.826   2.083  16.752 -0.4011 -0.5933  0.0575
 9206SOL    HW139077   1.749   2.133  16.728 -1.1551 -1.0178  1.5921
 9206SOL    HW239078   1.855   2.066  16.663 -0.6372 -1.4380  0.1399
 9207SOL     OW39079   2.492   3.596  12.806  0.1359 -0.5096  0.0423
 9207SOL    HW139080   2.554   3.668  12.812 -0.9685  0.5590 -1.3143
 9207SOL    HW239081   2.548   3.523  12.781  1.1446  0.1140  0.4685
 9208SOL     OW39082   4.623   0.809   3.395 -0.2570  0.3599  0.3606
 9208SOL    HW139083   4.643   0.718   3.417 -0.3307  0.9226  2.8330
 9208SOL    HW239084   4.531   0.816   3.421 -0.4156  0.5682 -0.2774
 9209SOL     OW39085   0.768   3.353   3.206  0.0713 -0.0031 -0.2521
 9209SOL    HW139086   0.693   3.339   3.264  0.7233 -0.1074  0.5757
 9209SOL    HW239087   0.720   3.361   3.124  1.7025 -0.1117 -1.2193
 9210SOL     OW39088   0.532   4.372  13.374 -0.4085 -0.0546 -0.2853
 9210SOL    HW139089   0.589   4.296  13.370  0.5798  0.7586 -1.4921
 9210SOL    HW239090   0.480   4.361  13.294  0.7461 -0.1989 -1.0146
 9211SOL     OW39091   0.549   0.529   6.656  0.0708  0.4657  0.0192
 9211SOL    HW139092   0.559   0.617   6.691  0.4768 -0.0771  1.2749
 9211SOL    HW239093   0.615   0.482   6.707 -2.4955 -2.7225  0.4247
 9212SOL     OW39094   0.504   2.593  11.665  0.5188  0.1319  0.0389
 9212SOL    HW139095   0.504   2.668  11.723  2.6611 -0.9077  1.3788
 9212SOL    HW239096   0.598   2.596  11.648  0.4788 -0.5790 -0.3260
 9213SOL     OW39097   2.030   2.830   6.278 -0.2105  0.2729  0.4171
 9213SOL    HW139098   2.010   2.741   6.306 -0.8218  0.3710  0.2903
 9213SOL    HW239099   2.084   2.813   6.201  2.4260  2.7185  1.7166
 9214SOL     OW39100   3.591   3.453   3.905  0.1143  0.2775  0.1566
 9214SOL    HW139101   3.573   3.541   3.871 -0.4360  0.6588  1.4546
 9214SOL    HW239102   3.509   3.405   3.896  0.3249 -0.0046 -0.2430
 9215SOL     OW39103   3.145   3.932   7.940 -0.2404  0.2874  0.8724
 9215SOL    HW139104   3.061   3.891   7.960 -0.1856 -0.8734 -1.1950
 9215SOL    HW239105   3.112   4.020   7.922 -1.2384 -0.5235 -1.2720
 9216SOL     OW39106   3.926   1.815   5.720 -0.0783  0.1583 -0.2278
 9216SOL    HW139107   3.862   1.857   5.663  0.4731  1.7588  0.3562
 9216SOL    HW239108   3.959   1.885   5.776  0.7745  0.0540 -0.6017
 9217SOL     OW39109   2.025   3.310   8.467 -0.0255 -0.0524 -0.7005
 9217SOL    HW139110   2.038   3.221   8.499 -0.7485 -0.3926 -1.3745
 9217SOL    HW239111   1.956   3.348   8.521  0.4274 -0.7628  0.3807
 9218SOL     OW39112   1.377   2.382  14.885 -0.0267 -0.1536  0.2988
 9218SOL    HW139113   1.407   2.330  14.810  3.1528  0.2961  1.2753
 9218SOL    HW239114   1.329   2.314  14.933 -0.0825  0.7958  1.5582
 9219SOL     OW39115   3.666   3.113   7.850  0.0289 -0.2029 -0.1710
 9219SOL    HW139116   3.704   3.169   7.781 -0.7438  1.4954  0.7791
 9219SOL    HW239117   3.652   3.181   7.916 -0.1388  0.6299 -1.0519
 9220SOL     OW39118   0.726   0.396   6.810 -0.0823 -0.1937  0.2316
 9220SOL    HW139119   0.780   0.317   6.806 -0.9103 -0.7497 -0.0858
 9220SOL    HW239120   0.696   0.377   6.899 -0.9252 -0.8381 -0.1893
 9221SOL     OW39121   1.956   4.112  15.012  0.2694 -0.0815 -0.4190
 9221SOL    HW139122   1.946   4.207  15.019 -1.7096 -0.1938 -1.5335
 9221SOL    HW239123   2.043   4.097  15.048 -1.0121 -3.1175  1.4111
 9222SOL     OW39124   2.984   2.564   3.998  0.3940 -0.1757 -0.3100
 9222SOL    HW139125   2.972   2.471   3.978 -0.5885  0.4252 -2.5326
 9222SOL    HW239126   2.934   2.606   3.928  0.0742 -1.2374 -0.7150
 9223SOL     OW39127   0.870   0.619   2.101 -0.3616  0.5536 -0.4574
 9223SOL    HW139128   0.897   0.564   2.174  0.2810  3.9501  1.8886
 9223SOL    HW239129   0.792   0.670   2.125  0.1303  0.2847  1.6883
 9224SOL     OW39130   0.740   3.142  17.098 -0.2638  0.1451 -0.5950
 9224SOL    HW139131   0.791   3.083  17.042  0.2446  0.0571 -0.0418
 9224SOL    HW239132   0.778   3.227  17.074  0.1711  0.1103 -0.0499
 9225SOL     OW39133   1.511   1.108   6.832 -0.1865 -0.1123 -0.3808
 9225SOL    HW139134   1.594   1.155   6.842  0.4429 -1.8635  2.5845
 9225SOL    HW239135   1.487   1.134   6.743 -0.8508 -0.5538 -0.3304
 9226SOL     OW39136   0.563   0.763  17.298 -0.8293 -0.2109  0.1768
 9226SOL    HW139137   0.552   0.686  17.241 -2.6170 -1.2785  1.9889
 9226SOL    HW239138   0.481   0.749  17.345  0.1885  1.9200  2.6064
 9227SOL     OW39139   1.757   1.450   4.423  0.3892  0.6367 -0.1548
 9227SOL    HW139140   1.696   1.376   4.422 -0.1046  1.0645 -2.0635
 9227SOL    HW239141   1.708   1.513   4.476  0.1147  1.0628 -0.9136
 9228SOL     OW39142   0.640   2.701   4.044  0.6368  0.9655 -0.7538
 9228SOL    HW139143   0.671   2.792   4.047 -0.2623  1.2497 -0.1223
 9228SOL    HW239144   0.595   2.709   3.959 -0.1684 -0.2683 -0.4399
 9229SOL     OW39145   3.663   0.151   5.219  0.1724 -0.6007 -0.1074
 9229SOL    HW139146   3.742   0.099   5.204  0.2101 -0.0782 -1.7560
 9229SOL    HW239147   3.644   0.132   5.311  2.4694 -0.2113  0.4445
 9230SOL     OW39148   0.151   4.386   3.994 -0.1816 -0.1280  0.1673
 9230SOL    HW139149   0.084   4.337   4.041 -0.9723 -1.5250 -2.4287
 9230SOL    HW239150   0.169   4.461   4.051  2.4691 -1.3647  0.9395
 9231SOL     OW39151   1.592   3.702  10.327 -0.0822 -0.2669  0.0838
 9231SOL    HW139152   1.568   3.648  10.403 -0.1205 -2.1000 -1.2361
 9231SOL    HW239153   1.535   3.657  10.265  0.3827 -0.2726 -0.3308
 9232SOL     OW39154   0.626   3.126  15.238 -0.4024 -0.7166  0.1584
 9232SOL    HW139155   0.611   3.187  15.166  1.9272  1.7882  1.8009
 9232SOL    HW239156   0.655   3.045  15.199 -1.0945 -0.5597 -0.6795
 9233SOL     OW39157   3.161   1.973   3.586 -0.5248  0.0845 -0.2850
 9233SOL    HW139158   3.148   1.887   3.546  3.0147  0.1104 -1.4536
 9233SOL    HW239159   3.143   2.021   3.505  0.4774  1.1439  0.1260
 9234SOL     OW39160   2.595   1.703   3.724  0.7144 -0.5780 -0.1508
 9234SOL    HW139161   2.634   1.620   3.698 -0.9753 -1.5183  0.3319
 9234SOL    HW239162   2.507   1.684   3.690 -0.3362  0.6384  1.8993
 9235SOL     OW39163   4.123   3.515   5.490 -0.0204 -0.4736  0.5582
 9235SOL    HW139164   4.029   3.534   5.493  0.5632  2.6346 -1.1741
 9235SOL    HW239165   4.155   3.551   5.573 -1.6951  3.2026 -0.3581
 9236SOL     OW39166   3.118   2.027   7.322  0.1979 -0.2177 -0.2004
 9236SOL    HW139167   3.158   2.108   7.292  1.4470 -1.0400 -0.7659
 9236SOL    HW239168   3.114   1.966   7.248 -2.9645  0.1999 -0.3618
 9237SOL     OW39169   4.432   2.471  10.150  0.2283  0.6869  0.1287
 9237SOL    HW139170   4.362   2.495  10.211 -1.6109 -1.7677 -0.9840
 9237SOL    HW239171   4.388   2.394  10.113  0.9317  0.6648 -0.6752
 9238SOL     OW39172   4.593   1.760   1.727  0.1005  0.2461 -0.5577
 9238SOL    HW139173   4.604   1.666   1.741 -0.2303  0.0484 -1.6532
 9238SOL    HW239174   4.531   1.791   1.793  0.9501 -0.0339  0.3777
 9239SOL     OW39175   1.096   0.681   7.395  0.0247 -0.0058  0.3156
 9239SOL    HW139176   1.093   0.702   7.489 -0.5217  1.4432 -0.0147
 9239SOL    HW239177   1.151   0.748   7.354 -1.1377  0.2191 -0.8809
 9240SOL     OW39178   3.451   2.618   8.914 -0.5001 -0.5436 -0.3288
 9240SOL    HW139179   3.474   2.702   8.954  3.2980 -1.4966 -0.4956
 9240SOL    HW239180   3.530   2.564   8.903  0.9895  1.4790  0.5572
 9241SOL     OW39181   4.025   4.718   3.489  0.0396  0.1382  0.1272
 9241SOL    HW139182   3.935   4.697   3.466 -0.4912  0.9056  1.5201
 9241SOL    HW239183   4.071   4.636   3.471 -2.8469 -1.5048  0.2722
 9242SOL     OW39184   1.428   4.214   7.989  0.7154 -0.1205 -0.4102
 9242SOL    HW139185   1.517   4.179   7.984  0.7256 -0.1211 -0.2031
 9242SOL    HW239186   1.433   4.267   8.069  1.1377  1.6838 -1.6229
 9243SOL     OW39187   1.882   1.745   9.494  0.0257 -0.3648  0.4578
 9243SOL    HW139188   1.861   1.831   9.456  0.9790 -0.5430 -0.4879
 9243SOL    HW239189   1.795   1.705   9.490 -1.3727  2.7182 -0.0473
 9244SOL     OW39190   3.045   1.846  15.073 -0.1181 -0.1957 -0.3113
 9244SOL    HW139191   3.110   1.810  15.133 -1.8696 -1.7917  0.6082
 9244SOL    HW239192   2.978   1.872  15.136 -0.9032  0.6666 -1.5059
 9245SOL     OW39193   2.450   0.717   7.985 -0.0251  0.5656  0.0149
 9245SOL    HW139194   2.467   0.623   7.998  1.6295  0.8919  0.2120
 9245SOL    HW239195   2.400   0.700   7.905  0.5954 -0.3979 -0.1693
 9246SOL     OW39196   2.519   1.218  14.044 -0.4377 -0.3176  0.0074
 9246SOL    HW139197   2.495   1.277  14.116  1.3829  0.9602 -0.4340
 9246SOL    HW239198   2.461   1.253  13.975 -0.6396 -0.0443  0.3135
 9247SOL     OW39199   1.788   0.672  10.461 -0.0425  0.2452 -0.4885
 9247SOL    HW139200   1.770   0.686  10.554  0.4994  3.1404 -0.8246
 9247SOL    HW239201   1.796   0.578  10.447  1.2756  0.1233  0.9765
 9248SOL     OW39202   2.218   2.407   2.540  0.1844  0.0381  0.2900
 9248SOL    HW139203   2.282   2.339   2.561  2.6300  2.2727 -0.0066
 9248SOL    HW239204   2.181   2.372   2.459  2.7141 -2.6035  0.2933
 9249SOL     OW39205   2.054   3.427   1.856  0.3533  0.2387 -0.3685
 9249SOL    HW139206   2.144   3.417   1.825 -0.5933  1.0791 -3.3447
 9249SOL    HW239207   1.995   3.409   1.783 -0.6370  2.3997 -0.1115
 9250SOL     OW39208   2.017   2.907   2.632 -0.3291  0.6152  0.5864
 9250SOL    HW139209   2.061   2.909   2.717  2.2398 -0.1850 -0.7154
 9250SOL    HW239210   2.048   2.821   2.603 -0.3437  0.1453  1.9633
 9251SOL     OW39211   4.516   3.319  11.989 -0.1885  0.0974  0.2997
 9251SOL    HW139212   4.464   3.300  11.911  0.1147 -1.4378  0.4830
 9251SOL    HW239213   4.549   3.406  11.967  0.3167  0.0874  1.0403
 9252SOL     OW39214   0.995   2.490   6.584 -0.1867 -0.3837 -0.2706
 9252SOL    HW139215   1.020   2.579   6.611 -3.2778  0.6504 -0.8587
 9252SOL    HW239216   0.915   2.484   6.636  0.1985 -0.4704  0.3188
 9253SOL     OW39217   1.653   0.350  10.953 -0.4860  0.0237 -0.0908
 9253SOL    HW139218   1.601   0.289  11.005 -0.8461  1.0745  0.7913
 9253SOL    HW239219   1.604   0.432  10.965 -0.8315  0.1323 -2.1881
 9254SOL     OW39220   0.758   4.227   8.891 -0.4476 -0.7725 -0.3099
 9254SOL    HW139221   0.807   4.298   8.933 -1.5390 -0.8528  1.1233
 9254SOL    HW239222   0.707   4.199   8.967 -0.6786 -0.2627 -0.2762
 9255SOL     OW39223   2.318   0.314  12.529  0.1074  0.0228  0.5654
 9255SOL    HW139224   2.257   0.272  12.589  0.9917 -1.6531  0.2965
 9255SOL    HW239225   2.373   0.368  12.587  0.0838 -0.2695  0.8589
 9256SOL     OW39226   1.064   0.756  13.852  0.9423  0.4043 -0.0688
 9256SOL    HW139227   1.072   0.797  13.938 -1.0171  0.9755 -0.1627
 9256SOL    HW239228   1.069   0.663  13.874  0.6286  0.3889 -0.0648
 9257SOL     OW39229   1.178   1.716   4.259  0.0606 -0.4342 -0.0343
 9257SOL    HW139230   1.118   1.672   4.200  1.5654  1.3380 -2.8774
 9257SOL    HW239231   1.255   1.659   4.258  0.4356 -0.0089  2.4717
 9258SOL     OW39232   2.036   3.971  12.194  0.3061  0.2792  0.8182
 9258SOL    HW139233   1.986   3.998  12.117 -0.2313 -0.3439  0.9529
 9258SOL    HW239234   2.055   4.056  12.233  1.1471 -0.1576  1.3514
 9259SOL     OW39235   0.802   1.516  13.477 -0.0710 -0.0520 -0.1223
 9259SOL    HW139236   0.746   1.589  13.501 -0.7009 -0.0193 -1.6635
 9259SOL    HW239237   0.780   1.503  13.385  1.0897 -1.2847 -0.2241
 9260SOL     OW39238   2.496   1.796   7.758  0.2099  0.1982 -0.4127
 9260SOL    HW139239   2.441   1.819   7.683 -1.0088  1.6817  0.9384
 9260SOL    HW239240   2.445   1.725   7.798 -0.3079 -0.4303 -2.1689
 9261SOL     OW39241   3.729   3.968   4.320  0.5331  0.1297 -0.4348
 9261SOL    HW139242   3.806   3.961   4.377  0.6977 -1.8405 -0.9031
 9261SOL    HW239243   3.685   4.032   4.376  0.3992 -2.2784  2.2102
 9262SOL     OW39244   0.043   3.830   2.571  0.3534  0.4155 -0.0909
 9262SOL    HW139245   0.138   3.843   2.577  0.4151 -0.3756  0.6323
 9262SOL    HW239246   0.037   3.736   2.553 -0.2007  0.2520  0.9276
 9263SOL     OW39247   0.442   0.369  17.659  0.4304 -0.0451 -0.0409
 9263SOL    HW139248   0.482   0.456  17.668  0.4902 -0.2707  1.8927
 9263SOL    HW239249   0.516   0.310  17.674 -0.3852 -0.8893  0.6046
 9264SOL     OW39250   3.209   0.625  11.324  0.4000  0.5066  0.5315
 9264SOL    HW139251   3.141   0.687  11.299 -0.1919  0.3737  1.7897
 9264SOL    HW239252   3.240   0.668  11.404 -0.9393 -0.4529  1.5726
 9265SOL     OW39253   0.711   0.095   5.922  0.8919  0.5971  0.0698
 9265SOL    HW139254   0.676   0.017   5.878 -0.6073  0.4232  1.5966
 9265SOL    HW239255   0.805   0.074   5.925  0.6078 -0.4974  1.0384
 9266SOL     OW39256   0.416   1.508  13.430  0.6510 -0.0032 -0.0375
 9266SOL    HW139257   0.464   1.502  13.513  1.8051 -1.7215 -0.8317
 9266SOL    HW239258   0.404   1.602  13.422 -1.2811 -0.3723 -1.4979
 9267SOL     OW39259   4.686   3.848   7.763 -0.5694  0.1218 -0.2815
 9267SOL    HW139260   4.620   3.878   7.825 -1.9303 -0.1689 -1.5760
 9267SOL    HW239261   4.681   3.753   7.766 -1.6844  0.1347 -1.6586
 9268SOL     OW39262   3.880   2.163   0.697 -0.3699 -0.3036  0.2759
 9268SOL    HW139263   3.924   2.202   0.772 -1.0431  1.3128 -0.1577
 9268SOL    HW239264   3.824   2.103   0.745 -0.1399  0.6353  1.7250
 9269SOL     OW39265   2.603   4.071   7.683  0.0997  0.0134  0.0627
 9269SOL    HW139266   2.660   4.094   7.610 -1.2352  1.0163 -0.6612
 9269SOL    HW239267   2.629   3.980   7.697 -0.9220 -0.6961 -2.6780
 9270SOL     OW39268   0.071   1.369   1.513  0.0897 -0.2404 -0.6461
 9270SOL    HW139269   0.027   1.328   1.588  0.3157 -0.5253 -0.6691
 9270SOL    HW239270   0.097   1.287   1.471  0.3075 -0.4145 -0.1693
 9271SOL     OW39271   4.330   1.711   6.225 -0.2185  0.6663  0.6383
 9271SOL    HW139272   4.308   1.737   6.136  0.0227 -0.1140  0.3521
 9271SOL    HW239273   4.393   1.777   6.253  0.9306 -0.5843  1.0454
 9272SOL     OW39274   2.890   3.593   3.125 -0.3782  0.0020  0.2832
 9272SOL    HW139275   2.918   3.684   3.136  0.0147 -0.0573 -0.2498
 9272SOL    HW239276   2.795   3.605   3.128 -0.1130  2.2655 -0.0241
 9273SOL     OW39277   2.197   3.210   0.305  0.1589  1.0976 -0.0286
 9273SOL    HW139278   2.103   3.216   0.290  0.2849 -0.5844 -1.5794
 9273SOL    HW239279   2.216   3.155   0.229 -0.5849  1.8135 -0.7396
 9274SOL     OW39280   2.732   1.130  15.754  0.0232 -0.2173  0.1235
 9274SOL    HW139281   2.735   1.136  15.659  0.3057  0.7876  0.1965
 9274SOL    HW239282   2.727   1.037  15.779  1.3100 -0.7933 -1.8071
 9275SOL     OW39283   0.424   1.463   2.948  0.1325  0.0015 -0.8686
 9275SOL    HW139284   0.484   1.530   2.981 -0.3623  0.2114 -0.3876
 9275SOL    HW239285   0.434   1.456   2.853 -1.0508  0.6515 -1.0456
 9276SOL     OW39286   1.576   4.602   9.658 -0.8018  0.1778  0.3913
 9276SOL    HW139287   1.517   4.671   9.688 -0.7038 -0.4304  1.9957
 9276SOL    HW239288   1.514   4.528   9.655 -1.6112  0.8733 -0.1062
 9277SOL     OW39289   0.652   0.593   8.929  0.1713 -0.1798 -0.3765
 9277SOL    HW139290   0.715   0.660   8.953  1.3522 -1.3360 -0.2269
 9277SOL    HW239291   0.582   0.617   8.989  2.4682 -1.0405  2.6235
 9278SOL     OW39292   2.036   4.474   9.201  0.3072 -0.2261  0.0366
 9278SOL    HW139293   2.038   4.415   9.276  1.0179 -1.0901 -0.6508
 9278SOL    HW239294   1.965   4.535   9.219  0.3316  0.2226 -1.3486
 9279SOL     OW39295   1.965   4.062   8.441 -0.2328 -0.8729  0.1153
 9279SOL    HW139296   1.878   4.056   8.480 -0.7668 -2.3789 -1.2942
 9279SOL    HW239297   1.966   3.986   8.382 -1.1230  0.1841 -1.2678
 9280SOL     OW39298   2.923   3.698   6.076  0.2769 -0.1866  0.4796
 9280SOL    HW139299   2.914   3.716   5.983  0.9761 -1.0772  0.2388
 9280SOL    HW239300   3.002   3.748   6.096 -1.8285  3.6105 -0.6148
 9281SOL     OW39301   4.646   3.204   8.335  0.6769  0.0183  0.0070
 9281SOL    HW139302   4.564   3.245   8.363  0.9896  0.9374 -0.4434
 9281SOL    HW239303   4.628   3.115   8.305 -1.7877  0.3943  0.3439
 9282SOL     OW39304   0.797   1.497   6.134  0.2973  0.4210  0.2526
 9282SOL    HW139305   0.707   1.479   6.159  0.6354 -0.3655  0.8913
 9282SOL    HW239306   0.814   1.410   6.096  1.2341  0.8966 -0.4287
 9283SOL     OW39307   2.821   3.067  11.706 -0.2765 -0.1174  0.3653
 9283SOL    HW139308   2.859   3.147  11.669  0.9478 -0.4097  0.9990
 9283SOL    HW239309   2.871   3.006  11.652  1.0468  2.1194 -0.9369
 9284SOL     OW39310   3.429   2.453   3.500 -1.0177 -0.1444  0.2979
 9284SOL    HW139311   3.498   2.518   3.486 -2.3621  0.4986 -3.1563
 9284SOL    HW239312   3.454   2.374   3.453 -0.2073  0.5617 -0.4398
 9285SOL     OW39313   3.863   1.328   1.912 -0.6388 -0.0691  0.4501
 9285SOL    HW139314   3.959   1.333   1.906 -0.5720 -2.5235 -0.4589
 9285SOL    HW239315   3.845   1.241   1.946 -2.8099  0.7972  1.5286
 9286SOL     OW39316   0.769   2.179   8.104 -0.6775 -0.3960  0.3226
 9286SOL    HW139317   0.730   2.266   8.109 -0.4773 -0.2600 -0.3624
 9286SOL    HW239318   0.690   2.126   8.103 -0.8925 -0.0786  1.3080
 9287SOL     OW39319   0.679   2.617   3.597  0.0094  0.5155  0.6479
 9287SOL    HW139320   0.679   2.524   3.578  1.2148  0.5750  0.3518
 9287SOL    HW239321   0.657   2.659   3.514 -0.7894  0.3974  0.7957
 9288SOL     OW39322   1.079   2.434  15.030 -0.6631  0.6658 -0.1457
 9288SOL    HW139323   1.135   2.431  15.108 -1.2864 -0.7490  0.2595
 9288SOL    HW239324   1.102   2.519  14.993  3.4086 -0.4883 -0.2493
 9289SOL     OW39325   3.250   0.007   0.810  0.2981 -0.1921  0.0751
 9289SOL    HW139326   3.175   0.016   0.751  0.2872  1.3901  0.3409
 9289SOL    HW239327   3.231   4.646   0.857 -0.7850 -1.0870 -1.8846
 9290SOL     OW39328   1.414   4.612   6.176 -0.0061 -0.0974 -0.2833
 9290SOL    HW139329   1.385   4.609   6.085 -0.3156  1.7524 -0.2306
 9290SOL    HW239330   1.465   4.693   6.171 -2.4468  1.5347  1.3730
 9291SOL     OW39331   1.421   1.388   2.102 -0.1849  0.7501 -0.2476
 9291SOL    HW139332   1.459   1.356   2.020 -0.2451  0.1283 -0.0355
 9291SOL    HW239333   1.454   1.478   2.101  1.8609 -0.0505 -2.0406
 9292SOL     OW39334   1.454   1.463   6.130  0.7831  0.1808 -0.1089
 9292SOL    HW139335   1.530   1.405   6.120  0.8315  0.1904  0.2337
 9292SOL    HW239336   1.475   1.507   6.212 -0.1707 -0.9080  0.7047
 9293SOL     OW39337   1.739   3.968   4.796 -0.0319 -0.1350  0.0649
 9293SOL    HW139338   1.749   3.993   4.888  0.6362 -1.8374  0.4458
 9293SOL    HW239339   1.701   3.880   4.798 -0.9588  0.3614  4.4001
 9294SOL     OW39340   3.590   1.840   0.946  0.1110  0.4599 -0.7441
 9294SOL    HW139341   3.552   1.804   1.026  1.9439 -0.6127 -0.3720
 9294SOL    HW239342   3.537   1.796   0.879 -0.8974 -1.9858  1.6841
 9295SOL     OW39343   2.878   0.342   2.470  0.2142 -0.5467  0.3083
 9295SOL    HW139344   2.959   0.293   2.485 -1.6825 -3.3332  1.4110
 9295SOL    HW239345   2.890   0.403   2.543  1.7537  0.3921 -0.7236
 9296SOL     OW39346   0.178   3.610  12.235 -0.0136 -0.1407 -0.5465
 9296SOL    HW139347   0.165   3.679  12.170 -2.0537 -1.4787 -1.5507
 9296SOL    HW239348   0.100   3.557  12.221 -0.3645  0.8507 -2.3284
 9297SOL     OW39349   0.623   0.753   3.276 -0.4455  0.2816 -0.2832
 9297SOL    HW139350   0.620   0.743   3.371  3.7332 -1.1378 -0.2676
 9297SOL    HW239351   0.675   0.674   3.258  1.5734  1.4797  0.2621
 9298SOL     OW39352   2.003   0.510   2.420  0.0532  0.5111 -0.0532
 9298SOL    HW139353   2.080   0.512   2.364  0.2248  1.1722  0.2050
 9298SOL    HW239354   1.983   0.597   2.454 -1.8165  0.5354 -1.2398
 9299SOL     OW39355   1.204   2.064   4.956  0.0539  0.1783 -0.0409
 9299SOL    HW139356   1.166   2.104   4.878 -0.4318  0.3341  0.2743
 9299SOL    HW239357   1.203   2.145   5.007  1.3010  0.0917  0.1234
 9300SOL     OW39358   0.225   1.366   6.253 -0.4240  0.3382  0.5318
 9300SOL    HW139359   0.193   1.324   6.332 -1.6537  1.5489  0.6779
 9300SOL    HW239360   0.292   1.424   6.290 -0.0965  0.6300 -0.5159
 9301SOL     OW39361   4.446   3.971   7.891 -0.3545 -0.1267 -0.2734
 9301SOL    HW139362   4.455   3.997   7.983 -0.8009 -1.9521  0.2872
 9301SOL    HW239363   4.411   4.047   7.845  0.3200  0.7461  0.6406
 9302SOL     OW39364   3.895   3.589   7.398 -0.8856  0.0991  0.1076
 9302SOL    HW139365   3.824   3.631   7.349  1.1176 -0.8457 -3.6245
 9302SOL    HW239366   3.952   3.664   7.415 -0.3891  0.2468 -2.1903
 9303SOL     OW39367   0.892   1.288   5.934 -0.8103 -0.2628  0.3681
 9303SOL    HW139368   0.947   1.243   5.870 -3.1321 -0.8238 -1.2343
 9303SOL    HW239369   0.904   1.239   6.016 -2.4477 -1.9813 -0.4144
 9304SOL     OW39370   1.465   3.505  10.510 -0.2115 -0.3300 -0.0664
 9304SOL    HW139371   1.540   3.448  10.527 -1.0615 -1.7858 -1.1696
 9304SOL    HW239372   1.402   3.472  10.574  1.8546  0.0847  2.1715
 9305SOL     OW39373   4.690   1.372   5.836 -0.0666  0.3873  0.4897
 9305SOL    HW139374   4.627   1.418   5.891 -0.5845  3.1712 -2.3889
 9305SOL    HW239375   0.044   1.349   5.890  1.2326  0.2000 -1.3816
 9306SOL     OW39376   1.779   0.872  11.456  0.1451  0.2084  0.3925
 9306SOL    HW139377   1.780   0.958  11.499 -1.9334  0.8694 -0.8948
 9306SOL    HW239378   1.688   0.850  11.475 -0.4444  2.2339 -0.0274
 9307SOL     OW39379   1.463   2.228   6.545  0.0090 -0.1003 -0.2136
 9307SOL    HW139380   1.506   2.298   6.497  1.6698 -1.5967 -0.9174
 9307SOL    HW239381   1.398   2.278   6.594 -0.6652 -0.3312 -0.8692
 9308SOL     OW39382   0.541   1.453   2.702 -0.3684 -0.2030 -0.9817
 9308SOL    HW139383   0.630   1.450   2.667  0.1766 -2.2001  0.5676
 9308SOL    HW239384   0.511   1.373   2.660  1.1379 -1.3957  0.2401
 9309SOL     OW39385   1.138   1.576   8.594  0.0279 -0.1669  0.3386
 9309SOL    HW139386   1.086   1.641   8.546 -1.3242 -0.9842  0.6903
 9309SOL    HW239387   1.115   1.588   8.686 -1.4749 -0.3714 -0.0083
 9310SOL     OW39388   3.289   3.863   9.118 -0.0401  0.9615 -0.1048
 9310SOL    HW139389   3.362   3.924   9.102  2.4427 -2.2100 -0.8644
 9310SOL    HW239390   3.326   3.798   9.177 -0.3374  1.2546  0.4054
 9311SOL     OW39391   3.733   1.386   0.032  0.0630 -0.4607 -0.1004
 9311SOL    HW139392   3.702   1.420   0.116 -1.5469  1.1361 -1.3357
 9311SOL    HW239393   3.648   1.366  17.678 -0.1130  0.1550 -0.0434
 9312SOL     OW39394   2.264   4.244  11.404  0.3047  0.6009 -0.3340
 9312SOL    HW139395   2.197   4.293  11.356  0.8349  2.4122  0.7542
 9312SOL    HW239396   2.308   4.204  11.328 -1.3314  1.2042 -1.6035
 9313SOL     OW39397   2.452   4.440  14.910  0.5005 -0.0208 -0.2006
 9313SOL    HW139398   2.402   4.520  14.926 -2.5779 -2.1322  0.6874
 9313SOL    HW239399   2.513   4.442  14.984  0.1070  1.7715  0.0677
 9314SOL     OW39400   1.665   3.777   0.969 -0.0568  0.3114 -0.2196
 9314SOL    HW139401   1.620   3.853   0.932  2.3161  0.6689 -2.4407
 9314SOL    HW239402   1.692   3.733   0.888  1.5459  2.1335 -0.6697
 9315SOL     OW39403   2.135   3.830   5.010  0.1083  0.1542  0.2333
 9315SOL    HW139404   2.081   3.868   5.079 -2.8314 -1.5874 -1.1123
 9315SOL    HW239405   2.132   3.738   5.037 -1.5727 -0.1085 -0.8965
 9316SOL     OW39406   0.403   4.135   3.596 -0.0600  0.2181  0.1019
 9316SOL    HW139407   0.468   4.107   3.660 -0.5205  0.0033  0.4756
 9316SOL    HW239408   0.356   4.194   3.654  0.8300  1.5972 -0.5837
 9317SOL     OW39409   1.115   3.340  12.460  0.0650 -0.7787 -0.1438
 9317SOL    HW139410   1.150   3.251  12.465  1.3908 -0.2459  0.2309
 9317SOL    HW239411   1.190   3.396  12.439 -0.5290 -0.2514 -0.8217
 9318SOL     OW39412   3.018   3.836   5.511 -0.0091  0.4118 -0.3687
 9318SOL    HW139413   3.053   3.765   5.458  2.6145  0.7898  0.8416
 9318SOL    HW239414   2.929   3.826   5.478 -0.4784 -2.4307  1.7872
 9319SOL     OW39415   3.023   3.450   5.881 -0.4267  0.2343  0.2758
 9319SOL    HW139416   3.046   3.392   5.954  1.1188 -0.7545 -0.9915
 9319SOL    HW239417   3.002   3.531   5.927 -0.6955 -1.6171  3.4986
 9320SOL     OW39418   2.995   1.692   2.406  0.7138 -0.3071  0.3101
 9320SOL    HW139419   3.013   1.607   2.445 -2.0965 -0.9935  0.0819
 9320SOL    HW239420   3.054   1.686   2.330  0.8566 -1.5168  0.5197
 9321SOL     OW39421   1.695   1.171   7.369 -0.3974 -0.1804  0.1320
 9321SOL    HW139422   1.657   1.259   7.376 -0.1957  0.0800 -1.9867
 9321SOL    HW239423   1.709   1.169   7.274 -1.7535 -1.7251 -0.0414
 9322SOL     OW39424   0.570   1.613   2.034 -0.0356 -0.0761  0.3980
 9322SOL    HW139425   0.536   1.553   2.100 -1.2497 -2.7121 -2.6547
 9322SOL    HW239426   0.516   1.610   1.956  1.1793  1.6855 -0.5230
 9323SOL     OW39427   2.289   3.303   6.018 -0.1091  0.4035  0.4760
 9323SOL    HW139428   2.377   3.335   6.038  0.1883 -0.0904 -0.0515
 9323SOL    HW239429   2.303   3.215   5.984  1.0288  0.4517  0.8220
 9324SOL     OW39430   4.396   1.421   4.513 -0.0350  0.3845 -0.0914
 9324SOL    HW139431   4.352   1.344   4.478  0.1159  1.4804 -2.6466
 9324SOL    HW239432   4.484   1.414   4.476  0.2933 -0.3171  0.8133
 9325SOL     OW39433   3.462   2.237  13.373  0.1023 -0.1591  0.2131
 9325SOL    HW139434   3.373   2.202  13.371  0.0683  0.0032 -0.9159
 9325SOL    HW239435   3.522   2.175  13.331  2.1908  2.3252 -0.4558
 9326SOL     OW39436   2.427   4.396   1.838  0.2725 -0.5219  0.1107
 9326SOL    HW139437   2.509   4.393   1.887  0.6417  0.9413 -0.4400
 9326SOL    HW239438   2.383   4.467   1.884  1.5143  1.1807 -1.3501
 9327SOL     OW39439   3.323   1.646  12.719  0.2672 -0.1151 -0.2381
 9327SOL    HW139440   3.276   1.694  12.787  1.1308 -0.7392  0.7840
 9327SOL    HW239441   3.356   1.572  12.770 -0.5148 -0.3336 -0.0387
 9328SOL     OW39442   0.355   3.126   6.922  0.4839 -0.7633 -0.5148
 9328SOL    HW139443   0.370   3.162   7.009 -2.1517  0.9947 -0.7749
 9328SOL    HW239444   0.442   3.107   6.888  0.5291 -0.3226 -0.6515
 9329SOL     OW39445   2.814   4.686   2.869 -0.4059 -0.4197 -0.8502
 9329SOL    HW139446   2.864   4.655   2.794  2.3655  1.0648  0.3904
 9329SOL    HW239447   2.830   0.059   2.878 -2.2040 -0.0968 -0.9231
 9330SOL     OW39448   3.036   0.343   3.268 -0.1591  0.1528 -0.2445
 9330SOL    HW139449   3.067   0.433   3.279 -0.3944  0.1437  0.4617
 9330SOL    HW239450   3.114   0.297   3.239  1.0550  2.5612 -0.8610
 9331SOL     OW39451   3.527   0.054   4.423  0.0381  0.0051  0.2580
 9331SOL    HW139452   3.489   0.055   4.511  1.5216 -0.0422  0.9089
 9331SOL    HW239453   3.489   0.137   4.393 -2.9398 -1.8377 -0.9635
 9332SOL     OW39454   3.195   1.280   3.085  0.3662 -0.0102  0.4052
 9332SOL    HW139455   3.132   1.306   3.153  1.5469 -0.0502  1.5162
 9332SOL    HW239456   3.271   1.263   3.141  0.0175 -1.9893  0.2552
 9333SOL     OW39457   3.215   4.678   7.948 -0.0245 -0.0397 -0.2251
 9333SOL    HW139458   3.199   0.029   8.009 -3.6948 -1.1554  0.1750
 9333SOL    HW239459   3.233   0.003   7.866 -0.9386  0.3207 -0.2319
 9334SOL     OW39460   3.090   1.809  10.714  0.0212 -0.6286  0.9973
 9334SOL    HW139461   3.129   1.722  10.728  0.8453 -0.4669 -0.3669
 9334SOL    HW239462   3.002   1.797  10.751  0.6145 -2.3085  1.9037
 9335SOL     OW39463   1.491   0.188   6.645 -0.1632  0.3029 -0.2113
 9335SOL    HW139464   1.516   0.278   6.666  0.7002 -0.2115  0.9448
 9335SOL    HW239465   1.433   0.203   6.570  0.6080 -1.7555 -1.2146
 9336SOL     OW39466   1.682   4.600  13.706 -0.3041  0.2612  0.1497
 9336SOL    HW139467   1.704   4.512  13.735  1.5637 -0.0023 -2.0885
 9336SOL    HW239468   1.760   4.626  13.657  0.8003 -0.0247  1.7684
 9337SOL     OW39469   1.544   2.555   3.426 -0.0314  0.0576 -0.2097
 9337SOL    HW139470   1.608   2.565   3.356  1.7366 -0.8722  1.2577
 9337SOL    HW239471   1.500   2.640   3.429  3.2931  1.7213  0.7371
 9338SOL     OW39472   2.566   1.178  11.653 -0.6063  0.1262 -0.5493
 9338SOL    HW139473   2.505   1.232  11.705 -1.8436 -0.5891 -1.2667
 9338SOL    HW239474   2.603   1.244  11.594 -0.5613 -0.6736 -1.4066
 9339SOL     OW39475   3.403   2.531   6.517  0.4547  0.3584  0.1468
 9339SOL    HW139476   3.428   2.483   6.438 -2.2000  0.7950 -0.9517
 9339SOL    HW239477   3.336   2.586   6.477 -0.0892 -0.6587 -0.3459
 9340SOL     OW39478   1.864   0.745   2.480  0.1156  0.1188 -0.4258
 9340SOL    HW139479   1.773   0.750   2.509  0.4032 -3.6122  1.2105
 9340SOL    HW239480   1.861   0.780   2.391  0.5692 -1.1461 -0.9400
 9341SOL     OW39481   0.186   0.174   5.563  0.3528  0.5492 -0.3257
 9341SOL    HW139482   0.109   0.162   5.618  0.0074 -0.3674 -1.0089
 9341SOL    HW239483   0.162   0.260   5.530 -0.8632 -0.0524 -1.0243
 9342SOL     OW39484   0.821   2.639  12.082 -0.4431 -0.0998 -0.3899
 9342SOL    HW139485   0.846   2.712  12.025 -1.1930  1.8000  1.7340
 9342SOL    HW239486   0.886   2.579  12.046  0.6010  0.3563  0.7180
 9343SOL     OW39487   3.108   0.401  11.888 -0.3010 -0.0012 -0.6767
 9343SOL    HW139488   3.078   0.492  11.887 -0.0722  0.0725 -0.8509
 9343SOL    HW239489   3.029   0.353  11.864 -0.5458  0.1246 -0.1024
 9344SOL     OW39490   2.847   3.276   5.785  0.0874 -0.4311 -0.4897
 9344SOL    HW139491   2.909   3.328   5.837  0.0793  0.3382 -1.2442
 9344SOL    HW239492   2.864   3.192   5.828 -0.2531 -0.4296 -0.3578
 9345SOL     OW39493   0.887   0.431  15.527  0.2759  0.2719  0.3989
 9345SOL    HW139494   0.975   0.465  15.543  0.4018 -0.2156  0.7339
 9345SOL    HW239495   0.885   0.355  15.585  1.1111 -3.1696 -4.1728
 9346SOL     OW39496   4.683   0.551   7.617 -0.4701  0.2383  0.2225
 9346SOL    HW139497   0.015   0.592   7.549 -0.4690 -1.4671 -0.8252
 9346SOL    HW239498   4.634   0.628   7.645  1.2468  1.7825 -1.0642
 9347SOL     OW39499   0.351   4.695   4.619 -0.2443  0.6770  0.1975
 9347SOL    HW139500   0.387   4.630   4.679 -0.9640  0.9758  0.9600
 9347SOL    HW239501   0.260   4.697   4.650  0.0494 -0.2657  1.0899
 9348SOL     OW39502   3.541   3.035  13.034  0.0127  0.0589  0.1607
 9348SOL    HW139503   3.452   3.060  13.012 -0.3186  1.8398  3.4739
 9348SOL    HW239504   3.576   3.093  13.102 -1.9424  1.3137  0.0809
 9349SOL     OW39505   1.073   3.224   4.429 -0.3458 -0.5374  0.0124
 9349SOL    HW139506   1.116   3.230   4.344 -0.5172  0.6723  0.0102
 9349SOL    HW239507   1.063   3.314   4.458 -1.3579 -0.4911 -0.4811
 9350SOL     OW39508   2.425   0.495   7.429 -1.2990 -0.1300  0.1709
 9350SOL    HW139509   2.380   0.573   7.397 -0.1455  0.8599  0.9820
 9350SOL    HW239510   2.482   0.539   7.491  0.2749  2.6659 -3.3006
 9351SOL     OW39511   2.382   2.944  16.431 -0.3702  0.6018 -0.4751
 9351SOL    HW139512   2.475   2.968  16.425  0.1458 -0.4057  3.8007
 9351SOL    HW239513   2.386   2.852  16.454 -3.6522  1.0539  1.8529
 9352SOL     OW39514   3.660   0.262   1.604 -0.1172 -0.2858 -0.0312
 9352SOL    HW139515   3.586   0.202   1.619 -0.7622  0.1498 -1.5134
 9352SOL    HW239516   3.694   0.226   1.522  1.6860 -0.4061  0.7703
 9353SOL     OW39517   0.921   4.417   7.872 -0.0955  0.0744 -0.2004
 9353SOL    HW139518   1.009   4.430   7.906  0.2412  1.9938 -1.8305
 9353SOL    HW239519   0.894   4.509   7.862  0.4049  0.1758 -0.6257
 9354SOL     OW39520   0.204   3.177   7.838  0.3125  0.4604 -0.3999
 9354SOL    HW139521   0.153   3.106   7.800  0.4286 -0.2306  0.7432
 9354SOL    HW239522   0.142   3.216   7.899 -0.6776 -0.4942 -0.8043
 9355SOL     OW39523   0.737   2.597   8.999 -0.0389 -0.6653 -0.5268
 9355SOL    HW139524   0.744   2.561   8.910  0.7790 -2.3619  0.2292
 9355SOL    HW239525   0.664   2.546   9.034 -1.2100  0.3519 -1.4467
 9356SOL     OW39526   1.732   1.882   5.142  0.3623 -0.1923 -0.2854
 9356SOL    HW139527   1.709   1.818   5.210  0.1395 -0.2692 -0.4321
 9356SOL    HW239528   1.642   1.907   5.124  0.9665  0.8403 -1.7871
 9357SOL     OW39529   2.340   0.762   5.935 -0.5025  0.9134 -0.3788
 9357SOL    HW139530   2.393   0.733   6.010 -0.5531 -0.0798 -0.7299
 9357SOL    HW239531   2.387   0.725   5.861  2.3159  0.7615  1.4673
 9358SOL     OW39532   4.205   4.714   1.662  0.0543 -0.1909  0.1052
 9358SOL    HW139533   4.205   0.015   1.568  0.5515  0.6179  0.2952
 9358SOL    HW239534   4.243   4.626   1.664  0.2090 -0.0790  1.6628
 9359SOL     OW39535   1.252   2.178  14.995  0.2505 -0.0416  0.1753
 9359SOL    HW139536   1.234   2.085  14.981  0.0669  0.1749 -1.0644
 9359SOL    HW239537   1.283   2.186  15.085 -3.4431 -4.1510  1.8317
 9360SOL     OW39538   3.436   1.833   6.748 -0.5984 -0.3705  0.1488
 9360SOL    HW139539   3.470   1.895   6.812  1.0893 -0.0256 -1.0893
 9360SOL    HW239540   3.401   1.758   6.797  1.7839 -1.5311  0.0682
 9361SOL     OW39541   3.753   3.985   7.307  0.0824 -0.0954 -0.2264
 9361SOL    HW139542   3.821   4.004   7.371  1.8686  1.4456 -2.5671
 9361SOL    HW239543   3.685   4.047   7.333 -2.3823 -3.1177  0.4500
 9362SOL     OW39544   1.197   0.328   6.464 -0.0502  0.3581 -0.2944
 9362SOL    HW139545   1.211   0.383   6.541 -0.3100  2.4021 -1.6952
 9362SOL    HW239546   1.110   0.299   6.488 -0.0898  0.0099 -0.8581
 9363SOL     OW39547   2.466   4.450   2.707  0.1781 -0.1500 -0.5807
 9363SOL    HW139548   2.477   4.537   2.745 -0.8891  0.3082 -1.3119
 9363SOL    HW239549   2.527   4.396   2.758 -1.9256 -0.8016  1.2436
 9364SOL     OW39550   3.715   0.869   5.666  0.2264  0.2925  0.5307
 9364SOL    HW139551   3.809   0.856   5.680  0.5162  1.1835 -0.5168
 9364SOL    HW239552   3.712   0.945   5.725 -4.1157 -0.3657  1.1597
 9365SOL     OW39553   3.757   2.003   1.899  0.1652 -0.0848 -0.2571
 9365SOL    HW139554   3.843   2.002   1.858 -1.2582 -2.0977 -3.1726
 9365SOL    HW239555   3.697   2.012   1.825 -2.1296 -2.2990  1.3136
 9366SOL     OW39556   0.771   2.303   4.399  0.0779 -0.0547 -0.0456
 9366SOL    HW139557   0.723   2.380   4.368  0.0473  0.7245  1.9386
 9366SOL    HW239558   0.849   2.356   4.416  0.4404  0.5940 -3.6559
 9367SOL     OW39559   4.647   2.941   8.765  0.1140  0.1348 -0.2158
 9367SOL    HW139560   0.000   2.986   8.724  0.3013  0.8540  0.9300
 9367SOL    HW239561   4.659   2.944   8.860  0.0719  1.1996 -0.2464
 9368SOL     OW39562   4.221   4.412   3.005 -0.5071 -0.8375  0.4027
 9368SOL    HW139563   4.179   4.447   3.083  1.4141 -0.1896  1.1289
 9368SOL    HW239564   4.175   4.333   2.973 -1.1554 -0.7589  1.1349
 9369SOL     OW39565   1.504   3.290   6.350 -0.3184 -0.3966  0.4267
 9369SOL    HW139566   1.550   3.211   6.323 -1.5084 -0.9561  0.0878
 9369SOL    HW239567   1.543   3.296   6.438 -3.5446 -2.6698  1.9818
 9370SOL     OW39568   4.609   4.561  16.553  0.0872  0.3614  0.1723
 9370SOL    HW139569   4.519   4.532  16.571 -0.1905  1.7196  0.9536
 9370SOL    HW239570   4.659   4.480  16.568  0.3516  0.6778  1.0241
 9371SOL     OW39571   1.247   3.303   0.103  0.3311  0.1715  0.2956
 9371SOL    HW139572   1.338   3.282   0.081  0.0890 -1.9934  1.4295
 9371SOL    HW239573   1.235   3.251   0.182 -0.8824  0.7397  0.4927
 9372SOL     OW39574   1.699   1.603  14.892 -0.2780  0.5491  0.3630
 9372SOL    HW139575   1.781   1.559  14.868  0.0782  0.5891  1.4964
 9372SOL    HW239576   1.638   1.541  14.851 -0.2091  0.5706  0.2280
 9373SOL     OW39577   1.569   1.816  15.000  0.3125  0.0288 -0.5071
 9373SOL    HW139578   1.601   1.736  14.959 -0.6310 -1.3790  1.5081
 9373SOL    HW239579   1.475   1.798  15.003  0.3342 -0.1719 -0.9788
 9374SOL     OW39580   4.659   1.456   2.186  0.1646  0.4555 -0.3558
 9374SOL    HW139581   4.600   1.527   2.209 -2.1082 -1.3355 -0.6816
 9374SOL    HW239582   4.630   1.384   2.243  0.9290  0.4812  0.0713
 9375SOL     OW39583   0.008   2.299   0.880  0.2761  0.3387  0.3902
 9375SOL    HW139584   4.654   2.332   0.930 -0.3798 -1.4490  0.5876
 9375SOL    HW239585   0.044   2.231   0.938  1.0122 -1.6162 -2.3460
 9376SOL     OW39586   1.800   2.562   7.096  0.0631  0.0140 -0.1994
 9376SOL    HW139587   1.892   2.576   7.073 -0.0053  0.6986 -0.0558
 9376SOL    HW239588   1.749   2.632   7.056  0.5930 -0.5400 -1.8274
 9377SOL     OW39589   3.865   1.698  17.452 -0.3710 -0.2715 -0.3452
 9377SOL    HW139590   3.843   1.607  17.474  0.0283 -0.0086  1.0961
 9377SOL    HW239591   3.791   1.744  17.490  1.1447  2.1688 -0.3638
 9378SOL     OW39592   2.189   2.834   3.248  0.2191 -0.0089  0.6088
 9378SOL    HW139593   2.159   2.788   3.170 -0.0872  2.3125 -0.6494
 9378SOL    HW239594   2.280   2.804   3.253  0.5305  0.7054 -0.6095
 9379SOL     OW39595   3.201   1.283   6.127 -0.5036  0.3011  0.7684
 9379SOL    HW139596   3.210   1.268   6.221 -0.7739  1.6384  1.0192
 9379SOL    HW239597   3.173   1.375   6.135 -0.3331  0.3017  1.3153
 9380SOL     OW39598   0.774   0.884   6.917  0.3225 -0.5603  0.0462
 9380SOL    HW139599   0.679   0.887   6.925  0.5036  0.6423  1.9075
 9380SOL    HW239600   0.796   0.918   6.830 -0.3364  2.3339  1.0030
 9381SOL     OW39601   2.107   4.587   6.888 -0.5807 -0.0841 -0.3876
 9381SOL    HW139602   2.051   4.653   6.928 -1.6494  0.2609 -2.4493
 9381SOL    HW239603   2.088   4.606   6.796  0.6096  1.9689 -0.2106
 9382SOL     OW39604   3.700   4.686   8.621 -0.1551  0.3679  0.0652
 9382SOL    HW139605   3.765   4.625   8.655  1.1852  1.7662  0.0133
 9382SOL    HW239606   3.673   0.008   8.702  2.9215  1.8252  0.3093
 9383SOL     OW39607   2.616   3.094  14.900  0.4515  0.7999 -0.1996
 9383SOL    HW139608   2.639   3.166  14.841  0.0738 -0.2764 -1.6577
 9383SOL    HW239609   2.674   3.104  14.975  1.0427 -0.2484 -0.5212
 9384SOL     OW39610   0.719   3.637  10.919  0.1990 -0.1315  0.7349
 9384SOL    HW139611   0.811   3.609  10.923 -0.5861 -2.5136  2.1061
 9384SOL    HW239612   0.703   3.693  10.995 -1.1093  0.5774 -0.0580
 9385SOL     OW39613   2.638   3.033  16.391  0.0855  0.1997  0.0889
 9385SOL    HW139614   2.594   3.115  16.370 -1.2450 -0.7470 -0.7452
 9385SOL    HW239615   2.686   3.029  16.309 -0.2641 -1.5380 -0.0285
 9386SOL     OW39616   3.083   0.635   5.926 -0.1230 -0.2610 -0.6582
 9386SOL    HW139617   3.143   0.698   5.887  0.9394 -0.4726  0.6369
 9386SOL    HW239618   3.010   0.641   5.864  0.9278  0.1151 -1.8493
 9387SOL     OW39619   1.000   0.806   2.502  0.0371  0.4743  0.1651
 9387SOL    HW139620   1.033   0.744   2.437  1.1328  1.1120  0.1148
 9387SOL    HW239621   0.905   0.801   2.490  0.2927  0.9380 -2.0246
 9388SOL     OW39622   2.015   2.874   8.303 -0.6536 -0.1490  0.0106
 9388SOL    HW139623   1.955   2.895   8.232  2.1808  4.0688 -1.1788
 9388SOL    HW239624   1.963   2.849   8.379  0.8719 -1.2309  0.6898
 9389SOL     OW39625   2.049   4.525   5.584  0.1138  0.1155 -0.3807
 9389SOL    HW139626   2.069   4.604   5.535 -1.8847  1.2770  0.6622
 9389SOL    HW239627   2.124   4.470   5.562  1.8981  1.2267  2.9631
 9390SOL     OW39628   4.597   2.891   1.506  0.0661  0.1122 -0.2762
 9390SOL    HW139629   4.646   2.854   1.433  0.4423  0.3118 -0.1189
 9390SOL    HW239630   4.655   2.946   1.558 -0.3847  0.6761 -0.3728
 9391SOL     OW39631   2.063   0.739   6.704  0.1720 -0.0435  0.7146
 9391SOL    HW139632   2.027   0.820   6.742 -2.6047 -1.4602  1.0646
 9391SOL    HW239633   2.149   0.770   6.676  0.0719 -0.5302 -0.1155
 9392SOL     OW39634   4.399   1.605   4.094  0.4988  0.2174  0.0530
 9392SOL    HW139635   4.411   1.646   4.009 -0.3233 -1.2451 -0.7668
 9392SOL    HW239636   4.488   1.611   4.130  1.1168 -0.4758 -1.3702
 9393SOL     OW39637   3.988   0.329   5.161 -0.4078 -0.1929  0.3571
 9393SOL    HW139638   3.909   0.361   5.205 -0.7827 -1.5826  0.6669
 9393SOL    HW239639   3.953   0.310   5.074 -3.3533  2.3130  0.9714
 9394SOL     OW39640   4.359   1.124   4.229  0.4647  0.0412  0.2457
 9394SOL    HW139641   4.304   1.180   4.175  1.3895  1.1761  0.4670
 9394SOL    HW239642   4.422   1.084   4.169  1.4552  0.2838  1.1266
 9395SOL     OW39643   3.916   1.662   4.866 -0.1588 -0.4206  0.4334
 9395SOL    HW139644   3.893   1.586   4.920 -0.1788 -0.4714  0.3542
 9395SOL    HW239645   3.883   1.635   4.780 -1.0704  1.2683  0.2608
 9396SOL     OW39646   2.147   3.276  16.762 -0.3257  0.5978  0.7925
 9396SOL    HW139647   2.069   3.267  16.706  0.4195 -1.7695  0.1371
 9396SOL    HW239648   2.220   3.238  16.713 -0.4730  2.8366 -1.1338
 9397SOL     OW39649   3.357   1.509  17.662  0.0402 -0.1117  0.3030
 9397SOL    HW139650   3.416   1.435  17.649 -2.2604 -1.7138 -0.9474
 9397SOL    HW239651   3.279   1.459  17.685 -1.1445  1.1451 -0.9803
 9398SOL     OW39652   0.733   0.679   2.539  0.1694 -0.5358 -0.5767
 9398SOL    HW139653   0.672   0.713   2.473 -0.0487 -1.5511 -0.8972
 9398SOL    HW239654   0.691   0.707   2.621 -0.4056  0.6315 -1.2682
 9399SOL     OW39655   3.555   1.612   1.311  0.6166  0.3943  0.3064
 9399SOL    HW139656   3.601   1.587   1.231 -0.1053 -0.3620  0.1235
 9399SOL    HW239657   3.602   1.568   1.381 -1.6676 -1.1689  0.8683
 9400SOL     OW39658   0.310   0.728   5.428 -0.2383  0.2436  0.0025
 9400SOL    HW139659   0.286   0.665   5.360 -1.6565  1.5823 -0.7454
 9400SOL    HW239660   0.406   0.719   5.432 -0.3759 -1.9117 -1.7841
 9401SOL     OW39661   0.160   4.177   2.077 -0.0949 -0.6862 -0.3151
 9401SOL    HW139662   0.087   4.119   2.055  0.4370  0.1715 -4.4668
 9401SOL    HW239663   0.175   4.170   2.171  0.3051 -1.5202 -0.4421
 9402SOL     OW39664   4.193   2.993   6.573  0.4430  0.0820 -0.1915
 9402SOL    HW139665   4.197   3.082   6.538  2.0494  0.3689  0.7247
 9402SOL    HW239666   4.217   3.024   6.660  0.9232 -1.9094  0.3807
 9403SOL     OW39667   1.018   2.666   9.521  0.2648  0.3285 -0.0461
 9403SOL    HW139668   1.045   2.645   9.611 -2.5696  2.1651  1.2346
 9403SOL    HW239669   1.096   2.721   9.511  0.7076  0.0289  1.7241
 9404SOL     OW39670   4.021   2.229   8.680  0.2126  0.4088  0.1032
 9404SOL    HW139671   4.035   2.206   8.588 -1.2886  2.3570 -0.6177
 9404SOL    HW239672   3.963   2.161   8.713  0.8325  0.7439  1.8574
 9405SOL     OW39673   1.363   0.605   5.340  0.3411  0.0742 -0.1663
 9405SOL    HW139674   1.369   0.659   5.419  2.3410 -0.6639  0.1683
 9405SOL    HW239675   1.277   0.563   5.342 -0.4458  1.6266 -1.3199
 9406SOL     OW39676   0.323   3.565  12.475  0.2654 -0.2961  0.4386
 9406SOL    HW139677   0.266   3.489  12.482 -0.9363  0.6438  0.7607
 9406SOL    HW239678   0.288   3.604  12.395 -1.6619  1.6668  2.2310
 9407SOL     OW39679   1.310   1.536   6.731  0.5362  0.0794  0.2597
 9407SOL    HW139680   1.233   1.592   6.736  1.3000  1.2560 -1.0816
 9407SOL    HW239681   1.380   1.600   6.717  0.3603  0.3117  0.4558
 9408SOL     OW39682   1.138   1.512   8.147  0.0238 -0.1508 -0.7654
 9408SOL    HW139683   1.064   1.568   8.171  0.3263  0.6197 -1.6290
 9408SOL    HW239684   1.203   1.582   8.146 -1.7670  1.5251 -0.5540
 9409SOL     OW39685   3.169   3.550  16.195  0.1448 -0.0669  0.1442
 9409SOL    HW139686   3.090   3.530  16.145 -0.9796  2.0349  1.1017
 9409SOL    HW239687   3.182   3.644  16.178 -0.0127 -0.3299 -1.3999
 9410SOL     OW39688   1.783   2.978  11.701 -0.4304 -0.0087  0.0704
 9410SOL    HW139689   1.762   2.920  11.628 -0.7826  2.4124 -1.7502
 9410SOL    HW239690   1.780   2.917  11.775 -1.3695  0.4245  0.3863
 9411SOL     OW39691   2.560   2.959   7.321 -0.1336 -0.3932 -0.5881
 9411SOL    HW139692   2.481   2.985   7.368 -0.5282 -2.0444 -0.3319
 9411SOL    HW239693   2.531   2.884   7.269  0.0062 -1.7680  1.3616
 9412SOL     OW39694   0.968   2.461  15.430 -0.5881 -0.5539  0.9969
 9412SOL    HW139695   1.026   2.386  15.443  1.7604  0.7283 -1.8742
 9412SOL    HW239696   0.909   2.438  15.358  0.8370  1.4283 -0.8021
 9413SOL     OW39697   2.275   1.662   5.741 -0.2025  0.5536 -0.1807
 9413SOL    HW139698   2.266   1.602   5.816  1.8312  1.1493  0.5300
 9413SOL    HW239699   2.182   1.671   5.721 -0.1492  2.1817  0.3530
 9414SOL     OW39700   3.622   4.396   6.782 -0.4138 -0.1296 -0.4034
 9414SOL    HW139701   3.568   4.474   6.776 -1.4468 -0.7706  0.4852
 9414SOL    HW239702   3.605   4.384   6.876 -0.6607  2.2226 -0.1638
 9415SOL     OW39703   0.940   1.796   2.802 -0.0939  0.0964 -0.3557
 9415SOL    HW139704   0.919   1.844   2.722 -1.9531  1.1447  0.7600
 9415SOL    HW239705   1.024   1.832   2.830  1.8257 -2.6107 -2.6038
 9416SOL     OW39706   4.209   3.306   6.944  0.5938  0.1144 -0.5794
 9416SOL    HW139707   4.174   3.321   6.856  1.3586  2.0514 -0.5530
 9416SOL    HW239708   4.159   3.374   6.990  0.3632  0.1387 -0.8656
 9417SOL     OW39709   2.887   0.945   4.563  0.2033 -0.2083  0.1053
 9417SOL    HW139710   2.867   1.034   4.535 -2.4942 -1.0505 -0.6498
 9417SOL    HW239711   2.797   0.914   4.556 -0.4993  1.7863  0.6107
 9418SOL     OW39712   4.449   3.676  12.233 -0.4470 -0.4861 -0.0246
 9418SOL    HW139713   4.520   3.613  12.246  0.5700  1.1009  2.1946
 9418SOL    HW239714   4.374   3.622  12.260 -0.0167 -1.9979 -1.8665
 9419SOL     OW39715   0.046   0.593   4.355 -0.8808  0.6549 -0.1568
 9419SOL    HW139716   0.133   0.628   4.374  0.2694 -0.8804 -2.6000
 9419SOL    HW239717   4.711   0.671   4.359 -3.3782 -1.1262 -0.0203
 9420SOL     OW39718   0.475   0.334   7.419 -0.0533 -0.5109 -0.0365
 9420SOL    HW139719   0.542   0.380   7.368  0.0076 -0.9749 -0.3746
 9420SOL    HW239720   0.509   0.245   7.421  0.0806 -0.4298  1.5475
 9421SOL     OW39721   0.292   1.162  11.729  0.2302  0.0686 -1.1748
 9421SOL    HW139722   0.196   1.164  11.730  0.2289 -0.4454  0.3572
 9421SOL    HW239723   0.322   1.152  11.639  0.2794 -1.9829 -0.9258
 9422SOL     OW39724   1.724   3.957   7.682  0.6009  0.2948  0.7411
 9422SOL    HW139725   1.636   3.992   7.665  0.6731 -0.0929 -0.4542
 9422SOL    HW239726   1.743   3.939   7.590  0.6948  0.4070  0.7392
 9423SOL     OW39727   2.930   1.982   1.422 -0.8963  0.1794 -0.0926
 9423SOL    HW139728   2.983   2.020   1.352 -1.8708  0.0540 -0.8975
 9423SOL    HW239729   2.982   1.904   1.440 -0.1491  0.0220 -2.9228
 9424SOL     OW39730   3.312   4.161   1.150 -0.0829 -0.2728 -0.1340
 9424SOL    HW139731   3.279   4.096   1.212  0.3229 -1.1276 -0.8207
 9424SOL    HW239732   3.400   4.126   1.136  0.8443  1.8983  0.2701
 9425SOL     OW39733   0.778   3.010   8.798 -0.0158  0.3631 -0.0431
 9425SOL    HW139734   0.840   2.988   8.868  0.4498 -1.5550 -1.0318
 9425SOL    HW239735   0.699   2.967   8.832 -0.7586  1.9281  0.1839
 9426SOL     OW39736   1.926   1.746   8.634  0.4447 -0.1050  0.0836
 9426SOL    HW139737   1.858   1.682   8.651 -0.0193  0.0822 -1.0691
 9426SOL    HW239738   2.004   1.694   8.613 -0.8348 -1.3146 -1.6621
 9427SOL     OW39739   1.862   0.385   4.028  0.2081  0.2035 -0.7758
 9427SOL    HW139740   1.910   0.353   3.953 -0.8721 -0.3615 -1.2288
 9427SOL    HW239741   1.926   0.430   4.083  0.7806 -1.6296  0.0567
 9428SOL     OW39742   3.403   2.449  13.835 -0.0027 -0.1867  0.1571
 9428SOL    HW139743   3.313   2.472  13.855  0.3631  0.3826  1.1480
 9428SOL    HW239744   3.442   2.410  13.913  2.4714 -1.2535 -1.5696
 9429SOL     OW39745   4.197   2.891  13.577 -0.3161  0.1014 -0.0834
 9429SOL    HW139746   4.206   2.944  13.656  0.1278  0.2673 -0.2462
 9429SOL    HW239747   4.284   2.854  13.561 -0.8195 -0.5044 -1.4310
 9430SOL     OW39748   0.724   0.976   2.896  0.0983 -0.3327  0.4682
 9430SOL    HW139749   0.674   1.057   2.903 -1.6516 -1.5146  1.8034
 9430SOL    HW239750   0.704   0.961   2.804  1.3828  0.3726  0.0905
 9431SOL     OW39751   4.085   4.655  13.908  0.1214 -0.9435 -0.6498
 9431SOL    HW139752   4.082   0.007  13.971  0.2026  0.0633 -1.8230
 9431SOL    HW239753   3.992   4.641  13.890 -0.2719 -1.1149  1.4857
 9432SOL     OW39754   4.057   3.536   5.902 -0.1331  0.3061  0.0920
 9432SOL    HW139755   4.059   3.478   5.978  1.0385 -0.0043 -0.1862
 9432SOL    HW239756   3.969   3.512   5.872 -0.4281  0.2332  1.0389
 9433SOL     OW39757   2.645   4.085   6.952 -0.4909 -0.5438 -0.1295
 9433SOL    HW139758   2.583   4.078   7.025 -3.8483 -2.9169 -3.2278
 9433SOL    HW239759   2.722   4.044   6.992 -1.7891 -2.1330  0.7248
 9434SOL     OW39760   1.461   0.065   8.944  0.8854  0.1570  0.2246
 9434SOL    HW139761   1.550   0.072   8.909  1.3385  2.0995  1.7366
 9434SOL    HW239762   1.453   4.691   8.954  0.4972 -0.0849 -2.3410
 9435SOL     OW39763   4.639   3.989   2.733 -0.0925 -0.1920  0.4547
 9435SOL    HW139764   4.699   3.977   2.807 -0.8386  0.2351  1.1210
 9435SOL    HW239765   4.689   3.939   2.669 -1.7468 -1.3988  0.1033
 9436SOL     OW39766   2.715   3.609   5.121 -0.2837  0.6271  0.3072
 9436SOL    HW139767   2.762   3.539   5.075 -2.1900 -0.6045  0.2382
 9436SOL    HW239768   2.627   3.573   5.106 -0.7530  0.7381  2.8823
 9437SOL     OW39769   0.822   2.985  10.704 -0.3785 -0.3047 -0.0652
 9437SOL    HW139770   0.737   2.942  10.705 -0.4962 -0.0713  0.1974
 9437SOL    HW239771   0.797   3.053  10.767  0.4780  0.0709 -0.1317
 9438SOL     OW39772   1.558   3.515   2.796  0.5382  0.0824  0.1200
 9438SOL    HW139773   1.638   3.467   2.815 -0.5938 -1.4108  1.1070
 9438SOL    HW239774   1.539   3.543   2.885 -1.4611  0.4851 -0.4115
 9439SOL     OW39775   3.008   0.433  14.572 -0.2096  0.3971 -0.2297
 9439SOL    HW139776   3.032   0.522  14.547  0.5018  0.2281 -0.1477
 9439SOL    HW239777   2.940   0.454  14.637 -0.5663  0.8378 -0.7428
 9440SOL     OW39778   1.616   2.115   5.537 -0.1270  0.2187 -0.2461
 9440SOL    HW139779   1.658   2.201   5.530  0.7884 -0.3091 -1.3148
 9440SOL    HW239780   1.584   2.105   5.626  1.0475  0.6937  0.2321
 9441SOL     OW39781   3.448   4.152  14.370 -0.0341  0.6407 -0.3619
 9441SOL    HW139782   3.440   4.163  14.275 -1.7638  2.3089 -0.0395
 9441SOL    HW239783   3.474   4.060  14.373  0.5488  0.7916 -0.7775
 9442SOL     OW39784   2.702   0.383  11.653 -0.2377  0.2149  0.1430
 9442SOL    HW139785   2.720   0.465  11.699 -1.2020  0.7565 -0.4511
 9442SOL    HW239786   2.611   0.383  11.682 -0.1638 -1.6924  0.3388
 9443SOL     OW39787   1.380   4.583   5.876 -0.1917  0.3713 -0.4692
 9443SOL    HW139788   1.457   4.546   5.833  0.4029 -0.8807  1.6701
 9443SOL    HW239789   1.315   4.549   5.815 -1.0977  1.3313 -0.0493
 9444SOL     OW39790   0.629   4.645  12.233 -0.2361 -0.6085 -0.0847
 9444SOL    HW139791   0.629   4.552  12.255 -1.2254 -0.2485  1.4610
 9444SOL    HW239792   0.698   4.656  12.168 -0.6613 -1.4545 -0.6719
 9445SOL     OW39793   1.626   1.450   7.439  0.1289 -0.1224 -0.5430
 9445SOL    HW139794   1.610   1.522   7.500 -0.5954 -1.4483  0.8261
 9445SOL    HW239795   1.644   1.503   7.362 -2.0749  0.0784 -0.8979
 9446SOL     OW39796   4.401   3.700   4.040 -0.5393 -0.1528  0.0760
 9446SOL    HW139797   4.472   3.679   3.979 -0.1383 -0.2093  0.5609
 9446SOL    HW239798   4.341   3.752   3.987  2.2911  0.9934 -2.0194
 9447SOL     OW39799   0.587   1.349   3.624  0.8285 -0.0389 -0.3043
 9447SOL    HW139800   0.635   1.408   3.566  0.7988  0.8785  0.6100
 9447SOL    HW239801   0.496   1.353   3.594  0.6076 -2.0416  0.1120
 9448SOL     OW39802   2.894   1.703   8.080 -0.5191 -0.0515  0.5483
 9448SOL    HW139803   2.808   1.725   8.044 -0.7298  1.0348  1.7502
 9448SOL    HW239804   2.882   1.715   8.174  0.8625  3.1883  0.3039
 9449SOL     OW39805   2.885   0.800   4.079 -0.3952  0.0174  0.2702
 9449SOL    HW139806   2.889   0.772   3.988 -0.6514  1.8099 -0.2835
 9449SOL    HW239807   2.795   0.782   4.107 -0.6563  1.0024  0.0597
 9450SOL     OW39808   2.600   1.232  14.862 -0.3433 -0.0627 -0.6529
 9450SOL    HW139809   2.693   1.252  14.846 -0.1210  0.3004  1.1512
 9450SOL    HW239810   2.582   1.149  14.818  1.1800 -0.9152  0.3254
 9451SOL     OW39811   3.363   1.929   6.194 -0.0924 -0.1576 -0.2983
 9451SOL    HW139812   3.399   1.893   6.112  2.5378  2.5270 -0.3338
 9451SOL    HW239813   3.423   2.000   6.217 -0.1921 -0.8134  1.9195
 9452SOL     OW39814   3.941   2.954   9.888 -0.5441  0.0929 -0.3966
 9452SOL    HW139815   4.026   2.996   9.898 -0.4336 -0.3300  0.3727
 9452SOL    HW239816   3.953   2.887   9.955  0.8145  0.9749  0.2479
 9453SOL     OW39817   0.592   4.522   6.628  0.1783 -0.3986 -0.2909
 9453SOL    HW139818   0.543   4.483   6.557 -0.8251  2.0791 -0.9469
 9453SOL    HW239819   0.570   4.461   6.699  0.6117  0.7079  0.8035
 9454SOL     OW39820   0.931   3.128   7.405 -0.2297  0.0517  0.0710
 9454SOL    HW139821   0.880   3.119   7.485  0.5161  1.4972  0.7309
 9454SOL    HW239822   0.974   3.214   7.410  0.9412 -0.4904 -0.6312
 9455SOL     OW39823   1.605   3.854   2.831  0.6841 -0.0593  0.0829
 9455SOL    HW139824   1.590   3.807   2.749  1.7936 -0.2050 -0.0449
 9455SOL    HW239825   1.663   3.927   2.806  0.1038 -0.0649 -1.2933
 9456SOL     OW39826   0.546   2.711   6.945  0.0718  0.4090 -0.5396
 9456SOL    HW139827   0.535   2.622   6.980  4.5221  0.1102  0.1749
 9456SOL    HW239828   0.457   2.744   6.950 -0.3592 -0.9990  1.1373
 9457SOL     OW39829   1.154   3.878  12.212  0.1892  0.6314  0.3831
 9457SOL    HW139830   1.070   3.923  12.221 -0.0994  0.2316 -0.4002
 9457SOL    HW239831   1.147   3.804  12.272 -0.2292 -0.5150 -1.0941
 9458SOL     OW39832   1.867   0.780   5.802  0.0214  0.2063  0.2132
 9458SOL    HW139833   1.910   0.697   5.821  2.4335  1.5788  0.6046
 9458SOL    HW239834   1.784   0.744   5.834 -0.4598  1.4441  0.3474
 9459SOL     OW39835   4.183   2.746   2.754 -0.0454  0.0899 -0.0145
 9459SOL    HW139836   4.229   2.777   2.675  1.4084 -0.9637  0.4062
 9459SOL    HW239837   4.242   2.771   2.825  1.8106  0.0401 -1.5060
 9460SOL     OW39838   3.056   2.857  17.249 -0.9368 -1.1448  0.3679
 9460SOL    HW139839   2.983   2.918  17.260 -2.0851 -2.7702  1.7567
 9460SOL    HW239840   3.125   2.922  17.241 -0.8567 -1.1172  1.3528
 9461SOL     OW39841   0.085   2.246   8.489 -0.3825 -0.4841  0.3427
 9461SOL    HW139842   0.098   2.302   8.565  0.5462  0.5012 -0.5559
 9461SOL    HW239843   4.713   2.232   8.510 -0.3057 -2.3574 -0.5296
 9462SOL     OW39844   1.979   1.494   3.842  0.1780  0.2321 -0.6238
 9462SOL    HW139845   2.016   1.405   3.844  0.0416  0.1522 -1.8252
 9462SOL    HW239846   1.931   1.493   3.926  0.8648 -2.9438 -0.2445
 9463SOL     OW39847   2.843   3.323   6.593 -0.7122 -0.0443 -0.4340
 9463SOL    HW139848   2.840   3.301   6.500  3.1291  0.9685 -0.7923
 9463SOL    HW239849   2.936   3.318   6.614 -0.8252  1.0435  0.2818
 9464SOL     OW39850   1.531   1.545   0.662  0.2034 -0.0488 -0.0991
 9464SOL    HW139851   1.477   1.467   0.675  0.7090 -0.0514  1.9262
 9464SOL    HW239852   1.483   1.604   0.604  1.1864 -0.0918 -0.9488
 9465SOL     OW39853   0.956   3.782   0.019  0.0415 -0.7900 -0.0184
 9465SOL    HW139854   0.959   3.836   0.098  0.1693 -2.1087  0.8820
 9465SOL    HW239855   0.878   3.732   0.041 -0.5237 -0.2668 -0.8444
 9466SOL     OW39856   4.419   3.056  11.323  0.0004  0.0755 -0.1710
 9466SOL    HW139857   4.502   3.102  11.334 -0.4871  1.8136 -3.6901
 9466SOL    HW239858   4.363   3.105  11.384 -2.0784  1.1662 -2.9419
 9467SOL     OW39859   1.850   2.944   7.686 -0.0646  0.2776  0.5829
 9467SOL    HW139860   1.852   2.978   7.596  1.5666 -2.9342 -0.5746
 9467SOL    HW239861   1.852   3.029   7.730 -2.3745 -0.6343  2.4581
 9468SOL     OW39862   1.953   2.974   2.367  0.2579  0.4736  0.0277
 9468SOL    HW139863   2.045   2.990   2.345  0.7628 -2.1966  0.1952
 9468SOL    HW239864   1.967   2.946   2.457 -1.4854  0.2108  0.2027
 9469SOL     OW39865   3.560   1.698  13.828 -0.8147  0.3089 -0.3414
 9469SOL    HW139866   3.619   1.683  13.902  0.7681  1.3327 -1.3772
 9469SOL    HW239867   3.622   1.722  13.759  1.0222 -1.3782  0.7326
 9470SOL     OW39868   0.402   4.493   1.140 -0.1784 -0.0750  0.5900
 9470SOL    HW139869   0.392   4.468   1.048 -2.6176  0.0341  0.8496
 9470SOL    HW239870   0.336   4.561   1.150  0.5426  0.9500 -1.4290
 9471SOL     OW39871   4.353   2.721   4.441  0.0956 -0.3211  0.2522
 9471SOL    HW139872   4.342   2.637   4.395 -0.4948 -1.4492  2.4755
 9471SOL    HW239873   4.270   2.765   4.425 -0.0327 -0.4411  0.5906
 9472SOL     OW39874   1.913   3.292   3.847 -0.2117 -0.2383 -0.2884
 9472SOL    HW139875   1.973   3.268   3.776 -1.6024  0.0050 -1.5274
 9472SOL    HW239876   1.857   3.360   3.812 -0.9776  0.1285  1.6434
 9473SOL     OW39877   4.561   3.024   4.118 -0.5130  0.2703 -0.5639
 9473SOL    HW139878   4.490   2.962   4.134  0.0328 -0.1950  0.0590
 9473SOL    HW239879   4.589   3.052   4.205 -1.1135  0.2829 -0.3789
 9474SOL     OW39880   1.810   2.983   2.922 -0.0175 -0.3493  0.5578
 9474SOL    HW139881   1.721   2.987   2.956 -0.3487  1.1326 -0.5235
 9474SOL    HW239882   1.783   2.987   2.831  0.8616 -4.2099  0.1277
 9475SOL     OW39883   0.715   0.479   0.061 -0.5652 -0.0487 -0.4115
 9475SOL    HW139884   0.693   0.407   0.120 -1.3189  0.5069 -0.0122
 9475SOL    HW239885   0.811   0.479   0.063 -0.5616 -1.4688 -0.1238
 9476SOL     OW39886   0.218   3.034   1.362 -0.3822  0.2040  0.1875
 9476SOL    HW139887   0.241   3.086   1.439 -0.5034 -1.1071  1.1155
 9476SOL    HW239888   0.227   3.091   1.286 -0.0135 -0.6893 -0.4435
 9477SOL     OW39889   1.139   1.170   4.756 -0.2338  0.1407 -0.2394
 9477SOL    HW139890   1.067   1.158   4.819  0.2148 -1.1896  0.0293
 9477SOL    HW239891   1.126   1.260   4.727 -0.6846  0.0330 -0.3750
 9478SOL     OW39892   3.233   2.047   5.783 -0.6586  0.3898 -0.0498
 9478SOL    HW139893   3.190   2.051   5.868 -1.0173  4.8321 -0.4708
 9478SOL    HW239894   3.294   1.974   5.797 -1.6310 -0.4004  0.1302
 9479SOL     OW39895   1.732   3.703   0.708  0.8142 -0.1233 -0.2571
 9479SOL    HW139896   1.704   3.611   0.709  1.0323 -0.2041 -1.2939
 9479SOL    HW239897   1.719   3.732   0.618 -0.4632  2.2695  0.7256
 9480SOL     OW39898   2.925   0.642  15.450 -0.4019 -0.0358  0.1206
 9480SOL    HW139899   2.921   0.718  15.507  1.2106  0.1025  0.0482
 9480SOL    HW239900   2.942   0.566  15.505 -1.1769 -0.6116 -0.4361
 9481SOL     OW39901   0.487   2.360   6.309  0.3041  0.3552 -0.2580
 9481SOL    HW139902   0.476   2.299   6.237  1.6428  0.8107 -0.8443
 9481SOL    HW239903   0.575   2.396   6.300  1.6005 -1.6507  4.4720
 9482SOL     OW39904   2.734   2.252  11.587 -0.0273 -0.3970  0.4458
 9482SOL    HW139905   2.693   2.245  11.674 -0.6949  4.2832  0.5014
 9482SOL    HW239906   2.697   2.335  11.558  2.3535  0.5287  0.0934
 9483SOL     OW39907   1.431   3.985   7.166 -0.0340 -0.0208  0.2210
 9483SOL    HW139908   1.399   4.051   7.228  2.1459 -0.2058  1.5520
 9483SOL    HW239909   1.369   3.918   7.196 -0.7644  0.1538 -0.9506
 9484SOL     OW39910   1.845   4.201   9.778 -0.5936 -0.0908  0.3378
 9484SOL    HW139911   1.805   4.222   9.694 -0.3924  3.1504  1.0366
 9484SOL    HW239912   1.821   4.283   9.821  0.5703 -1.1995  3.1029
 9485SOL     OW39913   1.986   1.262  12.052  0.1259  0.1610 -0.0587
 9485SOL    HW139914   1.967   1.204  12.125 -0.6544 -0.9019 -1.0901
 9485SOL    HW239915   2.047   1.324  12.091  0.2371 -0.3880  0.6400
 9486SOL     OW39916   2.232   2.059   4.025 -0.4326  0.2526 -1.1566
 9486SOL    HW139917   2.306   2.012   4.062 -1.6203 -2.1539 -1.8160
 9486SOL    HW239918   2.274   2.098   3.948 -1.2900 -0.0598 -1.7991
 9487SOL     OW39919   0.463   3.221  14.152 -0.0686  0.1601  0.0733
 9487SOL    HW139920   0.446   3.139  14.105 -0.4389 -0.2204  0.8500
 9487SOL    HW239921   0.475   3.181  14.238  0.6500 -0.7739 -0.4581
 9488SOL     OW39922   3.116   2.463   5.141 -0.3283 -0.0458  0.3925
 9488SOL    HW139923   3.158   2.379   5.156 -1.0266 -0.8566 -2.2733
 9488SOL    HW239924   3.065   2.482   5.220 -1.4451  0.5583 -0.4773
 9489SOL     OW39925   1.565   3.902   1.884 -0.0326  0.1942  0.0446
 9489SOL    HW139926   1.602   3.984   1.853 -1.7973  1.3830  1.0700
 9489SOL    HW239927   1.477   3.927   1.913  0.6378  0.7892  1.5679
 9490SOL     OW39928   1.203   1.965  12.910 -0.0908 -0.2338 -0.0278
 9490SOL    HW139929   1.133   1.994  12.852 -0.5950 -3.2399 -0.9161
 9490SOL    HW239930   1.238   2.052  12.933 -2.7152  0.9464 -0.5824
 9491SOL     OW39931   0.556   3.854   6.832 -0.2079  0.4421  0.6488
 9491SOL    HW139932   0.499   3.783   6.861  0.1594 -0.2884 -0.4423
 9491SOL    HW239933   0.509   3.930   6.869  1.5914  1.7936  0.1217
 9492SOL     OW39934   1.239   1.491   4.605  0.6965  0.2807  0.3995
 9492SOL    HW139935   1.151   1.527   4.598 -0.6171 -3.0617 -0.4023
 9492SOL    HW239936   1.270   1.549   4.674 -0.1775 -1.0772  1.9412
 9493SOL     OW39937   2.424   3.404   3.287  0.2134  0.1869 -0.2822
 9493SOL    HW139938   2.409   3.396   3.192 -1.6552 -1.6199  0.1773
 9493SOL    HW239939   2.417   3.499   3.291 -0.0758  0.2335 -1.7375
 9494SOL     OW39940   4.324   4.563   7.240  0.2988 -0.3149 -0.1651
 9494SOL    HW139941   4.372   4.624   7.297  0.1627  0.1348 -0.5324
 9494SOL    HW239942   4.241   4.608   7.229  0.3597 -0.0558  0.4109
 9495SOL     OW39943   1.206   2.728   5.722  0.0623 -0.1210  0.2323
 9495SOL    HW139944   1.130   2.725   5.780  1.1798 -0.1659  1.7088
 9495SOL    HW239945   1.170   2.758   5.639  2.1141 -0.9355 -0.9495
 9496SOL     OW39946   3.843   1.507   3.288 -0.3594  0.2616  0.2579
 9496SOL    HW139947   3.929   1.472   3.266 -0.7825 -2.0704  2.2972
 9496SOL    HW239948   3.845   1.522   3.383 -0.2498  1.4148  0.0690
 9497SOL     OW39949   4.334   1.819   7.035 -0.1417  0.1738  0.3692
 9497SOL    HW139950   4.357   1.886   6.970 -2.0235  0.3697 -0.1058
 9497SOL    HW239951   4.360   1.871   7.110 -0.2925  1.0402 -0.1758
 9498SOL     OW39952   2.017   3.945   8.828 -0.7349  0.4922  0.0981
 9498SOL    HW139953   1.992   4.030   8.864 -0.0174  0.9234 -0.4019
 9498SOL    HW239954   2.113   3.948   8.833 -0.7101 -1.2310  0.5298
 9499SOL     OW39955   4.115   4.183   4.183  0.4440 -0.1894 -0.7391
 9499SOL    HW139956   4.202   4.225   4.183 -0.4397  1.6793 -3.1744
 9499SOL    HW239957   4.140   4.132   4.106  0.1055  1.4322 -1.9424
 9500SOL     OW39958   0.349   2.329   7.263  0.0001 -0.0356  0.3376
 9500SOL    HW139959   0.297   2.342   7.183  1.4438  1.4946 -0.3576
 9500SOL    HW239960   0.345   2.238   7.294 -0.4929  0.6859  2.3792
 9501SOL     OW39961   1.910   1.697  15.457 -0.1118 -0.0616  0.2144
 9501SOL    HW139962   1.875   1.696  15.369  2.1761 -0.9107 -0.6905
 9501SOL    HW239963   1.979   1.631  15.470 -0.0751 -0.1452 -0.4518
 9502SOL     OW39964   2.748   3.964   8.622 -0.2804  0.2266  0.3823
 9502SOL    HW139965   2.684   4.016   8.670 -1.9320 -0.0372 -1.5177
 9502SOL    HW239966   2.755   4.018   8.543 -3.2486 -1.8147 -1.2874
 9503SOL     OW39967   0.199   1.560  12.682 -0.0120  0.5163  0.3696
 9503SOL    HW139968   0.175   1.502  12.754 -1.8376 -0.9158 -1.3860
 9503SOL    HW239969   0.148   1.636  12.707 -1.1626 -0.2652  0.4131
 9504SOL     OW39970   0.817   1.230  13.409  0.1486 -0.1756 -0.0787
 9504SOL    HW139971   0.835   1.276  13.491  1.5985  0.9983 -1.0409
 9504SOL    HW239972   0.770   1.296  13.358 -2.9753 -0.6566  2.2155
 9505SOL     OW39973   4.280   3.227   8.970  0.6244  0.0530  0.4974
 9505SOL    HW139974   4.206   3.168   8.956  1.3179 -0.9767  1.0907
 9505SOL    HW239975   4.262   3.307   8.921 -1.3718 -0.9279 -0.3184
 9506SOL     OW39976   1.778   3.485   6.746  0.3611 -0.2941 -0.0443
 9506SOL    HW139977   1.779   3.506   6.840 -3.1934 -0.5859  0.0910
 9506SOL    HW239978   1.864   3.443   6.748  2.5635  4.2276 -1.6553
 9507SOL     OW39979   3.584   3.776   3.539 -0.2218  0.1849 -0.1312
 9507SOL    HW139980   3.560   3.868   3.539 -3.5595 -0.7002  1.7516
 9507SOL    HW239981   3.677   3.774   3.563  0.0035 -1.9567 -1.1446
 9508SOL     OW39982   3.146   0.374  17.579 -0.4637 -0.0519  0.4749
 9508SOL    HW139983   3.070   0.319  17.559 -0.3777  0.2849 -0.7946
 9508SOL    HW239984   3.189   0.378  17.494  0.5735 -1.2800  0.9429
 9509SOL     OW39985   0.369   3.028  12.206  0.2910  0.2000  0.1119
 9509SOL    HW139986   0.418   2.950  12.232 -1.7935 -0.6040  1.6430
 9509SOL    HW239987   0.305   2.984  12.150 -0.5995  1.6836 -0.0214
 9510SOL     OW39988   3.084   1.825   7.148 -0.2819  0.0940  1.3832
 9510SOL    HW139989   3.074   1.749   7.206  0.1778  0.9725  2.6046
 9510SOL    HW239990   3.015   1.805   7.085 -0.2509 -1.6851  1.8990
 9511SOL     OW39991   0.564   2.435   3.205 -0.4316 -0.5914 -0.0910
 9511SOL    HW139992   0.545   2.517   3.159  1.7471  0.4262  0.8427
 9511SOL    HW239993   0.496   2.376   3.171 -0.5626 -0.0337 -0.7938
 9512SOL     OW39994   4.714   3.741   4.423  0.2300 -0.6150  0.0364
 9512SOL    HW139995   0.063   3.787   4.471  0.7431 -2.3321  0.9593
 9512SOL    HW239996   4.652   3.724   4.494  0.5556  1.2114  0.7668
 9513SOL     OW39997   2.735   2.723   8.785  0.2135 -0.1940 -0.9216
 9513SOL    HW139998   2.745   2.818   8.793 -0.0044 -0.0721 -2.0733
 9513SOL    HW239999   2.672   2.721   8.713 -0.2671  1.1223 -0.5497
 9514SOL     OW40000   2.028   0.058   6.100  0.9322 -0.6181 -0.0419
 9514SOL    HW140001   2.037   0.148   6.132 -0.9504  0.0238 -1.3377
 9514SOL    HW240002   1.965   0.018   6.159 -0.2255 -1.7565 -2.0392
 9515SOL     OW40003   2.270   0.723   7.407 -0.1588  0.3571  0.8588
 9515SOL    HW140004   2.230   0.779   7.341 -2.3717  0.9772  2.7123
 9515SOL    HW240005   2.342   0.779   7.437 -0.2873  0.9261  0.1113
 9516SOL     OW40006   2.062   0.492  16.065 -0.0881  0.0794  0.0965
 9516SOL    HW140007   2.105   0.507  16.150 -0.7898 -0.7719  0.6023
 9516SOL    HW240008   1.999   0.421  16.080  0.3622 -0.0507  1.4028
 9517SOL     OW40009   3.161   0.367   8.525 -0.5659 -0.1071 -0.6683
 9517SOL    HW140010   3.120   0.318   8.597  1.9536 -2.4683 -0.8076
 9517SOL    HW240011   3.213   0.304   8.475  1.2696  0.0438  1.0364
 9518SOL     OW40012   1.853   0.120   7.590  1.0000  0.7213 -0.1683
 9518SOL    HW140013   1.819   0.193   7.539 -2.6113  0.3110  1.6514
 9518SOL    HW240014   1.865   0.166   7.673  1.3424  3.5558 -1.8000
 9519SOL     OW40015   0.175   3.064   3.810  0.1321 -0.1235  0.7414
 9519SOL    HW140016   0.139   3.120   3.879 -2.1320  0.3660 -0.8249
 9519SOL    HW240017   0.267   3.049   3.831  0.5441  1.4753  0.1620
 9520SOL     OW40018   3.888   3.089   1.863  0.4989 -0.0711  0.0983
 9520SOL    HW140019   3.858   3.030   1.932  0.1613  0.0485  0.0545
 9520SOL    HW240020   3.875   3.026   1.792  0.0621 -1.1273  1.1260
 9521SOL     OW40021   1.985   2.862  16.059  0.1131  0.2097  0.2187
 9521SOL    HW140022   1.923   2.929  16.032 -0.8722 -0.1918  1.5251
 9521SOL    HW240023   2.029   2.853  15.974  0.7735 -0.8820  0.6752
 9522SOL     OW40024   1.499   3.283   7.671 -0.4026  0.2742  0.1053
 9522SOL    HW140025   1.464   3.197   7.648 -0.0664  0.0358  0.4879
 9522SOL    HW240026   1.505   3.324   7.585  1.5587 -2.1516 -0.8938
 9523SOL     OW40027   0.836   2.331   2.329  0.0682  0.3609 -0.0407
 9523SOL    HW140028   0.912   2.294   2.283 -2.2797 -2.3932 -1.7346
 9523SOL    HW240029   0.837   2.265   2.399 -1.0027 -0.6503 -0.9732
 9524SOL     OW40030   3.476   4.424  12.448  0.0838  0.5726  0.5577
 9524SOL    HW140031   3.495   4.407  12.356 -4.4222  1.9133 -0.6235
 9524SOL    HW240032   3.565   4.448  12.474 -0.2672  1.9360  0.5101
 9525SOL     OW40033   0.296   3.016   5.556 -0.2302  0.4448  0.7443
 9525SOL    HW140034   0.272   3.062   5.637  2.0890 -0.8422  2.1582
 9525SOL    HW240035   0.222   2.962   5.528  0.4766 -1.0792  1.7899
 9526SOL     OW40036   2.452   2.185   2.325 -0.4730 -0.0028  0.0286
 9526SOL    HW140037   2.400   2.106   2.341  0.9054 -0.7996  0.5965
 9526SOL    HW240038   2.463   2.190   2.230 -2.6114 -1.7790 -0.3102
 9527SOL     OW40039   2.296   4.118   9.192  0.0245  0.4686  0.3927
 9527SOL    HW140040   2.385   4.083   9.187  0.6562  2.0426  0.3992
 9527SOL    HW240041   2.294   4.181   9.120  1.6610  0.2692  0.1732
 9528SOL     OW40042   1.681   3.338  10.506 -0.4429 -0.6526  0.6422
 9528SOL    HW140043   1.721   3.262  10.547  2.1263  0.5330  0.3456
 9528SOL    HW240044   1.609   3.301  10.455  1.3861  0.1090 -2.5371
 9529SOL     OW40045   3.481   2.153   1.462 -0.0017 -0.2195  0.5780
 9529SOL    HW140046   3.401   2.201   1.444 -0.2492 -0.4359  1.0979
 9529SOL    HW240047   3.482   2.088   1.392 -0.1429  0.2598  0.1350
 9530SOL     OW40048   4.324   1.957   5.523  0.8950  0.1007  0.3503
 9530SOL    HW140049   4.375   2.008   5.586 -1.3226  1.5692  0.9266
 9530SOL    HW240050   4.395   1.899   5.494  1.5133  1.6339 -1.1249
 9531SOL     OW40051   3.383   1.795   6.506  0.0366 -0.9262 -0.1295
 9531SOL    HW140052   3.408   1.811   6.597 -1.2876 -1.9238  0.4088
 9531SOL    HW240053   3.433   1.718   6.477  2.1043  0.5641 -0.5195
 9532SOL     OW40054   0.125   2.467   4.657 -0.1294 -0.0470  0.0819
 9532SOL    HW140055   0.158   2.437   4.572 -1.6884  0.1700 -0.6090
 9532SOL    HW240056   0.051   2.513   4.616  1.5959  3.4109  0.7890
 9533SOL     OW40057   0.171   3.214  17.536  0.4873 -0.4106 -0.1825
 9533SOL    HW140058   0.249   3.263  17.510 -1.2987  2.0860 -0.8172
 9533SOL    HW240059   0.201   3.155  17.605 -0.9303  0.7491  1.4307
 9534SOL     OW40060   3.451   4.493  13.543 -0.7926 -0.5433  0.0541
 9534SOL    HW140061   3.430   4.414  13.594 -0.5630  1.0092  2.5295
 9534SOL    HW240062   3.433   4.468  13.452  2.4513 -0.1964 -0.6923
 9535SOL     OW40063   2.521   2.705   8.037  0.0014  0.2811  0.4967
 9535SOL    HW140064   2.447   2.645   8.048  1.2864 -1.3392  0.2122
 9535SOL    HW240065   2.562   2.692   8.123  1.5842 -1.3005 -0.5147
 9536SOL     OW40066   3.281   0.241   5.733 -0.1430  0.5934  0.2558
 9536SOL    HW140067   3.355   0.257   5.674 -0.0336 -0.1829  0.1827
 9536SOL    HW240068   3.327   0.219   5.814 -1.4068  1.7648  1.2756
 9537SOL     OW40069   2.760   3.934   6.601  0.7457 -0.1118  0.1705
 9537SOL    HW140070   2.789   3.977   6.682 -1.8602 -0.1804  1.1331
 9537SOL    HW240071   2.704   3.869   6.644  1.2911 -1.0254 -0.5112
 9538SOL     OW40072   2.211   1.367   7.788  0.1258 -0.4802 -0.7483
 9538SOL    HW140073   2.177   1.424   7.719 -1.5091  0.7782  1.0710
 9538SOL    HW240074   2.306   1.372   7.784  0.0975 -1.1144 -2.2264
 9539SOL     OW40075   3.810   3.651   9.930 -0.1157  0.1557  0.2558
 9539SOL    HW140076   3.758   3.721   9.890  0.4729  1.0693  1.0826
 9539SOL    HW240077   3.763   3.612  10.004  1.1165 -1.9282 -0.0718
 9540SOL     OW40078   3.978   1.145   3.715  0.2403  0.5054 -0.6025
 9540SOL    HW140079   3.901   1.203   3.713  0.5338  0.9386  1.2459
 9540SOL    HW240080   4.007   1.177   3.800 -1.5855  1.1035 -0.2022
 9541SOL     OW40081   3.357   0.850  10.778  0.2064  0.2989  0.0221
 9541SOL    HW140082   3.303   0.852  10.699  0.9144 -0.2704 -0.4815
 9541SOL    HW240083   3.432   0.799  10.747 -0.0358  0.2967 -0.5656
 9542SOL     OW40084   2.229   1.696   7.762  0.3615 -0.0777  0.1785
 9542SOL    HW140085   2.138   1.670   7.749 -0.0943  0.8926  1.4626
 9542SOL    HW240086   2.245   1.746   7.681 -2.2721 -0.9231 -0.8767
 9543SOL     OW40087   0.221   2.904  10.373 -0.2158  0.1417 -0.6361
 9543SOL    HW140088   0.264   2.988  10.364 -3.9296  2.3466  2.2132
 9543SOL    HW240089   0.132   2.931  10.396 -0.3162  0.1566 -1.0504
 9544SOL     OW40090   1.928   0.043   6.964  0.6174  0.0538  0.1600
 9544SOL    HW140091   1.908   0.063   7.055 -0.6449  0.2862 -0.1638
 9544SOL    HW240092   1.837   0.042   6.934  0.0927 -0.9132  1.7637
 9545SOL     OW40093   2.300   2.982   3.721 -0.2359 -0.0553  0.2084
 9545SOL    HW140094   2.268   3.071   3.736  2.0485  0.6086  1.1532
 9545SOL    HW240095   2.223   2.934   3.693 -1.7271  1.4405  1.7664
 9546SOL     OW40096   3.192   2.285   8.172 -0.0830  0.2028 -0.4641
 9546SOL    HW140097   3.254   2.310   8.241 -1.2597 -0.9071  1.0126
 9546SOL    HW240098   3.147   2.207   8.206 -0.4998 -0.9978 -3.8493
 9547SOL     OW40099   2.745   0.496   3.857  0.5838  0.6369  0.2486
 9547SOL    HW140100   2.817   0.556   3.842  1.1668 -1.0194 -3.4817
 9547SOL    HW240101   2.777   0.438   3.788 -0.3157 -2.5611  2.4770
 9548SOL     OW40102   0.863   4.015   3.589  0.5671  0.4003 -0.0905
 9548SOL    HW140103   0.838   3.955   3.518 -0.0906  1.6293 -0.9051
 9548SOL    HW240104   0.929   4.058   3.535  0.9162 -0.3331 -0.2492
 9549SOL     OW40105   3.090   1.557   5.888  0.5596  0.3200  0.3885
 9549SOL    HW140106   3.042   1.608   5.822  1.1890  1.7930  1.0750
 9549SOL    HW240107   3.033   1.482   5.875  1.2681 -0.4329  1.7329
 9550SOL     OW40108   0.693   1.195   7.677 -0.9862 -0.1852  0.1334
 9550SOL    HW140109   0.687   1.287   7.650  2.5423 -0.3557 -1.2245
 9550SOL    HW240110   0.788   1.190   7.672 -1.0131 -1.6261  0.9863
 9551SOL     OW40111   4.464   1.569   3.412 -0.0820  0.3712  0.0473
 9551SOL    HW140112   4.509   1.569   3.328 -2.3653 -0.0132 -1.1728
 9551SOL    HW240113   4.438   1.661   3.411  0.9773  0.5997 -4.3555
 9552SOL     OW40114   0.577   2.803  11.849  0.0838  0.6348 -0.3601
 9552SOL    HW140115   0.556   2.742  11.920  0.9900 -0.2841 -0.8860
 9552SOL    HW240116   0.672   2.806  11.860 -0.0214  1.0417  0.4458
 9553SOL     OW40117   2.127   0.621  16.913 -0.4330 -0.1308 -0.1293
 9553SOL    HW140118   2.075   0.541  16.915  0.0861 -0.6140 -5.1727
 9553SOL    HW240119   2.202   0.593  16.861  0.3004  0.7713  0.4406
 9554SOL     OW40120   3.207   3.937   8.590 -0.2394 -0.4882 -0.6669
 9554SOL    HW140121   3.119   3.973   8.585  0.1223  0.3580 -1.0851
 9554SOL    HW240122   3.205   3.882   8.512  0.1104  0.7496 -1.5627
 9555SOL     OW40123   1.895   0.514  11.632 -1.3117  0.2691 -0.1055
 9555SOL    HW140124   1.972   0.508  11.688 -1.3754  0.7176  0.0261
 9555SOL    HW240125   1.828   0.484  11.693 -0.0571 -1.9919  0.1611
 9556SOL     OW40126   1.048   4.106   4.517  0.1679  0.1693 -0.1871
 9556SOL    HW140127   1.093   4.165   4.578  0.9682  0.3132 -0.9136
 9556SOL    HW240128   1.037   4.157   4.437  0.0088  1.2766  0.5316
 9557SOL     OW40129   3.773   4.131  10.543 -0.0429 -0.1958  0.2594
 9557SOL    HW140130   3.698   4.189  10.552  0.3324  0.3280  0.0262
 9557SOL    HW240131   3.756   4.092  10.458  0.0414  1.1331 -0.3664
 9558SOL     OW40132   4.303   2.239   7.783  0.0356 -0.1817  0.0038
 9558SOL    HW140133   4.261   2.185   7.716  0.3442 -0.0483 -0.2994
 9558SOL    HW240134   4.224   2.278   7.820  0.1734  1.0134 -0.9462
 9559SOL     OW40135   2.661   1.538   8.524 -0.0239  0.5127  0.1779
 9559SOL    HW140136   2.737   1.551   8.468  1.5219 -3.2645  1.4014
 9559SOL    HW240137   2.587   1.511   8.470 -0.8062 -0.5096  1.7712
 9560SOL     OW40138   3.246   3.178   3.106  0.3167 -0.3686  0.9825
 9560SOL    HW140139   3.165   3.154   3.062 -0.1425 -0.7556  2.0353
 9560SOL    HW240140   3.305   3.138   3.043  0.3011  0.4840  0.4192
 9561SOL     OW40141   1.688   0.613   6.190 -0.0120 -0.2503  0.0275
 9561SOL    HW140142   1.654   0.526   6.167 -0.3680 -0.0023 -0.3842
 9561SOL    HW240143   1.675   0.669   6.114 -0.9266  0.5112  0.7436
 9562SOL     OW40144   1.772   0.387  10.715 -0.2913 -0.5588  0.6933
 9562SOL    HW140145   1.866   0.381  10.732  0.0789  2.8087 -0.0881
 9562SOL    HW240146   1.742   0.386  10.806  1.4615  1.8382  1.3104
 9563SOL     OW40147   2.790   0.569   6.235 -0.2603  0.2455  0.5110
 9563SOL    HW140148   2.855   0.500   6.227  1.8452  2.2116  0.7755
 9563SOL    HW240149   2.756   0.585   6.147  2.4363 -0.1928 -0.6175
 9564SOL     OW40150   1.069   0.144   8.884  0.1324 -0.0571  0.8624
 9564SOL    HW140151   1.084   0.214   8.948 -0.0462 -0.8383  1.7493
 9564SOL    HW240152   1.137   0.154   8.817 -0.6345 -0.0461  0.0876
 9565SOL     OW40153   1.351   0.953   0.780 -0.3054 -0.0863  0.6059
 9565SOL    HW140154   1.305   1.004   0.847  0.5622  0.0117  1.1303
 9565SOL    HW240155   1.283   0.897   0.742  1.4967  0.4029 -3.3106
   4.72089   4.72089  17.68600
